 vasp.4.6.28 25Jul05 complex 
 executed on             LinuxIFC date 2016.10.19  17:31:13
 running on    8 nodes
 distr:  one band on    1 nodes,    8 groups


--------------------------------------------------------------------------------------------------------


 INCAR:
 POTCAR:   PAW_PBE Al 04Jan2001                   
 POTCAR:   PAW_PBE Al 04Jan2001                   
   VRHFIN =Al: s2p1                                                             
   LEXCH  = PE                                                                  
   EATOM  =    53.5387 eV,    3.9350 Ry                                         
                                                                                
   TITEL  = PAW_PBE Al 04Jan2001                                                
   LULTRA =        F    use ultrasoft PP ?                                      
   IUNSCR =        1    unscreen: 0-lin 1-nonlin 2-no                           
   RPACOR =    1.500    partial core radius                                     
   POMASS =   26.982; ZVAL   =    3.000    mass and valenz                      
   RCORE  =    1.900    outmost cutoff radius                                   
   RWIGS  =    2.650; RWIGS  =    1.402    wigner-seitz radius (au A)           
   ENMAX  =  240.300; ENMIN  =  180.225 eV                                      
   ICORE  =        2    local potential                                         
   LCOR   =        T    correct aug charges                                     
   LPAW   =        T    paw PP                                                  
   EAUG   =  291.052                                                            
   DEXC   =    -.041                                                            
   RMAX   =    2.974    core radius for proj-oper                               
   RAUG   =    1.300    factor for augmentation sphere                          
   RDEP   =    1.966    radius for radial grids                                 
   QCUT   =   -4.203; QGAM   =    8.405    optimization parameters              
                                                                                
   Description                                                                  
     l     E      TYP  RCUT    TYP  RCUT                                        
     0   .000     23  1.900                                                     
     0   .000     23  1.900                                                     
     1   .000     23  1.900                                                     
     1  1.000     23  1.900                                                     
     2   .000      7  1.900                                                     
  local pseudopotential read in
  partial core-charges read in
  atomic valenz-charges read in
  non local Contribution for L=           0  read in
    real space projection operators read in
  non local Contribution for L=           0  read in
    real space projection operators read in
  non local Contribution for L=           1  read in
    real space projection operators read in
  non local Contribution for L=           1  read in
    real space projection operators read in
    PAW grid and wavefunctions read in
 
   number of l-projection  operators is LMAX  =           4
   number of lm-projection operators is LMMAX =           8
 

 ----------------------------------------------------------------------------- 
|                                                                             |
|  ADVICE TO THIS USER RUNNING 'VASP/VAMP'   (HEAR YOUR MASTER'S VOICE ...):  |
|                                                                             |
|      You have a (more or less) 'large supercell' and for larger cells       |
|      it might be more efficient to use real space projection operators      |
|      So try LREAL= Auto  in the INCAR   file.                               |
|      Mind: If you want to do an extremely accurate calculations keep the    |
|      reciprocal projection scheme          (i.e. LREAL=.FALSE.)             |
|                                                                             |
 ----------------------------------------------------------------------------- 

 PAW_PBE Al 04Jan2001                   :
 energy of atom  1       EATOM=  -53.5387
 kinetic energy error for atom=    0.0003 (will be added to EATOM!!)
 
 EXHCAR: internal setup
 exchange correlation table for  LEXCH =        8
   RHO(1)=    0.500       N(1)  =     2000
   RHO(2)=  100.500       N(2)  =     4000
 
 POSCAR: Al                                      
  positions in direct lattice
  No initial velocities read in
 


--------------------------------------------------------------------------------------------------------


 ion  position               nearest neighbor table
   1  0.251  0.250  0.000-  18 2.96  22 2.96  26 2.96  28 2.96   9 2.97  11 2.97  13 2.97  15 2.97
                            25 2.98  21 2.98  27 2.98  17 2.98
   2  0.750  0.250  0.000-  10 2.97  12 2.97  14 2.97  16 2.97  17 2.97  18 2.97  21 2.97  22 2.97
                            25 2.97  26 2.97  27 2.97  28 2.97
   3  0.250  0.750  0.000-   9 2.97  11 2.97  13 2.97  15 2.97  19 2.97  20 2.97  23 2.97  24 2.97
                            25 2.97  26 2.97  27 2.97  28 2.97
   4  0.750  0.750  0.000-  10 2.97  12 2.97  14 2.97  16 2.97  19 2.97  20 2.97  23 2.97  24 2.97
                            25 2.97  26 2.97  27 2.97  28 2.97
   5  0.250  0.250  0.500-   9 2.97  11 2.97  13 2.97  15 2.97  17 2.97  18 2.97  21 2.97  22 2.97
                            29 2.97  30 2.97  31 2.97  32 2.97
   6  0.750  0.250  0.500-  10 2.97  12 2.97  14 2.97  16 2.97  17 2.97  18 2.97  21 2.97  22 2.97
                            29 2.97  30 2.97  31 2.97  32 2.97
   7  0.250  0.750  0.500-   9 2.97  11 2.97  13 2.97  15 2.97  19 2.97  20 2.97  23 2.97  24 2.97
                            29 2.97  30 2.97  31 2.97  32 2.97
   8  0.750  0.750  0.500-  10 2.97  12 2.97  14 2.97  16 2.97  19 2.97  20 2.97  23 2.97  24 2.97
                            29 2.97  30 2.97  31 2.97  32 2.97
   9  0.250  0.000  0.250-   3 2.97   5 2.97   7 2.97  17 2.97  18 2.97  19 2.97  20 2.97  25 2.97
                            26 2.97  29 2.97  30 2.97   1 2.97
  10  0.750  0.000  0.250-   2 2.97   4 2.97   6 2.97   8 2.97  17 2.97  18 2.97  19 2.97  20 2.97
                            25 2.97  26 2.97  29 2.97  30 2.97
  11  0.250  0.500  0.250-   3 2.97   5 2.97   7 2.97  17 2.97  18 2.97  19 2.97  20 2.97  27 2.97
                            28 2.97  31 2.97  32 2.97   1 2.97
  12  0.750  0.500  0.250-   2 2.97   4 2.97   6 2.97   8 2.97  17 2.97  18 2.97  19 2.97  20 2.97
                            27 2.97  28 2.97  31 2.97  32 2.97
  13  0.250  0.000  0.750-   3 2.97   5 2.97   7 2.97  21 2.97  22 2.97  23 2.97  24 2.97  25 2.97
                            26 2.97  29 2.97  30 2.97   1 2.97
  14  0.750  0.000  0.750-   2 2.97   4 2.97   6 2.97   8 2.97  21 2.97  22 2.97  23 2.97  24 2.97
                            25 2.97  26 2.97  29 2.97  30 2.97
  15  0.250  0.500  0.750-   3 2.97   5 2.97   7 2.97  21 2.97  22 2.97  23 2.97  24 2.97  27 2.97
                            28 2.97  31 2.97  32 2.97   1 2.97
  16  0.750  0.500  0.750-   2 2.97   4 2.97   6 2.97   8 2.97  21 2.97  22 2.97  23 2.97  24 2.97
                            27 2.97  28 2.97  31 2.97  32 2.97
  17  0.000  0.250  0.250-   2 2.97   5 2.97   6 2.97   9 2.97  10 2.97  11 2.97  12 2.97  25 2.97
                            27 2.97  29 2.97  31 2.97   1 2.98
  18  0.500  0.250  0.250-   1 2.96   2 2.97   5 2.97   6 2.97   9 2.97  10 2.97  11 2.97  12 2.97
                            26 2.97  28 2.97  30 2.97  32 2.97
  19  0.000  0.750  0.250-   3 2.97   4 2.97   7 2.97   8 2.97   9 2.97  10 2.97  11 2.97  12 2.97
                            25 2.97  27 2.97  29 2.97  31 2.97
  20  0.500  0.750  0.250-   3 2.97   4 2.97   7 2.97   8 2.97   9 2.97  10 2.97  11 2.97  12 2.97
                            26 2.97  28 2.97  30 2.97  32 2.97
  21  0.000  0.250  0.750-   2 2.97   5 2.97   6 2.97  13 2.97  14 2.97  15 2.97  16 2.97  25 2.97
                            27 2.97  29 2.97  31 2.97   1 2.98
  22  0.500  0.250  0.750-   1 2.96   2 2.97   5 2.97   6 2.97  13 2.97  14 2.97  15 2.97  16 2.97
                            26 2.97  28 2.97  30 2.97  32 2.97
  23  0.000  0.750  0.750-   3 2.97   4 2.97   7 2.97   8 2.97  13 2.97  14 2.97  15 2.97  16 2.97
                            25 2.97  27 2.97  29 2.97  31 2.97
  24  0.500  0.750  0.750-   3 2.97   4 2.97   7 2.97   8 2.97  13 2.97  14 2.97  15 2.97  16 2.97
                            26 2.97  28 2.97  30 2.97  32 2.97
  25  0.000  0.000  0.000-   2 2.97   3 2.97   4 2.97   9 2.97  10 2.97  13 2.97  14 2.97  17 2.97
                            19 2.97  21 2.97  23 2.97   1 2.98
  26  0.500  0.000  0.000-   1 2.96   2 2.97   3 2.97   4 2.97   9 2.97  10 2.97  13 2.97  14 2.97
                            18 2.97  20 2.97  22 2.97  24 2.97
  27  0.000  0.500  0.000-   2 2.97   3 2.97   4 2.97  11 2.97  12 2.97  15 2.97  16 2.97  17 2.97
                            19 2.97  21 2.97  23 2.97   1 2.98
  28  0.500  0.500  0.000-   1 2.96   2 2.97   3 2.97   4 2.97  11 2.97  12 2.97  15 2.97  16 2.97
                            18 2.97  20 2.97  22 2.97  24 2.97
  29  0.000  0.000  0.500-   5 2.97   6 2.97   7 2.97   8 2.97   9 2.97  10 2.97  13 2.97  14 2.97
                            17 2.97  19 2.97  21 2.97  23 2.97
  30  0.500  0.000  0.500-   5 2.97   6 2.97   7 2.97   8 2.97   9 2.97  10 2.97  13 2.97  14 2.97
                            18 2.97  20 2.97  22 2.97  24 2.97
  31  0.000  0.500  0.500-   5 2.97   6 2.97   7 2.97   8 2.97  11 2.97  12 2.97  15 2.97  16 2.97
                            17 2.97  19 2.97  21 2.97  23 2.97
  32  0.500  0.500  0.500-   5 2.97   6 2.97   7 2.97   8 2.97  11 2.97  12 2.97  15 2.97  16 2.97
                            18 2.97  20 2.97  22 2.97  24 2.97
 
  LATTYP: Found a simple cubic cell.
 ALAT       =     8.3975972489
  
  Lattice vectors:
  
 A1 = (   8.3975972489,   0.0000000000,   0.0000000000)
 A2 = (   0.0000000000,   8.3975972489,   0.0000000000)
 A3 = (   0.0000000000,   0.0000000000,   8.3975972489)
 Subroutine PRICEL returns:
 Original cell was already a primitive cell.
 

Analysis of symmetry for initial positions (statically):

 Routine SETGRP: Setting up the symmetry group for a 
 simple cubic supercell.


 Subroutine GETGRP returns: Found  8 space group operations
 (whereof  2 operations were pure point group operations)
 out of a pool of 48 trial point group operations.


The static configuration has the point symmetry C_1h.
 The point group associated with its full space group is C_4v.

Analysis of symmetry for dynamics (positions and initial velocities):

 Subroutine DYNSYM returns: Found  8 space group operations
 (whereof  2 operations were pure point group operations)
 out of a pool of  8 trial space group operations
 (whereof  2 operations were pure point group operations)
 and found also     1 'primitive' translations


The dynamic configuration has the point symmetry C_1h.
 The point group associated with its full space group is C_4v.
 
 
 KPOINTS: Automatic mesh                          

Automatic generation of k-mesh.
 generate k-points for:   6   6   6
 
 Subroutine IBZKPT returns following result:
 ===========================================
 
 Found     40 irreducible k-points:
 
 Following reciprocal coordinates:
            Coordinates               Weight
  0.000000  0.000000  0.000000      1.000000
  0.166667  0.000000  0.000000      2.000000
  0.333333  0.000000  0.000000      2.000000
  0.500000  0.000000  0.000000      1.000000
  0.000000  0.166667  0.000000      4.000000
  0.166667  0.166667  0.000000      8.000000
  0.333333  0.166667  0.000000      8.000000
  0.500000  0.166667  0.000000      4.000000
  0.000000  0.333333  0.000000      4.000000
  0.166667  0.333333  0.000000      8.000000
  0.333333  0.333333  0.000000      8.000000
  0.500000  0.333333  0.000000      4.000000
  0.000000  0.500000  0.000000      2.000000
  0.166667  0.500000  0.000000      4.000000
  0.333333  0.500000  0.000000      4.000000
  0.500000  0.500000  0.000000      2.000000
  0.000000  0.166667  0.166667      4.000000
  0.166667  0.166667  0.166667      8.000000
  0.333333  0.166667  0.166667      8.000000
  0.500000  0.166667  0.166667      4.000000
  0.000000  0.333333  0.166667      8.000000
  0.166667  0.333333  0.166667     16.000000
  0.333333  0.333333  0.166667     16.000000
  0.500000  0.333333  0.166667      8.000000
  0.000000  0.500000  0.166667      4.000000
  0.166667  0.500000  0.166667      8.000000
  0.333333  0.500000  0.166667      8.000000
  0.500000  0.500000  0.166667      4.000000
  0.000000  0.333333  0.333333      4.000000
  0.166667  0.333333  0.333333      8.000000
  0.333333  0.333333  0.333333      8.000000
  0.500000  0.333333  0.333333      4.000000
  0.000000  0.500000  0.333333      4.000000
  0.166667  0.500000  0.333333      8.000000
  0.333333  0.500000  0.333333      8.000000
  0.500000  0.500000  0.333333      4.000000
  0.000000  0.500000  0.500000      1.000000
  0.166667  0.500000  0.500000      2.000000
  0.333333  0.500000  0.500000      2.000000
  0.500000  0.500000  0.500000      1.000000
 
 Following cartesian coordinates:
            Coordinates               Weight
  0.000000  0.000000  0.000000      1.000000
  0.019847  0.000000  0.000000      2.000000
  0.039694  0.000000  0.000000      2.000000
  0.059541  0.000000  0.000000      1.000000
  0.000000  0.019847  0.000000      4.000000
  0.019847  0.019847  0.000000      8.000000
  0.039694  0.019847  0.000000      8.000000
  0.059541  0.019847  0.000000      4.000000
  0.000000  0.039694  0.000000      4.000000
  0.019847  0.039694  0.000000      8.000000
  0.039694  0.039694  0.000000      8.000000
  0.059541  0.039694  0.000000      4.000000
  0.000000  0.059541  0.000000      2.000000
  0.019847  0.059541  0.000000      4.000000
  0.039694  0.059541  0.000000      4.000000
  0.059541  0.059541  0.000000      2.000000
  0.000000  0.019847  0.019847      4.000000
  0.019847  0.019847  0.019847      8.000000
  0.039694  0.019847  0.019847      8.000000
  0.059541  0.019847  0.019847      4.000000
  0.000000  0.039694  0.019847      8.000000
  0.019847  0.039694  0.019847     16.000000
  0.039694  0.039694  0.019847     16.000000
  0.059541  0.039694  0.019847      8.000000
  0.000000  0.059541  0.019847      4.000000
  0.019847  0.059541  0.019847      8.000000
  0.039694  0.059541  0.019847      8.000000
  0.059541  0.059541  0.019847      4.000000
  0.000000  0.039694  0.039694      4.000000
  0.019847  0.039694  0.039694      8.000000
  0.039694  0.039694  0.039694      8.000000
  0.059541  0.039694  0.039694      4.000000
  0.000000  0.059541  0.039694      4.000000
  0.019847  0.059541  0.039694      8.000000
  0.039694  0.059541  0.039694      8.000000
  0.059541  0.059541  0.039694      4.000000
  0.000000  0.059541  0.059541      1.000000
  0.019847  0.059541  0.059541      2.000000
  0.039694  0.059541  0.059541      2.000000
  0.059541  0.059541  0.059541      1.000000
 


--------------------------------------------------------------------------------------------------------




 Dimension of arrays:
   k-Points           NKPTS =     40   number of bands    NBANDS=     72
   number of dos      NEDOS =    301   number of ions     NIONS =     32
   non local maximal  LDIM  =      4   non local SUM 2l+1 LMDIM =      8
   total plane-waves  NPLWV = 262144
   max r-space proj   IRMAX =      1   max aug-charges    IRDMAX=  17426
   dimension x,y,z NGX =    64 NGY =   64 NGZ =   64
   dimension x,y,z NGXF=   128 NGYF=  128 NGZF=  128
   support grid    NGXF=   128 NGYF=  128 NGZF=  128
   ions per type =              32
 NGX,Y,Z   is equivalent  to a cutoff of  12.67, 12.67, 12.67 a.u.
 NGXF,Y,Z  is equivalent  to a cutoff of  25.34, 25.34, 25.34 a.u.


 I would recommend the setting:
   dimension x,y,z NGX =    61 NGY =   61 NGZ =   61
 SYSTEM =  unknown system                          
 POSCAR =  Al                                      

 Startparameter for this run:
   NWRITE =      2    write-flag & timer
   PREC   = accura    medium, high low
   ISTART =      0    job   : 0-new  1-cont  2-samecut
   ICHARG =      2    charge: 1-file 2-atom 10-const
   ISPIN  =      1    spin polarized calculation?
   LNONCOLLINEAR =      F non collinear calculations
   LSORBIT =      F    spin-orbit coupling
   INIWAV =      1    electr: 0-lowe 1-rand  2-diag
   LASPH  =      F    aspherical Exc in radial PAW
   METAGGA=      F    non-selfconsistent MetaGGA calc.

 Electronic Relaxation 1
   ENCUT  =  500.0 eV  36.75 Ry    6.06 a.u.  15.31 15.31 15.31*2*pi/ulx,y,z
   ENINI  =  500.0     initial cutoff
   ENAUG  =  291.1 eV  augmentation charge cutoff
   NELM   =     60;   NELMIN=  2; NELMDL=  0     # of ELM steps 
   EDIFF  = 0.1E-07   stopping-criterion for ELM
   LREAL  =      F    real-space projection
   LCOMPAT=      F    compatible to vasp.4.4
   LREAL_COMPAT= F    compatible to vasp.4.5.1-3
   GGA_COMPAT  = T    GGA compatible to vasp.4.4-vasp.4.6
   LMAXPAW     = -100 max onsite density
   LMAXMIX     =    2 max onsite mixed and CHGCAR
   VOSKOWN=      0    Vosko Wilk Nusair interpolation
   ROPT   =    0.00000
 Ionic relaxation
   EDIFFG = 0.1E-06   stopping-criterion for IOM
   NSW    =      0    number of steps for IOM
   NBLOCK =      1;   KBLOCK =      1    inner block; outer block 
   IBRION =     -1    ionic relax: 0-MD 1-quasi-New 2-CG
   NFREE  =      0    steps in history (QN), initial steepest desc. (CG)
   ISIF   =      2    stress and relaxation
   IWAVPR =     10    prediction:  0-non 1-charg 2-wave 3-comb
   ISYM   =      2    0-nonsym 1-usesym 2-fastsym
   LCORR  =      T    Harris-Foulkes like correction to forces

   POTIM  =   0.50    time-step for ionic-motion
   TEIN   =    0.0    initial temperature
   TEBEG  =    0.0;   TEEND  =   0.0 temperature during run
   SMASS  =  -3.00    Nose mass-parameter (am)
   estimated Nose-frequenzy (Omega)   =  0.10E-29 period in steps =****** mass=  -0.161E-26a.u.
   NPACO  =    256;   APACO  = 16.0  distance and # of slots for P.C.
   PSTRESS=    0.0 pullay stress

  Mass of Ions in am
   POMASS =  26.98
  Ionic Valenz
   ZVAL   =   3.00
  Atomic Wigner-Seitz radii
   RWIGS  =  -1.00
   NELECT =      96.0000    total number of electrons
   NUPDOWN=      -1.0000    fix difference up-down

 DOS related values:
   EMIN   =  10.00;   EMAX   =-10.00  energy-range for DOS
   ISMEAR =     0;   SIGMA  =   0.01  broadening in eV -4-tet -1-fermi 0-gaus

 Electronic relaxation 2 (details)
   IALGO  =     38    algorithm
   LDIAG  =      T    sub-space diagonalisation
   IMIX   =      4    mixing-type and parameters
     AMIX     =   0.40;   BMIX     =  1.00
     AMIX_MAG =   1.60;   BMIX_MAG =  1.00
     AMIN     =   0.10
     WC   =   100.;   INIMIX=   1;  MIXPRE=   1

 Intra band minimization:
   WEIMIN = 0.0000     energy-eigenvalue tresh-hold
   EBREAK =  0.38E-10  absolut break condition
   DEPER  =   0.30     relativ break condition  

   TIME   =   0.10     timestep for ELM

  volume/ion in A,a.u.               =      18.51       124.89
  Fermi-wavevector in a.u.,eV,Ry     =   0.892641 10.841232  0.796808

 Second variation
   LSECVAR=     F    do a second variation
 
 Write flags
   LWAVE  =      F    write WAVECAR
   LCHARG =      F    write CHGCAR
   LVTOT  =      F    write LOCPOT, local potential
   LELF   =      F    write electronic localiz. function (ELF)
   LORBIT =      0    0 simple, 1 ext, 2 COOP (PROOUT)


 Dipole corrections
   IDIPOL =      0    1-x, 2-y, 3-z
   LDIPOL =      F    correct potential



--------------------------------------------------------------------------------------------------------


 Static calculation
 charge density will be updated during run
 non-spin polarized calculation
 Variant of blocked Davidson
 Davidson routine will perform the subspace rotation
 performe sub-space diagonalisation
    after iterative eigenvector-optimisation
 modified Broyden-mixing scheme, WC =      100.0
 initial mixing is a Kerker type mixing with AMIX =  0.4000 and BMIX =      1.0000
 Hartree-type preconditioning will be used
 using additional bands           24
 reciprocal scheme for non local part
 use partial core corrections
 calculate Harris-corrections to forces 
   (improved forces if not selfconsistent)
 use gradient corrections 
 use of overlap-Matrix (Vanderbilt PP)
 Gauss-broadening in eV      SIGMA  =   0.01


--------------------------------------------------------------------------------------------------------


  energy-cutoff  :      500.00
  volume of cell :      592.20
      direct lattice vectors                 reciprocal lattice vectors
     8.397597249  0.000000000  0.000000000     0.119081681  0.000000000  0.000000000
     0.000000000  8.397597249  0.000000000     0.000000000  0.119081681  0.000000000
     0.000000000  0.000000000  8.397597249     0.000000000  0.000000000  0.119081681

  length of vectors
     8.397597249  8.397597249  8.397597249     0.119081681  0.119081681  0.119081681


 
 k-points in units of 2pi/SCALE and weight: Automatic mesh                          
   0.00000000  0.00000000  0.00000000       0.005
   0.01984695  0.00000000  0.00000000       0.009
   0.03969389  0.00000000  0.00000000       0.009
   0.05954084  0.00000000  0.00000000       0.005
   0.00000000  0.01984695  0.00000000       0.019
   0.01984695  0.01984695  0.00000000       0.037
   0.03969389  0.01984695  0.00000000       0.037
   0.05954084  0.01984695  0.00000000       0.019
   0.00000000  0.03969389  0.00000000       0.019
   0.01984695  0.03969389  0.00000000       0.037
   0.03969389  0.03969389  0.00000000       0.037
   0.05954084  0.03969389  0.00000000       0.019
   0.00000000  0.05954084  0.00000000       0.009
   0.01984695  0.05954084  0.00000000       0.019
   0.03969389  0.05954084  0.00000000       0.019
   0.05954084  0.05954084  0.00000000       0.009
   0.00000000  0.01984695  0.01984695       0.019
   0.01984695  0.01984695  0.01984695       0.037
   0.03969389  0.01984695  0.01984695       0.037
   0.05954084  0.01984695  0.01984695       0.019
   0.00000000  0.03969389  0.01984695       0.037
   0.01984695  0.03969389  0.01984695       0.074
   0.03969389  0.03969389  0.01984695       0.074
   0.05954084  0.03969389  0.01984695       0.037
   0.00000000  0.05954084  0.01984695       0.019
   0.01984695  0.05954084  0.01984695       0.037
   0.03969389  0.05954084  0.01984695       0.037
   0.05954084  0.05954084  0.01984695       0.019
   0.00000000  0.03969389  0.03969389       0.019
   0.01984695  0.03969389  0.03969389       0.037
   0.03969389  0.03969389  0.03969389       0.037
   0.05954084  0.03969389  0.03969389       0.019
   0.00000000  0.05954084  0.03969389       0.019
   0.01984695  0.05954084  0.03969389       0.037
   0.03969389  0.05954084  0.03969389       0.037
   0.05954084  0.05954084  0.03969389       0.019
   0.00000000  0.05954084  0.05954084       0.005
   0.01984695  0.05954084  0.05954084       0.009
   0.03969389  0.05954084  0.05954084       0.009
   0.05954084  0.05954084  0.05954084       0.005
 
 k-points in reciprocal lattice and weights: Automatic mesh                          
   0.00000000  0.00000000  0.00000000       0.005
   0.16666667  0.00000000  0.00000000       0.009
   0.33333333  0.00000000  0.00000000       0.009
   0.50000000  0.00000000  0.00000000       0.005
   0.00000000  0.16666667  0.00000000       0.019
   0.16666667  0.16666667  0.00000000       0.037
   0.33333333  0.16666667  0.00000000       0.037
   0.50000000  0.16666667  0.00000000       0.019
   0.00000000  0.33333333  0.00000000       0.019
   0.16666667  0.33333333  0.00000000       0.037
   0.33333333  0.33333333  0.00000000       0.037
   0.50000000  0.33333333  0.00000000       0.019
   0.00000000  0.50000000  0.00000000       0.009
   0.16666667  0.50000000  0.00000000       0.019
   0.33333333  0.50000000  0.00000000       0.019
   0.50000000  0.50000000  0.00000000       0.009
   0.00000000  0.16666667  0.16666667       0.019
   0.16666667  0.16666667  0.16666667       0.037
   0.33333333  0.16666667  0.16666667       0.037
   0.50000000  0.16666667  0.16666667       0.019
   0.00000000  0.33333333  0.16666667       0.037
   0.16666667  0.33333333  0.16666667       0.074
   0.33333333  0.33333333  0.16666667       0.074
   0.50000000  0.33333333  0.16666667       0.037
   0.00000000  0.50000000  0.16666667       0.019
   0.16666667  0.50000000  0.16666667       0.037
   0.33333333  0.50000000  0.16666667       0.037
   0.50000000  0.50000000  0.16666667       0.019
   0.00000000  0.33333333  0.33333333       0.019
   0.16666667  0.33333333  0.33333333       0.037
   0.33333333  0.33333333  0.33333333       0.037
   0.50000000  0.33333333  0.33333333       0.019
   0.00000000  0.50000000  0.33333333       0.019
   0.16666667  0.50000000  0.33333333       0.037
   0.33333333  0.50000000  0.33333333       0.037
   0.50000000  0.50000000  0.33333333       0.019
   0.00000000  0.50000000  0.50000000       0.005
   0.16666667  0.50000000  0.50000000       0.009
   0.33333333  0.50000000  0.50000000       0.009
   0.50000000  0.50000000  0.50000000       0.005
 
 position of ions in fractional coordinates (direct lattice) 
   0.25119082  0.25000000  0.00000000
   0.75000000  0.25000000  0.00000000
   0.25000000  0.75000000  0.00000000
   0.75000000  0.75000000  0.00000000
   0.25000000  0.25000000  0.50000000
   0.75000000  0.25000000  0.50000000
   0.25000000  0.75000000  0.50000000
   0.75000000  0.75000000  0.50000000
   0.25000000  0.00000000  0.25000000
   0.75000000  0.00000000  0.25000000
   0.25000000  0.50000000  0.25000000
   0.75000000  0.50000000  0.25000000
   0.25000000  0.00000000  0.75000000
   0.75000000  0.00000000  0.75000000
   0.25000000  0.50000000  0.75000000
   0.75000000  0.50000000  0.75000000
   0.00000000  0.25000000  0.25000000
   0.50000000  0.25000000  0.25000000
   0.00000000  0.75000000  0.25000000
   0.50000000  0.75000000  0.25000000
   0.00000000  0.25000000  0.75000000
   0.50000000  0.25000000  0.75000000
   0.00000000  0.75000000  0.75000000
   0.50000000  0.75000000  0.75000000
   0.00000000  0.00000000  0.00000000
   0.50000000  0.00000000  0.00000000
   0.00000000  0.50000000  0.00000000
   0.50000000  0.50000000  0.00000000
   0.00000000  0.00000000  0.50000000
   0.50000000  0.00000000  0.50000000
   0.00000000  0.50000000  0.50000000
   0.50000000  0.50000000  0.50000000
 
 position of ions in cartesian coordinates  (Angst):
   2.10939931  2.09939931  0.00000000
   6.29819794  2.09939931  0.00000000
   2.09939931  6.29819794  0.00000000
   6.29819794  6.29819794  0.00000000
   2.09939931  2.09939931  4.19879862
   6.29819794  2.09939931  4.19879862
   2.09939931  6.29819794  4.19879862
   6.29819794  6.29819794  4.19879862
   2.09939931  0.00000000  2.09939931
   6.29819794  0.00000000  2.09939931
   2.09939931  4.19879862  2.09939931
   6.29819794  4.19879862  2.09939931
   2.09939931  0.00000000  6.29819794
   6.29819794  0.00000000  6.29819794
   2.09939931  4.19879862  6.29819794
   6.29819794  4.19879862  6.29819794
   0.00000000  2.09939931  2.09939931
   4.19879862  2.09939931  2.09939931
   0.00000000  6.29819794  2.09939931
   4.19879862  6.29819794  2.09939931
   0.00000000  2.09939931  6.29819794
   4.19879862  2.09939931  6.29819794
   0.00000000  6.29819794  6.29819794
   4.19879862  6.29819794  6.29819794
   0.00000000  0.00000000  0.00000000
   4.19879862  0.00000000  0.00000000
   0.00000000  4.19879862  0.00000000
   4.19879862  4.19879862  0.00000000
   0.00000000  0.00000000  4.19879862
   4.19879862  0.00000000  4.19879862
   0.00000000  4.19879862  4.19879862
   4.19879862  4.19879862  4.19879862
 


--------------------------------------------------------------------------------------------------------


 k-point  1 :  0.00000.00000.0000  plane waves:  15155
 k-point  2 :  0.16670.00000.0000  plane waves:  15087
 k-point  3 :  0.33330.00000.0000  plane waves:  15022
 k-point  4 :  0.50000.00000.0000  plane waves:  15006
 k-point  5 :  0.00000.16670.0000  plane waves:  15087
 k-point  6 :  0.16670.16670.0000  plane waves:  15055
 k-point  7 :  0.33330.16670.0000  plane waves:  15012
 k-point  8 :  0.50000.16670.0000  plane waves:  15034
 k-point  9 :  0.00000.33330.0000  plane waves:  15022
 k-point 10 :  0.16670.33330.0000  plane waves:  15012
 k-point 11 :  0.33330.33330.0000  plane waves:  15018
 k-point 12 :  0.50000.33330.0000  plane waves:  15048
 k-point 13 :  0.00000.50000.0000  plane waves:  15006
 k-point 14 :  0.16670.50000.0000  plane waves:  15034
 k-point 15 :  0.33330.50000.0000  plane waves:  15048
 k-point 16 :  0.50000.50000.0000  plane waves:  15036
 k-point 17 :  0.00000.16670.1667  plane waves:  15055
 k-point 18 :  0.16670.16670.1667  plane waves:  15027
 k-point 19 :  0.33330.16670.1667  plane waves:  15026
 k-point 20 :  0.50000.16670.1667  plane waves:  15044
 k-point 21 :  0.00000.33330.1667  plane waves:  15012
 k-point 22 :  0.16670.33330.1667  plane waves:  15026
 k-point 23 :  0.33330.33330.1667  plane waves:  15035
 k-point 24 :  0.50000.33330.1667  plane waves:  15048
 k-point 25 :  0.00000.50000.1667  plane waves:  15034
 k-point 26 :  0.16670.50000.1667  plane waves:  15044
 k-point 27 :  0.33330.50000.1667  plane waves:  15048
 k-point 28 :  0.50000.50000.1667  plane waves:  15020
 k-point 29 :  0.00000.33330.3333  plane waves:  15018
 k-point 30 :  0.16670.33330.3333  plane waves:  15035
 k-point 31 :  0.33330.33330.3333  plane waves:  15057
 k-point 32 :  0.50000.33330.3333  plane waves:  15006
 k-point 33 :  0.00000.50000.3333  plane waves:  15048
 k-point 34 :  0.16670.50000.3333  plane waves:  15048
 k-point 35 :  0.33330.50000.3333  plane waves:  15006
 k-point 36 :  0.50000.50000.3333  plane waves:  15052
 k-point 37 :  0.00000.50000.5000  plane waves:  15036
 k-point 38 :  0.16670.50000.5000  plane waves:  15020
 k-point 39 :  0.33330.50000.5000  plane waves:  15052
 k-point 40 :  0.50000.50000.5000  plane waves:  15000

 maximum and minimum number of plane-waves per node :  15155 15000

 maximum number of plane-waves:  15155
 maximal index in each direction: 
   IXMAX= 15   IYMAX= 15   IZMAX= 15
   IXMIN=-15   IYMIN=-15   IZMIN=-15

 NGX is ok and might be reduce to  62
 NGY is ok and might be reduce to  62
 NGZ is ok and might be reduce to  62

 parallel 3dFFT wavefunction:
    minimum data exchange during FFTs selected (reduces bandwidth)
 parallel 3dFFT charge:
    minimum data exchange during FFTs selected (reduces bandwidth)

 For storing wavefunctions  692.90 MBYTES are necessary
 For predicting wavefunctions   38.63 MBYTES are necessary
Broyden mixing: mesh for mixing (old mesh)
   NGX = 31   NGY = 31   NGZ = 31
  (NGX  =128   NGY  =128   NGZ  =128)
 gives a total of  29791 points
 initial charge density was supplied:
 charge density of overlapping atoms calculated
 number of electron   96.0000000 magnetization 
 keeping initial charge density in first step


--------------------------------------------------------------------------------------------------------


 Maximum index for augmentation-charges         1980 (set IRDMAX)


--------------------------------------------------------------------------------------------------------


 First call to EWALD:  gamma=   0.211
 Maximum number of real-space cells 3x 3x 3
 Maximum number of reciprocal cells 3x 3x 3

    FEWALD:  VPU time    0.00: CPU time    0.01


----------------------------------------- Iteration    1(   1)  ---------------------------------------


    POTLOK:  VPU time    0.16: CPU time    0.16
    SETDIJ:  VPU time    0.01: CPU time    0.01
    EDDAV :  VPU time   20.59: CPU time   20.60
    DOS   :  VPU time    0.00: CPU time   -0.00
    ------------------------------------------
      LOOP:  VPU time   20.76: CPU time   20.77

 eigenvalue-minimisations  :  5760
 total energy-change (2. order) : 0.1081285E+03  (-0.3186617E+04)
 number of electron   96.0000000 magnetization 
 augmentation part    96.0000000 magnetization 

 Free energy of the ion-electron system (eV)
  ---------------------------------------------------
  alpha Z        PSCENC =        -5.80791868
  Ewald energy   TEWEN  =     -2264.22495736
  -1/2 Hartree   DENC   =        -5.08689961
  -V(xc)+E(xc)   XCENC  =      -846.12864639
  PAW double counting   =      1137.73615723     -115.16745734
  entropy T*S    EENTRO =        -0.00072797
  eigenvalues    EBANDS =       493.57981193
  atomic energy  EATOM  =      1713.22913220
  ---------------------------------------------------
  free energy    TOTEN  =       108.12849400 eV

  energy without entropy =      108.12922198  energy(sigma->0) =      108.12885799


--------------------------------------------------------------------------------------------------------




----------------------------------------- Iteration    1(   2)  ---------------------------------------


    EDDAV :  VPU time   23.29: CPU time   23.29
    DOS   :  VPU time    0.00: CPU time   -0.00
    ------------------------------------------
      LOOP:  VPU time   23.29: CPU time   23.29

 eigenvalue-minimisations  :  6776
 total energy-change (2. order) :-0.2141915E+03  (-0.1985621E+03)
 number of electron   96.0000000 magnetization 
 augmentation part    96.0000000 magnetization 

 Free energy of the ion-electron system (eV)
  ---------------------------------------------------
  alpha Z        PSCENC =        -5.80791868
  Ewald energy   TEWEN  =     -2264.22495736
  -1/2 Hartree   DENC   =        -5.08689961
  -V(xc)+E(xc)   XCENC  =      -846.12864639
  PAW double counting   =      1137.73615723     -115.16745734
  entropy T*S    EENTRO =        -0.00057990
  eigenvalues    EBANDS =       279.38817801
  atomic energy  EATOM  =      1713.22913220
  ---------------------------------------------------
  free energy    TOTEN  =      -106.06299185 eV

  energy without entropy =     -106.06241195  energy(sigma->0) =     -106.06270190


--------------------------------------------------------------------------------------------------------




----------------------------------------- Iteration    1(   3)  ---------------------------------------


    EDDAV :  VPU time   24.55: CPU time   24.56
    DOS   :  VPU time    0.00: CPU time   -0.00
    ------------------------------------------
      LOOP:  VPU time   24.56: CPU time   24.57

 eigenvalue-minimisations  :  7200
 total energy-change (2. order) :-0.1258826E+02  (-0.1196848E+02)
 number of electron   96.0000000 magnetization 
 augmentation part    96.0000000 magnetization 

 Free energy of the ion-electron system (eV)
  ---------------------------------------------------
  alpha Z        PSCENC =        -5.80791868
  Ewald energy   TEWEN  =     -2264.22495736
  -1/2 Hartree   DENC   =        -5.08689961
  -V(xc)+E(xc)   XCENC  =      -846.12864639
  PAW double counting   =      1137.73615723     -115.16745734
  entropy T*S    EENTRO =        -0.00106753
  eigenvalues    EBANDS =       266.80040198
  atomic energy  EATOM  =      1713.22913220
  ---------------------------------------------------
  free energy    TOTEN  =      -118.65125551 eV

  energy without entropy =     -118.65018798  energy(sigma->0) =     -118.65072175


--------------------------------------------------------------------------------------------------------




----------------------------------------- Iteration    1(   4)  ---------------------------------------


    EDDAV :  VPU time   23.30: CPU time   23.30
    DOS   :  VPU time   -0.00: CPU time   -0.00
    ------------------------------------------
      LOOP:  VPU time   23.31: CPU time   23.30

 eigenvalue-minimisations  :  6704
 total energy-change (2. order) :-0.2550843E+00  (-0.2525977E+00)
 number of electron   96.0000000 magnetization 
 augmentation part    96.0000000 magnetization 

 Free energy of the ion-electron system (eV)
  ---------------------------------------------------
  alpha Z        PSCENC =        -5.80791868
  Ewald energy   TEWEN  =     -2264.22495736
  -1/2 Hartree   DENC   =        -5.08689961
  -V(xc)+E(xc)   XCENC  =      -846.12864639
  PAW double counting   =      1137.73615723     -115.16745734
  entropy T*S    EENTRO =        -0.00110002
  eigenvalues    EBANDS =       266.54535012
  atomic energy  EATOM  =      1713.22913220
  ---------------------------------------------------
  free energy    TOTEN  =      -118.90633986 eV

  energy without entropy =     -118.90523983  energy(sigma->0) =     -118.90578985


--------------------------------------------------------------------------------------------------------




----------------------------------------- Iteration    1(   5)  ---------------------------------------


    EDDAV :  VPU time   23.33: CPU time   23.32
    DOS   :  VPU time    0.00: CPU time   -0.00
    CHARGE:  VPU time    0.90: CPU time    0.90
    MIXING:  VPU time    0.00: CPU time    0.00
    ------------------------------------------
      LOOP:  VPU time   24.24: CPU time   24.23

 eigenvalue-minimisations  :  6744
 total energy-change (2. order) :-0.3147883E-02  (-0.3146455E-02)
 number of electron   96.0000002 magnetization 
 augmentation part    -1.2742410 magnetization 

 Broyden mixing:
  rms(total) = 0.49944E+00    rms(broyden)= 0.49944E+00
  rms(prec ) = 0.72894E+00
  weight for this iteration     100.00

 Free energy of the ion-electron system (eV)
  ---------------------------------------------------
  alpha Z        PSCENC =        -5.80791868
  Ewald energy   TEWEN  =     -2264.22495736
  -1/2 Hartree   DENC   =        -5.08689961
  -V(xc)+E(xc)   XCENC  =      -846.12864639
  PAW double counting   =      1137.73615723     -115.16745734
  entropy T*S    EENTRO =        -0.00109805
  eigenvalues    EBANDS =       266.54220027
  atomic energy  EATOM  =      1713.22913220
  ---------------------------------------------------
  free energy    TOTEN  =      -118.90948774 eV

  energy without entropy =     -118.90838969  energy(sigma->0) =     -118.90893871


--------------------------------------------------------------------------------------------------------




----------------------------------------- Iteration    1(   6)  ---------------------------------------


    POTLOK:  VPU time    0.15: CPU time    0.15
    SETDIJ:  VPU time    0.01: CPU time    0.01
    EDDAV :  VPU time   22.63: CPU time   22.63
    DOS   :  VPU time    0.00: CPU time   -0.00
    CHARGE:  VPU time    0.88: CPU time    0.88
    MIXING:  VPU time    0.00: CPU time    0.00
    ------------------------------------------
      LOOP:  VPU time   23.68: CPU time   23.68

 eigenvalue-minimisations  :  6584
 total energy-change (2. order) : 0.3931768E+00  (-0.6788661E-02)
 number of electron   96.0000002 magnetization 
 augmentation part    -1.2948150 magnetization 

 Broyden mixing:
  rms(total) = 0.30947E+00    rms(broyden)= 0.30947E+00
  rms(prec ) = 0.45326E+00
  weight for this iteration     100.00

 eigenvalues of (default mixing * dielectric matrix)
  average eigenvalue GAMMA=   2.6191
  2.6191

 Free energy of the ion-electron system (eV)
  ---------------------------------------------------
  alpha Z        PSCENC =        -5.80791868
  Ewald energy   TEWEN  =     -2264.22495736
  -1/2 Hartree   DENC   =        -3.82268749
  -V(xc)+E(xc)   XCENC  =      -845.30123396
  PAW double counting   =      1134.78458243     -112.11721087
  entropy T*S    EENTRO =        -0.00102722
  eigenvalues    EBANDS =       264.74501001
  atomic energy  EATOM  =      1713.22913220
  ---------------------------------------------------
  free energy    TOTEN  =      -118.51631094 eV

  energy without entropy =     -118.51528372  energy(sigma->0) =     -118.51579733


--------------------------------------------------------------------------------------------------------




----------------------------------------- Iteration    1(   7)  ---------------------------------------


    POTLOK:  VPU time    0.15: CPU time    0.15
    SETDIJ:  VPU time    0.01: CPU time    0.01
    EDDAV :  VPU time   21.92: CPU time   21.92
    DOS   :  VPU time    0.00: CPU time   -0.00
    CHARGE:  VPU time    0.94: CPU time    0.94
    MIXING:  VPU time    0.00: CPU time    0.00
    ------------------------------------------
      LOOP:  VPU time   23.03: CPU time   23.02

 eigenvalue-minimisations  :  6336
 total energy-change (2. order) : 0.2831972E+00  (-0.1978942E-01)
 number of electron   96.0000002 magnetization 
 augmentation part    -1.3328847 magnetization 

 Broyden mixing:
  rms(total) = 0.13578E-01    rms(broyden)= 0.13578E-01
  rms(prec ) = 0.16205E-01
  weight for this iteration     100.00

 eigenvalues of (default mixing * dielectric matrix)
  average eigenvalue GAMMA=   2.5071
  2.5071  2.5071

 Free energy of the ion-electron system (eV)
  ---------------------------------------------------
  alpha Z        PSCENC =        -5.80791868
  Ewald energy   TEWEN  =     -2264.22495736
  -1/2 Hartree   DENC   =        -3.10884939
  -V(xc)+E(xc)   XCENC  =      -843.53048390
  PAW double counting   =      1130.50451855     -107.73782652
  entropy T*S    EENTRO =        -0.00078128
  eigenvalues    EBANDS =       262.44405269
  atomic energy  EATOM  =      1713.22913220
  ---------------------------------------------------
  free energy    TOTEN  =      -118.23311370 eV

  energy without entropy =     -118.23233243  energy(sigma->0) =     -118.23272306


--------------------------------------------------------------------------------------------------------




----------------------------------------- Iteration    1(   8)  ---------------------------------------


    POTLOK:  VPU time    0.15: CPU time    0.15
    SETDIJ:  VPU time    0.01: CPU time    0.01
    EDDAV :  VPU time   23.31: CPU time   23.31
    DOS   :  VPU time    0.00: CPU time   -0.00
    CHARGE:  VPU time    0.92: CPU time    0.92
    MIXING:  VPU time    0.00: CPU time    0.00
    ------------------------------------------
      LOOP:  VPU time   24.39: CPU time   24.39

 eigenvalue-minimisations  :  6912
 total energy-change (2. order) : 0.1018891E-03  (-0.1472955E-03)
 number of electron   96.0000002 magnetization 
 augmentation part    -1.3346920 magnetization 

 Broyden mixing:
  rms(total) = 0.40443E-02    rms(broyden)= 0.40443E-02
  rms(prec ) = 0.54634E-02
  weight for this iteration     100.00

 eigenvalues of (default mixing * dielectric matrix)
  average eigenvalue GAMMA=   2.0691
  0.9807  2.6794  2.5472

 Free energy of the ion-electron system (eV)
  ---------------------------------------------------
  alpha Z        PSCENC =        -5.80791868
  Ewald energy   TEWEN  =     -2264.22495736
  -1/2 Hartree   DENC   =        -3.16579361
  -V(xc)+E(xc)   XCENC  =      -843.48971050
  PAW double counting   =      1131.86532585     -109.18401592
  entropy T*S    EENTRO =        -0.00077626
  eigenvalues    EBANDS =       262.54570247
  atomic energy  EATOM  =      1713.22913220
  ---------------------------------------------------
  free energy    TOTEN  =      -118.23301181 eV

  energy without entropy =     -118.23223556  energy(sigma->0) =     -118.23262368


--------------------------------------------------------------------------------------------------------




----------------------------------------- Iteration    1(   9)  ---------------------------------------


    POTLOK:  VPU time    0.15: CPU time    0.15
    SETDIJ:  VPU time    0.01: CPU time    0.01
    EDDAV :  VPU time   23.58: CPU time   23.58
    DOS   :  VPU time    0.00: CPU time   -0.00
    CHARGE:  VPU time    1.01: CPU time    1.02
    MIXING:  VPU time    0.00: CPU time    0.01
    ------------------------------------------
      LOOP:  VPU time   24.77: CPU time   24.77

 eigenvalue-minimisations  :  6816
 total energy-change (2. order) :-0.1517851E-04  (-0.4831614E-05)
 number of electron   96.0000002 magnetization 
 augmentation part    -1.3356104 magnetization 

 Broyden mixing:
  rms(total) = 0.31589E-03    rms(broyden)= 0.31587E-03
  rms(prec ) = 0.45093E-03
  weight for this iteration     100.00

 eigenvalues of (default mixing * dielectric matrix)
  average eigenvalue GAMMA=   1.9538
  0.9971  2.6736  2.5524  1.5920

 Free energy of the ion-electron system (eV)
  ---------------------------------------------------
  alpha Z        PSCENC =        -5.80791868
  Ewald energy   TEWEN  =     -2264.22495736
  -1/2 Hartree   DENC   =        -3.19048700
  -V(xc)+E(xc)   XCENC  =      -843.45279267
  PAW double counting   =      1132.26715312     -109.61591069
  entropy T*S    EENTRO =        -0.00077155
  eigenvalues    EBANDS =       262.56352564
  atomic energy  EATOM  =      1713.22913220
  ---------------------------------------------------
  free energy    TOTEN  =      -118.23302699 eV

  energy without entropy =     -118.23225544  energy(sigma->0) =     -118.23264122


--------------------------------------------------------------------------------------------------------




----------------------------------------- Iteration    1(  10)  ---------------------------------------


    POTLOK:  VPU time    0.16: CPU time    0.16
    SETDIJ:  VPU time    0.01: CPU time    0.01
    EDDAV :  VPU time   30.85: CPU time   30.85
    DOS   :  VPU time    0.00: CPU time   -0.00
    CHARGE:  VPU time    1.58: CPU time    1.58
    MIXING:  VPU time    0.00: CPU time    0.01
    ------------------------------------------
      LOOP:  VPU time   32.61: CPU time   32.61

 eigenvalue-minimisations  :  6888
 total energy-change (2. order) : 0.1589098E-05  (-0.1671118E-06)
 number of electron   96.0000002 magnetization 
 augmentation part    -1.3356886 magnetization 

 Broyden mixing:
  rms(total) = 0.17856E-03    rms(broyden)= 0.17855E-03
  rms(prec ) = 0.23677E-03
  weight for this iteration     100.00

 eigenvalues of (default mixing * dielectric matrix)
  average eigenvalue GAMMA=   1.9110
  2.6486  2.6486  2.3553  1.0345  0.8679

 Free energy of the ion-electron system (eV)
  ---------------------------------------------------
  alpha Z        PSCENC =        -5.80791868
  Ewald energy   TEWEN  =     -2264.22495736
  -1/2 Hartree   DENC   =        -3.19149891
  -V(xc)+E(xc)   XCENC  =      -843.45163325
  PAW double counting   =      1132.21931043     -109.56690558
  entropy T*S    EENTRO =        -0.00077123
  eigenvalues    EBANDS =       262.56221697
  atomic energy  EATOM  =      1713.22913220
  ---------------------------------------------------
  free energy    TOTEN  =      -118.23302540 eV

  energy without entropy =     -118.23225417  energy(sigma->0) =     -118.23263979


--------------------------------------------------------------------------------------------------------




----------------------------------------- Iteration    1(  11)  ---------------------------------------


    POTLOK:  VPU time    0.19: CPU time    0.19
    SETDIJ:  VPU time    0.01: CPU time    0.01
    EDDAV :  VPU time   30.86: CPU time   30.86
    DOS   :  VPU time    0.00: CPU time   -0.00
    CHARGE:  VPU time    1.61: CPU time    1.61
    MIXING:  VPU time    0.01: CPU time    0.01
    ------------------------------------------
      LOOP:  VPU time   32.68: CPU time   32.68

 eigenvalue-minimisations  :  6752
 total energy-change (2. order) : 0.3353137E-05  (-0.1312281E-07)
 number of electron   96.0000002 magnetization 
 augmentation part    -1.3357035 magnetization 

 Broyden mixing:
  rms(total) = 0.61250E-04    rms(broyden)= 0.61250E-04
  rms(prec ) = 0.81272E-04
  weight for this iteration     100.00

 eigenvalues of (default mixing * dielectric matrix)
  average eigenvalue GAMMA=   1.8248
  2.7114  2.7114  2.4771  1.2325  0.9921  0.8240

 Free energy of the ion-electron system (eV)
  ---------------------------------------------------
  alpha Z        PSCENC =        -5.80791868
  Ewald energy   TEWEN  =     -2264.22495736
  -1/2 Hartree   DENC   =        -3.19186572
  -V(xc)+E(xc)   XCENC  =      -843.45199784
  PAW double counting   =      1132.16032504     -109.50597927
  entropy T*S    EENTRO =        -0.00077113
  eigenvalues    EBANDS =       262.56101070
  atomic energy  EATOM  =      1713.22913220
  ---------------------------------------------------
  free energy    TOTEN  =      -118.23302205 eV

  energy without entropy =     -118.23225092  energy(sigma->0) =     -118.23263649


--------------------------------------------------------------------------------------------------------




----------------------------------------- Iteration    1(  12)  ---------------------------------------


    POTLOK:  VPU time    0.19: CPU time    0.19
    SETDIJ:  VPU time    0.01: CPU time    0.01
    EDDAV :  VPU time   22.42: CPU time   22.41
    DOS   :  VPU time    0.00: CPU time   -0.00
    CHARGE:  VPU time    1.63: CPU time    1.63
    MIXING:  VPU time    0.00: CPU time    0.01
    ------------------------------------------
      LOOP:  VPU time   24.25: CPU time   24.25

 eigenvalue-minimisations  :  4184
 total energy-change (2. order) : 0.9794503E-06  (-0.1791817E-08)
 number of electron   96.0000002 magnetization 
 augmentation part    -1.3357113 magnetization 

 Broyden mixing:
  rms(total) = 0.93953E-05    rms(broyden)= 0.93952E-05
  rms(prec ) = 0.15602E-04
  weight for this iteration     100.00

 eigenvalues of (default mixing * dielectric matrix)
  average eigenvalue GAMMA=   1.7695
  2.6940  2.6940  2.4625  1.5995  1.0203  1.1090  0.8073

 Free energy of the ion-electron system (eV)
  ---------------------------------------------------
  alpha Z        PSCENC =        -5.80791868
  Ewald energy   TEWEN  =     -2264.22495736
  -1/2 Hartree   DENC   =        -3.19212101
  -V(xc)+E(xc)   XCENC  =      -843.45178645
  PAW double counting   =      1132.14036873     -109.48544971
  entropy T*S    EENTRO =        -0.00077106
  eigenvalues    EBANDS =       262.56048227
  atomic energy  EATOM  =      1713.22913220
  ---------------------------------------------------
  free energy    TOTEN  =      -118.23302107 eV

  energy without entropy =     -118.23225001  energy(sigma->0) =     -118.23263554


--------------------------------------------------------------------------------------------------------




----------------------------------------- Iteration    1(  13)  ---------------------------------------


    POTLOK:  VPU time    0.18: CPU time    0.19
    SETDIJ:  VPU time    0.01: CPU time    0.01
    EDDAV :  VPU time   21.03: CPU time   21.03
    DOS   :  VPU time    0.00: CPU time   -0.00
    CHARGE:  VPU time    1.64: CPU time    1.64
    MIXING:  VPU time    0.00: CPU time    0.01
    ------------------------------------------
      LOOP:  VPU time   22.88: CPU time   22.88

 eigenvalue-minimisations  :  3728
 total energy-change (2. order) : 0.9628093E-07  (-0.2902035E-09)
 number of electron   96.0000002 magnetization 
 augmentation part    -1.3357110 magnetization 

 Broyden mixing:
  rms(total) = 0.29219E-05    rms(broyden)= 0.29219E-05
  rms(prec ) = 0.45230E-05
  weight for this iteration     100.00

 eigenvalues of (default mixing * dielectric matrix)
  average eigenvalue GAMMA=   1.7204
  2.7135  2.7135  2.4893  1.7110  1.3441  1.0428  0.9408  0.8081

 Free energy of the ion-electron system (eV)
  ---------------------------------------------------
  alpha Z        PSCENC =        -5.80791868
  Ewald energy   TEWEN  =     -2264.22495736
  -1/2 Hartree   DENC   =        -3.19211737
  -V(xc)+E(xc)   XCENC  =      -843.45184523
  PAW double counting   =      1132.13970537     -109.48475431
  entropy T*S    EENTRO =        -0.00077107
  eigenvalues    EBANDS =       262.56050549
  atomic energy  EATOM  =      1713.22913220
  ---------------------------------------------------
  free energy    TOTEN  =      -118.23302097 eV

  energy without entropy =     -118.23224990  energy(sigma->0) =     -118.23263544


--------------------------------------------------------------------------------------------------------




----------------------------------------- Iteration    1(  14)  ---------------------------------------


    POTLOK:  VPU time    0.19: CPU time    0.19
    SETDIJ:  VPU time    0.01: CPU time    0.01
    EDDAV :  VPU time   21.08: CPU time   21.08
    DOS   :  VPU time   -0.00: CPU time   -0.00
    ------------------------------------------
      LOOP:  VPU time   21.28: CPU time   21.28

 eigenvalue-minimisations  :  3728
 total energy-change (2. order) :-0.4950380E-08  (-0.4516590E-10)
 number of electron   96.0000002 magnetization 
 augmentation part    -1.3357110 magnetization 

 Free energy of the ion-electron system (eV)
  ---------------------------------------------------
  alpha Z        PSCENC =        -5.80791868
  Ewald energy   TEWEN  =     -2264.22495736
  -1/2 Hartree   DENC   =        -3.19212614
  -V(xc)+E(xc)   XCENC  =      -843.45183784
  PAW double counting   =      1132.13986466     -109.48492306
  entropy T*S    EENTRO =        -0.00077108
  eigenvalues    EBANDS =       262.56051632
  atomic energy  EATOM  =      1713.22913220
  ---------------------------------------------------
  free energy    TOTEN  =      -118.23302098 eV

  energy without entropy =     -118.23224990  energy(sigma->0) =     -118.23263544


--------------------------------------------------------------------------------------------------------




 average (electrostatic) potential at core
  the test charge radii are     1.0406
  (the norm of the test charge is              1.0000)
       1 -73.9284       2 -73.9285       3 -73.9285       4 -73.9285       5 -73.9285
       6 -73.9285       7 -73.9285       8 -73.9285       9 -73.9285      10 -73.9285
      11 -73.9285      12 -73.9285      13 -73.9285      14 -73.9285      15 -73.9285
      16 -73.9285      17 -73.9288      18 -73.9281      19 -73.9285      20 -73.9284
      21 -73.9288      22 -73.9281      23 -73.9285      24 -73.9284      25 -73.9288
      26 -73.9281      27 -73.9288      28 -73.9281      29 -73.9285      30 -73.9284
      31 -73.9285      32 -73.9284
 
 
 
 E-fermi :   6.8906     XC(G=0):  -9.7885     alpha+bet :-13.2637
   add alpha+bet to get absolut eigen values

 k-point   1 :       0.0000    0.0000    0.0000
  band No.  band energies     occupation 
      1      -3.5118      2.00000
      2      -1.4298      2.00000
      3      -1.4263      2.00000
      4      -1.4263      2.00000
      5      -1.4263      2.00000
      6      -1.4263      2.00000
      7      -1.4228      2.00000
      8       0.6259      2.00000
      9       0.6302      2.00000
     10       0.6302      2.00000
     11       0.6317      2.00000
     12       0.6319      2.00000
     13       0.6319      2.00000
     14       0.6319      2.00000
     15       0.6319      2.00000
     16       0.6320      2.00000
     17       0.6336      2.00000
     18       0.6336      2.00000
     19       0.6379      2.00000
     20       2.6202      2.00000
     21       2.6202      2.00000
     22       2.6202      2.00000
     23       2.6202      2.00000
     24       2.7094      2.00000
     25       2.7094      2.00000
     26       2.7094      2.00000
     27       2.7095      2.00000
     28       4.2066      2.00000
     29       4.2066      2.00000
     30       4.2067      2.00000
     31       5.2482      2.00000
     32       5.2482      2.00000
     33       5.2482      2.00000
     34       6.1490      2.00000
     35       6.1490      2.00000
     36       6.1530      2.00000
     37       6.1530      2.00000
     38       6.1531      2.00000
     39       6.1531      2.00000
     40       6.1531      2.00000
     41       6.1532      2.00000
     42       6.1533      2.00000
     43       6.1533      2.00000
     44       6.1573      2.00000
     45       6.1573      2.00000
     46       7.2111      0.00000
     47       7.2149      0.00000
     48       7.2149      0.00000
     49       7.2149      0.00000
     50       7.2149      0.00000
     51       7.2187      0.00000
     52       7.3527      0.00000
     53       7.3535      0.00000
     54       7.3535      0.00000
     55       7.3536      0.00000
     56       7.3536      0.00000
     57       7.3545      0.00000
     58       8.0974      0.00000
     59       8.0974      0.00000
     60       8.0992      0.00000
     61       8.1012      0.00000
     62       8.1013      0.00000
     63       8.1013      0.00000
     64       8.1013      0.00000
     65       8.1014      0.00000
     66       8.1015      0.00000
     67       8.1035      0.00000
     68       8.1053      0.00000
     69       8.1053      0.00000
     70       9.2591      0.00000
     71       9.2611      0.00000
     72       9.2623      0.00000

 k-point   2 :       0.1667    0.0000    0.0000
  band No.  band energies     occupation 
      1      -3.4535      2.00000
      2      -2.0606      2.00000
      3      -1.3688      2.00000
      4      -1.3688      2.00000
      5      -1.3688      2.00000
      6      -1.3688      2.00000
      7      -0.6802      2.00000
      8       0.0058      2.00000
      9       0.0058      2.00000
     10       0.0058      2.00000
     11       0.0058      2.00000
     12       0.6887      2.00000
     13       0.6887      2.00000
     14       0.6887      2.00000
     15       0.6887      2.00000
     16       1.3685      2.00000
     17       1.3685      2.00000
     18       1.3685      2.00000
     19       1.3685      2.00000
     20       2.0449      2.00000
     21       2.0449      2.00000
     22       2.0449      2.00000
     23       2.0449      2.00000
     24       3.3395      2.00000
     25       3.3940      2.00000
     26       3.3940      2.00000
     27       3.3940      2.00000
     28       3.3940      2.00000
     29       4.2606      2.00000
     30       4.2606      2.00000
     31       5.3054      2.00000
     32       5.3056      2.00000
     33       5.3273      2.00000
     34       5.3273      2.00000
     35       5.3273      2.00000
     36       5.3275      2.00000
     37       5.5579      2.00000
     38       5.5579      2.00000
     39       6.2072      2.00000
     40       6.2072      2.00000
     41       6.2072      2.00000
     42       6.2072      2.00000
     43       6.2178      2.00000
     44       6.6662      2.00000
     45       6.6662      2.00000
     46       6.8571      2.00000
     47       6.8571      2.00000
     48       7.2992      0.00000
     49       7.2993      0.00000
     50       7.2993      0.00000
     51       7.2993      0.00000
     52       7.3360      0.00000
     53       7.3361      0.00000
     54       7.3361      0.00000
     55       7.3361      0.00000
     56       7.5059      0.00000
     57       7.5059      0.00000
     58       7.5059      0.00000
     59       7.5059      0.00000
     60       8.0039      0.00000
     61       8.0040      0.00000
     62       8.2138      0.00000
     63       8.2138      0.00000
     64       8.2138      0.00000
     65       8.2138      0.00000
     66       8.6642      0.00000
     67       8.6642      0.00000
     68       8.6643      0.00000
     69       8.6644      0.00000
     70       8.8051      0.00000
     71       8.8051      0.00000
     72       8.8051      0.00000

 k-point   3 :       0.3333    0.0000    0.0000
  band No.  band energies     occupation 
      1      -3.2787      2.00000
      2      -2.5815      2.00000
      3      -1.1964      2.00000
      4      -1.1963      2.00000
      5      -1.1963      2.00000
      6      -1.1963      2.00000
      7      -0.5084      2.00000
      8      -0.5083      2.00000
      9      -0.5083      2.00000
     10      -0.5083      2.00000
     11       0.1758      2.00000
     12       0.8588      2.00000
     13       0.8589      2.00000
     14       0.8589      2.00000
     15       0.8589      2.00000
     16       1.5379      2.00000
     17       1.5379      2.00000
     18       1.5379      2.00000
     19       1.5379      2.00000
     20       2.2010      2.00000
     21       2.2135      2.00000
     22       2.2135      2.00000
     23       2.2135      2.00000
     24       2.2136      2.00000
     25       4.2108      2.00000
     26       4.2108      2.00000
     27       4.2109      2.00000
     28       4.2109      2.00000
     29       4.2280      2.00000
     30       4.2281      2.00000
     31       4.2281      2.00000
     32       4.2281      2.00000
     33       4.4227      2.00000
     34       4.4227      2.00000
     35       5.0712      2.00000
     36       5.0712      2.00000
     37       5.4775      2.00000
     38       5.4775      2.00000
     39       6.1601      2.00000
     40       6.1602      2.00000
     41       6.2000      2.00000
     42       6.2000      2.00000
     43       6.2001      2.00000
     44       6.2002      2.00000
     45       6.3695      2.00000
     46       6.3695      2.00000
     47       6.3695      2.00000
     48       6.3695      2.00000
     49       7.0188      0.00000
     50       7.0188      0.00000
     51       7.0188      0.00000
     52       7.0188      0.00000
     53       7.5055      0.00000
     54       7.5055      0.00000
     55       7.5055      0.00000
     56       7.5055      0.00000
     57       7.6632      0.00000
     58       7.6699      0.00000
     59       7.6699      0.00000
     60       8.1705      0.00000
     61       8.1705      0.00000
     62       8.1705      0.00000
     63       8.1705      0.00000
     64       8.8121      0.00000
     65       8.8121      0.00000
     66       9.6168      0.00000
     67       9.6170      0.00000
     68       9.6194      0.00000
     69       9.6206      0.00000
     70       9.6228      0.00000
     71       9.6243      0.00000
     72       9.6252      0.00000

 k-point   4 :       0.5000    0.0000    0.0000
  band No.  band energies     occupation 
      1      -2.9892      2.00000
      2      -2.9865      2.00000
      3      -0.9131      2.00000
      4      -0.9101      2.00000
      5      -0.9101      2.00000
      6      -0.9094      2.00000
      7      -0.9093      2.00000
      8      -0.9086      2.00000
      9      -0.9086      2.00000
     10      -0.9056      2.00000
     11       1.1355      2.00000
     12       1.1385      2.00000
     13       1.1409      2.00000
     14       1.1409      2.00000
     15       1.1411      2.00000
     16       1.1418      2.00000
     17       1.1425      2.00000
     18       1.1433      2.00000
     19       1.1433      2.00000
     20       1.1459      2.00000
     21       3.1621      2.00000
     22       3.1627      2.00000
     23       3.1627      2.00000
     24       3.1633      2.00000
     25       3.1636      2.00000
     26       3.1642      2.00000
     27       3.1642      2.00000
     28       3.1648      2.00000
     29       4.6914      2.00000
     30       4.6914      2.00000
     31       4.6942      2.00000
     32       4.6942      2.00000
     33       5.1651      2.00000
     34       5.1651      2.00000
     35       5.1658      2.00000
     36       5.1658      2.00000
     37       5.1665      2.00000
     38       5.1666      2.00000
     39       5.1673      2.00000
     40       5.1673      2.00000
     41       5.7613      2.00000
     42       5.7620      2.00000
     43       5.7638      2.00000
     44       5.7646      2.00000
     45       6.6378      2.00000
     46       6.6378      2.00000
     47       6.6388      2.00000
     48       6.6400      2.00000
     49       6.6401      2.00000
     50       6.6412      2.00000
     51       6.6422      2.00000
     52       6.6422      2.00000
     53       7.7813      0.00000
     54       7.7826      0.00000
     55       7.7826      0.00000
     56       7.7827      0.00000
     57       7.7845      0.00000
     58       7.7846      0.00000
     59       7.7846      0.00000
     60       7.7859      0.00000
     61       8.5905      0.00000
     62       8.5905      0.00000
     63       8.5928      0.00000
     64       8.5928      0.00000
     65       9.2356      0.00000
     66       9.2372      0.00000
     67       9.6993      0.00000
     68       9.6999      0.00000
     69       9.7010      0.00000
     70       9.7016      0.00000
     71      10.5363      0.00000
     72      10.5374      0.00000

 k-point   5 :       0.0000    0.1667    0.0000
  band No.  band energies     occupation 
      1      -3.4535      2.00000
      2      -2.0606      2.00000
      3      -1.3715      2.00000
      4      -1.3688      2.00000
      5      -1.3688      2.00000
      6      -1.3661      2.00000
      7      -0.6802      2.00000
      8       0.0030      2.00000
      9       0.0058      2.00000
     10       0.0058      2.00000
     11       0.0085      2.00000
     12       0.6865      2.00000
     13       0.6876      2.00000
     14       0.6897      2.00000
     15       0.6908      2.00000
     16       1.3658      2.00000
     17       1.3685      2.00000
     18       1.3685      2.00000
     19       1.3712      2.00000
     20       2.0428      2.00000
     21       2.0438      2.00000
     22       2.0459      2.00000
     23       2.0470      2.00000
     24       3.3395      2.00000
     25       3.3918      2.00000
     26       3.3929      2.00000
     27       3.3950      2.00000
     28       3.3961      2.00000
     29       4.2606      2.00000
     30       4.2607      2.00000
     31       5.3056      2.00000
     32       5.3056      2.00000
     33       5.3244      2.00000
     34       5.3273      2.00000
     35       5.3273      2.00000
     36       5.3301      2.00000
     37       5.5579      2.00000
     38       5.5579      2.00000
     39       6.2047      2.00000
     40       6.2072      2.00000
     41       6.2072      2.00000
     42       6.2098      2.00000
     43       6.2179      2.00000
     44       6.6662      2.00000
     45       6.6662      2.00000
     46       6.8571      2.00000
     47       6.8571      2.00000
     48       7.2969      0.00000
     49       7.2983      0.00000
     50       7.3003      0.00000
     51       7.3017      0.00000
     52       7.3340      0.00000
     53       7.3360      0.00000
     54       7.3360      0.00000
     55       7.3380      0.00000
     56       7.5033      0.00000
     57       7.5059      0.00000
     58       7.5060      0.00000
     59       7.5085      0.00000
     60       8.0039      0.00000
     61       8.0040      0.00000
     62       8.2113      0.00000
     63       8.2138      0.00000
     64       8.2138      0.00000
     65       8.2163      0.00000
     66       8.6623      0.00000
     67       8.6642      0.00000
     68       8.6643      0.00000
     69       8.6662      0.00000
     70       8.8028      0.00000
     71       8.8051      0.00000
     72       8.8057      0.00000

 k-point   6 :       0.1667    0.1667    0.0000
  band No.  band energies     occupation 
      1      -3.3952      2.00000
      2      -2.0039      2.00000
      3      -2.0017      2.00000
      4      -1.3113      2.00000
      5      -1.3113      2.00000
      6      -0.6247      2.00000
      7      -0.6229      2.00000
      8      -0.6211      2.00000
      9       0.0612      2.00000
     10       0.0621      2.00000
     11       0.0634      2.00000
     12       0.0643      2.00000
     13       0.7447      2.00000
     14       0.7458      2.00000
     15       1.4226      2.00000
     16       1.4238      2.00000
     17       1.4249      2.00000
     18       1.4249      2.00000
     19       1.4261      2.00000
     20       1.4273      2.00000
     21       2.1018      2.00000
     22       2.7353      2.00000
     23       2.7354      2.00000
     24       2.8180      2.00000
     25       2.8180      2.00000
     26       3.3945      2.00000
     27       3.3955      2.00000
     28       4.1180      2.00000
     29       4.1180      2.00000
     30       4.3147      2.00000
     31       4.7207      2.00000
     32       4.7230      2.00000
     33       5.3628      2.00000
     34       5.3741      2.00000
     35       5.3742      2.00000
     36       5.3906      2.00000
     37       5.3907      2.00000
     38       5.6107      2.00000
     39       5.6132      2.00000
     40       6.0392      2.00000
     41       6.0404      2.00000
     42       6.2732      2.00000
     43       6.2742      2.00000
     44       6.6969      2.00000
     45       6.6979      2.00000
     46       6.6993      2.00000
     47       6.7001      2.00000
     48       6.7248      2.00000
     49       6.7266      2.00000
     50       6.9087      0.01049
     51       6.9109      0.00410
     52       6.9131      0.00147
     53       7.5974      0.00000
     54       7.5987      0.00000
     55       8.0059      0.00000
     56       8.0070      0.00000
     57       8.0070      0.00000
     58       8.0080      0.00000
     59       8.0615      0.00000
     60       8.0636      0.00000
     61       8.0651      0.00000
     62       8.2087      0.00000
     63       8.2103      0.00000
     64       8.2109      0.00000
     65       8.2117      0.00000
     66       8.3181      0.00000
     67       8.3181      0.00000
     68       8.9147      0.00000
     69       8.9168      0.00000
     70       9.3661      0.00000
     71       9.3663      0.00000
     72       9.5091      0.00000

 k-point   7 :       0.3333    0.1667    0.0000
  band No.  band energies     occupation 
      1      -3.2205      2.00000
      2      -2.5235      2.00000
      3      -1.8297      2.00000
      4      -1.1402      2.00000
      5      -1.1389      2.00000
      6      -1.1376      2.00000
      7      -0.4526      2.00000
      8      -0.4512      2.00000
      9      -0.4499      2.00000
     10       0.2312      2.00000
     11       0.2335      2.00000
     12       0.2336      2.00000
     13       0.2352      2.00000
     14       0.9154      2.00000
     15       0.9154      2.00000
     16       1.5932      2.00000
     17       1.5944      2.00000
     18       1.5948      2.00000
     19       2.2571      2.00000
     20       2.2683      2.00000
     21       2.2690      2.00000
     22       2.2708      2.00000
     23       2.2716      2.00000
     24       2.9430      2.00000
     25       3.5612      2.00000
     26       3.5992      2.00000
     27       3.6156      2.00000
     28       3.6156      2.00000
     29       4.2252      2.00000
     30       4.2664      2.00000
     31       4.2664      2.00000
     32       4.4767      2.00000
     33       4.9307      2.00000
     34       4.9490      2.00000
     35       4.9491      2.00000
     36       5.1252      2.00000
     37       5.5347      2.00000
     38       5.5473      2.00000
     39       5.5473      2.00000
     40       5.5946      2.00000
     41       5.5946      2.00000
     42       5.7742      2.00000
     43       6.2058      2.00000
     44       6.2058      2.00000
     45       6.2162      2.00000
     46       6.4233      2.00000
     47       6.4411      2.00000
     48       6.8621      1.99995
     49       6.8939      0.64403
     50       6.9128      0.00175
     51       6.9128      0.00174
     52       7.0735      0.00000
     53       7.1072      0.00000
     54       7.5640      0.00000
     55       7.7183      0.00000
     56       7.7218      0.00000
     57       7.7251      0.00000
     58       8.2165      0.00000
     59       8.4266      0.00000
     60       8.4266      0.00000
     61       8.8039      0.00000
     62       8.8198      0.00000
     63       8.8198      0.00000
     64       8.8670      0.00000
     65       8.8775      0.00000
     66       9.0223      0.00000
     67       9.0351      0.00000
     68       9.0820      0.00000
     69       9.0820      0.00000
     70       9.6772      0.00000
     71       9.6796      0.00000
     72       9.6836      0.00000

 k-point   8 :       0.5000    0.1667    0.0000
  band No.  band energies     occupation 
      1      -2.9311      2.00000
      2      -2.9284      2.00000
      3      -1.5429      2.00000
      4      -1.5402      2.00000
      5      -0.8539      2.00000
      6      -0.8528      2.00000
      7      -0.8512      2.00000
      8      -0.8501      2.00000
      9      -0.1670      2.00000
     10      -0.1643      2.00000
     11       0.5161      2.00000
     12       0.5173      2.00000
     13       0.5188      2.00000
     14       0.5199      2.00000
     15       1.1942      2.00000
     16       1.1957      2.00000
     17       1.8745      2.00000
     18       1.8756      2.00000
     19       1.8772      2.00000
     20       1.8783      2.00000
     21       2.5465      2.00000
     22       2.5480      2.00000
     23       3.2186      2.00000
     24       3.2186      2.00000
     25       3.2201      2.00000
     26       3.2201      2.00000
     27       3.8367      2.00000
     28       3.8395      2.00000
     29       3.8878      2.00000
     30       3.8892      2.00000
     31       4.5560      2.00000
     32       4.5560      2.00000
     33       4.5575      2.00000
     34       4.5575      2.00000
     35       4.7454      2.00000
     36       4.7483      2.00000
     37       5.8185      2.00000
     38       5.8199      2.00000
     39       5.8211      2.00000
     40       5.8212      2.00000
     41       5.8227      2.00000
     42       5.8240      2.00000
     43       5.8826      2.00000
     44       5.8827      2.00000
     45       5.8841      2.00000
     46       5.8841      2.00000
     47       6.0432      2.00000
     48       6.0460      2.00000
     49       6.7181      2.00000
     50       6.7208      2.00000
     51       7.1727      0.00000
     52       7.1752      0.00000
     53       7.3426      0.00000
     54       7.3455      0.00000
     55       7.7833      0.00000
     56       7.7851      0.00000
     57       8.4927      0.00000
     58       8.4953      0.00000
     59       8.6446      0.00000
     60       8.6468      0.00000
     61       8.6990      0.00000
     62       8.6999      0.00000
     63       8.7017      0.00000
     64       8.7026      0.00000
     65       9.2899      0.00000
     66       9.2915      0.00000
     67       9.7336      0.00000
     68       9.7339      0.00000
     69       9.7354      0.00000
     70       9.7357      0.00000
     71       9.7540      0.00000
     72       9.7546      0.00000

 k-point   9 :       0.0000    0.3333    0.0000
  band No.  band energies     occupation 
      1      -3.2787      2.00000
      2      -2.5815      2.00000
      3      -1.1991      2.00000
      4      -1.1963      2.00000
      5      -1.1963      2.00000
      6      -1.1936      2.00000
      7      -0.5111      2.00000
      8      -0.5083      2.00000
      9      -0.5083      2.00000
     10      -0.5056      2.00000
     11       0.1758      2.00000
     12       0.8567      2.00000
     13       0.8578      2.00000
     14       0.8599      2.00000
     15       0.8610      2.00000
     16       1.5357      2.00000
     17       1.5368      2.00000
     18       1.5389      2.00000
     19       1.5400      2.00000
     20       2.2011      2.00000
     21       2.2107      2.00000
     22       2.2135      2.00000
     23       2.2135      2.00000
     24       2.2162      2.00000
     25       4.2081      2.00000
     26       4.2109      2.00000
     27       4.2109      2.00000
     28       4.2137      2.00000
     29       4.2259      2.00000
     30       4.2270      2.00000
     31       4.2291      2.00000
     32       4.2302      2.00000
     33       4.4227      2.00000
     34       4.4227      2.00000
     35       5.0712      2.00000
     36       5.0712      2.00000
     37       5.4775      2.00000
     38       5.4775      2.00000
     39       6.1601      2.00000
     40       6.1602      2.00000
     41       6.1979      2.00000
     42       6.1990      2.00000
     43       6.2011      2.00000
     44       6.2024      2.00000
     45       6.3670      2.00000
     46       6.3695      2.00000
     47       6.3695      2.00000
     48       6.3721      2.00000
     49       7.0162      0.00000
     50       7.0188      0.00000
     51       7.0188      0.00000
     52       7.0214      0.00000
     53       7.5035      0.00000
     54       7.5055      0.00000
     55       7.5055      0.00000
     56       7.5074      0.00000
     57       7.6628      0.00000
     58       7.6699      0.00000
     59       7.6704      0.00000
     60       8.1686      0.00000
     61       8.1705      0.00000
     62       8.1705      0.00000
     63       8.1725      0.00000
     64       8.8121      0.00000
     65       8.8121      0.00000
     66       9.6160      0.00000
     67       9.6170      0.00000
     68       9.6190      0.00000
     69       9.6197      0.00000
     70       9.6227      0.00000
     71       9.6243      0.00000
     72       9.6259      0.00000

 k-point  10 :       0.1667    0.3333    0.0000
  band No.  band energies     occupation 
      1      -3.2205      2.00000
      2      -2.5235      2.00000
      3      -1.8297      2.00000
      4      -1.1402      2.00000
      5      -1.1389      2.00000
      6      -1.1376      2.00000
      7      -0.4526      2.00000
      8      -0.4512      2.00000
      9      -0.4499      2.00000
     10       0.2313      2.00000
     11       0.2331      2.00000
     12       0.2336      2.00000
     13       0.2354      2.00000
     14       0.9154      2.00000
     15       0.9154      2.00000
     16       1.5925      2.00000
     17       1.5944      2.00000
     18       1.5955      2.00000
     19       2.2571      2.00000
     20       2.2692      2.00000
     21       2.2694      2.00000
     22       2.2703      2.00000
     23       2.2706      2.00000
     24       2.9429      2.00000
     25       3.5612      2.00000
     26       3.5992      2.00000
     27       3.6156      2.00000
     28       3.6156      2.00000
     29       4.2251      2.00000
     30       4.2664      2.00000
     31       4.2665      2.00000
     32       4.4767      2.00000
     33       4.9308      2.00000
     34       4.9491      2.00000
     35       4.9491      2.00000
     36       5.1252      2.00000
     37       5.5345      2.00000
     38       5.5473      2.00000
     39       5.5475      2.00000
     40       5.5946      2.00000
     41       5.5946      2.00000
     42       5.7742      2.00000
     43       6.2057      2.00000
     44       6.2058      2.00000
     45       6.2164      2.00000
     46       6.4233      2.00000
     47       6.4411      2.00000
     48       6.8621      1.99995
     49       6.8939      0.64409
     50       6.9128      0.00174
     51       6.9128      0.00174
     52       7.0735      0.00000
     53       7.1072      0.00000
     54       7.5640      0.00000
     55       7.7183      0.00000
     56       7.7225      0.00000
     57       7.7244      0.00000
     58       8.2165      0.00000
     59       8.4266      0.00000
     60       8.4266      0.00000
     61       8.8040      0.00000
     62       8.8198      0.00000
     63       8.8198      0.00000
     64       8.8671      0.00000
     65       8.8774      0.00000
     66       9.0223      0.00000
     67       9.0351      0.00000
     68       9.0820      0.00000
     69       9.0821      0.00000
     70       9.6766      0.00000
     71       9.6796      0.00000
     72       9.6989      0.00000

 k-point  11 :       0.3333    0.3333    0.0000
  band No.  band energies     occupation 
      1      -3.0460      2.00000
[...]
      6      -1.0242      2.00000
      7      -1.0242      2.00000
      8      -1.0242      2.00000
      9       0.3472      2.00000
     10       0.3472      2.00000
     11       0.3472      2.00000
     12       0.3472      2.00000
     13       1.7033      2.00000
     14       1.7033      2.00000
     15       1.7033      2.00000
     16       1.7033      2.00000
     17       1.7033      2.00000
     18       1.7033      2.00000
     19       1.7033      2.00000
     20       1.7033      2.00000
     21       3.0513      2.00000
     22       3.0513      2.00000
     23       3.0514      2.00000
     24       3.0514      2.00000
     25       3.0514      2.00000
     26       3.0514      2.00000
     27       3.0514      2.00000
     28       3.0514      2.00000
     29       4.3356      2.00000
     30       4.3356      2.00000
     31       4.3357      2.00000
     32       4.3357      2.00000
     33       4.3894      2.00000
     34       4.3894      2.00000
     35       4.3894      2.00000
     36       4.3894      2.00000
     37       4.3894      2.00000
     38       4.3894      2.00000
     39       4.3894      2.00000
     40       4.3894      2.00000
     41       5.7104      2.00000
     42       5.7104      2.00000
     43       5.7104      2.00000
     44       5.7105      2.00000
     45       7.0297      0.00000
     46       7.0297      0.00000
     47       7.0297      0.00000
     48       7.0297      0.00000
     49       7.2204      0.00000
     50       7.2205      0.00000
     51       7.2205      0.00000
     52       7.2205      0.00000
     53       8.2723      0.00000
     54       8.2723      0.00000
     55       8.2724      0.00000
     56       8.2724      0.00000
     57       8.2724      0.00000
     58       8.2725      0.00000
     59       8.2725      0.00000
     60       8.2725      0.00000
     61       8.3386      0.00000
     62       8.3387      0.00000
     63       8.3387      0.00000
     64       8.3387      0.00000
     65       9.7781      0.00000
     66       9.7781      0.00000
     67       9.7782      0.00000
     68       9.7782      0.00000
     69       9.7782      0.00000
     70       9.7782      0.00000
     71       9.7784      0.00000
     72       9.7784      0.00000

 k-point  39 :       0.3333    0.5000    0.5000
  band No.  band energies     occupation 
      1      -2.2342      2.00000
      2      -2.2342      2.00000
      3      -2.2342      2.00000
      4      -2.2342      2.00000
      5      -1.5417      2.00000
      6      -1.5417      2.00000
      7      -1.5417      2.00000
      8      -1.5416      2.00000
      9       1.1976      2.00000
     10       1.1976      2.00000
     11       1.1976      2.00000
     12       1.1976      2.00000
     13       1.8723      2.00000
     14       1.8723      2.00000
     15       1.8723      2.00000
     16       1.8723      2.00000
     17       1.8724      2.00000
     18       1.8724      2.00000
     19       1.8724      2.00000
     20       1.8724      2.00000
     21       2.5471      2.00000
     22       2.5471      2.00000
     23       2.5471      2.00000
     24       2.5471      2.00000
     25       2.5471      2.00000
     26       2.5471      2.00000
     27       2.5471      2.00000
     28       2.5471      2.00000
     29       3.2088      2.00000
     30       3.2088      2.00000
     31       3.2088      2.00000
     32       3.2088      2.00000
     33       5.2188      2.00000
     34       5.2188      2.00000
     35       5.2188      2.00000
     36       5.2188      2.00000
     37       5.2188      2.00000
     38       5.2188      2.00000
     39       5.2188      2.00000
     40       5.2188      2.00000
     41       5.8759      2.00000
     42       5.8759      2.00000
     43       5.8759      2.00000
     44       5.8759      2.00000
     45       6.5361      2.00000
     46       6.5361      2.00000
     47       6.5361      2.00000
     48       6.5362      2.00000
     49       7.1789      0.00000
     50       7.1789      0.00000
     51       7.1790      0.00000
     52       7.1790      0.00000
     53       7.1790      0.00000
     54       7.1790      0.00000
     55       7.1790      0.00000
     56       7.1790      0.00000
     57       8.6511      0.00000
     58       8.6511      0.00000
     59       8.6511      0.00000
     60       8.6511      0.00000
     61       9.1503      0.00000
     62       9.1503      0.00000
     63       9.1503      0.00000
     64       9.1503      0.00000
     65       9.9407      0.00000
     66       9.9407      0.00000
     67       9.9408      0.00000
     68       9.9408      0.00000
     69       9.9408      0.00000
     70       9.9408      0.00000
     71       9.9409      0.00000
     72       9.9409      0.00000

 k-point  40 :       0.5000    0.5000    0.5000
  band No.  band energies     occupation 
      1      -1.9498      2.00000
      2      -1.9457      2.00000
      3      -1.9457      2.00000
      4      -1.9453      2.00000
      5      -1.9452      2.00000
      6      -1.9449      2.00000
      7      -1.9449      2.00000
      8      -1.9408      2.00000
      9       2.1437      2.00000
     10       2.1500      2.00000
     11       2.1500      2.00000
     12       2.1531      2.00000
     13       2.1533      2.00000
     14       2.1533      2.00000
     15       2.1537      2.00000
     16       2.1537      2.00000
     17       2.1538      2.00000
     18       2.1538      2.00000
     19       2.1538      2.00000
     20       2.1538      2.00000
     21       2.1538      2.00000
     22       2.1538      2.00000
     23       2.1538      2.00000
     24       2.1538      2.00000
     25       2.1539      2.00000
     26       2.1539      2.00000
     27       2.1543      2.00000
     28       2.1543      2.00000
     29       2.1545      2.00000
     30       2.1576      2.00000
     31       2.1576      2.00000
     32       2.1639      2.00000
     33       6.1457      2.00000
     34       6.1457      2.00000
     35       6.1472      2.00000
     36       6.1494      2.00000
     37       6.1507      2.00000
     38       6.1510      2.00000
     39       6.1511      2.00000
     40       6.1511      2.00000
     41       6.1513      2.00000
     42       6.1513      2.00000
     43       6.1513      2.00000
     44       6.1513      2.00000
     45       6.1513      2.00000
     46       6.1513      2.00000
     47       6.1513      2.00000
     48       6.1514      2.00000
     49       6.1516      2.00000
     50       6.1516      2.00000
     51       6.1516      2.00000
     52       6.1520      2.00000
     53       6.1532      2.00000
     54       6.1554      2.00000
     55       6.1569      2.00000
     56       6.1569      2.00000
     57      10.0609      0.00000
     58      10.0611      0.00000
     59      10.0612      0.00000
     60      10.0617      0.00000
     61      10.0630      0.00000
     62      10.0637      0.00000
     63      10.0637      0.00000
     64      10.0640      0.00000
     65      10.2066      0.00000
     66      10.2082      0.00000
     67      10.2086      0.00000
     68      10.2097      0.00000
     69      10.2100      0.00000
     70      10.2102      0.00000
     71      10.2107      0.00000
     72      10.2112      0.00000


--------------------------------------------------------------------------------------------------------


 soft charge-density along one line, spin component           1
         0         1         2         3         4         5         6         7         8         9
 total charge-density along one line
 
 pseudopotential strength for first ion, spin component:           1
  8.481  -0.004  -0.000  -0.000  -0.000  -0.000  -0.000  -0.000
 -0.004   0.000  -0.000  -0.000  -0.000   0.000   0.000   0.000
 -0.000  -0.000   1.983   0.000   0.000  -0.023  -0.000  -0.000
 -0.000  -0.000   0.000   1.983  -0.000  -0.000  -0.023   0.000
 -0.000  -0.000   0.000  -0.000   1.983  -0.000   0.000  -0.023
 -0.000   0.000  -0.023  -0.000  -0.000  -0.013  -0.000  -0.000
 -0.000   0.000  -0.000  -0.023   0.000  -0.000  -0.013   0.000
 -0.000   0.000  -0.000   0.000  -0.023  -0.000   0.000  -0.013
 total augmentation occupancy for first ion, spin component:           1
  1.383  -0.349   0.000   0.000   0.001   0.000  -0.000  -0.001
 -0.349   0.366   0.000   0.000  -0.003  -0.000  -0.000   0.001
  0.000   0.000   0.645   0.004   0.010  -0.122  -0.001  -0.001
  0.000   0.000   0.004   0.647  -0.001  -0.001  -0.119  -0.000
  0.001  -0.003   0.010  -0.001   0.646  -0.001  -0.000  -0.120
  0.000  -0.000  -0.122  -0.001  -0.001   0.026   0.000   0.000
 -0.000  -0.000  -0.001  -0.119  -0.000   0.000   0.026   0.000
 -0.001   0.001  -0.001  -0.000  -0.120   0.000   0.000   0.026


------------------------ aborting loop because EDIFF is reached ----------------------------------------




--------------------------------------------------------------------------------------------------------


    CHARGE:  VPU time    1.66: CPU time    1.66
    FORLOC:  VPU time    0.04: CPU time    0.04
    FORNL :  VPU time    7.82: CPU time    7.82
    STRESS:  VPU time   22.16: CPU time   22.16
    FORCOR:  VPU time    0.21: CPU time    0.21
    FORHAR:  VPU time    0.08: CPU time    0.08
    MIXING:  VPU time    0.01: CPU time    0.01


--------------------------------------------------------------------------------------------------------



  FREE ENERGIE OF THE ION-ELECTRON SYSTEM (eV)
  ---------------------------------------------------
  free  energy   TOTEN  =      -118.233021 eV

  energy  without entropy=     -118.232250  energy(sigma->0) =     -118.232635
 

  FORCE on cell =-STRESS in cart. coord.  units (eV/reduce length):
  Direction    X        Y        Z        XY       YZ       ZX
  --------------------------------------------------------------------------------------
  Alpha Z     -5.81     -5.81     -5.81
  Ewald     -754.75   -754.74   -754.74     -0.00      0.00      0.00
  Hartree      1.06      1.06      1.06     -0.00     -0.00     -0.00
  E(xc)     -264.81   -264.81   -264.81     -0.00     -0.00      0.00
  Local       -5.96     -5.97     -5.97      0.00     -0.00     -0.00
  n-local    593.91    594.76    593.06     -0.33     -0.10      0.13
  augment    -35.69    -35.69    -35.69      0.00      0.00      0.00
  Kinetic    447.07    442.59    451.56      7.27      2.86     -1.55
  -------------------------------------------------------------------------------------
  Total      -24.97    -24.97    -24.97      0.00      0.00      0.00
  in kB      -67.56    -67.56    -67.56      0.00      0.00      0.00
  external pressure =      -67.56 kB  Pullay stress =        0.00 kB


 VOLUME and BASIS-vectors are now :
 -----------------------------------------------------------------------------
  energy-cutoff  :      500.00
  volume of cell :      592.20
      direct lattice vectors                 reciprocal lattice vectors
     8.397597249  0.000000000  0.000000000     0.119081681  0.000000000  0.000000000
     0.000000000  8.397597249  0.000000000     0.000000000  0.119081681  0.000000000
     0.000000000  0.000000000  8.397597249     0.000000000  0.000000000  0.119081681

  length of vectors
     8.397597249  8.397597249  8.397597249     0.119081681  0.119081681  0.119081681


 FORCES acting on ions
    electron-ion (+dipol)            ewald-force                    non-local-force                 convergence-correction
 -----------------------------------------------------------------------------------------------
   0.339E+00 -.118E-13 -.114E-07   -.284E+00 0.411E-14 0.619E-14   -.834E-01 0.542E-19 -.136E-19   0.334E-05 -.978E-14 -.124E-13
   -.773E-01 -.705E-13 0.831E-13   0.750E-01 0.117E-14 0.737E-14   0.365E-02 -.136E-19 0.169E-20   0.514E-06 -.136E-13 -.982E-14
   0.251E-01 -.242E-14 -.173E-13   -.237E-01 0.483E-14 0.665E-14   -.163E-02 0.000E+00 0.000E+00   0.114E-05 0.986E-14 -.864E-14
   -.198E-01 -.149E-12 -.335E-12   0.187E-01 0.128E-14 0.138E-13   0.149E-02 0.000E+00 0.000E+00   -.171E-05 0.135E-13 -.573E-14
   0.251E-01 -.408E-13 0.709E-14   -.237E-01 -.522E-14 0.909E-15   -.163E-02 0.678E-20 0.000E+00   0.115E-05 -.299E-14 0.123E-13
   -.198E-01 -.374E-12 0.434E-13   0.187E-01 0.189E-14 0.113E-14   0.149E-02 -.271E-19 0.339E-20   -.172E-05 -.404E-14 0.976E-14
   0.793E-02 0.418E-13 -.204E-14   -.980E-02 0.522E-14 -.525E-14   0.209E-02 -.136E-19 0.000E+00   -.508E-07 0.306E-14 0.855E-14
   -.664E-02 0.311E-12 0.249E-13   0.917E-02 0.167E-14 -.881E-14   -.283E-02 -.474E-19 0.000E+00   -.626E-06 0.395E-14 0.571E-14
   0.434E-01 -.168E-03 0.168E-03   -.448E-01 0.168E-03 -.168E-03   0.228E-03 0.194E-04 -.194E-04   0.151E-06 -.670E-07 0.670E-07
   -.263E-01 0.827E-04 -.827E-04   0.252E-01 -.502E-04 0.502E-04   0.340E-03 -.266E-04 0.266E-04   -.162E-06 -.139E-07 0.139E-07
   0.434E-01 0.168E-03 0.168E-03   -.448E-01 -.168E-03 -.168E-03   0.228E-03 -.194E-04 -.194E-04   0.151E-06 0.670E-07 0.670E-07
   -.263E-01 -.827E-04 -.827E-04   0.252E-01 0.502E-04 0.502E-04   0.340E-03 0.266E-04 0.266E-04   -.162E-06 0.139E-07 0.139E-07
   0.434E-01 -.168E-03 -.168E-03   -.448E-01 0.168E-03 0.168E-03   0.228E-03 0.194E-04 0.194E-04   0.151E-06 -.670E-07 -.670E-07
   -.263E-01 0.827E-04 0.827E-04   0.252E-01 -.502E-04 -.502E-04   0.340E-03 -.266E-04 -.266E-04   -.162E-06 -.139E-07 -.139E-07
   0.434E-01 0.168E-03 -.168E-03   -.448E-01 -.168E-03 0.168E-03   0.228E-03 -.194E-04 0.194E-04   0.151E-06 0.670E-07 -.670E-07
   -.263E-01 -.827E-04 0.827E-04   0.252E-01 0.502E-04 -.502E-04   0.340E-03 0.266E-04 -.266E-04   -.162E-06 0.139E-07 -.139E-07
   -.419E-01 -.312E-14 0.746E-01   0.363E-01 0.538E-14 -.687E-01   0.101E-01 -.847E-21 -.104E-01   -.739E-06 -.697E-14 0.516E-07
   -.418E-01 0.247E-12 -.753E-01   0.360E-01 0.716E-14 0.693E-01   0.102E-01 0.000E+00 0.107E-01   -.631E-06 -.359E-14 0.106E-07
   -.104E-02 -.116E-13 0.679E-02   0.121E-02 0.102E-13 -.568E-02   -.336E-03 0.000E+00 -.519E-03   0.436E-06 0.696E-14 0.537E-06
   -.920E-03 0.626E-13 -.684E-02   0.110E-02 0.106E-13 0.569E-02   -.354E-03 0.000E+00 0.545E-03   0.433E-06 0.353E-14 -.593E-06
   -.419E-01 -.333E-14 -.746E-01   0.363E-01 0.583E-14 0.687E-01   0.101E-01 0.000E+00 0.104E-01   -.739E-06 -.105E-13 -.516E-07
   -.418E-01 -.606E-13 0.753E-01   0.360E-01 0.716E-14 -.693E-01   0.102E-01 -.508E-20 -.107E-01   -.631E-06 -.939E-14 -.106E-07
   -.104E-02 -.152E-13 -.679E-02   0.121E-02 0.994E-14 0.568E-02   -.336E-03 -.271E-19 0.519E-03   0.436E-06 0.104E-13 -.537E-06
   -.920E-03 -.215E-12 0.684E-02   0.110E-02 0.705E-14 -.569E-02   -.354E-03 0.000E+00 -.545E-03   0.433E-06 0.928E-14 0.593E-06
   -.419E-01 -.746E-01 0.764E-14   0.363E-01 0.687E-01 -.724E-14   0.101E-01 0.104E-01 0.000E+00   -.738E-06 -.548E-07 -.943E-14
   -.418E-01 0.753E-01 -.434E-12   0.360E-01 -.693E-01 0.204E-14   0.102E-01 -.107E-01 0.169E-20   -.630E-06 -.730E-08 -.135E-13
   -.419E-01 0.746E-01 0.775E-15   0.363E-01 -.687E-01 0.165E-14   0.101E-01 -.104E-01 0.169E-20   -.738E-06 0.548E-07 -.597E-14
   -.418E-01 -.753E-01 -.507E-14   0.360E-01 0.693E-01 0.737E-14   0.102E-01 0.107E-01 0.000E+00   -.630E-06 0.730E-08 -.775E-14
   -.104E-02 -.679E-02 -.386E-14   0.121E-02 0.568E-02 -.145E-14   -.336E-03 0.519E-03 0.000E+00   0.436E-06 -.541E-06 0.943E-14
   -.920E-03 0.684E-02 0.165E-12   0.110E-02 -.569E-02 -.739E-14   -.354E-03 -.545E-03 0.000E+00   0.432E-06 0.596E-06 0.134E-13
   -.104E-02 0.679E-02 0.805E-15   0.121E-02 -.568E-02 -.167E-14   -.336E-03 -.519E-03 0.000E+00   0.436E-06 0.541E-06 0.592E-14
   -.920E-03 -.684E-02 -.708E-14   0.110E-02 0.569E-02 -.739E-14   -.354E-03 0.545E-03 0.000E+00   0.432E-06 -.596E-06 0.765E-14
 -----------------------------------------------------------------------------------------------
   0.354E-05 -.587E-12 -.114E-07   0.566E-14 -.593E-15 0.386E-14   -.530E-05 -.163E-17 -.173E-17   -.885E-08 0.223E-16 0.348E-16
 
 
 POSITION                                       TOTAL-FORCE (eV/Angst)
 -----------------------------------------------------------------------------------
      2.10940      2.09940      0.00000        -0.028200      0.000000      0.000000
      6.29820      2.09940      0.00000         0.001378      0.000000      0.000000
      2.09940      6.29820      0.00000        -0.000285      0.000000      0.000000
      6.29820      6.29820      0.00000         0.000357     -0.000000      0.000000
      2.09940      2.09940      4.19880        -0.000285      0.000000     -0.000000
      6.29820      2.09940      4.19880         0.000357      0.000000      0.000000
      2.09940      6.29820      4.19880         0.000218      0.000000      0.000000
      6.29820      6.29820      4.19880        -0.000300     -0.000000      0.000000
      2.09940      0.00000      2.09940        -0.001175      0.000019     -0.000019
      6.29820      0.00000      2.09940        -0.000728      0.000006     -0.000006
      2.09940      4.19880      2.09940        -0.001175     -0.000019     -0.000019
      6.29820      4.19880      2.09940        -0.000728     -0.000006     -0.000006
      2.09940      0.00000      6.29820        -0.001175      0.000019      0.000019
      6.29820      0.00000      6.29820        -0.000728      0.000006      0.000006
      2.09940      4.19880      6.29820        -0.001175     -0.000019      0.000019
      6.29820      4.19880      6.29820        -0.000728     -0.000006      0.000006
      0.00000      2.09940      2.09940         0.004422     -0.000000     -0.004510
      4.19880      2.09940      2.09940         0.004512      0.000000      0.004638
      0.00000      6.29820      2.09940        -0.000167      0.000000      0.000588
      4.19880      6.29820      2.09940        -0.000174      0.000000     -0.000602
      0.00000      2.09940      6.29820         0.004422      0.000000      0.004510
      4.19880      2.09940      6.29820         0.004512      0.000000     -0.004638
      0.00000      6.29820      6.29820        -0.000167      0.000000     -0.000588
      4.19880      6.29820      6.29820        -0.000174      0.000000      0.000602
      0.00000      0.00000      0.00000         0.004422      0.004510      0.000000
      4.19880      0.00000      0.00000         0.004512     -0.004638     -0.000000
      0.00000      4.19880      0.00000         0.004422     -0.004510     -0.000000
      4.19880      4.19880      0.00000         0.004512      0.004638      0.000000
      0.00000      0.00000      4.19880        -0.000167     -0.000588     -0.000000
      4.19880      0.00000      4.19880        -0.000174      0.000602      0.000000
      0.00000      4.19880      4.19880        -0.000167      0.000588      0.000000
      4.19880      4.19880      4.19880        -0.000174     -0.000602      0.000000
 -----------------------------------------------------------------------------------
    total drift:                               -0.000002     -0.000000     -0.000000


--------------------------------------------------------------------------------------------------------



 mean value of Nose-termostat <S>:     1.000 mean value of <T> :     0.000
 mean temperature <T/S>/<1/S>  :     0.000

     LOOP+:  VPU time  377.72: CPU time  377.73
  
  
 General timing and accounting informations for this job:
 ========================================================
  
                  Total CPU time used (sec):      386.120
                            User time (sec):      360.605
                          System time (sec):       25.515
                         Elapsed time (sec):      386.128
  
                   Maximum memory used (kb):     1019816.
                   Average memory used (kb):           0.
  
                          Minor page faults:       238877
                          Major page faults:            0
                 Voluntary context switches:          903
