   2   2   0   0
  0.1728916E+02  0.2940234E-09  0.2940234E-09  0.4603737E-09  0.5000000E-15
  1.000000000000000E-004
  CAR 
 unknown system                          
     11.22471254    -29.33243676  301      5.84314425      1.00000000
    -29.332  0.0000E+00  0.0000E+00
    -29.197  0.0000E+00  0.0000E+00
    -29.062  0.0000E+00  0.0000E+00
    -28.927  0.0000E+00  0.0000E+00
    -28.792  0.0000E+00  0.0000E+00
    -28.656  0.0000E+00  0.0000E+00
    -28.521  0.0000E+00  0.0000E+00
    -28.386  0.0000E+00  0.0000E+00
    -28.251  0.0000E+00  0.0000E+00
    -28.116  0.0000E+00  0.0000E+00
    -27.981  0.0000E+00  0.0000E+00
    -27.845  0.0000E+00  0.0000E+00
    -27.710  0.0000E+00  0.0000E+00
    -27.575  0.0000E+00  0.0000E+00
    -27.440  0.1196E+00  0.1617E-01
    -27.305  0.5759E+01  0.9225E+00
    -27.169  0.8032E+01  0.3054E+01
    -27.034  0.9261E+01  0.4596E+01
    -26.899  0.1575E+02  0.7202E+01
    -26.764  0.1739E+02  0.1149E+02
    -26.629  0.2367E+00  0.1200E+02
    -26.493  0.0000E+00  0.1200E+02
    -26.358  0.0000E+00  0.1200E+02
    -26.223  0.0000E+00  0.1200E+02
    -26.088  0.0000E+00  0.1200E+02
    -25.953  0.0000E+00  0.1200E+02
    -25.817  0.0000E+00  0.1200E+02
    -25.682  0.0000E+00  0.1200E+02
    -25.547  0.0000E+00  0.1200E+02
    -25.412  0.0000E+00  0.1200E+02
    -25.277  0.0000E+00  0.1200E+02
    -25.142  0.0000E+00  0.1200E+02
    -25.006  0.0000E+00  0.1200E+02
    -24.871  0.0000E+00  0.1200E+02
    -24.736  0.0000E+00  0.1200E+02
    -24.601  0.0000E+00  0.1200E+02
    -24.466  0.0000E+00  0.1200E+02
    -24.330  0.0000E+00  0.1200E+02
    -24.195  0.0000E+00  0.1200E+02
    -24.060  0.0000E+00  0.1200E+02
    -23.925  0.0000E+00  0.1200E+02
    -23.790  0.0000E+00  0.1200E+02
    -23.654  0.0000E+00  0.1200E+02
    -23.519  0.0000E+00  0.1200E+02
    -23.384  0.0000E+00  0.1200E+02
    -23.249  0.0000E+00  0.1200E+02
    -23.114  0.0000E+00  0.1200E+02
    -22.978  0.0000E+00  0.1200E+02
    -22.843  0.0000E+00  0.1200E+02
    -22.708  0.0000E+00  0.1200E+02
    -22.573  0.0000E+00  0.1200E+02
    -22.438  0.0000E+00  0.1200E+02
    -22.303  0.0000E+00  0.1200E+02
    -22.167  0.0000E+00  0.1200E+02
    -22.032  0.0000E+00  0.1200E+02
    -21.897  0.0000E+00  0.1200E+02
    -21.762  0.0000E+00  0.1200E+02
    -21.627  0.0000E+00  0.1200E+02
    -21.491  0.0000E+00  0.1200E+02
    -21.356  0.0000E+00  0.1200E+02
    -21.221  0.0000E+00  0.1200E+02
    -21.086  0.0000E+00  0.1200E+02
    -20.951  0.0000E+00  0.1200E+02
    -20.815  0.0000E+00  0.1200E+02
    -20.680  0.0000E+00  0.1200E+02
    -20.545  0.0000E+00  0.1200E+02
    -20.410  0.0000E+00  0.1200E+02
    -20.275  0.0000E+00  0.1200E+02
    -20.139  0.0000E+00  0.1200E+02
    -20.004  0.0000E+00  0.1200E+02
    -19.869  0.0000E+00  0.1200E+02
    -19.734  0.0000E+00  0.1200E+02
    -19.599  0.0000E+00  0.1200E+02
    -19.464  0.0000E+00  0.1200E+02
    -19.328  0.0000E+00  0.1200E+02
    -19.193  0.0000E+00  0.1200E+02
    -19.058  0.0000E+00  0.1200E+02
    -18.923  0.0000E+00  0.1200E+02
    -18.788  0.0000E+00  0.1200E+02
    -18.652  0.0000E+00  0.1200E+02
    -18.517  0.0000E+00  0.1200E+02
    -18.382  0.0000E+00  0.1200E+02
    -18.247  0.0000E+00  0.1200E+02
    -18.112  0.0000E+00  0.1200E+02
    -17.976  0.0000E+00  0.1200E+02
    -17.841  0.0000E+00  0.1200E+02
    -17.706  0.0000E+00  0.1200E+02
    -17.571  0.0000E+00  0.1200E+02
    -17.436  0.0000E+00  0.1200E+02
    -17.300  0.0000E+00  0.1200E+02
    -17.165  0.0000E+00  0.1200E+02
    -17.030  0.0000E+00  0.1200E+02
    -16.895  0.0000E+00  0.1200E+02
    -16.760  0.0000E+00  0.1200E+02
    -16.625  0.0000E+00  0.1200E+02
    -16.489  0.0000E+00  0.1200E+02
    -16.354  0.0000E+00  0.1200E+02
    -16.219  0.0000E+00  0.1200E+02
    -16.084  0.0000E+00  0.1200E+02
    -15.949  0.0000E+00  0.1200E+02
    -15.813  0.0000E+00  0.1200E+02
    -15.678  0.0000E+00  0.1200E+02
    -15.543  0.0000E+00  0.1200E+02
    -15.408  0.0000E+00  0.1200E+02
    -15.273  0.0000E+00  0.1200E+02
    -15.137  0.0000E+00  0.1200E+02
    -15.002  0.0000E+00  0.1200E+02
    -14.867  0.0000E+00  0.1200E+02
    -14.732  0.0000E+00  0.1200E+02
    -14.597  0.0000E+00  0.1200E+02
    -14.461  0.0000E+00  0.1200E+02
    -14.326  0.0000E+00  0.1200E+02
    -14.191  0.0000E+00  0.1200E+02
    -14.056  0.0000E+00  0.1200E+02
    -13.921  0.0000E+00  0.1200E+02
    -13.786  0.0000E+00  0.1200E+02
    -13.650  0.0000E+00  0.1200E+02
    -13.515  0.0000E+00  0.1200E+02
    -13.380  0.0000E+00  0.1200E+02
    -13.245  0.0000E+00  0.1200E+02
    -13.110  0.0000E+00  0.1200E+02
    -12.974  0.0000E+00  0.1200E+02
    -12.839  0.0000E+00  0.1200E+02
    -12.704  0.0000E+00  0.1200E+02
    -12.569  0.0000E+00  0.1200E+02
    -12.434  0.0000E+00  0.1200E+02
    -12.298  0.0000E+00  0.1200E+02
    -12.163  0.0000E+00  0.1200E+02
    -12.028  0.0000E+00  0.1200E+02
    -11.893  0.0000E+00  0.1200E+02
    -11.758  0.0000E+00  0.1200E+02
    -11.622  0.0000E+00  0.1200E+02
    -11.487  0.0000E+00  0.1200E+02
    -11.352  0.0000E+00  0.1200E+02
    -11.217  0.0000E+00  0.1200E+02
    -11.082  0.0000E+00  0.1200E+02
    -10.947  0.0000E+00  0.1200E+02
    -10.811  0.0000E+00  0.1200E+02
    -10.676  0.0000E+00  0.1200E+02
    -10.541  0.0000E+00  0.1200E+02
    -10.406  0.0000E+00  0.1200E+02
    -10.271  0.0000E+00  0.1200E+02
    -10.135  0.0000E+00  0.1200E+02
    -10.000  0.0000E+00  0.1200E+02
     -9.865  0.0000E+00  0.1200E+02
     -9.730  0.0000E+00  0.1200E+02
     -9.595  0.0000E+00  0.1200E+02
     -9.459  0.0000E+00  0.1200E+02
     -9.324  0.0000E+00  0.1200E+02
     -9.189  0.0000E+00  0.1200E+02
     -9.054  0.0000E+00  0.1200E+02
     -8.919  0.0000E+00  0.1200E+02
     -8.783  0.0000E+00  0.1200E+02
     -8.648  0.0000E+00  0.1200E+02
     -8.513  0.0000E+00  0.1200E+02
     -8.378  0.0000E+00  0.1200E+02
     -8.243  0.0000E+00  0.1200E+02
     -8.108  0.0000E+00  0.1200E+02
     -7.972  0.0000E+00  0.1200E+02
     -7.837  0.0000E+00  0.1200E+02
     -7.702  0.0000E+00  0.1200E+02
     -7.567  0.0000E+00  0.1200E+02
     -7.432  0.0000E+00  0.1200E+02
     -7.296  0.0000E+00  0.1200E+02
     -7.161  0.0000E+00  0.1200E+02
     -7.026  0.0000E+00  0.1200E+02
     -6.891  0.0000E+00  0.1200E+02
     -6.756  0.0000E+00  0.1200E+02
     -6.620  0.0000E+00  0.1200E+02
     -6.485  0.0000E+00  0.1200E+02
     -6.350  0.0000E+00  0.1200E+02
     -6.215  0.0000E+00  0.1200E+02
     -6.080  0.0000E+00  0.1200E+02
     -5.944  0.0000E+00  0.1200E+02
     -5.809  0.0000E+00  0.1200E+02
     -5.674  0.0000E+00  0.1200E+02
     -5.539  0.0000E+00  0.1200E+02
     -5.404  0.0000E+00  0.1200E+02
     -5.269  0.0000E+00  0.1200E+02
     -5.133  0.0000E+00  0.1200E+02
     -4.998  0.0000E+00  0.1200E+02
     -4.863  0.0000E+00  0.1200E+02
     -4.728  0.0000E+00  0.1200E+02
     -4.593  0.0000E+00  0.1200E+02
     -4.457  0.0000E+00  0.1200E+02
     -4.322  0.0000E+00  0.1200E+02
     -4.187  0.0000E+00  0.1200E+02
     -4.052  0.0000E+00  0.1200E+02
     -3.917  0.0000E+00  0.1200E+02
     -3.781  0.0000E+00  0.1200E+02
     -3.646  0.0000E+00  0.1200E+02
     -3.511  0.0000E+00  0.1200E+02
     -3.376  0.0000E+00  0.1200E+02
     -3.241  0.0000E+00  0.1200E+02
     -3.105  0.0000E+00  0.1200E+02
     -2.970  0.0000E+00  0.1200E+02
     -2.835  0.0000E+00  0.1200E+02
     -2.700  0.0000E+00  0.1200E+02
     -2.565  0.0000E+00  0.1200E+02
     -2.430  0.0000E+00  0.1200E+02
     -2.294  0.0000E+00  0.1200E+02
     -2.159  0.0000E+00  0.1200E+02
     -2.024  0.0000E+00  0.1200E+02
     -1.889  0.0000E+00  0.1200E+02
     -1.754  0.0000E+00  0.1200E+02
     -1.618  0.0000E+00  0.1200E+02
     -1.483  0.0000E+00  0.1200E+02
     -1.348  0.0000E+00  0.1200E+02
     -1.213  0.0000E+00  0.1200E+02
     -1.078  0.0000E+00  0.1200E+02
     -0.942  0.0000E+00  0.1200E+02
     -0.807  0.0000E+00  0.1200E+02
     -0.672  0.0000E+00  0.1200E+02
     -0.537  0.0000E+00  0.1200E+02
     -0.402  0.0000E+00  0.1200E+02
     -0.266  0.3351E-15  0.1200E+02
     -0.131  0.1184E+00  0.1202E+02
      0.004  0.0000E+00  0.1202E+02
      0.139  0.2092E+00  0.1204E+02
      0.274  0.0000E+00  0.1205E+02
      0.409  0.0000E+00  0.1205E+02
      0.545  0.0000E+00  0.1205E+02
      0.680  0.0000E+00  0.1205E+02
      0.815  0.8803E-05  0.1205E+02
      0.950  0.0000E+00  0.1214E+02
      1.085  0.2328E+00  0.1218E+02
      1.221  0.4734E+00  0.1237E+02
      1.356  0.0000E+00  0.1237E+02
      1.491  0.0000E+00  0.1237E+02
      1.626  0.0000E+00  0.1237E+02
      1.761  0.0000E+00  0.1237E+02
      1.897  0.0000E+00  0.1237E+02
      2.032  0.1420E+01  0.1256E+02
      2.167  0.0000E+00  0.1256E+02
      2.302  0.2336E+00  0.1259E+02
      2.437  0.0000E+00  0.1259E+02
      2.573  0.6909E-01  0.1260E+02
      2.708  0.1445E-08  0.1269E+02
      2.843  0.9468E+00  0.1288E+02
      2.978  0.0000E+00  0.1288E+02
      3.113  0.3777E+01  0.1339E+02
      3.248  0.2826E+01  0.1377E+02
      3.384  0.0000E+00  0.1379E+02
      3.519  0.0000E+00  0.1379E+02
      3.654  0.1420E+01  0.1398E+02
      3.789  0.0000E+00  0.1398E+02
      3.924  0.5681E+01  0.1475E+02
      4.060  0.9451E+00  0.1514E+02
      4.195  0.1578E+01  0.1545E+02
      4.330  0.1420E+01  0.1571E+02
      4.465  0.4734E+00  0.1610E+02
      4.600  0.2060E+01  0.1637E+02
      4.736  0.4165E+00  0.1654E+02
      4.871  0.2842E+01  0.1706E+02
      5.006  0.1802E+01  0.1746E+02
      5.141  0.1416E+01  0.1782E+02
      5.276  0.3347E+01  0.1847E+02
      5.412  0.1420E+01  0.1907E+02
      5.547  0.1894E+01  0.1936E+02
      5.682  0.3136E+00  0.1940E+02
      5.817  0.2016E+01  0.1989E+02
      5.952  0.1931E-06  0.2003E+02
      6.087  0.1960E+01  0.2033E+02
      6.223  0.3142E+01  0.2090E+02
      6.358  0.8074E+00  0.2145E+02
      6.493  0.1953E+01  0.2186E+02
      6.628  0.2240E+01  0.2222E+02
      6.763  0.5157E+01  0.2327E+02
      6.899  0.2491E+01  0.2376E+02
      7.034  0.4649E+01  0.2456E+02
      7.169  0.3298E+01  0.2528E+02
      7.304  0.2479E+01  0.2579E+02
      7.439  0.8909E+00  0.2610E+02
      7.575  0.1968E+01  0.2646E+02
      7.710  0.7092E+00  0.2669E+02
      7.845  0.6124E+00  0.2690E+02
      7.980  0.1657E+01  0.2723E+02
      8.115  0.3037E+01  0.2796E+02
      8.251  0.0000E+00  0.2810E+02
      8.386  0.2720E-07  0.2810E+02
      8.521  0.1358E+01  0.2834E+02
      8.656  0.1241E+00  0.2837E+02
      8.791  0.3736E+00  0.2859E+02
      8.926  0.2840E+01  0.2922E+02
      9.062  0.6155E+01  0.3018E+02
      9.197  0.1792E+01  0.3061E+02
      9.332  0.6316E+01  0.3170E+02
      9.467  0.0000E+00  0.3200E+02
      9.602  0.0000E+00  0.3200E+02
      9.738  0.0000E+00  0.3200E+02
      9.873  0.0000E+00  0.3200E+02
     10.008  0.0000E+00  0.3200E+02
     10.143  0.0000E+00  0.3200E+02
     10.278  0.0000E+00  0.3200E+02
     10.414  0.0000E+00  0.3200E+02
     10.549  0.0000E+00  0.3200E+02
     10.684  0.0000E+00  0.3200E+02
     10.819  0.0000E+00  0.3200E+02
     10.954  0.0000E+00  0.3200E+02
     11.090  0.0000E+00  0.3200E+02
     11.225  0.0000E+00  0.3200E+02
