    2    2    1    1
  0.1728916E+02  0.2940234E-09  0.2940234E-09  0.4603737E-09  0.5000000E-15
  1.000000000000000E-004
  CAR 
 unknown system                          
   20   27   16
 
  0.0000000E+00  0.0000000E+00  0.0000000E+00  0.8000000E-02
   1      -27.4889
   2      -26.8191
   3      -26.8124
   4      -26.7521
   5      -26.7068
   6      -26.7057
   7       -0.2113
   8        3.2774
   9        6.6735
  10        6.7665
  11        6.8688
  12        6.9149
  13        7.2173
  14        7.2729
  15        7.4832
  16        7.5407
 
  0.2000000E+00  0.0000000E+00  0.0000000E+00  0.3200000E-01
   1      -27.4049
   2      -26.9737
   3      -26.8666
   4      -26.8653
   5      -26.7933
   6      -26.7261
   7        0.8442
   8        3.9790
   9        5.4669
  10        5.7316
  11        6.8005
  12        7.0449
  13        7.1261
  14        7.4860
  15        7.6873
  16        7.9042
 
  0.4000000E+00  0.0000000E+00  0.0000000E+00  0.3200000E-01
   1      -27.2309
   2      -27.2233
   3      -27.1062
   4      -26.9422
   5      -26.9052
   6      -26.7641
   7        3.0389
   8        4.0407
   9        4.2806
  10        5.2680
  11        6.4684
  12        6.6818
  13        7.0122
  14        8.9813
  15        9.2005
  16        9.3216
 
  0.2000000E+00  0.2000000E+00  0.0000000E+00  0.1600000E-01
   1      -27.2674
   2      -27.1045
   3      -27.0889
   4      -26.9199
   5      -26.8749
   6      -26.8153
   7        2.5764
   8        4.5966
   9        4.6298
  10        4.8896
  11        6.2747
  12        6.8319
  13        6.9355
  14        8.1219
  15        8.7857
  16        9.2928
 
  0.4000000E+00  0.2000000E+00  0.0000000E+00  0.3200000E-01
   1      -27.2285
   2      -27.1253
   3      -27.1023
   4      -27.0352
   5      -26.9808
   6      -26.8742
   7        4.1127
   8        4.2098
   9        4.2953
  10        4.8941
  11        6.1832
  12        6.4172
  13        7.3342
  14        9.0243
  15        9.2793
  16        9.3796
 
 -0.4000000E+00  0.2000000E+00  0.0000000E+00  0.3200000E-01
   1      -27.2678
   2      -27.1125
   3      -27.0952
   4      -26.9202
   5      -26.8724
   6      -26.8138
   7        2.5990
   8        4.5739
   9        4.6309
  10        4.8921
  11        6.2638
  12        6.8209
  13        6.9483
  14        8.1393
  15        8.7931
  16        9.3020
 
 -0.2000000E+00  0.2000000E+00  0.0000000E+00  0.1600000E-01
   1      -27.4049
   2      -26.9723
   3      -26.8719
   4      -26.8670
   5      -26.7921
   6      -26.7289
   7        0.8538
   8        3.9820
   9        5.4498
  10        5.7685
  11        6.8377
  12        6.9996
  13        7.1746
  14        7.4343
  15        7.6897
  16        7.8769
 
  0.4000000E+00  0.4000000E+00  0.0000000E+00  0.1600000E-01
   1      -27.2338
   2      -27.1285
   3      -27.1044
   4      -27.0393
   5      -26.9756
   6      -26.8758
   7        4.1074
   8        4.1924
   9        4.2760
  10        4.9311
  11        6.1373
  12        6.4695
  13        7.3667
  14        9.0276
  15        9.2983
  16        9.3812
 
 -0.4000000E+00  0.4000000E+00  0.0000000E+00  0.1600000E-01
   1      -27.2359
   2      -27.2249
   3      -27.1082
   4      -26.9512
   5      -26.9004
   6      -26.7696
   7        3.0501
   8        4.0309
   9        4.2545
  10        5.3012
  11        6.4142
  12        6.7429
  13        7.0653
  14        8.9869
  15        9.1972
  16        9.3253
 
  0.0000000E+00  0.0000000E+00  0.2000000E+00  0.1600000E-01
   1      -27.4217
   2      -26.8259
   3      -26.8085
   4      -26.8023
   5      -26.7176
   6      -26.7159
   7        0.1306
   8        3.1012
   9        6.3594
  10        6.5395
  11        6.6204
  12        6.7282
  13        7.0331
  14        7.0866
  15        7.8434
  16        7.9038
 
  0.2000000E+00  0.0000000E+00  0.2000000E+00  0.6400000E-01
   1      -27.3626
   2      -26.9621
   3      -26.9300
   4      -26.8523
   5      -26.7868
   6      -26.7395
   7        1.1399
   8        3.8753
   9        5.1781
  10        5.8066
  11        6.5800
  12        6.9567
  13        6.9938
  14        7.6045
  15        7.9257
  16        8.0211
 
  0.4000000E+00  0.0000000E+00  0.2000000E+00  0.6400000E-01
   1      -27.3234
   2      -27.1860
   3      -27.0790
   4      -26.9256
   5      -26.8753
   6      -26.7813
   7        3.0394
   8        3.9572
   9        4.5524
  10        5.2075
  11        6.6716
  12        6.7486
  13        7.0539
  14        8.8701
  15        9.0304
  16        9.2066
 
  0.2000000E+00  0.2000000E+00  0.2000000E+00  0.3200000E-01
   1      -27.2909
   2      -27.1356
   3      -27.0242
   4      -26.9636
   5      -26.8303
   6      -26.8258
   7        2.7488
   8        4.3882
   9        4.8138
  10        5.0139
  11        6.2551
  12        6.6913
  13        6.8661
  14        8.1006
  15        8.8646
  16        8.9813
 
  0.4000000E+00  0.2000000E+00  0.2000000E+00  0.6400000E-01
   1      -27.2816
   2      -27.1903
   3      -27.1027
   4      -26.9627
   5      -26.9408
   6      -26.8656
   7        3.8711
   8        4.3613
   9        4.7443
  10        4.8226
  11        6.0979
  12        6.3920
  13        7.3443
  14        8.8344
  15        9.0178
  16        9.3736
 
 -0.4000000E+00  0.2000000E+00  0.2000000E+00  0.6400000E-01
   1      -27.2915
   2      -27.1413
   3      -27.0306
   4      -26.9635
   5      -26.8290
   6      -26.8258
   7        2.7689
   8        4.3718
   9        4.8162
  10        5.0154
  11        6.2561
  12        6.7154
  13        6.8458
  14        8.1122
  15        8.8614
  16        8.9904
 
 -0.2000000E+00  0.2000000E+00  0.2000000E+00  0.3200000E-01
   1      -27.3621
   2      -26.9617
   3      -26.9284
   4      -26.8584
   5      -26.7875
   6      -26.7427
   7        1.1495
   8        3.8780
   9        5.1728
  10        5.8421
  11        6.6179
  12        6.9150
  13        7.0176
  14        7.5634
  15        7.8922
  16        8.0378
 
  0.4000000E+00  0.4000000E+00  0.2000000E+00  0.3200000E-01
   1      -27.2845
   2      -27.1895
   3      -27.1076
   4      -26.9658
   5      -26.9430
   6      -26.8646
   7        3.8657
   8        4.3555
   9        4.7325
  10        4.8376
  11        6.0644
  12        6.4474
  13        7.3660
  14        8.8338
  15        9.0201
  16        9.3790
 
 -0.4000000E+00  0.4000000E+00  0.2000000E+00  0.3200000E-01
   1      -27.3245
   2      -27.1860
   3      -27.0831
   4      -26.9341
   5      -26.8740
   6      -26.7872
   7        3.0506
   8        3.9565
   9        4.5394
  10        5.2189
  11        6.6203
  12        6.8041
  13        7.1145
  14        8.8610
  15        9.0332
  16        9.2069
 
  0.0000000E+00  0.0000000E+00  0.4000000E+00  0.1600000E-01
   1      -27.2427
   2      -27.0153
   3      -26.7805
   4      -26.7756
   5      -26.7458
   6      -26.7427
   7        1.0703
   8        2.2865
   9        5.9862
  10        6.2911
  11        6.4978
  12        6.5648
  13        6.6988
  14        6.7554
  15        8.4689
  16        8.5164
 
  0.2000000E+00  0.0000000E+00  0.4000000E+00  0.6400000E-01
   1      -27.2476
   2      -27.0936
   3      -26.8852
   4      -26.8206
   5      -26.8175
   6      -26.7746
   7        1.9602
   8        3.0710
   9        5.2857
  10        5.8061
  11        6.2705
  12        6.6578
  13        7.0131
  14        7.2866
  15        8.4576
  16        8.6640
 
  0.4000000E+00  0.0000000E+00  0.4000000E+00  0.6400000E-01
   1      -27.3460
   2      -27.2894
   3      -26.9506
   4      -26.8826
   5      -26.8737
   6      -26.8261
   7        3.2019
   8        3.5970
   9        4.9860
  10        5.3443
  11        6.7121
  12        7.1104
  13        7.2454
  14        8.0688
  15        9.1498
  16        9.2601
 
  0.2000000E+00  0.2000000E+00  0.4000000E+00  0.3200000E-01
   1      -27.2868
   2      -27.2221
   3      -26.9516
   4      -26.9389
   5      -26.8513
   6      -26.8191
   7        3.2221
   8        3.8557
   9        5.2147
  10        5.3280
  11        6.0328
  12        6.1891
  13        7.1758
  14        7.7654
  15        8.9932
  16        9.2831
 
  0.4000000E+00  0.2000000E+00  0.4000000E+00  0.6400000E-01
   1      -27.3223
   2      -27.2890
   3      -27.0472
   4      -26.9802
   5      -26.8670
   6      -26.8340
   7        3.8971
   8        4.1614
   9        5.1225
  10        5.5089
  11        5.6952
  12        6.1593
  13        7.5515
  14        8.0297
  15        9.0876
  16        9.3112
 
 -0.4000000E+00  0.2000000E+00  0.4000000E+00  0.6400000E-01
   1      -27.2874
   2      -27.2239
   3      -26.9542
   4      -26.9452
   5      -26.8499
   6      -26.8204
   7        3.2332
   8        3.8522
   9        5.2206
  10        5.3308
  11        6.0523
  12        6.2162
  13        7.1522
  14        7.7567
  15        8.9846
  16        9.2984
 
 -0.2000000E+00  0.2000000E+00  0.4000000E+00  0.3200000E-01
   1      -27.2461
   2      -27.0916
   3      -26.8856
   4      -26.8229
   5      -26.8217
   6      -26.7787
   7        1.9688
   8        3.0762
   9        5.2957
  10        5.8321
  11        6.2962
  12        6.6863
  13        6.9759
  14        7.2538
  15        8.4232
  16        8.6771
 
  0.4000000E+00  0.4000000E+00  0.4000000E+00  0.3200000E-01
   1      -27.3228
   2      -27.2880
   3      -27.0521
   4      -26.9842
   5      -26.8696
   6      -26.8344
   7        3.8993
   8        4.1715
   9        5.1104
  10        5.5093
  11        5.6801
  12        6.1949
  13        7.5617
  14        8.0315
  15        9.0844
  16        9.3051
 
 -0.4000000E+00  0.4000000E+00  0.4000000E+00  0.3200000E-01
   1      -27.3452
   2      -27.2878
   3      -26.9548
   4      -26.8891
   5      -26.8773
   6      -26.8330
   7        3.2157
   8        3.6112
   9        4.9837
  10        5.3395
  11        6.7539
  12        7.1651
  13        7.2031
  14        8.0413
  15        9.1523
  16        9.2688
