       N       E                     dE             d eps       ncg     rms          rms(c)
DAV:   1     0.146980096431E+03    0.14698E+03   -0.10893E+04   864   0.135E+03
DAV:   2    -0.134848587264E+02   -0.16046E+03   -0.15914E+03   864   0.385E+02
DAV:   3    -0.179279549544E+02   -0.44431E+01   -0.43122E+01  1184   0.659E+01
DAV:   4    -0.179931288030E+02   -0.65174E-01   -0.57305E-01   912   0.857E+00
DAV:   5    -0.179947141532E+02   -0.15854E-02   -0.15850E-02  1136   0.130E+00    0.844E+00
DAV:   6    -0.159056774120E+02    0.20890E+01   -0.66868E+00   968   0.278E+01    0.198E+00
DAV:   7    -0.158039561412E+02    0.10172E+00   -0.59025E-01  1088   0.749E+00    0.767E-01
DAV:   8    -0.157932965604E+02    0.10660E-01   -0.27596E-02   896   0.198E+00    0.158E-01
DAV:   9    -0.157924236753E+02    0.87289E-03   -0.55995E-03   976   0.769E-01    0.268E-02
DAV:  10    -0.157924146010E+02    0.90744E-05   -0.12218E-04  1152   0.117E-01    0.128E-02
DAV:  11    -0.157924101264E+02    0.44746E-05   -0.11492E-05   952   0.362E-02    0.384E-03
DAV:  12    -0.157924086057E+02    0.15206E-05   -0.14456E-06  1160   0.119E-02    0.465E-04
DAV:  13    -0.157924085204E+02    0.85385E-07   -0.44851E-08   872   0.255E-03    0.205E-04
DAV:  14    -0.157924086136E+02   -0.93239E-07   -0.18292E-09   496   0.493E-04    0.314E-05
DAV:  15    -0.157924086306E+02   -0.17043E-07   -0.32270E-10   472   0.213E-04    0.890E-06
DAV:  16    -0.157924086287E+02    0.19686E-08   -0.89705E-11   464   0.124E-04
   1 F= -.15792409E+02 E0= -.15792293E+02  d E =-.232257E-03
