 vasp.4.6.28 25Jul05 complex 
 executed on             LinuxIFC date 2016.11.25  11:54:09
 running on    4 nodes
 distr:  one band on    1 nodes,    4 groups


--------------------------------------------------------------------------------------------------------


 INCAR:
 POTCAR:   PAW_PBE Ti_pv 07Sep2000                
 POTCAR:   PAW_PBE Ti_pv 07Sep2000                
   VRHFIN =Ti: d3 s1                                                            
   LEXCH  = PE                                                                  
   EATOM  =  1042.3781 eV,   76.6126 Ry                                         
                                                                                
   TITEL  = PAW_PBE Ti_pv 07Sep2000                                             
   LULTRA =        F    use ultrasoft PP ?                                      
   IUNSCR =        1    unscreen: 0-lin 1-nonlin 2-no                           
   RPACOR =    2.200    partial core radius                                     
   POMASS =   47.880; ZVAL   =   10.000    mass and valenz                      
   RCORE  =    2.500    outmost cutoff radius                                   
   RWIGS  =    2.500; RWIGS  =    1.323    wigner-seitz radius (au A)           
   ENMAX  =  222.338; ENMIN  =  166.753 eV                                      
   RCLOC  =    1.701    cutoff for local pot                                    
   LCOR   =        T    correct aug charges                                     
   LPAW   =        T    paw PP                                                  
   EAUG   =  482.848                                                            
   DEXC   =    -.008                                                            
   RMAX   =    3.092    core radius for proj-oper                               
   RAUG   =    1.300    factor for augmentation sphere                          
   RDEP   =    2.538    radius for radial grids                                 
   QCUT   =   -4.042; QGAM   =    8.085    optimization parameters              
                                                                                
   Description                                                                  
     l     E      TYP  RCUT    TYP  RCUT                                        
     1   .000     23  2.300                                                     
     1  -.100     23  2.300                                                     
     2   .000     23  2.500                                                     
     2   .000     23  2.500                                                     
     0   .000     23  2.500                                                     
     0  1.500     23  2.500                                                     
     3   .000      7   .000                                                     
  local pseudopotential read in
  partial core-charges read in
  atomic valenz-charges read in
  non local Contribution for L=           1  read in
    real space projection operators read in
  non local Contribution for L=           1  read in
    real space projection operators read in
  non local Contribution for L=           2  read in
    real space projection operators read in
  non local Contribution for L=           2  read in
    real space projection operators read in
  non local Contribution for L=           0  read in
    real space projection operators read in
  non local Contribution for L=           0  read in
    real space projection operators read in
    PAW grid and wavefunctions read in
 
   number of l-projection  operators is LMAX  =           6
   number of lm-projection operators is LMMAX =          18
 
 PAW_PBE Ti_pv 07Sep2000                :
 energy of atom  1       EATOM=-1042.3781
 kinetic energy error for atom=    0.0024 (will be added to EATOM!!)
 
 EXHCAR: internal setup
 exchange correlation table for  LEXCH =        8
   RHO(1)=    0.500       N(1)  =     2000
   RHO(2)=  100.500       N(2)  =     4000
 
 POSCAR: Ti-hcp                                  
  positions in direct lattice
  No initial velocities read in
 


--------------------------------------------------------------------------------------------------------


 ion  position               nearest neighbor table
   1  0.332  0.668  0.250-   2 2.86   2 2.86   2 2.86   2 2.86   2 2.87   2 2.87
   2  0.668  0.332  0.750-   1 2.86   1 2.86   1 2.86   1 2.86   1 2.87   1 2.87
 
  LATTYP: Found a base centered orthorhombic cell.
 ALAT       =     2.9545207598
 B/A-ratio  =     1.7208744689
 C/A-ratio  =     1.5582010102
  
  Lattice vectors:
  
 A1 = (   2.9402223666,   0.0082551467,   0.0000000000)
 A2 = (  -1.4629619568,   2.5504348700,   0.0000000000)
 A3 = (   0.0000000000,   0.0000000000,   4.6037372326)
 Subroutine PRICEL returns:
 Original cell was already a primitive cell.
 

Analysis of symmetry for initial positions (statically):

 Routine SETGRP: Setting up the symmetry group for a 
 base centered orthorhombic supercell.


 Subroutine GETGRP returns: Found  8 space group operations
 (whereof  4 operations were pure point group operations)
 out of a pool of  8 trial point group operations.


The static configuration has the point symmetry C_2h.
 The point group associated with its full space group is D_2h.

Analysis of symmetry for dynamics (positions and initial velocities):

 Subroutine DYNSYM returns: Found  8 space group operations
 (whereof  4 operations were pure point group operations)
 out of a pool of  8 trial space group operations
 (whereof  4 operations were pure point group operations)
 and found also     1 'primitive' translations


The dynamic configuration has the point symmetry C_2h.
 The point group associated with its full space group is D_2h.
 
 
 KPOINTS: Automatic mesh                          

Automatic generation of k-mesh.
 
 Subroutine IBZKPT returns following result:
 ===========================================
 
 Found     27 irreducible k-points:
 
 Following reciprocal coordinates:
            Coordinates               Weight
  0.000000  0.000000  0.000000      1.000000
  0.200000  0.000000  0.000000      4.000000
  0.400000  0.000000  0.000000      4.000000
  0.200000  0.200000  0.000000      2.000000
  0.400000  0.200000  0.000000      4.000000
 -0.400000  0.200000  0.000000      4.000000
 -0.200000  0.200000  0.000000      2.000000
  0.400000  0.400000  0.000000      2.000000
 -0.400000  0.400000  0.000000      2.000000
  0.000000  0.000000  0.200000      2.000000
  0.200000  0.000000  0.200000      8.000000
  0.400000  0.000000  0.200000      8.000000
  0.200000  0.200000  0.200000      4.000000
  0.400000  0.200000  0.200000      8.000000
 -0.400000  0.200000  0.200000      8.000000
 -0.200000  0.200000  0.200000      4.000000
  0.400000  0.400000  0.200000      4.000000
 -0.400000  0.400000  0.200000      4.000000
  0.000000  0.000000  0.400000      2.000000
  0.200000  0.000000  0.400000      8.000000
  0.400000  0.000000  0.400000      8.000000
  0.200000  0.200000  0.400000      4.000000
  0.400000  0.200000  0.400000      8.000000
 -0.400000  0.200000  0.400000      8.000000
 -0.200000  0.200000  0.400000      4.000000
  0.400000  0.400000  0.400000      4.000000
 -0.400000  0.400000  0.400000      4.000000
 
 Following cartesian coordinates:
            Coordinates               Weight
  0.000000  0.000000  0.000000      1.000000
  0.067913  0.038956  0.000000      4.000000
  0.135825  0.077911  0.000000      4.000000
  0.067693  0.117247  0.000000      2.000000
  0.135606  0.156203  0.000000      4.000000
 -0.136045  0.000381  0.000000      4.000000
 -0.068133  0.039336  0.000000      2.000000
  0.135386  0.234495  0.000000      2.000000
 -0.136265  0.078673  0.000000      2.000000
  0.000000  0.000000  0.043443      2.000000
  0.067913  0.038956  0.043443      8.000000
  0.135825  0.077911  0.043443      8.000000
  0.067693  0.117247  0.043443      4.000000
  0.135606  0.156203  0.043443      8.000000
 -0.136045  0.000381  0.043443      8.000000
 -0.068133  0.039336  0.043443      4.000000
  0.135386  0.234495  0.043443      4.000000
 -0.136265  0.078673  0.043443      4.000000
  0.000000  0.000000  0.086886      2.000000
  0.067913  0.038956  0.086886      8.000000
  0.135825  0.077911  0.086886      8.000000
  0.067693  0.117247  0.086886      4.000000
  0.135606  0.156203  0.086886      8.000000
 -0.136045  0.000381  0.086886      8.000000
 -0.068133  0.039336  0.086886      4.000000
  0.135386  0.234495  0.086886      4.000000
 -0.136265  0.078673  0.086886      4.000000
 


--------------------------------------------------------------------------------------------------------




 Dimension of arrays:
   k-Points           NKPTS =     27   number of bands    NBANDS=     16
   number of dos      NEDOS =    301   number of ions     NIONS =      2
   non local maximal  LDIM  =      6   non local SUM 2l+1 LMDIM =     18
   total plane-waves  NPLWV =  20736
   max r-space proj   IRMAX =      1   max aug-charges    IRDMAX=  23479
   dimension x,y,z NGX =    24 NGY =   24 NGZ =   36
   dimension x,y,z NGXF=    48 NGYF=   48 NGZF=   72
   support grid    NGXF=    48 NGYF=   48 NGZF=   72
   ions per type =               2
 NGX,Y,Z   is equivalent  to a cutoff of  13.57, 13.57, 13.00 a.u.
 NGXF,Y,Z  is equivalent  to a cutoff of  27.14, 27.14, 26.00 a.u.


 I would recommend the setting:
   dimension x,y,z NGX =    21 NGY =   21 NGZ =   34
 SYSTEM =  unknown system                          
 POSCAR =  Ti-hcp                                  

 Startparameter for this run:
   NWRITE =      2    write-flag & timer
   PREC   = accura    medium, high low
   ISTART =      0    job   : 0-new  1-cont  2-samecut
   ICHARG =      2    charge: 1-file 2-atom 10-const
   ISPIN  =      1    spin polarized calculation?
   LNONCOLLINEAR =      F non collinear calculations
   LSORBIT =      F    spin-orbit coupling
   INIWAV =      1    electr: 0-lowe 1-rand  2-diag
   LASPH  =      F    aspherical Exc in radial PAW
   METAGGA=      F    non-selfconsistent MetaGGA calc.

 Electronic Relaxation 1
   ENCUT  =  500.0 eV  36.75 Ry    6.06 a.u.   5.36  5.36  8.39*2*pi/ulx,y,z
   ENINI  =  500.0     initial cutoff
   ENAUG  =  482.8 eV  augmentation charge cutoff
   NELM   =     60;   NELMIN=  2; NELMDL=  0     # of ELM steps 
   EDIFF  = 0.1E-07   stopping-criterion for ELM
   LREAL  =      F    real-space projection
   LCOMPAT=      F    compatible to vasp.4.4
   LREAL_COMPAT= F    compatible to vasp.4.5.1-3
   GGA_COMPAT  = T    GGA compatible to vasp.4.4-vasp.4.6
   LMAXPAW     = -100 max onsite density
   LMAXMIX     =    2 max onsite mixed and CHGCAR
   VOSKOWN=      0    Vosko Wilk Nusair interpolation
   ROPT   =    0.00000
 Ionic relaxation
   EDIFFG = 0.1E-06   stopping-criterion for IOM
   NSW    =      0    number of steps for IOM
   NBLOCK =      1;   KBLOCK =      1    inner block; outer block 
   IBRION =     -1    ionic relax: 0-MD 1-quasi-New 2-CG
   NFREE  =      0    steps in history (QN), initial steepest desc. (CG)
   ISIF   =      2    stress and relaxation
   IWAVPR =     10    prediction:  0-non 1-charg 2-wave 3-comb
   ISYM   =      2    0-nonsym 1-usesym 2-fastsym
   LCORR  =      T    Harris-Foulkes like correction to forces

   POTIM  =   0.50    time-step for ionic-motion
   TEIN   =    0.0    initial temperature
   TEBEG  =    0.0;   TEEND  =   0.0 temperature during run
   SMASS  =  -3.00    Nose mass-parameter (am)
   estimated Nose-frequenzy (Omega)   =  0.10E-29 period in steps =****** mass=  -0.198E-27a.u.
   NPACO  =    256;   APACO  = 16.0  distance and # of slots for P.C.
   PSTRESS=    0.0 pullay stress

  Mass of Ions in am
   POMASS =  47.88
  Ionic Valenz
   ZVAL   =  10.00
  Atomic Wigner-Seitz radii
   RWIGS  =  -1.00
   NELECT =      20.0000    total number of electrons
   NUPDOWN=      -1.0000    fix difference up-down

 DOS related values:
   EMIN   =  10.00;   EMAX   =-10.00  energy-range for DOS
   ISMEAR =     0;   SIGMA  =   0.01  broadening in eV -4-tet -1-fermi 0-gaus

 Electronic relaxation 2 (details)
   IALGO  =     38    algorithm
   LDIAG  =      T    sub-space diagonalisation
   IMIX   =      4    mixing-type and parameters
     AMIX     =   0.40;   BMIX     =  1.00
     AMIX_MAG =   1.60;   BMIX_MAG =  1.00
     AMIN     =   0.10
     WC   =   100.;   INIMIX=   1;  MIXPRE=   1

 Intra band minimization:
   WEIMIN = 0.0000     energy-eigenvalue tresh-hold
   EBREAK =  0.18E-09  absolut break condition
   DEPER  =   0.30     relativ break condition  

   TIME   =   0.10     timestep for ELM

  volume/ion in A,a.u.               =      17.29       116.67
  Fermi-wavevector in a.u.,eV,Ry     =   1.364008 25.313879  1.860518

 Second variation
   LSECVAR=     F    do a second variation
 
 Write flags
   LWAVE  =      F    write WAVECAR
   LCHARG =      F    write CHGCAR
   LVTOT  =      F    write LOCPOT, local potential
   LELF   =      F    write electronic localiz. function (ELF)
   LORBIT =      0    0 simple, 1 ext, 2 COOP (PROOUT)


 Dipole corrections
   IDIPOL =      0    1-x, 2-y, 3-z
   LDIPOL =      F    correct potential



--------------------------------------------------------------------------------------------------------


 Static calculation
 charge density will be updated during run
 non-spin polarized calculation
 Variant of blocked Davidson
 Davidson routine will perform the subspace rotation
 performe sub-space diagonalisation
    after iterative eigenvector-optimisation
 modified Broyden-mixing scheme, WC =      100.0
 initial mixing is a Kerker type mixing with AMIX =  0.4000 and BMIX =      1.0000
 Hartree-type preconditioning will be used
 using additional bands            6
 reciprocal scheme for non local part
 use partial core corrections
 calculate Harris-corrections to forces 
   (improved forces if not selfconsistent)
 use gradient corrections 
 use of overlap-Matrix (Vanderbilt PP)
 Gauss-broadening in eV      SIGMA  =   0.01


--------------------------------------------------------------------------------------------------------


  energy-cutoff  :      500.00
  volume of cell :       34.58
      direct lattice vectors                 reciprocal lattice vectors
     2.940222367  0.008255147  0.000000000     0.339563460  0.194777930  0.000000000
    -1.462961957  2.550434870  0.000000000    -0.001099086  0.391459547  0.000000000
     0.000000000  0.000000000  4.603737233     0.000000000  0.000000000  0.217214830

  length of vectors
     2.940233955  2.940233956  4.603737233     0.391461090  0.391461090  0.217214830


 
 k-points in units of 2pi/SCALE and weight: Automatic mesh                          
   0.00000000  0.00000000  0.00000000       0.008
   0.06791269  0.03895559  0.00000000       0.032
   0.13582538  0.07791117  0.00000000       0.032
   0.06769287  0.11724750  0.00000000       0.016
   0.13560557  0.15620308  0.00000000       0.032
  -0.13604520  0.00038074  0.00000000       0.032
  -0.06813251  0.03933632  0.00000000       0.016
   0.13538575  0.23449499  0.00000000       0.016
  -0.13626502  0.07867265  0.00000000       0.016
   0.00000000  0.00000000  0.04344297       0.016
   0.06791269  0.03895559  0.04344297       0.064
   0.13582538  0.07791117  0.04344297       0.064
   0.06769287  0.11724750  0.04344297       0.032
   0.13560557  0.15620308  0.04344297       0.064
  -0.13604520  0.00038074  0.04344297       0.064
  -0.06813251  0.03933632  0.04344297       0.032
   0.13538575  0.23449499  0.04344297       0.032
  -0.13626502  0.07867265  0.04344297       0.032
   0.00000000  0.00000000  0.08688593       0.016
   0.06791269  0.03895559  0.08688593       0.064
   0.13582538  0.07791117  0.08688593       0.064
   0.06769287  0.11724750  0.08688593       0.032
   0.13560557  0.15620308  0.08688593       0.064
  -0.13604520  0.00038074  0.08688593       0.064
  -0.06813251  0.03933632  0.08688593       0.032
   0.13538575  0.23449499  0.08688593       0.032
  -0.13626502  0.07867265  0.08688593       0.032
 
 k-points in reciprocal lattice and weights: Automatic mesh                          
   0.00000000  0.00000000  0.00000000       0.008
   0.20000000  0.00000000  0.00000000       0.032
   0.40000000  0.00000000  0.00000000       0.032
   0.20000000  0.20000000  0.00000000       0.016
   0.40000000  0.20000000  0.00000000       0.032
  -0.40000000  0.20000000  0.00000000       0.032
  -0.20000000  0.20000000  0.00000000       0.016
   0.40000000  0.40000000  0.00000000       0.016
  -0.40000000  0.40000000  0.00000000       0.016
   0.00000000  0.00000000  0.20000000       0.016
   0.20000000  0.00000000  0.20000000       0.064
   0.40000000  0.00000000  0.20000000       0.064
   0.20000000  0.20000000  0.20000000       0.032
   0.40000000  0.20000000  0.20000000       0.064
  -0.40000000  0.20000000  0.20000000       0.064
  -0.20000000  0.20000000  0.20000000       0.032
   0.40000000  0.40000000  0.20000000       0.032
  -0.40000000  0.40000000  0.20000000       0.032
   0.00000000  0.00000000  0.40000000       0.016
   0.20000000  0.00000000  0.40000000       0.064
   0.40000000  0.00000000  0.40000000       0.064
   0.20000000  0.20000000  0.40000000       0.032
   0.40000000  0.20000000  0.40000000       0.064
  -0.40000000  0.20000000  0.40000000       0.064
  -0.20000000  0.20000000  0.40000000       0.032
   0.40000000  0.40000000  0.40000000       0.032
  -0.40000000  0.40000000  0.40000000       0.032
 
 position of ions in fractional coordinates (direct lattice) 
   0.33223018  0.66776982  0.25000000
   0.66776982  0.33223018  0.75000000
 
 position of ions in cartesian coordinates  (Angst):
  -0.00009122  1.70584603  1.15093431
   1.47735163  0.85284398  3.45280292
 


--------------------------------------------------------------------------------------------------------


 k-point  1 :  0.00000.00000.0000  plane waves:    881
 k-point  2 :  0.20000.00000.0000  plane waves:    868
 k-point  3 :  0.40000.00000.0000  plane waves:    882
 k-point  4 :  0.20000.20000.0000  plane waves:    879
 k-point  5 :  0.40000.20000.0000  plane waves:    880
 k-point  6 :  -.40000.20000.0000  plane waves:    884
 k-point  7 :  -.20000.20000.0000  plane waves:    875
 k-point  8 :  0.40000.40000.0000  plane waves:    882
 k-point  9 :  -.40000.40000.0000  plane waves:    886
 k-point 10 :  0.00000.00000.2000  plane waves:    899
 k-point 11 :  0.20000.00000.2000  plane waves:    879
 k-point 12 :  0.40000.00000.2000  plane waves:    876
 k-point 13 :  0.20000.20000.2000  plane waves:    875
 k-point 14 :  0.40000.20000.2000  plane waves:    874
 k-point 15 :  -.40000.20000.2000  plane waves:    880
 k-point 16 :  -.20000.20000.2000  plane waves:    880
 k-point 17 :  0.40000.40000.2000  plane waves:    876
 k-point 18 :  -.40000.40000.2000  plane waves:    875
 k-point 19 :  0.00000.00000.4000  plane waves:    882
 k-point 20 :  0.20000.00000.4000  plane waves:    890
 k-point 21 :  0.40000.00000.4000  plane waves:    869
 k-point 22 :  0.20000.20000.4000  plane waves:    873
 k-point 23 :  0.40000.20000.4000  plane waves:    870
 k-point 24 :  -.40000.20000.4000  plane waves:    871
 k-point 25 :  -.20000.20000.4000  plane waves:    893
 k-point 26 :  0.40000.40000.4000  plane waves:    872
 k-point 27 :  -.40000.40000.4000  plane waves:    870

 maximum and minimum number of plane-waves per node :    899   868

 maximum number of plane-waves:    899
 maximal index in each direction: 
   IXMAX=  5   IYMAX=  5   IZMAX=  8
   IXMIN= -5   IYMIN= -5   IZMIN= -8

 NGX is ok and might be reduce to  22
 NGY is ok and might be reduce to  22
 NGZ is ok and might be reduce to  34

 parallel 3dFFT wavefunction:
    minimum data exchange during FFTs selected (reduces bandwidth)
 parallel 3dFFT charge:
    minimum data exchange during FFTs selected (reduces bandwidth)

 For storing wavefunctions    6.07 MBYTES are necessary
 For predicting wavefunctions    0.88 MBYTES are necessary
Broyden mixing: mesh for mixing (old mesh)
   NGX = 11   NGY = 11   NGZ = 17
  (NGX  = 48   NGY  = 48   NGZ  = 72)
 gives a total of   2057 points
 initial charge density was supplied:
 charge density of overlapping atoms calculated
 number of electron   20.0000000 magnetization 
 keeping initial charge density in first step


--------------------------------------------------------------------------------------------------------


 Maximum index for augmentation-charges         5622 (set IRDMAX)


--------------------------------------------------------------------------------------------------------


 First call to EWALD:  gamma=   0.544
 Maximum number of real-space cells 3x 3x 2
 Maximum number of reciprocal cells 3x 3x 4

    FEWALD:  VPU time    0.00: CPU time    0.00


----------------------------------------- Iteration    1(   1)  ---------------------------------------


    POTLOK:  VPU time    0.06: CPU time    0.06
    SETDIJ:  VPU time    0.01: CPU time    0.01
    EDDAV :  VPU time    0.57: CPU time    0.58
    DOS   :  VPU time    0.00: CPU time   -0.00
    ------------------------------------------
      LOOP:  VPU time    0.64: CPU time    0.65

 eigenvalue-minimisations  :   864
 total energy-change (2. order) : 0.1469801E+03  (-0.1089283E+04)
 number of electron   20.0000000 magnetization 
 augmentation part    20.0000000 magnetization 

 Free energy of the ion-electron system (eV)
  ---------------------------------------------------
  alpha Z        PSCENC =       126.13955637
  Ewald energy   TEWEN  =     -1607.93358410
  -1/2 Hartree   DENC   =      -442.85028464
  -V(xc)+E(xc)   XCENC  =        71.85142432
  PAW double counting   =      1428.40628957    -1426.98428199
  entropy T*S    EENTRO =        -0.00049209
  eigenvalues    EBANDS =       -86.39987755
  atomic energy  EATOM  =      2084.75134655
  ---------------------------------------------------
  free energy    TOTEN  =       146.98009643 eV

  energy without entropy =      146.98058853  energy(sigma->0) =      146.98034248


--------------------------------------------------------------------------------------------------------




----------------------------------------- Iteration    1(   2)  ---------------------------------------


    EDDAV :  VPU time    0.56: CPU time    0.56
    DOS   :  VPU time    0.00: CPU time   -0.00
    ------------------------------------------
      LOOP:  VPU time    0.56: CPU time    0.57

 eigenvalue-minimisations  :   864
 total energy-change (2. order) :-0.1604650E+03  (-0.1591401E+03)
 number of electron   20.0000000 magnetization 
 augmentation part    20.0000000 magnetization 

 Free energy of the ion-electron system (eV)
  ---------------------------------------------------
  alpha Z        PSCENC =       126.13955637
  Ewald energy   TEWEN  =     -1607.93358410
  -1/2 Hartree   DENC   =      -442.85028464
  -V(xc)+E(xc)   XCENC  =        71.85142432
  PAW double counting   =      1428.40628957    -1426.98428199
  entropy T*S    EENTRO =        -0.00018722
  eigenvalues    EBANDS =      -246.86513758
  atomic energy  EATOM  =      2084.75134655
  ---------------------------------------------------
  free energy    TOTEN  =       -13.48485873 eV

  energy without entropy =      -13.48467150  energy(sigma->0) =      -13.48476511


--------------------------------------------------------------------------------------------------------




----------------------------------------- Iteration    1(   3)  ---------------------------------------


    EDDAV :  VPU time    0.72: CPU time    0.73
    DOS   :  VPU time    0.00: CPU time   -0.00
    ------------------------------------------
      LOOP:  VPU time    0.73: CPU time    0.73

 eigenvalue-minimisations  :  1184
 total energy-change (2. order) :-0.4443096E+01  (-0.4312206E+01)
 number of electron   20.0000000 magnetization 
 augmentation part    20.0000000 magnetization 

 Free energy of the ion-electron system (eV)
  ---------------------------------------------------
  alpha Z        PSCENC =       126.13955637
  Ewald energy   TEWEN  =     -1607.93358410
  -1/2 Hartree   DENC   =      -442.85028464
  -V(xc)+E(xc)   XCENC  =        71.85142432
  PAW double counting   =      1428.40628957    -1426.98428199
  entropy T*S    EENTRO =        -0.00014447
  eigenvalues    EBANDS =      -251.30827656
  atomic energy  EATOM  =      2084.75134655
  ---------------------------------------------------
  free energy    TOTEN  =       -17.92795495 eV

  energy without entropy =      -17.92781048  energy(sigma->0) =      -17.92788272


--------------------------------------------------------------------------------------------------------




----------------------------------------- Iteration    1(   4)  ---------------------------------------


    EDDAV :  VPU time    0.58: CPU time    0.58
    DOS   :  VPU time    0.00: CPU time   -0.00
    ------------------------------------------
      LOOP:  VPU time    0.59: CPU time    0.59

 eigenvalue-minimisations  :   912
 total energy-change (2. order) :-0.6517385E-01  (-0.5730470E-01)
 number of electron   20.0000000 magnetization 
 augmentation part    20.0000000 magnetization 

 Free energy of the ion-electron system (eV)
  ---------------------------------------------------
  alpha Z        PSCENC =       126.13955637
  Ewald energy   TEWEN  =     -1607.93358410
  -1/2 Hartree   DENC   =      -442.85028464
  -V(xc)+E(xc)   XCENC  =        71.85142432
  PAW double counting   =      1428.40628957    -1426.98428199
  entropy T*S    EENTRO =        -0.00018811
  eigenvalues    EBANDS =      -251.37340678
  atomic energy  EATOM  =      2084.75134655
  ---------------------------------------------------
  free energy    TOTEN  =       -17.99312880 eV

  energy without entropy =      -17.99294070  energy(sigma->0) =      -17.99303475


--------------------------------------------------------------------------------------------------------




----------------------------------------- Iteration    1(   5)  ---------------------------------------


    EDDAV :  VPU time    0.70: CPU time    0.70
    DOS   :  VPU time   -0.00: CPU time   -0.00
    CHARGE:  VPU time    0.04: CPU time    0.05
    MIXING:  VPU time    0.00: CPU time    0.00
    ------------------------------------------
      LOOP:  VPU time    0.75: CPU time    0.75

 eigenvalue-minimisations  :  1136
 total energy-change (2. order) :-0.1585350E-02  (-0.1585030E-02)
 number of electron   20.0000005 magnetization 
 augmentation part     8.7347271 magnetization 

 Broyden mixing:
  rms(total) = 0.84433E+00    rms(broyden)= 0.84432E+00
  rms(prec ) = 0.19142E+01
  weight for this iteration     100.00

 Free energy of the ion-electron system (eV)
  ---------------------------------------------------
  alpha Z        PSCENC =       126.13955637
  Ewald energy   TEWEN  =     -1607.93358410
  -1/2 Hartree   DENC   =      -442.85028464
  -V(xc)+E(xc)   XCENC  =        71.85142432
  PAW double counting   =      1428.40628957    -1426.98428199
  entropy T*S    EENTRO =        -0.00018811
  eigenvalues    EBANDS =      -251.37499212
  atomic energy  EATOM  =      2084.75134655
  ---------------------------------------------------
  free energy    TOTEN  =       -17.99471415 eV

  energy without entropy =      -17.99452604  energy(sigma->0) =      -17.99462010


--------------------------------------------------------------------------------------------------------




----------------------------------------- Iteration    1(   6)  ---------------------------------------


    POTLOK:  VPU time    0.05: CPU time    0.05
    SETDIJ:  VPU time    0.01: CPU time    0.01
    EDDAV :  VPU time    0.61: CPU time    0.61
    DOS   :  VPU time    0.00: CPU time   -0.00
    CHARGE:  VPU time    0.04: CPU time    0.04
    MIXING:  VPU time    0.00: CPU time    0.00
    ------------------------------------------
      LOOP:  VPU time    0.72: CPU time    0.72

 eigenvalue-minimisations  :   968
 total energy-change (2. order) : 0.2089037E+01  (-0.6686770E+00)
 number of electron   20.0000006 magnetization 
 augmentation part     9.2816842 magnetization 

 Broyden mixing:
  rms(total) = 0.19811E+00    rms(broyden)= 0.19810E+00
  rms(prec ) = 0.45487E+00
  weight for this iteration     100.00

 eigenvalues of (default mixing * dielectric matrix)
  average eigenvalue GAMMA=   1.2282
  1.2282

 Free energy of the ion-electron system (eV)
  ---------------------------------------------------
  alpha Z        PSCENC =       126.13955637
  Ewald energy   TEWEN  =     -1607.93358410
  -1/2 Hartree   DENC   =      -403.40214934
  -V(xc)+E(xc)   XCENC  =        69.76024264
  PAW double counting   =      1384.88364804    -1387.28712620
  entropy T*S    EENTRO =        -0.00028758
  eigenvalues    EBANDS =      -282.81732379
  atomic energy  EATOM  =      2084.75134655
  ---------------------------------------------------
  free energy    TOTEN  =       -15.90567741 eV

  energy without entropy =      -15.90538983  energy(sigma->0) =      -15.90553362


--------------------------------------------------------------------------------------------------------




----------------------------------------- Iteration    1(   7)  ---------------------------------------


    POTLOK:  VPU time    0.05: CPU time    0.05
    SETDIJ:  VPU time    0.01: CPU time    0.01
    EDDAV :  VPU time    0.67: CPU time    0.67
    DOS   :  VPU time    0.00: CPU time   -0.00
    CHARGE:  VPU time    0.04: CPU time    0.04
    MIXING:  VPU time    0.00: CPU time    0.00
    ------------------------------------------
      LOOP:  VPU time    0.78: CPU time    0.78

 eigenvalue-minimisations  :  1088
 total energy-change (2. order) : 0.1017213E+00  (-0.5902531E-01)
 number of electron   20.0000006 magnetization 
 augmentation part     9.4340000 magnetization 

 Broyden mixing:
  rms(total) = 0.76685E-01    rms(broyden)= 0.76682E-01
  rms(prec ) = 0.12504E+00
  weight for this iteration     100.00

 eigenvalues of (default mixing * dielectric matrix)
  average eigenvalue GAMMA=   1.8525
  1.2791  2.4259

 Free energy of the ion-electron system (eV)
  ---------------------------------------------------
  alpha Z        PSCENC =       126.13955637
  Ewald energy   TEWEN  =     -1607.93358410
  -1/2 Hartree   DENC   =      -393.05955817
  -V(xc)+E(xc)   XCENC  =        69.25192236
  PAW double counting   =      1395.15451286    -1399.47555595
  entropy T*S    EENTRO =        -0.00021615
  eigenvalues    EBANDS =      -290.63237992
  atomic energy  EATOM  =      2084.75134655
  ---------------------------------------------------
  free energy    TOTEN  =       -15.80395614 eV

  energy without entropy =      -15.80373999  energy(sigma->0) =      -15.80384807


--------------------------------------------------------------------------------------------------------




----------------------------------------- Iteration    1(   8)  ---------------------------------------


    POTLOK:  VPU time    0.05: CPU time    0.05
    SETDIJ:  VPU time    0.01: CPU time    0.01
    EDDAV :  VPU time    0.58: CPU time    0.58
    DOS   :  VPU time    0.00: CPU time   -0.00
    CHARGE:  VPU time    0.04: CPU time    0.04
    MIXING:  VPU time    0.00: CPU time    0.00
    ------------------------------------------
      LOOP:  VPU time    0.69: CPU time    0.69

 eigenvalue-minimisations  :   896
 total energy-change (2. order) : 0.1065958E-01  (-0.2759582E-02)
 number of electron   20.0000006 magnetization 
 augmentation part     9.4100337 magnetization 

 Broyden mixing:
  rms(total) = 0.15833E-01    rms(broyden)= 0.15833E-01
  rms(prec ) = 0.36041E-01
  weight for this iteration     100.00

 eigenvalues of (default mixing * dielectric matrix)
  average eigenvalue GAMMA=   1.6077
  1.1280  1.1280  2.5671

 Free energy of the ion-electron system (eV)
  ---------------------------------------------------
  alpha Z        PSCENC =       126.13955637
  Ewald energy   TEWEN  =     -1607.93358410
  -1/2 Hartree   DENC   =      -393.16681517
  -V(xc)+E(xc)   XCENC  =        69.32303749
  PAW double counting   =      1426.12163963    -1431.72780387
  entropy T*S    EENTRO =        -0.00023463
  eigenvalues    EBANDS =      -289.30043883
  atomic energy  EATOM  =      2084.75134655
  ---------------------------------------------------
  free energy    TOTEN  =       -15.79329656 eV

  energy without entropy =      -15.79306193  energy(sigma->0) =      -15.79317925


--------------------------------------------------------------------------------------------------------




----------------------------------------- Iteration    1(   9)  ---------------------------------------


    POTLOK:  VPU time    0.05: CPU time    0.05
    SETDIJ:  VPU time    0.01: CPU time    0.01
    EDDAV :  VPU time    0.62: CPU time    0.63
    DOS   :  VPU time    0.00: CPU time   -0.00
    CHARGE:  VPU time    0.04: CPU time    0.04
    MIXING:  VPU time    0.00: CPU time    0.00
    ------------------------------------------
      LOOP:  VPU time    0.73: CPU time    0.74

 eigenvalue-minimisations  :   976
 total energy-change (2. order) : 0.8728850E-03  (-0.5599478E-03)
 number of electron   20.0000006 magnetization 
 augmentation part     9.4250761 magnetization 

 Broyden mixing:
  rms(total) = 0.26810E-02    rms(broyden)= 0.26803E-02
  rms(prec ) = 0.48519E-02
  weight for this iteration     100.00

 eigenvalues of (default mixing * dielectric matrix)
  average eigenvalue GAMMA=   1.7753
  2.4651  2.4651  1.0249  1.1462

 Free energy of the ion-electron system (eV)
  ---------------------------------------------------
  alpha Z        PSCENC =       126.13955637
  Ewald energy   TEWEN  =     -1607.93358410
  -1/2 Hartree   DENC   =      -392.20992184
  -V(xc)+E(xc)   XCENC  =        69.27565762
  PAW double counting   =      1426.32599308    -1431.97081407
  entropy T*S    EENTRO =        -0.00022860
  eigenvalues    EBANDS =      -290.17042868
  atomic energy  EATOM  =      2084.75134655
  ---------------------------------------------------
  free energy    TOTEN  =       -15.79242368 eV

  energy without entropy =      -15.79219508  energy(sigma->0) =      -15.79230938


--------------------------------------------------------------------------------------------------------




----------------------------------------- Iteration    1(  10)  ---------------------------------------


    POTLOK:  VPU time    0.05: CPU time    0.05
    SETDIJ:  VPU time    0.01: CPU time    0.01
    EDDAV :  VPU time    0.71: CPU time    0.72
    DOS   :  VPU time   -0.00: CPU time   -0.00
    CHARGE:  VPU time    0.04: CPU time    0.04
    MIXING:  VPU time    0.00: CPU time    0.00
    ------------------------------------------
      LOOP:  VPU time    0.82: CPU time    0.83

 eigenvalue-minimisations  :  1152
 total energy-change (2. order) : 0.9074365E-05  (-0.1221776E-04)
 number of electron   20.0000006 magnetization 
 augmentation part     9.4254945 magnetization 

 Broyden mixing:
  rms(total) = 0.12786E-02    rms(broyden)= 0.12786E-02
  rms(prec ) = 0.25283E-02
  weight for this iteration     100.00

 eigenvalues of (default mixing * dielectric matrix)
  average eigenvalue GAMMA=   1.5649
  2.5841  2.4222  1.0909  1.0909  0.6363

 Free energy of the ion-electron system (eV)
  ---------------------------------------------------
  alpha Z        PSCENC =       126.13955637
  Ewald energy   TEWEN  =     -1607.93358410
  -1/2 Hartree   DENC   =      -392.31499023
  -V(xc)+E(xc)   XCENC  =        69.28158301
  PAW double counting   =      1426.69516913    -1432.22436814
  entropy T*S    EENTRO =        -0.00023281
  eigenvalues    EBANDS =      -290.18689437
  atomic energy  EATOM  =      2084.75134655
  ---------------------------------------------------
  free energy    TOTEN  =       -15.79241460 eV

  energy without entropy =      -15.79218179  energy(sigma->0) =      -15.79229820


--------------------------------------------------------------------------------------------------------




----------------------------------------- Iteration    1(  11)  ---------------------------------------


    POTLOK:  VPU time    0.05: CPU time    0.05
    SETDIJ:  VPU time    0.01: CPU time    0.01
    EDDAV :  VPU time    0.61: CPU time    0.61
    DOS   :  VPU time    0.00: CPU time   -0.00
    CHARGE:  VPU time    0.04: CPU time    0.04
    MIXING:  VPU time    0.00: CPU time    0.00
    ------------------------------------------
      LOOP:  VPU time    0.72: CPU time    0.72

 eigenvalue-minimisations  :   952
 total energy-change (2. order) : 0.4474600E-05  (-0.1149230E-05)
 number of electron   20.0000006 magnetization 
 augmentation part     9.4248507 magnetization 

 Broyden mixing:
  rms(total) = 0.38444E-03    rms(broyden)= 0.38443E-03
  rms(prec ) = 0.70762E-03
  weight for this iteration     100.00

 eigenvalues of (default mixing * dielectric matrix)
  average eigenvalue GAMMA=   1.6707
  2.5830  2.5539  1.0396  1.0749  1.0749  1.6979

 Free energy of the ion-electron system (eV)
  ---------------------------------------------------
  alpha Z        PSCENC =       126.13955637
  Ewald energy   TEWEN  =     -1607.93358410
  -1/2 Hartree   DENC   =      -392.36954679
  -V(xc)+E(xc)   XCENC  =        69.28478680
  PAW double counting   =      1426.88529953    -1432.40016135
  entropy T*S    EENTRO =        -0.00023316
  eigenvalues    EBANDS =      -290.14987398
  atomic energy  EATOM  =      2084.75134655
  ---------------------------------------------------
  free energy    TOTEN  =       -15.79241013 eV

  energy without entropy =      -15.79217697  energy(sigma->0) =      -15.79229355


--------------------------------------------------------------------------------------------------------




----------------------------------------- Iteration    1(  12)  ---------------------------------------


    POTLOK:  VPU time    0.05: CPU time    0.05
    SETDIJ:  VPU time    0.01: CPU time    0.01
    EDDAV :  VPU time    0.72: CPU time    0.73
    DOS   :  VPU time    0.00: CPU time   -0.00
    CHARGE:  VPU time    0.04: CPU time    0.04
    MIXING:  VPU time    0.00: CPU time    0.00
    ------------------------------------------
      LOOP:  VPU time    0.83: CPU time    0.84

 eigenvalue-minimisations  :  1160
 total energy-change (2. order) : 0.1520625E-05  (-0.1445598E-06)
 number of electron   20.0000006 magnetization 
 augmentation part     9.4246685 magnetization 

 Broyden mixing:
  rms(total) = 0.46453E-04    rms(broyden)= 0.46426E-04
  rms(prec ) = 0.92573E-04
  weight for this iteration     100.00

 eigenvalues of (default mixing * dielectric matrix)
  average eigenvalue GAMMA=   1.5930
  2.6909  2.5165  1.7719  1.1198  1.1198  0.9409  0.9913

 Free energy of the ion-electron system (eV)
  ---------------------------------------------------
  alpha Z        PSCENC =       126.13955637
  Ewald energy   TEWEN  =     -1607.93358410
  -1/2 Hartree   DENC   =      -392.38570378
  -V(xc)+E(xc)   XCENC  =        69.28570385
  PAW double counting   =      1426.88132118    -1432.39002029
  entropy T*S    EENTRO =        -0.00023228
  eigenvalues    EBANDS =      -290.14079610
  atomic energy  EATOM  =      2084.75134655
  ---------------------------------------------------
  free energy    TOTEN  =       -15.79240861 eV

  energy without entropy =      -15.79217632  energy(sigma->0) =      -15.79229246


--------------------------------------------------------------------------------------------------------




----------------------------------------- Iteration    1(  13)  ---------------------------------------


    POTLOK:  VPU time    0.05: CPU time    0.05
    SETDIJ:  VPU time    0.01: CPU time    0.01
    EDDAV :  VPU time    0.57: CPU time    0.58
    DOS   :  VPU time    0.00: CPU time   -0.00
    CHARGE:  VPU time    0.04: CPU time    0.04
    MIXING:  VPU time    0.00: CPU time    0.00
    ------------------------------------------
      LOOP:  VPU time    0.68: CPU time    0.69

 eigenvalue-minimisations  :   872
 total energy-change (2. order) : 0.8538518E-07  (-0.4485097E-08)
 number of electron   20.0000006 magnetization 
 augmentation part     9.4246929 magnetization 

 Broyden mixing:
  rms(total) = 0.20459E-04    rms(broyden)= 0.20455E-04
  rms(prec ) = 0.34590E-04
  weight for this iteration     100.00

 eigenvalues of (default mixing * dielectric matrix)
  average eigenvalue GAMMA=   1.6911
  2.5858  2.5858  2.3175  1.7817  1.0115  1.0115  1.1175  1.1175

 Free energy of the ion-electron system (eV)
  ---------------------------------------------------
  alpha Z        PSCENC =       126.13955637
  Ewald energy   TEWEN  =     -1607.93358410
  -1/2 Hartree   DENC   =      -392.38467856
  -V(xc)+E(xc)   XCENC  =        69.28566354
  PAW double counting   =      1426.87705849    -1432.38530121
  entropy T*S    EENTRO =        -0.00023225
  eigenvalues    EBANDS =      -290.14223734
  atomic energy  EATOM  =      2084.75134655
  ---------------------------------------------------
  free energy    TOTEN  =       -15.79240852 eV

  energy without entropy =      -15.79217627  energy(sigma->0) =      -15.79229239


--------------------------------------------------------------------------------------------------------




----------------------------------------- Iteration    1(  14)  ---------------------------------------


    POTLOK:  VPU time    0.05: CPU time    0.05
    SETDIJ:  VPU time    0.01: CPU time    0.01
    EDDAV :  VPU time    0.41: CPU time    0.41
    DOS   :  VPU time    0.00: CPU time   -0.00
    CHARGE:  VPU time    0.04: CPU time    0.04
    MIXING:  VPU time    0.00: CPU time    0.00
    ------------------------------------------
      LOOP:  VPU time    0.52: CPU time    0.52

 eigenvalue-minimisations  :   496
 total energy-change (2. order) :-0.9323867E-07  (-0.1829232E-09)
 number of electron   20.0000006 magnetization 
 augmentation part     9.4246976 magnetization 

 Broyden mixing:
  rms(total) = 0.31382E-05    rms(broyden)= 0.31363E-05
  rms(prec ) = 0.52204E-05
  weight for this iteration     100.00

 eigenvalues of (default mixing * dielectric matrix)
  average eigenvalue GAMMA=   1.6504
  2.7870  2.5486  2.5273  1.7881  1.0846  1.0846  0.9712  1.0471  1.0150

 Free energy of the ion-electron system (eV)
  ---------------------------------------------------
  alpha Z        PSCENC =       126.13955637
  Ewald energy   TEWEN  =     -1607.93358410
  -1/2 Hartree   DENC   =      -392.38372036
  -V(xc)+E(xc)   XCENC  =        69.28560707
  PAW double counting   =      1426.86397464    -1432.37291159
  entropy T*S    EENTRO =        -0.00023226
  eigenvalues    EBANDS =      -290.14244493
  atomic energy  EATOM  =      2084.75134655
  ---------------------------------------------------
  free energy    TOTEN  =       -15.79240861 eV

  energy without entropy =      -15.79217636  energy(sigma->0) =      -15.79229248


--------------------------------------------------------------------------------------------------------




----------------------------------------- Iteration    1(  15)  ---------------------------------------


    POTLOK:  VPU time    0.05: CPU time    0.05
    SETDIJ:  VPU time    0.01: CPU time    0.01
    EDDAV :  VPU time    0.39: CPU time    0.40
    DOS   :  VPU time    0.00: CPU time   -0.00
    CHARGE:  VPU time    0.04: CPU time    0.04
    MIXING:  VPU time    0.00: CPU time    0.00
    ------------------------------------------
      LOOP:  VPU time    0.50: CPU time    0.51

 eigenvalue-minimisations  :   472
 total energy-change (2. order) :-0.1704302E-07  (-0.3226951E-10)
 number of electron   20.0000006 magnetization 
 augmentation part     9.4246972 magnetization 

 Broyden mixing:
  rms(total) = 0.88986E-06    rms(broyden)= 0.88937E-06
  rms(prec ) = 0.18409E-05
  weight for this iteration     100.00

 eigenvalues of (default mixing * dielectric matrix)
  average eigenvalue GAMMA=   1.6140
  2.7595  2.6362  2.4380  1.8455  0.9771  0.9771  1.0362  1.1324  1.1692  1.1692

 Free energy of the ion-electron system (eV)
  ---------------------------------------------------
  alpha Z        PSCENC =       126.13955637
  Ewald energy   TEWEN  =     -1607.93358410
  -1/2 Hartree   DENC   =      -392.38361107
  -V(xc)+E(xc)   XCENC  =        69.28560324
  PAW double counting   =      1426.86299910    -1432.37203920
  entropy T*S    EENTRO =        -0.00023226
  eigenvalues    EBANDS =      -290.14244726
  atomic energy  EATOM  =      2084.75134655
  ---------------------------------------------------
  free energy    TOTEN  =       -15.79240863 eV

  energy without entropy =      -15.79217637  energy(sigma->0) =      -15.79229250


--------------------------------------------------------------------------------------------------------




----------------------------------------- Iteration    1(  16)  ---------------------------------------


    POTLOK:  VPU time    0.05: CPU time    0.05
    SETDIJ:  VPU time    0.01: CPU time    0.01
    EDDAV :  VPU time    0.39: CPU time    0.39
    DOS   :  VPU time    0.00: CPU time   -0.00
    ------------------------------------------
      LOOP:  VPU time    0.45: CPU time    0.46

 eigenvalue-minimisations  :   464
 total energy-change (2. order) : 0.1968601E-08  (-0.8970522E-11)
 number of electron   20.0000006 magnetization 
 augmentation part     9.4246972 magnetization 

 Free energy of the ion-electron system (eV)
  ---------------------------------------------------
  alpha Z        PSCENC =       126.13955637
  Ewald energy   TEWEN  =     -1607.93358410
  -1/2 Hartree   DENC   =      -392.38360767
  -V(xc)+E(xc)   XCENC  =        69.28560285
  PAW double counting   =      1426.86309523    -1432.37212324
  entropy T*S    EENTRO =        -0.00023226
  eigenvalues    EBANDS =      -290.14246236
  atomic energy  EATOM  =      2084.75134655
  ---------------------------------------------------
  free energy    TOTEN  =       -15.79240863 eV

  energy without entropy =      -15.79217637  energy(sigma->0) =      -15.79229250


--------------------------------------------------------------------------------------------------------




 average (electrostatic) potential at core
  the test charge radii are     1.0397
  (the norm of the test charge is              1.0000)
       1 -51.0305       2 -51.0305
 
 
 
 E-fermi :   5.8431     XC(G=0): -11.4210     alpha+bet :-13.7511
   add alpha+bet to get absolut eigen values

 k-point   1 :       0.0000    0.0000    0.0000
  band No.  band energies     occupation 
      1     -27.4889      2.00000
      2     -26.8191      2.00000
      3     -26.8124      2.00000
      4     -26.7521      2.00000
      5     -26.7068      2.00000
      6     -26.7057      2.00000
      7      -0.2113      2.00000
      8       3.2774      2.00000
      9       6.6735      0.00000
     10       6.7665      0.00000
     11       6.8688      0.00000
     12       6.9149      0.00000
     13       7.2173      0.00000
     14       7.2729      0.00000
     15       7.4832      0.00000
     16       7.5407      0.00000

 k-point   2 :       0.2000    0.0000    0.0000
  band No.  band energies     occupation 
      1     -27.4049      2.00000
      2     -26.9737      2.00000
      3     -26.8666      2.00000
      4     -26.8653      2.00000
      5     -26.7933      2.00000
      6     -26.7261      2.00000
      7       0.8442      2.00000
      8       3.9790      2.00000
      9       5.4669      2.00000
     10       5.7316      2.00000
     11       6.8005      0.00000
     12       7.0449      0.00000
     13       7.1261      0.00000
     14       7.4860      0.00000
     15       7.6873      0.00000
     16       7.9042      0.00000

 k-point   3 :       0.4000    0.0000    0.0000
  band No.  band energies     occupation 
      1     -27.2309      2.00000
      2     -27.2233      2.00000
      3     -27.1062      2.00000
      4     -26.9422      2.00000
      5     -26.9052      2.00000
      6     -26.7641      2.00000
      7       3.0389      2.00000
      8       4.0407      2.00000
      9       4.2806      2.00000
     10       5.2680      2.00000
     11       6.4684      0.00000
     12       6.6818      0.00000
     13       7.0122      0.00000
     14       8.9813      0.00000
     15       9.2005      0.00000
     16       9.3216      0.00000

 k-point   4 :       0.2000    0.2000    0.0000
  band No.  band energies     occupation 
      1     -27.2674      2.00000
      2     -27.1045      2.00000
      3     -27.0889      2.00000
      4     -26.9199      2.00000
      5     -26.8749      2.00000
      6     -26.8153      2.00000
      7       2.5764      2.00000
      8       4.5966      2.00000
      9       4.6298      2.00000
     10       4.8896      2.00000
     11       6.2747      0.00000
     12       6.8319      0.00000
     13       6.9355      0.00000
     14       8.1219      0.00000
     15       8.7857      0.00000
     16       9.2928      0.00000

 k-point   5 :       0.4000    0.2000    0.0000
  band No.  band energies     occupation 
      1     -27.2285      2.00000
      2     -27.1253      2.00000
      3     -27.1023      2.00000
      4     -27.0352      2.00000
      5     -26.9808      2.00000
      6     -26.8742      2.00000
      7       4.1127      2.00000
      8       4.2098      2.00000
      9       4.2953      2.00000
     10       4.8941      2.00000
     11       6.1832      0.00000
     12       6.4172      0.00000
     13       7.3342      0.00000
     14       9.0243      0.00000
     15       9.2793      0.00000
     16       9.3796      0.00000

 k-point   6 :      -0.4000    0.2000    0.0000
  band No.  band energies     occupation 
      1     -27.2678      2.00000
      2     -27.1125      2.00000
      3     -27.0952      2.00000
      4     -26.9202      2.00000
      5     -26.8724      2.00000
      6     -26.8138      2.00000
      7       2.5990      2.00000
      8       4.5739      2.00000
      9       4.6309      2.00000
     10       4.8921      2.00000
     11       6.2638      0.00000
     12       6.8209      0.00000
     13       6.9483      0.00000
     14       8.1393      0.00000
     15       8.7931      0.00000
     16       9.3020      0.00000

 k-point   7 :      -0.2000    0.2000    0.0000
  band No.  band energies     occupation 
      1     -27.4049      2.00000
      2     -26.9723      2.00000
      3     -26.8719      2.00000
      4     -26.8670      2.00000
      5     -26.7921      2.00000
      6     -26.7289      2.00000
      7       0.8538      2.00000
      8       3.9820      2.00000
      9       5.4498      2.00000
     10       5.7685      2.00000
     11       6.8377      0.00000
     12       6.9996      0.00000
     13       7.1746      0.00000
     14       7.4343      0.00000
     15       7.6897      0.00000
     16       7.8769      0.00000

 k-point   8 :       0.4000    0.4000    0.0000
  band No.  band energies     occupation 
      1     -27.2338      2.00000
      2     -27.1285      2.00000
      3     -27.1044      2.00000
      4     -27.0393      2.00000
      5     -26.9756      2.00000
      6     -26.8758      2.00000
      7       4.1074      2.00000
      8       4.1924      2.00000
      9       4.2760      2.00000
     10       4.9311      2.00000
     11       6.1373      0.00000
     12       6.4695      0.00000
     13       7.3667      0.00000
     14       9.0276      0.00000
     15       9.2983      0.00000
     16       9.3812      0.00000

 k-point   9 :      -0.4000    0.4000    0.0000
  band No.  band energies     occupation 
      1     -27.2359      2.00000
      2     -27.2249      2.00000
      3     -27.1082      2.00000
      4     -26.9512      2.00000
      5     -26.9004      2.00000
      6     -26.7696      2.00000
      7       3.0501      2.00000
      8       4.0309      2.00000
      9       4.2545      2.00000
     10       5.3012      2.00000
     11       6.4142      0.00000
     12       6.7429      0.00000
     13       7.0653      0.00000
     14       8.9869      0.00000
     15       9.1972      0.00000
     16       9.3253      0.00000

 k-point  10 :       0.0000    0.0000    0.2000
  band No.  band energies     occupation 
      1     -27.4217      2.00000
      2     -26.8259      2.00000
      3     -26.8085      2.00000
      4     -26.8023      2.00000
      5     -26.7176      2.00000
      6     -26.7159      2.00000
      7       0.1306      2.00000
      8       3.1012      2.00000
      9       6.3594      0.00000
     10       6.5395      0.00000
     11       6.6204      0.00000
     12       6.7282      0.00000
     13       7.0331      0.00000
     14       7.0866      0.00000
     15       7.8434      0.00000
     16       7.9038      0.00000

 k-point  11 :       0.2000    0.0000    0.2000
  band No.  band energies     occupation 
      1     -27.3626      2.00000
      2     -26.9621      2.00000
      3     -26.9300      2.00000
      4     -26.8523      2.00000
      5     -26.7868      2.00000
      6     -26.7395      2.00000
      7       1.1399      2.00000
      8       3.8753      2.00000
      9       5.1781      2.00000
     10       5.8066      2.00000
     11       6.5800      0.00000
     12       6.9567      0.00000
     13       6.9938      0.00000
     14       7.6045      0.00000
     15       7.9257      0.00000
     16       8.0211      0.00000

 k-point  12 :       0.4000    0.0000    0.2000
  band No.  band energies     occupation 
      1     -27.3234      2.00000
      2     -27.1860      2.00000
      3     -27.0790      2.00000
      4     -26.9256      2.00000
      5     -26.8753      2.00000
      6     -26.7813      2.00000
      7       3.0394      2.00000
      8       3.9572      2.00000
      9       4.5524      2.00000
     10       5.2075      2.00000
     11       6.6716      0.00000
     12       6.7486      0.00000
     13       7.0539      0.00000
     14       8.8701      0.00000
     15       9.0304      0.00000
     16       9.2066      0.00000

 k-point  13 :       0.2000    0.2000    0.2000
  band No.  band energies     occupation 
      1     -27.2909      2.00000
      2     -27.1356      2.00000
      3     -27.0242      2.00000
      4     -26.9636      2.00000
      5     -26.8303      2.00000
      6     -26.8258      2.00000
      7       2.7488      2.00000
      8       4.3882      2.00000
      9       4.8138      2.00000
     10       5.0139      2.00000
     11       6.2551      0.00000
     12       6.6913      0.00000
     13       6.8661      0.00000
     14       8.1006      0.00000
     15       8.8646      0.00000
     16       8.9813      0.00000

 k-point  14 :       0.4000    0.2000    0.2000
  band No.  band energies     occupation 
      1     -27.2816      2.00000
      2     -27.1903      2.00000
      3     -27.1027      2.00000
      4     -26.9627      2.00000
      5     -26.9408      2.00000
      6     -26.8656      2.00000
      7       3.8711      2.00000
      8       4.3613      2.00000
      9       4.7443      2.00000
     10       4.8226      2.00000
     11       6.0979      0.00000
     12       6.3920      0.00000
     13       7.3443      0.00000
     14       8.8344      0.00000
     15       9.0178      0.00000
     16       9.3736      0.00000

 k-point  15 :      -0.4000    0.2000    0.2000
  band No.  band energies     occupation 
      1     -27.2915      2.00000
      2     -27.1413      2.00000
      3     -27.0306      2.00000
      4     -26.9635      2.00000
      5     -26.8290      2.00000
      6     -26.8258      2.00000
      7       2.7689      2.00000
      8       4.3718      2.00000
      9       4.8162      2.00000
     10       5.0154      2.00000
     11       6.2561      0.00000
     12       6.7154      0.00000
     13       6.8458      0.00000
     14       8.1122      0.00000
     15       8.8614      0.00000
     16       8.9904      0.00000

 k-point  16 :      -0.2000    0.2000    0.2000
  band No.  band energies     occupation 
      1     -27.3621      2.00000
      2     -26.9617      2.00000
      3     -26.9284      2.00000
      4     -26.8584      2.00000
      5     -26.7875      2.00000
      6     -26.7427      2.00000
      7       1.1495      2.00000
      8       3.8780      2.00000
      9       5.1728      2.00000
     10       5.8421      1.11953
     11       6.6179      0.00000
     12       6.9150      0.00000
     13       7.0176      0.00000
     14       7.5634      0.00000
     15       7.8922      0.00000
     16       8.0378      0.00000

 k-point  17 :       0.4000    0.4000    0.2000
  band No.  band energies     occupation 
      1     -27.2845      2.00000
      2     -27.1895      2.00000
      3     -27.1076      2.00000
      4     -26.9658      2.00000
      5     -26.9430      2.00000
      6     -26.8646      2.00000
      7       3.8657      2.00000
      8       4.3555      2.00000
      9       4.7325      2.00000
     10       4.8376      2.00000
     11       6.0644      0.00000
     12       6.4474      0.00000
     13       7.3660      0.00000
     14       8.8338      0.00000
     15       9.0201      0.00000
     16       9.3790      0.00000

 k-point  18 :      -0.4000    0.4000    0.2000
  band No.  band energies     occupation 
      1     -27.3245      2.00000
      2     -27.1860      2.00000
      3     -27.0831      2.00000
      4     -26.9341      2.00000
      5     -26.8740      2.00000
      6     -26.7872      2.00000
      7       3.0506      2.00000
      8       3.9565      2.00000
      9       4.5394      2.00000
     10       5.2189      2.00000
     11       6.6203      0.00000
     12       6.8041      0.00000
     13       7.1145      0.00000
     14       8.8610      0.00000
     15       9.0332      0.00000
     16       9.2069      0.00000

 k-point  19 :       0.0000    0.0000    0.4000
  band No.  band energies     occupation 
      1     -27.2427      2.00000
      2     -27.0153      2.00000
      3     -26.7805      2.00000
      4     -26.7756      2.00000
      5     -26.7458      2.00000
      6     -26.7427      2.00000
      7       1.0703      2.00000
      8       2.2865      2.00000
      9       5.9862      0.00000
     10       6.2911      0.00000
     11       6.4978      0.00000
     12       6.5648      0.00000
     13       6.6988      0.00000
     14       6.7554      0.00000
     15       8.4689      0.00000
     16       8.5164      0.00000

 k-point  20 :       0.2000    0.0000    0.4000
  band No.  band energies     occupation 
      1     -27.2476      2.00000
      2     -27.0936      2.00000
      3     -26.8852      2.00000
      4     -26.8206      2.00000
      5     -26.8175      2.00000
      6     -26.7746      2.00000
      7       1.9602      2.00000
      8       3.0710      2.00000
      9       5.2857      2.00000
     10       5.8061      2.00000
     11       6.2705      0.00000
     12       6.6578      0.00000
     13       7.0131      0.00000
     14       7.2866      0.00000
     15       8.4576      0.00000
     16       8.6640      0.00000

 k-point  21 :       0.4000    0.0000    0.4000
  band No.  band energies     occupation 
      1     -27.3460      2.00000
      2     -27.2894      2.00000
      3     -26.9506      2.00000
      4     -26.8826      2.00000
      5     -26.8737      2.00000
      6     -26.8261      2.00000
      7       3.2019      2.00000
      8       3.5970      2.00000
      9       4.9860      2.00000
     10       5.3443      2.00000
     11       6.7121      0.00000
     12       7.1104      0.00000
     13       7.2454      0.00000
     14       8.0688      0.00000
     15       9.1498      0.00000
     16       9.2601      0.00000

 k-point  22 :       0.2000    0.2000    0.4000
  band No.  band energies     occupation 
      1     -27.2868      2.00000
      2     -27.2221      2.00000
      3     -26.9516      2.00000
      4     -26.9389      2.00000
      5     -26.8513      2.00000
      6     -26.8191      2.00000
      7       3.2221      2.00000
      8       3.8557      2.00000
      9       5.2147      2.00000
     10       5.3280      2.00000
     11       6.0328      0.00000
     12       6.1891      0.00000
     13       7.1758      0.00000
     14       7.7654      0.00000
     15       8.9932      0.00000
     16       9.2831      0.00000

 k-point  23 :       0.4000    0.2000    0.4000
  band No.  band energies     occupation 
      1     -27.3223      2.00000
      2     -27.2890      2.00000
      3     -27.0472      2.00000
      4     -26.9802      2.00000
      5     -26.8670      2.00000
      6     -26.8340      2.00000
      7       3.8971      2.00000
      8       4.1614      2.00000
      9       5.1225      2.00000
     10       5.5089      2.00000
     11       5.6952      2.00000
     12       6.1593      0.00000
     13       7.5515      0.00000
     14       8.0297      0.00000
     15       9.0876      0.00000
     16       9.3112      0.00000

 k-point  24 :      -0.4000    0.2000    0.4000
  band No.  band energies     occupation 
      1     -27.2874      2.00000
      2     -27.2239      2.00000
      3     -26.9542      2.00000
      4     -26.9452      2.00000
      5     -26.8499      2.00000
      6     -26.8204      2.00000
      7       3.2332      2.00000
      8       3.8522      2.00000
      9       5.2206      2.00000
     10       5.3308      2.00000
     11       6.0523      0.00000
     12       6.2162      0.00000
     13       7.1522      0.00000
     14       7.7567      0.00000
     15       8.9846      0.00000
     16       9.2984      0.00000

 k-point  25 :      -0.2000    0.2000    0.4000
  band No.  band energies     occupation 
      1     -27.2461      2.00000
      2     -27.0916      2.00000
      3     -26.8856      2.00000
      4     -26.8229      2.00000
      5     -26.8217      2.00000
      6     -26.7787      2.00000
      7       1.9688      2.00000
      8       3.0762      2.00000
      9       5.2957      2.00000
     10       5.8321      1.88047
     11       6.2962      0.00000
     12       6.6863      0.00000
     13       6.9759      0.00000
     14       7.2538      0.00000
     15       8.4232      0.00000
     16       8.6771      0.00000

 k-point  26 :       0.4000    0.4000    0.4000
  band No.  band energies     occupation 
      1     -27.3228      2.00000
      2     -27.2880      2.00000
      3     -27.0521      2.00000
      4     -26.9842      2.00000
      5     -26.8696      2.00000
      6     -26.8344      2.00000
      7       3.8993      2.00000
      8       4.1715      2.00000
      9       5.1104      2.00000
     10       5.5093      2.00000
     11       5.6801      2.00000
     12       6.1949      0.00000
     13       7.5617      0.00000
     14       8.0315      0.00000
     15       9.0844      0.00000
     16       9.3051      0.00000

 k-point  27 :      -0.4000    0.4000    0.4000
  band No.  band energies     occupation 
      1     -27.3452      2.00000
      2     -27.2878      2.00000
      3     -26.9548      2.00000
      4     -26.8891      2.00000
      5     -26.8773      2.00000
      6     -26.8330      2.00000
      7       3.2157      2.00000
      8       3.6112      2.00000
      9       4.9837      2.00000
     10       5.3395      2.00000
     11       6.7539      0.00000
     12       7.1651      0.00000
     13       7.2031      0.00000
     14       8.0413      0.00000
     15       9.1523      0.00000
     16       9.2688      0.00000


--------------------------------------------------------------------------------------------------------


 soft charge-density along one line, spin component           1
         0         1         2         3         4         5         6         7         8         9
 total charge-density along one line
 
 pseudopotential strength for first ion, spin component:           1
-28.967   0.000   0.000  12.919  -0.000  -0.000   0.001  -0.000
  0.000 -29.029   0.000  -0.000  12.966  -0.000   0.000  -0.000
  0.000   0.000 -28.967  -0.000  -0.000  12.920   0.005   0.000
 12.919  -0.000  -0.000  -0.812   0.000   0.000  -0.000   0.000
 -0.000  12.966  -0.000   0.000  -0.841   0.000  -0.000   0.000
 -0.000  -0.000  12.920   0.000   0.000  -0.812  -0.003  -0.000
  0.001   0.000   0.005  -0.000  -0.000  -0.003  -2.841   0.000
 -0.000  -0.000   0.000   0.000   0.000  -0.000   0.000  -2.871
  0.000  -0.000  -0.000  -0.000   0.000   0.000  -0.000   0.000
  0.000   0.001  -0.000  -0.000  -0.000   0.000   0.000   0.000
  0.006   0.000   0.001  -0.003  -0.000  -0.000  -0.000   0.000
  0.000   0.000   0.001  -0.000  -0.000  -0.001   0.532   0.000
 -0.000  -0.000   0.000   0.000   0.000  -0.000   0.000   0.526
  0.000  -0.000  -0.000  -0.000   0.000   0.000  -0.000   0.000
  0.000   0.000  -0.000  -0.000  -0.000   0.000   0.000   0.000
  0.001   0.000   0.000  -0.001  -0.000  -0.000   0.000   0.000
  0.000   0.000  -0.000  -0.000  -0.000   0.000  -0.000  -0.000
 -0.000  -0.000   0.000   0.000   0.000  -0.000   0.000   0.000
 total augmentation occupancy for first ion, spin component:           1
  1.971  -0.000   0.003  -0.017  -0.000   0.012  -0.003  -0.001  -0.011   0.005  -0.010   0.001   0.000   0.004  -0.003   0.005
 -0.000   1.977   0.000  -0.000   0.001   0.001   0.001  -0.011   0.001  -0.006  -0.006  -0.001   0.004  -0.000   0.002   0.002
  0.003   0.000   1.983   0.012   0.001   0.025  -0.021  -0.009  -0.006   0.003  -0.003   0.009   0.004   0.002  -0.000   0.001
 -0.017  -0.000   0.012   0.127  -0.001   0.034  -0.014  -0.005  -0.049   0.023  -0.039   0.004   0.002   0.018  -0.014   0.012
 -0.000   0.001   0.001  -0.001   0.166   0.004   0.006  -0.049   0.004  -0.028  -0.028  -0.004   0.018  -0.002   0.011   0.010
  0.012   0.001   0.025   0.034   0.004   0.246  -0.088  -0.043  -0.028   0.011  -0.014   0.027   0.020   0.010  -0.001   0.004
 -0.003   0.001  -0.021  -0.014   0.006  -0.088   0.847   0.027   0.051  -0.013   0.151  -0.391  -0.014  -0.019   0.001  -0.066
 -0.001  -0.011  -0.009  -0.005  -0.049  -0.043   0.027   0.299   0.015   0.106  -0.001  -0.014  -0.146  -0.005  -0.059   0.001
 -0.011   0.001  -0.006  -0.049   0.004  -0.028   0.051   0.015   0.643   0.006   0.090  -0.020  -0.005  -0.293   0.001  -0.036
  0.005  -0.006   0.003   0.023  -0.028   0.011  -0.013   0.106   0.006   0.669  -0.022   0.001  -0.059   0.001  -0.353   0.015
 -0.010  -0.006  -0.003  -0.039  -0.028  -0.014   0.151  -0.001   0.090  -0.022   0.351  -0.066   0.001  -0.034   0.015  -0.165
  0.001  -0.001   0.009   0.004  -0.004   0.027  -0.391  -0.014  -0.020   0.001  -0.066   0.209   0.007   0.006   0.004   0.034
  0.000   0.004   0.004   0.002   0.018   0.020  -0.014  -0.146  -0.005  -0.059   0.001   0.007   0.082  -0.001   0.036  -0.000
  0.004  -0.000   0.002   0.018  -0.002   0.010  -0.019  -0.005  -0.293   0.001  -0.034   0.006  -0.001   0.153  -0.002   0.011
 -0.003   0.002  -0.000  -0.014   0.011  -0.001   0.001  -0.059   0.001  -0.353   0.015   0.004   0.036  -0.002   0.209  -0.010
  0.005   0.002   0.001   0.012   0.010   0.004  -0.066   0.001  -0.036   0.015  -0.165   0.034  -0.000   0.011  -0.010   0.091
 -0.001  -0.002  -0.001  -0.007  -0.010  -0.002  -0.150   0.010   0.050   0.018  -0.259   0.112   0.011  -0.027  -0.005   0.194
  0.000   0.000  -0.001  -0.001   0.000  -0.000   0.005   0.001   0.015   0.000   0.009  -0.004  -0.001  -0.006  -0.000  -0.007


------------------------ aborting loop because EDIFF is reached ----------------------------------------




--------------------------------------------------------------------------------------------------------


    CHARGE:  VPU time    0.04: CPU time    0.04
    FORLOC:  VPU time    0.00: CPU time    0.00
    FORNL :  VPU time    0.06: CPU time    0.06
    STRESS:  VPU time    0.26: CPU time    0.26
    FORCOR:  VPU time    0.05: CPU time    0.05
    FORHAR:  VPU time    0.01: CPU time    0.01
    MIXING:  VPU time    0.00: CPU time    0.00


--------------------------------------------------------------------------------------------------------



  FREE ENERGIE OF THE ION-ELECTRON SYSTEM (eV)
  ---------------------------------------------------
  free  energy   TOTEN  =       -15.792409 eV

  energy  without entropy=      -15.792176  energy(sigma->0) =      -15.792293
 

  FORCE on cell =-STRESS in cart. coord.  units (eV/reduce length):
  Direction    X        Y        Z        XY       YZ       ZX
  --------------------------------------------------------------------------------------
  Alpha Z    126.14    126.14    126.14
  Ewald     -545.10   -545.76   -517.08     -0.57     -0.00     -0.00
  Hartree    127.07    126.78    138.54     -0.25     -0.00     -0.00
  E(xc)      -94.24    -94.24    -94.21     -0.00     -0.00     -0.00
  Local      145.33    146.22    109.67      0.77      0.00     -0.00
  n-local    -51.95    -44.50    -47.33     -2.15      0.13      0.29
  augment    102.20    102.21    100.49      0.01     -0.00     -0.00
  Kinetic    189.46    184.25    183.79      1.55     -0.23      0.46
  -------------------------------------------------------------------------------------
  Total        0.00     -0.00     -0.00     -0.00      0.00      0.00
  in kB        0.00     -0.00     -0.01     -0.00      0.00      0.00
  external pressure =       -0.00 kB  Pullay stress =        0.00 kB


 VOLUME and BASIS-vectors are now :
 -----------------------------------------------------------------------------
  energy-cutoff  :      500.00
  volume of cell :       34.58
      direct lattice vectors                 reciprocal lattice vectors
     2.940222367  0.008255147  0.000000000     0.339563460  0.194777930  0.000000000
    -1.462961957  2.550434870  0.000000000    -0.001099086  0.391459547  0.000000000
     0.000000000  0.000000000  4.603737233     0.000000000  0.000000000  0.217214830

  length of vectors
     2.940233955  2.940233956  4.603737233     0.391461090  0.391461090  0.217214830


 FORCES acting on ions
    electron-ion (+dipol)            ewald-force                    non-local-force                 convergence-correction
 -----------------------------------------------------------------------------------------------
   0.155E+00 -.892E-01 -.201E-11   -.120E+00 0.694E-01 -.226E-13   -.344E-01 0.199E-01 0.434E-18   -.235E-05 0.136E-05 -.219E-13
   -.155E+00 0.892E-01 0.288E-11   0.120E+00 -.694E-01 0.226E-13   0.344E-01 -.199E-01 -.434E-18   0.235E-05 -.136E-05 -.312E-14
 -----------------------------------------------------------------------------------------------
   0.431E-12 0.234E-12 0.863E-12   -.140E-14 -.595E-14 0.000E+00   -.555E-16 0.000E+00 0.000E+00   -.176E-13 0.123E-13 -.250E-13
 
 
 POSITION                                       TOTAL-FORCE (eV/Angst)
 -----------------------------------------------------------------------------------
     -0.00009      1.70585      1.15093        -0.000105      0.000061      0.000000
      1.47735      0.85284      3.45280         0.000105     -0.000061     -0.000000
 -----------------------------------------------------------------------------------
    total drift:                                0.000000      0.000000      0.000000


--------------------------------------------------------------------------------------------------------



 mean value of Nose-termostat <S>:     1.000 mean value of <T> :     0.000
 mean temperature <T/S>/<1/S>  :     0.000

     LOOP+:  VPU time   11.18: CPU time   11.25
  
  
 General timing and accounting informations for this job:
 ========================================================
  
                  Total CPU time used (sec):       11.550
                            User time (sec):        8.545
                          System time (sec):        3.006
                         Elapsed time (sec):       11.643
  
                   Maximum memory used (kb):       74688.
                   Average memory used (kb):           0.
  
                          Minor page faults:        16465
                          Major page faults:            0
                 Voluntary context switches:          851
