<?xml version="1.0" encoding="ISO-8859-1"?>
<modeling>
 <generator>
  <i name="program" type="string">vasp</i>
  <i name="version" type="string">4.6.28 </i>
  <i name="subversion" type="string">25Jul05 complex  parallel</i>
  <i name="platform" type="string">LinuxIFC</i>
  <i name="date" type="string">2016 11 25</i>
  <i name="time" type="string">11:54:09</i>
 </generator>
 <incar>
  <i type="string" name="PREC">accurate</i>
  <i type="int" name="IALGO">    38</i>
  <i name="EDIFF">      0.00000001</i>
  <i type="int" name="IBRION">    -1</i>
  <i name="ENCUT">    500.00000000</i>
  <i type="logical" name="LREAL"> F  </i>
  <i type="int" name="ISMEAR">     0</i>
  <i name="SIGMA">      0.01000000</i>
  <i type="logical" name="LWAVE"> F  </i>
  <i type="logical" name="LCHARG"> F  </i>
 </incar>
 <kpoints>
  <generation param="Gamma">
   <v type="int" name="divisions">       5       5       5</v>
   <v name="usershift">      0.00000000      0.00000000      0.00000000</v>
   <v name="genvec1">      0.20000000      0.00000000      0.00000000</v>
   <v name="genvec2">      0.00000000      0.20000000      0.00000000</v>
   <v name="genvec3">      0.00000000      0.00000000      0.20000000</v>
   <v name="shift">      0.00000000      0.00000000      0.00000000</v>
  </generation>
  <varray name="kpointlist" >
   <v>       0.00000000      0.00000000      0.00000000</v>
   <v>       0.20000000      0.00000000      0.00000000</v>
   <v>       0.40000000      0.00000000      0.00000000</v>
   <v>       0.20000000      0.20000000      0.00000000</v>
   <v>       0.40000000      0.20000000      0.00000000</v>
   <v>      -0.40000000      0.20000000      0.00000000</v>
   <v>      -0.20000000      0.20000000      0.00000000</v>
   <v>       0.40000000      0.40000000      0.00000000</v>
   <v>      -0.40000000      0.40000000      0.00000000</v>
   <v>       0.00000000      0.00000000      0.20000000</v>
   <v>       0.20000000      0.00000000      0.20000000</v>
   <v>       0.40000000      0.00000000      0.20000000</v>
   <v>       0.20000000      0.20000000      0.20000000</v>
   <v>       0.40000000      0.20000000      0.20000000</v>
   <v>      -0.40000000      0.20000000      0.20000000</v>
   <v>      -0.20000000      0.20000000      0.20000000</v>
   <v>       0.40000000      0.40000000      0.20000000</v>
   <v>      -0.40000000      0.40000000      0.20000000</v>
   <v>       0.00000000      0.00000000      0.40000000</v>
   <v>       0.20000000      0.00000000      0.40000000</v>
   <v>       0.40000000      0.00000000      0.40000000</v>
   <v>       0.20000000      0.20000000      0.40000000</v>
   <v>       0.40000000      0.20000000      0.40000000</v>
   <v>      -0.40000000      0.20000000      0.40000000</v>
   <v>      -0.20000000      0.20000000      0.40000000</v>
   <v>       0.40000000      0.40000000      0.40000000</v>
   <v>      -0.40000000      0.40000000      0.40000000</v>
  </varray>
  <varray name="weights" >
   <v>       0.00800000</v>
   <v>       0.03200000</v>
   <v>       0.03200000</v>
   <v>       0.01600000</v>
   <v>       0.03200000</v>
   <v>       0.03200000</v>
   <v>       0.01600000</v>
   <v>       0.01600000</v>
   <v>       0.01600000</v>
   <v>       0.01600000</v>
   <v>       0.06400000</v>
   <v>       0.06400000</v>
   <v>       0.03200000</v>
   <v>       0.06400000</v>
   <v>       0.06400000</v>
   <v>       0.03200000</v>
   <v>       0.03200000</v>
   <v>       0.03200000</v>
   <v>       0.01600000</v>
   <v>       0.06400000</v>
   <v>       0.06400000</v>
   <v>       0.03200000</v>
   <v>       0.06400000</v>
   <v>       0.06400000</v>
   <v>       0.03200000</v>
   <v>       0.03200000</v>
   <v>       0.03200000</v>
  </varray>
 </kpoints>
 <parameters>
  <separator name="general" >
   <i type="string" name="SYSTEM">unknown system</i>
   <i type="logical" name="LCOMPAT"> F  </i>
  </separator>
  <separator name="electronic" >
   <i type="string" name="PREC">accura</i>
   <i name="ENMAX">    500.00000000</i>
   <i name="ENAUG">    482.84800000</i>
   <i name="EDIFF">      0.00000001</i>
   <i type="int" name="IALGO">    38</i>
   <i type="int" name="IWAVPR">    10</i>
   <i type="int" name="NBANDS">    14</i>
   <i name="NELECT">     20.00000000</i>
   <separator name="electronic smearing" >
    <i type="int" name="ISMEAR">     0</i>
    <i name="SIGMA">      0.01000000</i>
   </separator>
   <separator name="electronic projectors" >
    <i type="logical" name="LREAL"> F  </i>
    <v name="ROPT">      0.00000000</v>
    <i type="int" name="LMAXPAW">  -100</i>
    <i type="int" name="LMAXMIX">     2</i>
   </separator>
   <separator name="electronic startup" >
    <i type="int" name="ISTART">     0</i>
    <i type="int" name="ICHARG">     2</i>
    <i type="int" name="INIWAV">     1</i>
   </separator>
   <separator name="electronic spin" >
    <i type="int" name="ISPIN">     1</i>
    <i type="logical" name="LNONCOLLINEAR"> F  </i>
    <v name="MAGMOM">      1.00000000      1.00000000</v>
    <i name="NUPDOWN">     -1.00000000</i>
    <i type="logical" name="LSORBIT"> F  </i>
    <v name="SAXIS">      0.00000000      0.00000000      1.00000000</v>
    <i type="logical" name="LSPIRAL"> F  </i>
    <v name="QSPIRAL">      0.00000000      0.00000000      0.00000000</v>
    <i type="logical" name="LZEROZ"> F  </i>
   </separator>
   <separator name="electronic exchange-correlation" >
    <i type="string" name="GGA">--</i>
    <i type="int" name="VOSKOWN">     0</i>
    <i type="logical" name="LASPH"> F  </i>
    <i type="logical" name="LMETAGGA"> F  </i>
    <i type="string" name="GGA2">--</i>
   </separator>
   <separator name="electronic convergence" >
    <i type="int" name="NELM">    60</i>
    <i type="int" name="NELMDL">     0</i>
    <i type="int" name="NELMIN">     2</i>
    <i name="ENINI">    500.00000000</i>
    <separator name="electronic convergence detail" >
     <i type="logical" name="LDIAG"> T  </i>
     <i name="WEIMIN">      0.00000000</i>
     <i name="EBREAK">      0.00000000</i>
     <i name="DEPER">      0.30000000</i>
     <i type="int" name="NRMM">     4</i>
     <i name="TIME">      0.10000000</i>
    </separator>
   </separator>
   <separator name="electronic mixer" >
    <i name="AMIX">      0.40000000</i>
    <i name="BMIX">      1.00000000</i>
    <i name="AMIN">      0.10000000</i>
    <i name="AMIX_MAG">      1.60000000</i>
    <i name="BMIX_MAG">      1.00000000</i>
    <separator name="electronic mixer details" >
     <i type="int" name="IMIX">     4</i>
     <i type="int" name="MAXMIX">   -45</i>
     <i name="WC">    100.00000000</i>
     <i type="int" name="INIMIX">     1</i>
     <i type="int" name="MIXPRE">     1</i>
     <i type="int" name="MREMOVE">     5</i>
    </separator>
   </separator>
   <separator name="electronic dipolcorrection" >
    <i type="int" name="IDIPOL">     0</i>
    <i type="logical" name="LDIPOL"> F  </i>
    <v name="DIPOL">   -100.00000000</v>
    <i name="EFIELD">      0.00000000</i>
   </separator>
  </separator>
  <separator name="grids" >
   <i type="int" name="NGX">    24</i>
   <i type="int" name="NGY">    24</i>
   <i type="int" name="NGZ">    36</i>
   <i type="int" name="NGXF">    48</i>
   <i type="int" name="NGYF">    48</i>
   <i type="int" name="NGZF">    72</i>
   <i type="logical" name="ADDGRID"> F  </i>
  </separator>
  <separator name="ionic" >
   <i type="int" name="NSW">     0</i>
   <i type="int" name="IBRION">    -1</i>
   <i type="int" name="ISIF">     2</i>
   <i name="PSTRESS">      0.00000000</i>
   <i name="EDIFFG">      0.00000010</i>
   <i type="int" name="NFREE">     0</i>
   <i name="POTIM">      0.50000000</i>
   <i name="SMASS">     -3.00000000</i>
  </separator>
  <separator name="ionic md" >
   <i name="TEBEG">      0.00010000</i>
   <i name="TEEND">      0.00010000</i>
   <i type="int" name="NBLOCK">     1</i>
   <i type="int" name="KBLOCK">     1</i>
   <i type="int" name="NPACO">   256</i>
   <i name="APACO">     16.00000000</i>
  </separator>
  <separator name="symmetry" >
   <i type="int" name="ISYM">     2</i>
   <i name="SYMPREC">      0.00001000</i>
  </separator>
  <separator name="dos" >
   <i type="logical" name="LORBIT"> F  </i>
   <v name="RWIGS">     -1.00000000</v>
   <i type="int" name="NEDOS">   301</i>
   <i name="EMIN">     10.00000000</i>
   <i name="EMAX">    -10.00000000</i>
  </separator>
  <separator name="writing" >
   <i type="int" name="NWRITE">     2</i>
   <i type="logical" name="LWAVE"> F  </i>
   <i type="logical" name="LCHARG"> F  </i>
   <i type="logical" name="LPARD"> F  </i>
   <i type="logical" name="LVTOT"> F  </i>
   <i type="logical" name="LELF"> F  </i>
   <i type="logical" name="LOPTICS"> F  </i>
   <i name="STM">      0.00000000</i>
  </separator>
  <separator name="performance" >
   <i type="int" name="NPAR">     4</i>
   <i type="int" name="NSIM">     4</i>
   <i type="int" name="NBLK">    96</i>
   <i type="logical" name="LPLANE"> T  </i>
   <i type="logical" name="LCRITICAL_MEM"> F  </i>
   <i type="logical" name="LSCALAPACK"> F  </i>
   <i type="logical" name="LSCALU"> F  </i>
   <i type="logical" name="LASYNC"> F  </i>
  </separator>
  <separator name="miscellaneous" >
   <i type="int" name="IDIOT">     3</i>
   <i type="logical" name="LMUSIC"> F  </i>
   <v name="POMASS">     47.88000000</v>
   <i type="logical" name="LCORR"> T  </i>
  </separator>
  <i type="logical" name="LREAL_COMPAT"> F  </i>
  <i type="logical" name="GGA_COMPAT"> T  </i>
  <i type="logical" name="LBERRY"> F  </i>
  <i type="int" name="ICORELEVEL">     0</i>
  <i type="logical" name="LDAU"> F  </i>
  <i type="int" name="I_CONSTRAINED_M">     0</i>
 </parameters>
 <atominfo>
  <atoms>       2</atoms>
  <types>       1</types>
  <array name="atoms" >
   <dimension dim="1">ion</dimension>
   <field type="string">element</field>
   <field type="int">atomtype</field>
   <set>
    <rc><c>Ti</c><c>   1</c></rc>
    <rc><c>Ti</c><c>   1</c></rc>
   </set>
  </array>
  <array name="atomtypes" >
   <dimension dim="1">type</dimension>
   <field type="int">atomspertype</field>
   <field type="string">element</field>
   <field>mass</field>
   <field>valence</field>
   <field type="string">pseudopotential</field>
   <set>
    <rc><c>   2</c><c>Ti</c><c>     47.88000000</c><c>     10.00000000</c><c> PAW_PBE Ti_pv 07Sep2000                </c></rc>
   </set>
  </array>
 </atominfo>
 <structure name="initialpos" >
  <crystal>
   <varray name="basis" >
    <v>       2.94022237      0.00825515      0.00000000</v>
    <v>      -1.46296196      2.55043487      0.00000000</v>
    <v>       0.00000000      0.00000000      4.60373723</v>
   </varray>
   <i name="volume">     34.57831409</i>
   <varray name="rec_basis" >
    <v>       0.33956346      0.19477793      0.00000000</v>
    <v>      -0.00109909      0.39145955      0.00000000</v>
    <v>       0.00000000      0.00000000      0.21721483</v>
   </varray>
  </crystal>
  <varray name="positions" >
   <v>       0.33223018      0.66776982      0.25000000</v>
   <v>       0.66776982      0.33223018      0.75000000</v>
  </varray>
 </structure>
 <calculation>
  <scstep>
   <time name="dav">    0.57    0.58</time>
   <time name="total">    0.64    0.65</time>
   <energy>
    <i name="alphaZ">    126.13955637</i>
    <i name="ewald">  -1607.93358410</i>
    <i name="hartreedc">   -442.85028464</i>
    <i name="XCdc">     71.85142432</i>
    <i name="pawpsdc">   1428.40628957</i>
    <i name="pawaedc">  -1426.98428199</i>
    <i name="eentropy">     -0.00049209</i>
    <i name="bandstr">    -86.39987755</i>
    <i name="atom">   2084.75134655</i>
    <i name="e_fr_energy">    146.98009643</i>
    <i name="e_wo_entrp">    146.98058853</i>
    <i name="e_0_energy">    146.98034248</i>
   </energy>
  </scstep>
  <scstep>
   <time name="dav">    0.56    0.56</time>
   <time name="total">    0.56    0.57</time>
   <energy>
    <i name="e_fr_energy">    -13.48485873</i>
    <i name="e_wo_entrp">    -13.48467150</i>
    <i name="e_0_energy">    -13.48476511</i>
   </energy>
  </scstep>
  <scstep>
   <time name="dav">    0.72    0.73</time>
   <time name="total">    0.73    0.73</time>
   <energy>
    <i name="e_fr_energy">    -17.92795495</i>
    <i name="e_wo_entrp">    -17.92781048</i>
    <i name="e_0_energy">    -17.92788272</i>
   </energy>
  </scstep>
  <scstep>
   <time name="dav">    0.58    0.58</time>
   <time name="total">    0.59    0.59</time>
   <energy>
    <i name="e_fr_energy">    -17.99312880</i>
    <i name="e_wo_entrp">    -17.99294070</i>
    <i name="e_0_energy">    -17.99303475</i>
   </energy>
  </scstep>
  <scstep>
   <time name="dav">    0.70    0.70</time>
   <time name="total">    0.75    0.75</time>
   <energy>
    <i name="e_fr_energy">    -17.99471415</i>
    <i name="e_wo_entrp">    -17.99452604</i>
    <i name="e_0_energy">    -17.99462010</i>
   </energy>
  </scstep>
  <scstep>
   <time name="dav">    0.61    0.61</time>
   <time name="total">    0.72    0.72</time>
   <energy>
    <i name="e_fr_energy">    -15.90567741</i>
    <i name="e_wo_entrp">    -15.90538983</i>
    <i name="e_0_energy">    -15.90553362</i>
   </energy>
  </scstep>
  <scstep>
   <time name="dav">    0.67    0.67</time>
   <time name="total">    0.78    0.78</time>
   <energy>
    <i name="e_fr_energy">    -15.80395614</i>
    <i name="e_wo_entrp">    -15.80373999</i>
    <i name="e_0_energy">    -15.80384807</i>
   </energy>
  </scstep>
  <scstep>
   <time name="dav">    0.58    0.58</time>
   <time name="total">    0.69    0.69</time>
   <energy>
    <i name="e_fr_energy">    -15.79329656</i>
    <i name="e_wo_entrp">    -15.79306193</i>
    <i name="e_0_energy">    -15.79317925</i>
   </energy>
  </scstep>
  <scstep>
   <time name="dav">    0.62    0.63</time>
   <time name="total">    0.73    0.74</time>
   <energy>
    <i name="e_fr_energy">    -15.79242368</i>
    <i name="e_wo_entrp">    -15.79219508</i>
    <i name="e_0_energy">    -15.79230938</i>
   </energy>
  </scstep>
  <scstep>
   <time name="dav">    0.71    0.72</time>
   <time name="total">    0.82    0.83</time>
   <energy>
    <i name="e_fr_energy">    -15.79241460</i>
    <i name="e_wo_entrp">    -15.79218179</i>
    <i name="e_0_energy">    -15.79229820</i>
   </energy>
  </scstep>
  <scstep>
   <time name="dav">    0.61    0.61</time>
   <time name="total">    0.72    0.72</time>
   <energy>
    <i name="e_fr_energy">    -15.79241013</i>
    <i name="e_wo_entrp">    -15.79217697</i>
    <i name="e_0_energy">    -15.79229355</i>
   </energy>
  </scstep>
  <scstep>
   <time name="dav">    0.72    0.73</time>
   <time name="total">    0.83    0.84</time>
   <energy>
    <i name="e_fr_energy">    -15.79240861</i>
    <i name="e_wo_entrp">    -15.79217632</i>
    <i name="e_0_energy">    -15.79229246</i>
   </energy>
  </scstep>
  <scstep>
   <time name="dav">    0.57    0.58</time>
   <time name="total">    0.68    0.69</time>
   <energy>
    <i name="e_fr_energy">    -15.79240852</i>
    <i name="e_wo_entrp">    -15.79217627</i>
    <i name="e_0_energy">    -15.79229239</i>
   </energy>
  </scstep>
  <scstep>
   <time name="dav">    0.41    0.41</time>
   <time name="total">    0.52    0.52</time>
   <energy>
    <i name="e_fr_energy">    -15.79240861</i>
    <i name="e_wo_entrp">    -15.79217636</i>
    <i name="e_0_energy">    -15.79229248</i>
   </energy>
  </scstep>
  <scstep>
   <time name="dav">    0.39    0.40</time>
   <time name="total">    0.50    0.51</time>
   <energy>
    <i name="e_fr_energy">    -15.79240863</i>
    <i name="e_wo_entrp">    -15.79217637</i>
    <i name="e_0_energy">    -15.79229250</i>
   </energy>
  </scstep>
  <scstep>
   <time name="dav">    0.39    0.39</time>
   <time name="total">    0.45    0.46</time>
   <energy>
    <i name="alphaZ">    126.13955637</i>
    <i name="ewald">  -1607.93358410</i>
    <i name="hartreedc">   -392.38360767</i>
    <i name="XCdc">     69.28560285</i>
    <i name="pawpsdc">   1426.86309523</i>
    <i name="pawaedc">  -1432.37212324</i>
    <i name="eentropy">     -0.00023226</i>
    <i name="bandstr">   -290.14246236</i>
    <i name="atom">   2084.75134655</i>
    <i name="e_fr_energy">    -15.79240863</i>
    <i name="e_wo_entrp">    -15.79217637</i>
    <i name="e_0_energy">    -15.79229250</i>
   </energy>
  </scstep>
  <structure>
   <crystal>
    <varray name="basis" >
     <v>       2.94022237      0.00825515      0.00000000</v>
     <v>      -1.46296196      2.55043487      0.00000000</v>
     <v>       0.00000000      0.00000000      4.60373723</v>
    </varray>
    <i name="volume">     34.57831409</i>
    <varray name="rec_basis" >
     <v>       0.33956346      0.19477793      0.00000000</v>
     <v>      -0.00109909      0.39145955      0.00000000</v>
     <v>       0.00000000      0.00000000      0.21721483</v>
    </varray>
   </crystal>
   <varray name="positions" >
    <v>       0.33223018      0.66776982      0.25000000</v>
    <v>       0.66776982      0.33223018      0.75000000</v>
   </varray>
  </structure>
  <varray name="forces" >
   <v>      -0.00010518      0.00006073      0.00000000</v>
   <v>       0.00010518     -0.00006073     -0.00000000</v>
  </varray>
  <varray name="stress" >
   <v>       0.00080801     -0.00121432      0.00000000</v>
   <v>      -0.00121432     -0.00059417     -0.00000000</v>
   <v>       0.00000000      0.00000000     -0.00516383</v>
  </varray>
  <energy>
   <i name="e_fr_energy">    -15.79240863</i>
   <i name="e_wo_entrp">    -15.79229250</i>
   <i name="e_0_energy">     -0.00023226</i>
  </energy>
  <eigenvalues>
   <array>
    <dimension dim="1">band</dimension>
    <dimension dim="2">kpoint</dimension>
    <dimension dim="3">spin</dimension>
    <field>eigene</field>
    <field>occ</field>
    <set>
     <set comment="spin 1">
      <set comment="kpoint 1">
       <r> -27.4889  1.0000</r>
       <r> -26.8191  1.0000</r>
       <r> -26.8124  1.0000</r>
       <r> -26.7521  1.0000</r>
       <r> -26.7068  1.0000</r>
       <r> -26.7057  1.0000</r>
       <r>  -0.2113  1.0000</r>
       <r>   3.2774  1.0000</r>
       <r>   6.6735  0.0000</r>
       <r>   6.7665  0.0000</r>
       <r>   6.8688  0.0000</r>
       <r>   6.9149  0.0000</r>
       <r>   7.2173  0.0000</r>
       <r>   7.2729  0.0000</r>
       <r>   7.4832  0.0000</r>
       <r>   7.5407  0.0000</r>
      </set>
      <set comment="kpoint 2">
       <r> -27.4049  1.0000</r>
       <r> -26.9737  1.0000</r>
       <r> -26.8666  1.0000</r>
       <r> -26.8653  1.0000</r>
       <r> -26.7933  1.0000</r>
       <r> -26.7261  1.0000</r>
       <r>   0.8442  1.0000</r>
       <r>   3.9790  1.0000</r>
       <r>   5.4669  1.0000</r>
       <r>   5.7316  1.0000</r>
       <r>   6.8005  0.0000</r>
       <r>   7.0449  0.0000</r>
       <r>   7.1261  0.0000</r>
       <r>   7.4860  0.0000</r>
       <r>   7.6873  0.0000</r>
       <r>   7.9042  0.0000</r>
      </set>
      <set comment="kpoint 3">
       <r> -27.2309  1.0000</r>
       <r> -27.2233  1.0000</r>
       <r> -27.1062  1.0000</r>
       <r> -26.9422  1.0000</r>
       <r> -26.9052  1.0000</r>
       <r> -26.7641  1.0000</r>
       <r>   3.0389  1.0000</r>
       <r>   4.0407  1.0000</r>
       <r>   4.2806  1.0000</r>
       <r>   5.2680  1.0000</r>
       <r>   6.4684  0.0000</r>
       <r>   6.6818  0.0000</r>
       <r>   7.0122  0.0000</r>
       <r>   8.9813  0.0000</r>
       <r>   9.2005  0.0000</r>
       <r>   9.3216  0.0000</r>
      </set>
      <set comment="kpoint 4">
       <r> -27.2674  1.0000</r>
       <r> -27.1045  1.0000</r>
       <r> -27.0889  1.0000</r>
       <r> -26.9199  1.0000</r>
       <r> -26.8749  1.0000</r>
       <r> -26.8153  1.0000</r>
       <r>   2.5764  1.0000</r>
       <r>   4.5966  1.0000</r>
       <r>   4.6298  1.0000</r>
       <r>   4.8896  1.0000</r>
       <r>   6.2747  0.0000</r>
       <r>   6.8319  0.0000</r>
       <r>   6.9355  0.0000</r>
       <r>   8.1219  0.0000</r>
       <r>   8.7857  0.0000</r>
       <r>   9.2928  0.0000</r>
      </set>
      <set comment="kpoint 5">
       <r> -27.2285  1.0000</r>
       <r> -27.1253  1.0000</r>
       <r> -27.1023  1.0000</r>
       <r> -27.0352  1.0000</r>
       <r> -26.9808  1.0000</r>
       <r> -26.8742  1.0000</r>
       <r>   4.1127  1.0000</r>
       <r>   4.2098  1.0000</r>
       <r>   4.2953  1.0000</r>
       <r>   4.8941  1.0000</r>
       <r>   6.1832  0.0000</r>
       <r>   6.4172  0.0000</r>
       <r>   7.3342  0.0000</r>
       <r>   9.0243  0.0000</r>
       <r>   9.2793  0.0000</r>
       <r>   9.3796  0.0000</r>
      </set>
      <set comment="kpoint 6">
       <r> -27.2678  1.0000</r>
       <r> -27.1125  1.0000</r>
       <r> -27.0952  1.0000</r>
       <r> -26.9202  1.0000</r>
       <r> -26.8724  1.0000</r>
       <r> -26.8138  1.0000</r>
       <r>   2.5990  1.0000</r>
       <r>   4.5739  1.0000</r>
       <r>   4.6309  1.0000</r>
       <r>   4.8921  1.0000</r>
       <r>   6.2638  0.0000</r>
       <r>   6.8209  0.0000</r>
       <r>   6.9483  0.0000</r>
       <r>   8.1393  0.0000</r>
       <r>   8.7931  0.0000</r>
       <r>   9.3020  0.0000</r>
      </set>
      <set comment="kpoint 7">
       <r> -27.4049  1.0000</r>
       <r> -26.9723  1.0000</r>
       <r> -26.8719  1.0000</r>
       <r> -26.8670  1.0000</r>
       <r> -26.7921  1.0000</r>
       <r> -26.7289  1.0000</r>
       <r>   0.8538  1.0000</r>
       <r>   3.9820  1.0000</r>
       <r>   5.4498  1.0000</r>
       <r>   5.7685  1.0000</r>
       <r>   6.8377  0.0000</r>
       <r>   6.9996  0.0000</r>
       <r>   7.1746  0.0000</r>
       <r>   7.4343  0.0000</r>
       <r>   7.6897  0.0000</r>
       <r>   7.8769  0.0000</r>
      </set>
      <set comment="kpoint 8">
       <r> -27.2338  1.0000</r>
       <r> -27.1285  1.0000</r>
       <r> -27.1044  1.0000</r>
       <r> -27.0393  1.0000</r>
       <r> -26.9756  1.0000</r>
       <r> -26.8758  1.0000</r>
       <r>   4.1074  1.0000</r>
       <r>   4.1924  1.0000</r>
       <r>   4.2760  1.0000</r>
       <r>   4.9311  1.0000</r>
       <r>   6.1373  0.0000</r>
       <r>   6.4695  0.0000</r>
       <r>   7.3667  0.0000</r>
       <r>   9.0276  0.0000</r>
       <r>   9.2983  0.0000</r>
       <r>   9.3812  0.0000</r>
      </set>
      <set comment="kpoint 9">
       <r> -27.2359  1.0000</r>
       <r> -27.2249  1.0000</r>
       <r> -27.1082  1.0000</r>
       <r> -26.9512  1.0000</r>
       <r> -26.9004  1.0000</r>
       <r> -26.7696  1.0000</r>
       <r>   3.0501  1.0000</r>
       <r>   4.0309  1.0000</r>
       <r>   4.2545  1.0000</r>
       <r>   5.3012  1.0000</r>
       <r>   6.4142  0.0000</r>
       <r>   6.7429  0.0000</r>
       <r>   7.0653  0.0000</r>
       <r>   8.9869  0.0000</r>
       <r>   9.1972  0.0000</r>
       <r>   9.3253  0.0000</r>
      </set>
      <set comment="kpoint 10">
       <r> -27.4217  1.0000</r>
       <r> -26.8259  1.0000</r>
       <r> -26.8085  1.0000</r>
       <r> -26.8023  1.0000</r>
       <r> -26.7176  1.0000</r>
       <r> -26.7159  1.0000</r>
       <r>   0.1306  1.0000</r>
       <r>   3.1012  1.0000</r>
       <r>   6.3594  0.0000</r>
       <r>   6.5395  0.0000</r>
       <r>   6.6204  0.0000</r>
       <r>   6.7282  0.0000</r>
       <r>   7.0331  0.0000</r>
       <r>   7.0866  0.0000</r>
       <r>   7.8434  0.0000</r>
       <r>   7.9038  0.0000</r>
      </set>
      <set comment="kpoint 11">
       <r> -27.3626  1.0000</r>
       <r> -26.9621  1.0000</r>
       <r> -26.9300  1.0000</r>
       <r> -26.8523  1.0000</r>
       <r> -26.7868  1.0000</r>
       <r> -26.7395  1.0000</r>
       <r>   1.1399  1.0000</r>
       <r>   3.8753  1.0000</r>
       <r>   5.1781  1.0000</r>
       <r>   5.8066  1.0000</r>
       <r>   6.5800  0.0000</r>
       <r>   6.9567  0.0000</r>
       <r>   6.9938  0.0000</r>
       <r>   7.6045  0.0000</r>
       <r>   7.9257  0.0000</r>
       <r>   8.0211  0.0000</r>
      </set>
      <set comment="kpoint 12">
       <r> -27.3234  1.0000</r>
       <r> -27.1860  1.0000</r>
       <r> -27.0790  1.0000</r>
       <r> -26.9256  1.0000</r>
       <r> -26.8753  1.0000</r>
       <r> -26.7813  1.0000</r>
       <r>   3.0394  1.0000</r>
       <r>   3.9572  1.0000</r>
       <r>   4.5524  1.0000</r>
       <r>   5.2075  1.0000</r>
       <r>   6.6716  0.0000</r>
       <r>   6.7486  0.0000</r>
       <r>   7.0539  0.0000</r>
       <r>   8.8701  0.0000</r>
       <r>   9.0304  0.0000</r>
       <r>   9.2066  0.0000</r>
      </set>
      <set comment="kpoint 13">
       <r> -27.2909  1.0000</r>
       <r> -27.1356  1.0000</r>
       <r> -27.0242  1.0000</r>
       <r> -26.9636  1.0000</r>
       <r> -26.8303  1.0000</r>
       <r> -26.8258  1.0000</r>
       <r>   2.7488  1.0000</r>
       <r>   4.3882  1.0000</r>
       <r>   4.8138  1.0000</r>
       <r>   5.0139  1.0000</r>
       <r>   6.2551  0.0000</r>
       <r>   6.6913  0.0000</r>
       <r>   6.8661  0.0000</r>
       <r>   8.1006  0.0000</r>
       <r>   8.8646  0.0000</r>
       <r>   8.9813  0.0000</r>
      </set>
      <set comment="kpoint 14">
       <r> -27.2816  1.0000</r>
       <r> -27.1903  1.0000</r>
       <r> -27.1027  1.0000</r>
       <r> -26.9627  1.0000</r>
       <r> -26.9408  1.0000</r>
       <r> -26.8656  1.0000</r>
       <r>   3.8711  1.0000</r>
       <r>   4.3613  1.0000</r>
       <r>   4.7443  1.0000</r>
       <r>   4.8226  1.0000</r>
       <r>   6.0979  0.0000</r>
       <r>   6.3920  0.0000</r>
       <r>   7.3443  0.0000</r>
       <r>   8.8344  0.0000</r>
       <r>   9.0178  0.0000</r>
       <r>   9.3736  0.0000</r>
      </set>
      <set comment="kpoint 15">
       <r> -27.2915  1.0000</r>
       <r> -27.1413  1.0000</r>
       <r> -27.0306  1.0000</r>
       <r> -26.9635  1.0000</r>
       <r> -26.8290  1.0000</r>
       <r> -26.8258  1.0000</r>
       <r>   2.7689  1.0000</r>
       <r>   4.3718  1.0000</r>
       <r>   4.8162  1.0000</r>
       <r>   5.0154  1.0000</r>
       <r>   6.2561  0.0000</r>
       <r>   6.7154  0.0000</r>
       <r>   6.8458  0.0000</r>
       <r>   8.1122  0.0000</r>
       <r>   8.8614  0.0000</r>
       <r>   8.9904  0.0000</r>
      </set>
      <set comment="kpoint 16">
       <r> -27.3621  1.0000</r>
       <r> -26.9617  1.0000</r>
       <r> -26.9284  1.0000</r>
       <r> -26.8584  1.0000</r>
       <r> -26.7875  1.0000</r>
       <r> -26.7427  1.0000</r>
       <r>   1.1495  1.0000</r>
       <r>   3.8780  1.0000</r>
       <r>   5.1728  1.0000</r>
       <r>   5.8421  0.5598</r>
       <r>   6.6179  0.0000</r>
       <r>   6.9150  0.0000</r>
       <r>   7.0176  0.0000</r>
       <r>   7.5634  0.0000</r>
       <r>   7.8922  0.0000</r>
       <r>   8.0378  0.0000</r>
      </set>
      <set comment="kpoint 17">
       <r> -27.2845  1.0000</r>
       <r> -27.1895  1.0000</r>
       <r> -27.1076  1.0000</r>
       <r> -26.9658  1.0000</r>
       <r> -26.9430  1.0000</r>
       <r> -26.8646  1.0000</r>
       <r>   3.8657  1.0000</r>
       <r>   4.3555  1.0000</r>
       <r>   4.7325  1.0000</r>
       <r>   4.8376  1.0000</r>
       <r>   6.0644  0.0000</r>
       <r>   6.4474  0.0000</r>
       <r>   7.3660  0.0000</r>
       <r>   8.8338  0.0000</r>
       <r>   9.0201  0.0000</r>
       <r>   9.3790  0.0000</r>
      </set>
      <set comment="kpoint 18">
       <r> -27.3245  1.0000</r>
       <r> -27.1860  1.0000</r>
       <r> -27.0831  1.0000</r>
       <r> -26.9341  1.0000</r>
       <r> -26.8740  1.0000</r>
       <r> -26.7872  1.0000</r>
       <r>   3.0506  1.0000</r>
       <r>   3.9565  1.0000</r>
       <r>   4.5394  1.0000</r>
       <r>   5.2189  1.0000</r>
       <r>   6.6203  0.0000</r>
       <r>   6.8041  0.0000</r>
       <r>   7.1145  0.0000</r>
       <r>   8.8610  0.0000</r>
       <r>   9.0332  0.0000</r>
       <r>   9.2069  0.0000</r>
      </set>
      <set comment="kpoint 19">
       <r> -27.2427  1.0000</r>
       <r> -27.0153  1.0000</r>
       <r> -26.7805  1.0000</r>
       <r> -26.7756  1.0000</r>
       <r> -26.7458  1.0000</r>
       <r> -26.7427  1.0000</r>
       <r>   1.0703  1.0000</r>
       <r>   2.2865  1.0000</r>
       <r>   5.9862  0.0000</r>
       <r>   6.2911  0.0000</r>
       <r>   6.4978  0.0000</r>
       <r>   6.5648  0.0000</r>
       <r>   6.6988  0.0000</r>
       <r>   6.7554  0.0000</r>
       <r>   8.4689  0.0000</r>
       <r>   8.5164  0.0000</r>
      </set>
      <set comment="kpoint 20">
       <r> -27.2476  1.0000</r>
       <r> -27.0936  1.0000</r>
       <r> -26.8852  1.0000</r>
       <r> -26.8206  1.0000</r>
       <r> -26.8175  1.0000</r>
       <r> -26.7746  1.0000</r>
       <r>   1.9602  1.0000</r>
       <r>   3.0710  1.0000</r>
       <r>   5.2857  1.0000</r>
       <r>   5.8061  1.0000</r>
       <r>   6.2705  0.0000</r>
       <r>   6.6578  0.0000</r>
       <r>   7.0131  0.0000</r>
       <r>   7.2866  0.0000</r>
       <r>   8.4576  0.0000</r>
       <r>   8.6640  0.0000</r>
      </set>
      <set comment="kpoint 21">
       <r> -27.3460  1.0000</r>
       <r> -27.2894  1.0000</r>
       <r> -26.9506  1.0000</r>
       <r> -26.8826  1.0000</r>
       <r> -26.8737  1.0000</r>
       <r> -26.8261  1.0000</r>
       <r>   3.2019  1.0000</r>
       <r>   3.5970  1.0000</r>
       <r>   4.9860  1.0000</r>
       <r>   5.3443  1.0000</r>
       <r>   6.7121  0.0000</r>
       <r>   7.1104  0.0000</r>
       <r>   7.2454  0.0000</r>
       <r>   8.0688  0.0000</r>
       <r>   9.1498  0.0000</r>
       <r>   9.2601  0.0000</r>
      </set>
      <set comment="kpoint 22">
       <r> -27.2868  1.0000</r>
       <r> -27.2221  1.0000</r>
       <r> -26.9516  1.0000</r>
       <r> -26.9389  1.0000</r>
       <r> -26.8513  1.0000</r>
       <r> -26.8191  1.0000</r>
       <r>   3.2221  1.0000</r>
       <r>   3.8557  1.0000</r>
       <r>   5.2147  1.0000</r>
       <r>   5.3280  1.0000</r>
       <r>   6.0328  0.0000</r>
       <r>   6.1891  0.0000</r>
       <r>   7.1758  0.0000</r>
       <r>   7.7654  0.0000</r>
       <r>   8.9932  0.0000</r>
       <r>   9.2831  0.0000</r>
      </set>
      <set comment="kpoint 23">
       <r> -27.3223  1.0000</r>
       <r> -27.2890  1.0000</r>
       <r> -27.0472  1.0000</r>
       <r> -26.9802  1.0000</r>
       <r> -26.8670  1.0000</r>
       <r> -26.8340  1.0000</r>
       <r>   3.8971  1.0000</r>
       <r>   4.1614  1.0000</r>
       <r>   5.1225  1.0000</r>
       <r>   5.5089  1.0000</r>
       <r>   5.6952  1.0000</r>
       <r>   6.1593  0.0000</r>
       <r>   7.5515  0.0000</r>
       <r>   8.0297  0.0000</r>
       <r>   9.0876  0.0000</r>
       <r>   9.3112  0.0000</r>
      </set>
      <set comment="kpoint 24">
       <r> -27.2874  1.0000</r>
       <r> -27.2239  1.0000</r>
       <r> -26.9542  1.0000</r>
       <r> -26.9452  1.0000</r>
       <r> -26.8499  1.0000</r>
       <r> -26.8204  1.0000</r>
       <r>   3.2332  1.0000</r>
       <r>   3.8522  1.0000</r>
       <r>   5.2206  1.0000</r>
       <r>   5.3308  1.0000</r>
       <r>   6.0523  0.0000</r>
       <r>   6.2162  0.0000</r>
       <r>   7.1522  0.0000</r>
       <r>   7.7567  0.0000</r>
       <r>   8.9846  0.0000</r>
       <r>   9.2984  0.0000</r>
      </set>
      <set comment="kpoint 25">
       <r> -27.2461  1.0000</r>
       <r> -27.0916  1.0000</r>
       <r> -26.8856  1.0000</r>
       <r> -26.8229  1.0000</r>
       <r> -26.8217  1.0000</r>
       <r> -26.7787  1.0000</r>
       <r>   1.9688  1.0000</r>
       <r>   3.0762  1.0000</r>
       <r>   5.2957  1.0000</r>
       <r>   5.8321  0.9402</r>
       <r>   6.2962  0.0000</r>
       <r>   6.6863  0.0000</r>
       <r>   6.9759  0.0000</r>
       <r>   7.2538  0.0000</r>
       <r>   8.4232  0.0000</r>
       <r>   8.6771  0.0000</r>
      </set>
      <set comment="kpoint 26">
       <r> -27.3228  1.0000</r>
       <r> -27.2880  1.0000</r>
       <r> -27.0521  1.0000</r>
       <r> -26.9842  1.0000</r>
       <r> -26.8696  1.0000</r>
       <r> -26.8344  1.0000</r>
       <r>   3.8993  1.0000</r>
       <r>   4.1715  1.0000</r>
       <r>   5.1104  1.0000</r>
       <r>   5.5093  1.0000</r>
       <r>   5.6801  1.0000</r>
       <r>   6.1949  0.0000</r>
       <r>   7.5617  0.0000</r>
       <r>   8.0315  0.0000</r>
       <r>   9.0844  0.0000</r>
       <r>   9.3051  0.0000</r>
      </set>
      <set comment="kpoint 27">
       <r> -27.3452  1.0000</r>
       <r> -27.2878  1.0000</r>
       <r> -26.9548  1.0000</r>
       <r> -26.8891  1.0000</r>
       <r> -26.8773  1.0000</r>
       <r> -26.8330  1.0000</r>
       <r>   3.2157  1.0000</r>
       <r>   3.6112  1.0000</r>
       <r>   4.9837  1.0000</r>
       <r>   5.3395  1.0000</r>
       <r>   6.7539  0.0000</r>
       <r>   7.1651  0.0000</r>
       <r>   7.2031  0.0000</r>
       <r>   8.0413  0.0000</r>
       <r>   9.1523  0.0000</r>
       <r>   9.2688  0.0000</r>
      </set>
     </set>
    </set>
   </array>
  </eigenvalues>
 </calculation>
 <structure name="finalpos" >
  <crystal>
   <varray name="basis" >
    <v>       2.94022237      0.00825515      0.00000000</v>
    <v>      -1.46296196      2.55043487      0.00000000</v>
    <v>       0.00000000      0.00000000      4.60373723</v>
   </varray>
   <i name="volume">     34.57831409</i>
   <varray name="rec_basis" >
    <v>       0.33956346      0.19477793      0.00000000</v>
    <v>      -0.00109909      0.39145955      0.00000000</v>
    <v>       0.00000000      0.00000000      0.21721483</v>
   </varray>
  </crystal>
  <varray name="positions" >
   <v>       0.33223018      0.66776982      0.25000000</v>
   <v>       0.66776982      0.33223018      0.75000000</v>
  </varray>
 </structure>
</modeling>
