32   
1    

1    
  0.0100000000000000   0.0000000000000000   0.0000000000000000
  -0.1074926300    0.0000000000   -0.0000000000
   0.0012086300    0.0000000000    0.0000000000
  -0.0004809400    0.0000000000   -0.0000000000
   0.0005661700   -0.0000000000   -0.0000000000
  -0.0004809400    0.0000000000   -0.0000000000
   0.0005661700    0.0000000000    0.0000000000
   0.0000537500    0.0000000000   -0.0000000000
  -0.0001804600    0.0000000000    0.0000000000
   0.0138062300    0.0162731500   -0.0000000000
   0.0134311100   -0.0157169600    0.0000000000
   0.0138062300   -0.0162731500    0.0000000000
   0.0134311100    0.0157169600    0.0000000000
   0.0001866500    0.0002246900   -0.0000000000
   0.0001847200   -0.0002253600   -0.0000000000
   0.0001866500   -0.0002246900    0.0000000000
   0.0001847200    0.0002253600   -0.0000000000
   0.0138062300    0.0000000000    0.0162731500
   0.0134311100   -0.0000000000   -0.0157169600
   0.0001866500   -0.0000000000    0.0002246900
   0.0001847200    0.0000000000   -0.0002253600
   0.0138062300    0.0000000000   -0.0162731500
   0.0134311100   -0.0000000000    0.0157169600
   0.0001866500   -0.0000000000   -0.0002246900
   0.0001847200    0.0000000000    0.0002253600
  -0.0017233200   -0.0000345000   -0.0000345000
   0.0006746700    0.0000027700    0.0000027700
  -0.0017233200    0.0000345000   -0.0000345000
   0.0006746700   -0.0000027700    0.0000027700
  -0.0017233200   -0.0000345000    0.0000345000
   0.0006746700    0.0000027700   -0.0000027700
  -0.0017233200    0.0000345000    0.0000345000
   0.0006746700   -0.0000027700   -0.0000027700
