mesh: [    48,    48,    48 ]
nqpoint: 2600   
reciprocal_lattice:
- [   0.28645422,   0.00000000,   0.00000000 ] # a*
- [   0.00000000,   0.28645422,   0.00000000 ] # b*
- [   0.00000000,   0.00000000,   0.28645422 ] # c*
natom:   4      
lattice:
- [     3.490959179263730,     0.000000000000000,     0.000000000000000 ] # a
- [     0.000000000000000,     3.490959179263730,     0.000000000000000 ] # b
- [     0.000000000000000,     0.000000000000000,     3.490959179263730 ] # c
points:
- symbol: Cu # 1
  coordinates: [  0.000000000000000,  0.000000000000000,  0.000000000000000 ]
  mass: 63.546000
- symbol: Cu # 2
  coordinates: [  0.500000000000000,  0.500000000000000,  0.000000000000000 ]
  mass: 63.546000
- symbol: Cu # 3
  coordinates: [  0.500000000000000,  0.000000000000000,  0.500000000000000 ]
  mass: 63.546000
- symbol: Cu # 4
  coordinates: [  0.000000000000000,  0.500000000000000,  0.500000000000000 ]
  mass: 63.546000
phonon:
- q-position: [    0.0104167,    0.0104167,    0.0104167 ]
  weight: 8    
  band:
  - # 1
    frequency:     0.1489474825
  - # 2
    frequency:     0.1489474825
  - # 3
    frequency:     0.3198797295
  - # 4
    frequency:     6.2627165445
  - # 5
    frequency:     6.2627165445
  - # 6
    frequency:     6.2627165445
  - # 7
    frequency:     6.2669779292
  - # 8
    frequency:     6.2669779292
  - # 9
    frequency:     6.2669779292
  - # 10
    frequency:     9.2142714443
  - # 11
    frequency:     9.2142714443
  - # 12
    frequency:     9.2142714443

- q-position: [    0.0312500,    0.0104167,    0.0104167 ]
  weight: 24   
  band:
  - # 1
    frequency:     0.2998410996
  - # 2
    frequency:     0.3327411744
  - # 3
    frequency:     0.5802408886
  - # 4
    frequency:     6.2563800925
  - # 5
    frequency:     6.2606248255
  - # 6
    frequency:     6.2609464898
  - # 7
    frequency:     6.2609464898
  - # 8
    frequency:     6.2758370396
  - # 9
    frequency:     6.2758370396
  - # 10
    frequency:     9.2061527200
  - # 11
    frequency:     9.2086929407
  - # 12
    frequency:     9.2086929407

- q-position: [    0.0520833,    0.0104167,    0.0104167 ]
  weight: 24   
  band:
  - # 1
    frequency:     0.5083597774
  - # 2
    frequency:     0.5360421795
  - # 3
    frequency:     0.8778067656
  - # 4
    frequency:     6.2437103715
  - # 5
    frequency:     6.2479218724
  - # 6
    frequency:     6.2598329663
  - # 7
    frequency:     6.2598329663
  - # 8
    frequency:     6.2910813295
  - # 9
    frequency:     6.2910813295
  - # 10
    frequency:     9.1899062981
  - # 11
    frequency:     9.1975532989
  - # 12
    frequency:     9.1975532989

- q-position: [    0.0729167,    0.0104167,    0.0104167 ]
  weight: 24   
  band:
  - # 1
    frequency:     0.7204838629
  - # 2
    frequency:     0.7424187078
  - # 3
    frequency:     1.1870445907
  - # 4
    frequency:     6.2247137803
  - # 5
    frequency:     6.2288756096
  - # 6
    frequency:     6.2587721332
  - # 7
    frequency:     6.2587721332
  - # 8
    frequency:     6.3132208016
  - # 9
    frequency:     6.3132208016
  - # 10
    frequency:     9.1655144423
  - # 11
    frequency:     9.1808872287
  - # 12
    frequency:     9.1808872287

- q-position: [    0.0937500,    0.0104167,    0.0104167 ]
  weight: 24   
  band:
  - # 1
    frequency:     0.9314735231
  - # 2
    frequency:     0.9491821380
  - # 3
    frequency:     1.5004371376
  - # 4
    frequency:     6.1993999999
  - # 5
    frequency:     6.2034959256
  - # 6
    frequency:     6.2575782353
  - # 7
    frequency:     6.2575782353
  - # 8
    frequency:     6.3423025397
  - # 9
    frequency:     6.3423025397
  - # 10
    frequency:     9.1329510694
  - # 11
    frequency:     9.1587467407
  - # 12
    frequency:     9.1587467407

- q-position: [    0.1145833,    0.0104167,    0.0104167 ]
  weight: 24   
  band:
  - # 1
    frequency:     1.1407511864
  - # 2
    frequency:     1.1553791187
  - # 3
    frequency:     1.8146950060
  - # 4
    frequency:     6.1677820911
  - # 5
    frequency:     6.1717961498
  - # 6
    frequency:     6.2562015225
  - # 7
    frequency:     6.2562015225
  - # 8
    frequency:     6.3781951803
  - # 9
    frequency:     6.3781951803
  - # 10
    frequency:     9.0921823664
  - # 11
    frequency:     9.1312010827
  - # 12
    frequency:     9.1312010827

- q-position: [    0.1354167,    0.0104167,    0.0104167 ]
  weight: 24   
  band:
  - # 1
    frequency:     1.3481731551
  - # 2
    frequency:     1.3604831700
  - # 3
    frequency:     2.1280345497
  - # 4
    frequency:     6.1298766229
  - # 5
    frequency:     6.1337931758
  - # 6
    frequency:     6.2546378295
  - # 7
    frequency:     6.2546378295
  - # 8
    frequency:     6.4206823386
  - # 9
    frequency:     6.4206823386
  - # 10
    frequency:     9.0431675997
  - # 11
    frequency:     9.0983366566
  - # 12
    frequency:     9.0983366566

- q-position: [    0.1562500,    0.0104167,    0.0104167 ]
  weight: 24   
  band:
  - # 1
    frequency:     1.5536111064
  - # 2
    frequency:     1.5641156888
  - # 3
    frequency:     2.4393080578
  - # 4
    frequency:     6.0857038301
  - # 5
    frequency:     6.0895076102
  - # 6
    frequency:     6.2529014202
  - # 7
    frequency:     6.2529014202
  - # 8
    frequency:     6.4694932537
  - # 9
    frequency:     6.4694932537
  - # 10
    frequency:     8.9858601032
  - # 11
    frequency:     9.0602569158
  - # 12
    frequency:     9.0602569158

- q-position: [    0.1770833,    0.0104167,    0.0104167 ]
  weight: 24   
  band:
  - # 1
    frequency:     1.7569081314
  - # 2
    frequency:     1.7659621026
  - # 3
    frequency:     2.7476733894
  - # 4
    frequency:     6.0352877972
  - # 5
    frequency:     6.0389639487
  - # 6
    frequency:     6.2510157207
  - # 7
    frequency:     6.2510157207
  - # 8
    frequency:     6.5243158812
  - # 9
    frequency:     6.5243158812
  - # 10
    frequency:     8.9202084335
  - # 11
    frequency:     9.0170822458
  - # 12
    frequency:     9.0170822458

- q-position: [    0.1979167,    0.0104167,    0.0104167 ]
  weight: 24   
  band:
  - # 1
    frequency:     1.9578840093
  - # 2
    frequency:     1.9657408796
  - # 3
    frequency:     3.0524529288
  - # 4
    frequency:     5.9786566675
  - # 5
    frequency:     5.9821907747
  - # 6
    frequency:     6.2490095393
  - # 7
    frequency:     6.2490095393
  - # 8
    frequency:     6.5848046885
  - # 9
    frequency:     6.5848046885
  - # 10
    frequency:     8.8461576734
  - # 11
    frequency:     8.9689498292
  - # 12
    frequency:     8.9689498292

- q-position: [    0.2187500,    0.0104167,    0.0104167 ]
  weight: 24   
  band:
  - # 1
    frequency:     2.1563442766
  - # 2
    frequency:     2.1631904131
  - # 3
    frequency:     3.3530676812
  - # 4
    frequency:     5.9158428729
  - # 5
    frequency:     5.9192209792
  - # 6
    frequency:     6.2469151647
  - # 7
    frequency:     6.2469151647
  - # 8
    frequency:     6.6505866217
  - # 9
    frequency:     6.6505866217
  - # 10
    frequency:     8.7636508673
  - # 11
    frequency:     8.9160134962
  - # 12
    frequency:     8.9160134962

- q-position: [    0.2395833,    0.0104167,    0.0104167 ]
  weight: 24   
  band:
  - # 1
    frequency:     2.3520870847
  - # 2
    frequency:     2.3580629479
  - # 3
    frequency:     3.6490042500
  - # 4
    frequency:     5.8468833834
  - # 5
    frequency:     5.8500919984
  - # 6
    frequency:     6.2447671700
  - # 7
    frequency:     6.2447671700
  - # 8
    frequency:     6.7212662924
  - # 9
    frequency:     6.7212662924
  - # 10
    frequency:     8.6726305691
  - # 11
    frequency:     8.8584435630
  - # 12
    frequency:     8.8584435630

- q-position: [    0.2604167,    0.0104167,    0.0104167 ]
  weight: 24   
  band:
  - # 1
    frequency:     2.5449078477
  - # 2
    frequency:     2.5501216041
  - # 3
    frequency:     3.9397973865
  - # 4
    frequency:     5.7718199712
  - # 5
    frequency:     5.7748460659
  - # 6
    frequency:     6.2426015041
  - # 7
    frequency:     6.2426015041
  - # 8
    frequency:     6.7964307008
  - # 9
    frequency:     6.7964307008
  - # 10
    frequency:     8.5730404797
  - # 11
    frequency:     8.7964266597
  - # 12
    frequency:     8.7964266597

- q-position: [    0.2812500,    0.0104167,    0.0104167 ]
  weight: 24   
  band:
  - # 1
    frequency:     2.7346023634
  - # 2
    frequency:     2.7391388832
  - # 3
    frequency:     4.2250204025
  - # 4
    frequency:     5.6906994876
  - # 5
    frequency:     5.6935304770
  - # 6
    frequency:     6.2404547090
  - # 7
    frequency:     6.2404547090
  - # 8
    frequency:     6.8756535757
  - # 9
    frequency:     6.8756535757
  - # 10
    frequency:     8.4648271560
  - # 11
    frequency:     8.7301655489
  - # 12
    frequency:     8.7301655489

- q-position: [    0.3020833,    0.0104167,    0.0104167 ]
  weight: 24   
  band:
  - # 1
    frequency:     2.9209689472
  - # 2
    frequency:     2.9248959234
  - # 3
    frequency:     4.5042797546
  - # 4
    frequency:     5.6035741473
  - # 5
    frequency:     5.6061978601
  - # 6
    frequency:     6.2383631997
  - # 7
    frequency:     6.2383631997
  - # 8
    frequency:     6.9584993403
  - # 9
    frequency:     6.9584993403
  - # 10
    frequency:     8.3479417662
  - # 11
    frequency:     8.6598789370
  - # 12
    frequency:     8.6598789370

- q-position: [    0.3229167,    0.0104167,    0.0104167 ]
  weight: 24   
  band:
  - # 1
    frequency:     3.1038099297
  - # 2
    frequency:     3.1071821498
  - # 3
    frequency:     4.7772119258
  - # 4
    frequency:     5.5105018179
  - # 5
    frequency:     5.5129064527
  - # 6
    frequency:     6.2363625834
  - # 7
    frequency:     6.2363625834
  - # 8
    frequency:     7.0445266947
  - # 9
    frequency:     7.0445266947
  - # 10
    frequency:     8.2223418727
  - # 11
    frequency:     8.5858012802
  - # 12
    frequency:     8.5858012802

- q-position: [    0.3437500,    0.0104167,    0.0104167 ]
  weight: 24   
  band:
  - # 1
    frequency:     3.2829327370
  - # 2
    frequency:     3.2857951362
  - # 3
    frequency:     5.0434815966
  - # 4
    frequency:     5.4115463103
  - # 5
    frequency:     5.4137203769
  - # 6
    frequency:     6.2344870114
  - # 7
    frequency:     6.2344870114
  - # 8
    frequency:     7.1332918084
  - # 9
    frequency:     7.1332918084
  - # 10
    frequency:     8.0879932189
  - # 11
    frequency:     8.5081825851
  - # 12
    frequency:     8.5081825851

- q-position: [    0.3645833,    0.0104167,    0.0104167 ]
  weight: 24   
  band:
  - # 1
    frequency:     3.4581506841
  - # 2
    frequency:     3.4605405764
  - # 3
    frequency:     5.3027805431
  - # 4
    frequency:     5.3067776656
  - # 5
    frequency:     5.3087099126
  - # 6
    frequency:     6.2327685673
  - # 7
    frequency:     6.2327685673
  - # 8
    frequency:     7.2243511235
  - # 9
    frequency:     7.2243511235
  - # 10
    frequency:     7.9448715006
  - # 11
    frequency:     8.4272882099
  - # 12
    frequency:     8.4272882099

- q-position: [    0.3854167,    0.0104167,    0.0104167 ]
  weight: 24   
  band:
  - # 1
    frequency:     3.6292835682
  - # 2
    frequency:     3.6312323088
  - # 3
    frequency:     5.1962724360
  - # 4
    frequency:     5.1979517611
  - # 5
    frequency:     5.5548269327
  - # 6
    frequency:     6.2312366948
  - # 7
    frequency:     6.2312366948
  - # 8
    frequency:     7.3172637725
  - # 9
    frequency:     7.3172637725
  - # 10
    frequency:     7.7929641013
  - # 11
    frequency:     8.3433986725
  - # 12
    frequency:     8.3433986725

- q-position: [    0.4062500,    0.0104167,    0.0104167 ]
  weight: 24   
  band:
  - # 1
    frequency:     3.7961581127
  - # 2
    frequency:     3.7976923602
  - # 3
    frequency:     5.0801139542
  - # 4
    frequency:     5.0815292987
  - # 5
    frequency:     5.7993648169
  - # 6
    frequency:     6.2299176761
  - # 7
    frequency:     6.2299176761
  - # 8
    frequency:     7.4115936070
  - # 9
    frequency:     7.4115936070
  - # 10
    frequency:     7.6322717737
  - # 11
    frequency:     8.2568094898
  - # 12
    frequency:     8.2568094898

- q-position: [    0.4270833,    0.0104167,    0.0104167 ]
  weight: 24   
  band:
  - # 1
    frequency:     3.9586082962
  - # 2
    frequency:     3.9597509872
  - # 3
    frequency:     4.9583925899
  - # 4
    frequency:     4.9595328129
  - # 5
    frequency:     6.0361636991
  - # 6
    frequency:     6.2288341656
  - # 7
    frequency:     6.2288341656
  - # 8
    frequency:     7.4628102497
  - # 9
    frequency:     7.5069107734
  - # 10
    frequency:     7.5069107734
  - # 11
    frequency:     8.1678311380
  - # 12
    frequency:     8.1678311380

- q-position: [    0.4479167,    0.0104167,    0.0104167 ]
  weight: 24   
  band:
  - # 1
    frequency:     4.1164755895
  - # 2
    frequency:     4.1172467036
  - # 3
    frequency:     4.8312059882
  - # 4
    frequency:     4.8320597201
  - # 5
    frequency:     6.2280047887
  - # 6
    frequency:     6.2280047887
  - # 7
    frequency:     6.2650180971
  - # 8
    frequency:     7.2846117640
  - # 9
    frequency:     7.6027924840
  - # 10
    frequency:     7.6027924840
  - # 11
    frequency:     8.0767895095
  - # 12
    frequency:     8.0767895095

- q-position: [    0.4687500,    0.0104167,    0.0104167 ]
  weight: 24   
  band:
  - # 1
    frequency:     4.2696091170
  - # 2
    frequency:     4.2700262865
  - # 3
    frequency:     4.6986592877
  - # 4
    frequency:     4.6992147585
  - # 5
    frequency:     6.2274438116
  - # 6
    frequency:     6.2274438116
  - # 7
    frequency:     6.4857470504
  - # 8
    frequency:     7.0977264780
  - # 9
    frequency:     7.6988205725
  - # 10
    frequency:     7.6988205725
  - # 11
    frequency:     7.9840293040
  - # 12
    frequency:     7.9840293040

- q-position: [    0.4895833,    0.0104167,    0.0104167 ]
  weight: 24   
  band:
  - # 1
    frequency:     4.4178657516
  - # 2
    frequency:     4.4179447541
  - # 3
    frequency:     4.5608653150
  - # 4
    frequency:     4.5611101536
  - # 5
    frequency:     6.2271608879
  - # 6
    frequency:     6.2271608879
  - # 7
    frequency:     6.6981935389
  - # 8
    frequency:     6.9022237920
  - # 9
    frequency:     7.7945344466
  - # 10
    frequency:     7.7945344466
  - # 11
    frequency:     7.8899617640
  - # 12
    frequency:     7.8899617640

- q-position: [    0.0312500,    0.0312500,    0.0104167 ]
  weight: 24   
  band:
  - # 1
    frequency:     0.3327519332
  - # 2
    frequency:     0.4400739276
  - # 3
    frequency:     0.7889633795
  - # 4
    frequency:     6.2527868987
  - # 5
    frequency:     6.2545881887
  - # 6
    frequency:     6.2545881887
  - # 7
    frequency:     6.2694639169
  - # 8
    frequency:     6.2694639169
  - # 9
    frequency:     6.2909867866
  - # 10
    frequency:     9.2006394218
  - # 11
    frequency:     9.2006394218
  - # 12
    frequency:     9.2031158160

- q-position: [    0.0520833,    0.0312500,    0.0104167 ]
  weight: 48   
  band:
  - # 1
    frequency:     0.4813804443
  - # 2
    frequency:     0.6081751178
  - # 3
    frequency:     1.0498371321
  - # 4
    frequency:     6.2418744029
  - # 5
    frequency:     6.2462375793
  - # 6
    frequency:     6.2533939803
  - # 7
    frequency:     6.2567216125
  - # 8
    frequency:     6.2847051791
  - # 9
    frequency:     6.3114706997
  - # 10
    frequency:     9.1845233299
  - # 11
    frequency:     9.1896301651
  - # 12
    frequency:     9.1919789061

- q-position: [    0.0729167,    0.0312500,    0.0104167 ]
  weight: 48   
  band:
  - # 1
    frequency:     0.6774225926
  - # 2
    frequency:     0.7959776604
  - # 3
    frequency:     1.3308577299
  - # 4
    frequency:     6.2228107985
  - # 5
    frequency:     6.2376180337
  - # 6
    frequency:     6.2411847514
  - # 7
    frequency:     6.2521975101
  - # 8
    frequency:     6.3068547846
  - # 9
    frequency:     6.3373119157
  - # 10
    frequency:     9.1603267725
  - # 11
    frequency:     9.1731596065
  - # 12
    frequency:     9.1753168690

- q-position: [    0.0937500,    0.0312500,    0.0104167 ]
  weight: 48   
  band:
  - # 1
    frequency:     0.8859883511
  - # 2
    frequency:     0.9915907738
  - # 3
    frequency:     1.6222903804
  - # 4
    frequency:     6.1974059582
  - # 5
    frequency:     6.2121651039
  - # 6
    frequency:     6.2371793765
  - # 7
    frequency:     6.2508172695
  - # 8
    frequency:     6.3359556637
  - # 9
    frequency:     6.3688254526
  - # 10
    frequency:     9.1280234457
  - # 11
    frequency:     9.1512796737
  - # 12
    frequency:     9.1531816392

- q-position: [    0.1145833,    0.0312500,    0.0104167 ]
  weight: 48   
  band:
  - # 1
    frequency:     1.0970838480
  - # 2
    frequency:     1.1904335465
  - # 3
    frequency:     1.9192753779
  - # 4
    frequency:     6.1656714832
  - # 5
    frequency:     6.1803788335
  - # 6
    frequency:     6.2338678813
  - # 7
    frequency:     6.2492059860
  - # 8
    frequency:     6.3718741233
  - # 9
    frequency:     6.4061897145
  - # 10
    frequency:     9.0875792682
  - # 11
    frequency:     9.1240594977
  - # 12
    frequency:     9.1256423650

- q-position: [    0.1354167,    0.0312500,    0.0104167 ]
  weight: 48   
  band:
  - # 1
    frequency:     1.3075423479
  - # 2
    frequency:     1.3903520041
  - # 3
    frequency:     2.2188253504
  - # 4
    frequency:     6.1276221311
  - # 5
    frequency:     6.1422794095
  - # 6
    frequency:     6.2310055770
  - # 7
    frequency:     6.2473611299
  - # 8
    frequency:     6.4143923637
  - # 9
    frequency:     6.4494358814
  - # 10
    frequency:     9.0389532113
  - # 11
    frequency:     9.0915853242
  - # 12
    frequency:     9.0927853277

- q-position: [    0.1562500,    0.0312500,    0.0104167 ]
  weight: 48   
  band:
  - # 1
    frequency:     1.5161975797
  - # 2
    frequency:     1.5901457270
  - # 3
    frequency:     2.5189036636
  - # 4
    frequency:     6.0832759926
  - # 5
    frequency:     6.0978912985
  - # 6
    frequency:     6.2284334699
  - # 7
    frequency:     6.2452983296
  - # 8
    frequency:     6.4632385743
  - # 9
    frequency:     6.4984743626
  - # 10
    frequency:     8.9820983136
  - # 11
    frequency:     9.0539604046
  - # 12
    frequency:     9.0547138419

- q-position: [    0.1770833,    0.0312500,    0.0104167 ]
  weight: 48   
  band:
  - # 1
    frequency:     1.7225370011
  - # 2
    frequency:     1.7890447503
  - # 3
    frequency:     2.8180254674
  - # 4
    frequency:     6.0326547086
  - # 5
    frequency:     6.0472433580
  - # 6
    frequency:     6.2260538573
  - # 7
    frequency:     6.2430423498
  - # 8
    frequency:     6.5180998021
  - # 9
    frequency:     6.5531227883
  - # 10
    frequency:     8.9169628661
  - # 11
    frequency:     9.0113048688
  - # 12
    frequency:     9.0115481396

- q-position: [    0.1979167,    0.0312500,    0.0104167 ]
  weight: 48   
  band:
  - # 1
    frequency:     1.9262752310
  - # 2
    frequency:     1.9864962804
  - # 3
    frequency:     3.1150501057
  - # 4
    frequency:     5.9757837291
  - # 5
    frequency:     5.9903689503
  - # 6
    frequency:     6.2238112142
  - # 7
    frequency:     6.2406234204
  - # 8
    frequency:     6.5786296599
  - # 9
    frequency:     6.6131288959
  - # 10
    frequency:     8.8434917501
  - # 11
    frequency:     8.9634252397
  - # 12
    frequency:     8.9637555809

- q-position: [    0.2187500,    0.0312500,    0.0104167 ]
  weight: 48   
  band:
  - # 1
    frequency:     2.1272064731
  - # 2
    frequency:     2.1820676501
  - # 3
    frequency:     3.4090628178
  - # 4
    frequency:     5.9126926141
  - # 5
    frequency:     5.9273060544
  - # 6
    frequency:     6.2216785850
  - # 7
    frequency:     6.2380753845
  - # 8
    frequency:     6.6444542626
  - # 9
    frequency:     6.6781879699
  - # 10
    frequency:     8.7616279115
  - # 11
    frequency:     8.9104988051
  - # 12
    frequency:     8.9114659806

- q-position: [    0.2395833,    0.0312500,    0.0104167 ]
  weight: 48   
  band:
  - # 1
    frequency:     2.3251511332
  - # 2
    frequency:     2.3753981857
  - # 3
    frequency:     3.6993039329
  - # 4
    frequency:     5.8434153732
  - # 5
    frequency:     5.8580973749
  - # 6
    frequency:     6.2196482237
  - # 7
    frequency:     6.2354345295
  - # 8
    frequency:     6.7151774040
  - # 9
    frequency:     6.7479559739
  - # 10
    frequency:     8.6713139490
  - # 11
    frequency:     8.8529389892
  - # 12
    frequency:     8.8546059112

- q-position: [    0.2604167,    0.0312500,    0.0104167 ]
  weight: 48   
  band:
  - # 1
    frequency:     2.5199366321
  - # 2
    frequency:     2.5661736445
  - # 3
    frequency:     3.9851251105
  - # 4
    frequency:     5.7679908379
  - # 5
    frequency:     5.7827904469
  - # 6
    frequency:     6.2177251889
  - # 7
    frequency:     6.2327386935
  - # 8
    frequency:     6.7903852753
  - # 9
    frequency:     6.8220595716
  - # 10
    frequency:     8.5724937982
  - # 11
    frequency:     8.7909322756
  - # 12
    frequency:     8.7933614382

- q-position: [    0.2812500,    0.0312500,    0.0104167 ]
  weight: 48   
  band:
  - # 1
    frequency:     2.7113911653
  - # 2
    frequency:     2.7541118783
  - # 3
    frequency:     4.2659616199
  - # 4
    frequency:     5.6864630535
  - # 5
    frequency:     5.7014377452
  - # 6
    frequency:     6.2159229036
  - # 7
    frequency:     6.2300264930
  - # 8
    frequency:     6.8696507998
  - # 9
    frequency:     6.9001039497
  - # 10
    frequency:     8.4651144883
  - # 11
    frequency:     8.7246813143
  - # 12
    frequency:     8.7279346611

- q-position: [    0.3020833,    0.0312500,    0.0104167 ]
  weight: 48   
  band:
  - # 1
    frequency:     2.8993424118
  - # 2
    frequency:     2.9389544311
  - # 3
    frequency:     4.5413144017
  - # 4
    frequency:     5.5988816740
  - # 5
    frequency:     5.6140968062
  - # 6
    frequency:     6.2142600011
  - # 7
    frequency:     6.2273366094
  - # 8
    frequency:     6.9525375850
  - # 9
    frequency:     6.9816790650
  - # 10
    frequency:     8.3491279512
  - # 11
    frequency:     8.6544047595
  - # 12
    frequency:     8.6585435228

- q-position: [    0.3229167,    0.0312500,    0.0104167 ]
  weight: 48   
  band:
  - # 1
    frequency:     3.0836180580
  - # 2
    frequency:     3.1204614353
  - # 3
    frequency:     4.8107382286
  - # 4
    frequency:     5.5053023406
  - # 5
    frequency:     5.5208303768
  - # 6
    frequency:     6.2127580141
  - # 7
    frequency:     6.2247071125
  - # 8
    frequency:     7.0386034758
  - # 9
    frequency:     7.0663647163
  - # 10
    frequency:     8.2244928612
  - # 11
    frequency:     8.5803371181
  - # 12
    frequency:     8.5854216263

- q-position: [    0.3437500,    0.0312500,    0.0104167 ]
  weight: 48   
  band:
  - # 1
    frequency:     3.2640468890
  - # 2
    frequency:     3.2984084174
  - # 3
    frequency:     5.0738337373
  - # 4
    frequency:     5.4057870235
  - # 5
    frequency:     5.4217066021
  - # 6
    frequency:     6.2114396285
  - # 7
    frequency:     6.2221748157
  - # 8
    frequency:     7.1274036875
  - # 9
    frequency:     7.1537346945
  - # 10
    frequency:     8.0911764859
  - # 11
    frequency:     8.5027286273
  - # 12
    frequency:     8.5088180710

- q-position: [    0.3645833,    0.0312500,    0.0104167 ]
  weight: 48   
  band:
  - # 1
    frequency:     3.4404599561
  - # 2
    frequency:     3.4725842464
  - # 3
    frequency:     5.3004043099
  - # 4
    frequency:     5.3167992610
  - # 5
    frequency:     5.3302419496
  - # 6
    frequency:     6.2103273213
  - # 7
    frequency:     6.2197746664
  - # 8
    frequency:     7.2184934896
  - # 9
    frequency:     7.2433601520
  - # 10
    frequency:     7.9491565275
  - # 11
    frequency:     8.4218451983
  - # 12
    frequency:     8.4289973448

- q-position: [    0.3854167,    0.0312500,    0.0104167 ]
  weight: 48   
  band:
  - # 1
    frequency:     3.6126916366
  - # 2
    frequency:     3.6427897824
  - # 3
    frequency:     5.1892296296
  - # 4
    frequency:     5.2061880529
  - # 5
    frequency:     5.5796404060
  - # 6
    frequency:     6.2094422757
  - # 7
    frequency:     6.2175391752
  - # 8
    frequency:     7.3114303712
  - # 9
    frequency:     7.3348122231
  - # 10
    frequency:     7.7984229383
  - # 11
    frequency:     8.3379685219
  - # 12
    frequency:     8.3462393503

- q-position: [    0.4062500,    0.0312500,    0.0104167 ]
  weight: 48   
  band:
  - # 1
    frequency:     3.7805805345
  - # 2
    frequency:     3.8088369612
  - # 3
    frequency:     5.0723454164
  - # 4
    frequency:     5.0899589275
  - # 5
    frequency:     5.8217403477
  - # 6
    frequency:     6.2088035017
  - # 7
    frequency:     6.2154978949
  - # 8
    frequency:     7.4057754838
  - # 9
    frequency:     7.4276637184
  - # 10
    frequency:     7.6389796935
  - # 11
    frequency:     8.2513966058
  - # 12
    frequency:     8.2608397921

- q-position: [    0.4270833,    0.0312500,    0.0104167 ]
  weight: 48   
  band:
  - # 1
    frequency:     3.9439702165
  - # 2
    frequency:     3.9705481521
  - # 3
    frequency:     4.9498412087
  - # 4
    frequency:     4.9682044473
  - # 5
    frequency:     6.0562845719
  - # 6
    frequency:     6.2084271235
  - # 7
    frequency:     6.2136769552
  - # 8
    frequency:     7.4708465080
  - # 9
    frequency:     7.5010936520
  - # 10
    frequency:     7.5214890577
  - # 11
    frequency:     8.1624456480
  - # 12
    frequency:     8.1731116550

- q-position: [    0.4479167,    0.0312500,    0.0104167 ]
  weight: 48   
  band:
  - # 1
    frequency:     4.1027097999
  - # 2
    frequency:     4.1277556854
  - # 3
    frequency:     4.8218137003
  - # 4
    frequency:     4.8410241651
  - # 5
    frequency:     6.2083258044
  - # 6
    frequency:     6.2120986634
  - # 7
    frequency:     6.2830457123
  - # 8
    frequency:     7.2940604860
  - # 9
    frequency:     7.5969489676
  - # 10
    frequency:     7.6158585932
  - # 11
    frequency:     8.0714571528
  - # 12
    frequency:     8.0833907884

- q-position: [    0.4687500,    0.0312500,    0.0104167 ]
  weight: 48   
  band:
  - # 1
    frequency:     4.2566544135
  - # 2
    frequency:     4.2803014805
  - # 3
    frequency:     4.6883667479
  - # 4
    frequency:     4.7085250026
  - # 5
    frequency:     6.2085082969
  - # 6
    frequency:     6.2107811770
  - # 7
    frequency:     6.5018247753
  - # 8
    frequency:     7.1086776963
  - # 9
    frequency:     7.6928777676
  - # 10
    frequency:     7.7103015131
  - # 11
    frequency:     7.9788361423
  - # 12
    frequency:     7.9920638168

- q-position: [    0.4895833,    0.0312500,    0.0104167 ]
  weight: 48   
  band:
  - # 1
    frequency:     4.4056655519
  - # 2
    frequency:     4.4280367311
  - # 3
    frequency:     4.5496113433
  - # 4
    frequency:     4.5708216142
  - # 5
    frequency:     6.2089791051
  - # 6
    frequency:     6.2097382567
  - # 7
    frequency:     6.7124498152
  - # 8
    frequency:     6.9147746691
  - # 9
    frequency:     7.7880747868
  - # 10
    frequency:     7.8037337712
  - # 11
    frequency:     7.8856240551
  - # 12
    frequency:     7.8998826120

- q-position: [    0.0520833,    0.0520833,    0.0104167 ]
  weight: 24   
  band:
  - # 1
    frequency:     0.5352859869
  - # 2
    frequency:     0.7389282539
  - # 3
    frequency:     1.2821584942
  - # 4
    frequency:     6.2329899814
  - # 5
    frequency:     6.2405184581
  - # 6
    frequency:     6.2405184581
  - # 7
    frequency:     6.2719578643
  - # 8
    frequency:     6.2719578643
  - # 9
    frequency:     6.3382637238
  - # 10
    frequency:     9.1737746423
  - # 11
    frequency:     9.1737746423
  - # 12
    frequency:     9.1808474083

- q-position: [    0.0729167,    0.0520833,    0.0104167 ]
  weight: 48   
  band:
  - # 1
    frequency:     0.6719073684
  - # 2
    frequency:     0.8998382021
  - # 3
    frequency:     1.5391397615
  - # 4
    frequency:     6.2212113910
  - # 5
    frequency:     6.2215934166
  - # 6
    frequency:     6.2390509844
  - # 7
    frequency:     6.2528493115
  - # 8
    frequency:     6.2941285781
  - # 9
    frequency:     6.3698727591
  - # 10
    frequency:     9.1499684468
  - # 11
    frequency:     9.1576947061
  - # 12
    frequency:     9.1641933608

- q-position: [    0.0937500,    0.0520833,    0.0104167 ]
  weight: 48   
  band:
  - # 1
    frequency:     0.8513189409
  - # 2
    frequency:     1.0767500800
  - # 3
    frequency:     1.8094455533
  - # 4
    frequency:     6.1954804921
  - # 5
    frequency:     6.2119812894
  - # 6
    frequency:     6.2273942987
  - # 7
    frequency:     6.2372990713
  - # 8
    frequency:     6.3232683882
  - # 9
    frequency:     6.4062394760
  - # 10
    frequency:     9.1181847168
  - # 11
    frequency:     9.1363351622
  - # 12
    frequency:     9.1420685467

- q-position: [    0.1145833,    0.0520833,    0.0104167 ]
  weight: 48   
  band:
  - # 1
    frequency:     1.0490453615
  - # 2
    frequency:     1.2622568059
  - # 3
    frequency:     2.0876971259
  - # 4
    frequency:     6.1633364598
  - # 5
    frequency:     6.1956123294
  - # 6
    frequency:     6.2039083146
  - # 7
    frequency:     6.2352204647
  - # 8
    frequency:     6.3592390369
  - # 9
    frequency:     6.4474456297
  - # 10
    frequency:     9.0783886789
  - # 11
    frequency:     9.1097647429
  - # 12
    frequency:     9.1145419172

- q-position: [    0.1354167,    0.0520833,    0.0104167 ]
  weight: 48   
  band:
  - # 1
    frequency:     1.2539942598
  - # 2