 running on    4 nodes
 distr:  one band on    1 nodes,    4 groups
 vasp.4.6.28 25Jul05 complex 
 POSCAR found :  1 types and   32 ions

 ----------------------------------------------------------------------------- 
|                                                                             |
|  ADVICE TO THIS USER RUNNING 'VASP/VAMP'   (HEAR YOUR MASTER'S VOICE ...):  |
|                                                                             |
|      You have a (more or less) 'large supercell' and for larger cells       |
|      it might be more efficient to use real space projection operators      |
|      So try LREAL= Auto  in the INCAR   file.                               |
|      Mind: If you want to do an extremely accurate calculations keep the    |
|      reciprocal projection scheme          (i.e. LREAL=.FALSE.)             |
|                                                                             |
 ----------------------------------------------------------------------------- 

 LDA part: xc-table for Pade appr. of Perdew
 POSCAR, INCAR and KPOINTS ok, starting setup
 FFT: planning ...           1
 reading WAVECAR
 entering main loop
       N       E                     dE             d eps       ncg     rms          rms(c)
DAV:   1     0.144276025011E+03    0.14428E+03   -0.33788E+04 26656   0.112E+03
DAV:   2    -0.103953896244E+03   -0.24823E+03   -0.23208E+03 31352   0.151E+02
DAV:   3    -0.118183045248E+03   -0.14229E+02   -0.13499E+02 32828   0.292E+01
DAV:   4    -0.118473718753E+03   -0.29067E+00   -0.28772E+00 31312   0.428E+00
DAV:   5    -0.118477596756E+03   -0.38780E-02   -0.38723E-02 31484   0.550E-01    0.562E+00
DAV:   6    -0.118000811645E+03    0.47679E+00   -0.34038E-02 30732   0.606E-01    0.350E+00
DAV:   7    -0.117655620987E+03    0.34519E+00   -0.10643E-01 29172   0.990E-01    0.135E-01
DAV:   8    -0.117655843119E+03   -0.22213E-03   -0.10908E-03 32172   0.139E-01    0.537E-02
DAV:   9    -0.117655881860E+03   -0.38741E-04   -0.68083E-05 30800   0.231E-02    0.502E-03
DAV:  10    -0.117655885224E+03   -0.33634E-05   -0.48292E-06 31716   0.713E-03    0.208E-03
DAV:  11    -0.117655883909E+03    0.13147E-05   -0.30249E-07 31316   0.175E-03    0.857E-04
DAV:  12    -0.117655883314E+03    0.59509E-06   -0.19722E-08 20976   0.490E-04    0.151E-04
DAV:  13    -0.117655883178E+03    0.13543E-06   -0.29222E-09 17628   0.210E-04    0.326E-05
DAV:  14    -0.117655883165E+03    0.13831E-07   -0.50754E-10 17280   0.779E-05    0.102E-05
DAV:  15    -0.117655883165E+03   -0.54865E-09   -0.99693E-11 16956   0.392E-05
   1 F= -.11765588E+03 E0= -.11765559E+03  d E =-.593443E-03
