  32  32   0   0
  0.1455556E+02  0.7751628E-09  0.7751628E-09  0.7751628E-09  0.5000000E-15
  1.000000000000000E-004
  CAR 
 unknown system                          
     14.15304838     -3.45741931  301      9.38598592      1.00000000
     -3.457  0.0000E+00  0.0000E+00
     -3.399  0.0000E+00  0.0000E+00
     -3.340  0.0000E+00  0.0000E+00
     -3.281  0.0000E+00  0.0000E+00
     -3.223  0.0000E+00  0.0000E+00
     -3.164  0.0000E+00  0.0000E+00
     -3.105  0.0000E+00  0.0000E+00
     -3.047  0.0000E+00  0.0000E+00
     -2.988  0.0000E+00  0.0000E+00
     -2.929  0.0000E+00  0.0000E+00
     -2.870  0.0000E+00  0.0000E+00
     -2.812  0.0000E+00  0.0000E+00
     -2.753  0.0000E+00  0.0000E+00
     -2.694  0.1254E-08  0.7360E-10
     -2.636  0.1139E+00  0.6686E-02
     -2.577  0.6366E+00  0.4406E-01
     -2.518  0.1002E+01  0.1029E+00
     -2.459  0.1600E+01  0.1968E+00
     -2.401  0.1590E+01  0.2901E+00
     -2.342  0.1720E+01  0.3911E+00
     -2.283  0.2122E+01  0.5157E+00
     -2.225  0.1316E+01  0.5929E+00
     -2.166  0.2520E+01  0.7408E+00
     -2.107  0.2145E+01  0.8667E+00
     -2.049  0.2957E+01  0.1040E+01
     -1.990  0.2412E+01  0.1182E+01
     -1.931  0.3302E+01  0.1376E+01
     -1.872  0.2861E+01  0.1544E+01
     -1.814  0.1726E+01  0.1645E+01
     -1.755  0.3665E+01  0.1860E+01
     -1.696  0.3534E+01  0.2068E+01
     -1.638  0.2906E+01  0.2238E+01
     -1.579  0.3340E+01  0.2434E+01
     -1.520  0.3988E+01  0.2668E+01
     -1.462  0.3907E+01  0.2898E+01
     -1.403  0.2472E+01  0.3043E+01
     -1.344  0.4689E+01  0.3318E+01
     -1.285  0.2408E+01  0.3460E+01
     -1.227  0.4584E+01  0.3729E+01
     -1.168  0.3743E+01  0.3948E+01
     -1.109  0.6125E+01  0.4308E+01
     -1.051  0.3076E+01  0.4489E+01
     -0.992  0.2749E+01  0.4650E+01
     -0.933  0.6059E+01  0.5006E+01
     -0.875  0.3557E+01  0.5214E+01
     -0.816  0.4488E+01  0.5478E+01
     -0.757  0.4197E+01  0.5724E+01
     -0.698  0.4732E+01  0.6002E+01
     -0.640  0.5179E+01  0.6306E+01
     -0.581  0.4595E+01  0.6576E+01
     -0.522  0.5253E+01  0.6884E+01
     -0.464  0.4348E+01  0.7139E+01
     -0.405  0.5031E+01  0.7435E+01
     -0.346  0.4804E+01  0.7717E+01
     -0.288  0.5591E+01  0.8045E+01
     -0.229  0.3448E+01  0.8247E+01
     -0.170  0.6636E+01  0.8637E+01
     -0.111  0.6461E+01  0.9016E+01
     -0.053  0.5433E+01  0.9335E+01
      0.006  0.4376E+01  0.9592E+01
      0.065  0.4119E+01  0.9834E+01
      0.123  0.6480E+01  0.1021E+02
      0.182  0.4798E+01  0.1050E+02
      0.241  0.6984E+01  0.1091E+02
      0.299  0.6846E+01  0.1131E+02
      0.358  0.3445E+01  0.1151E+02
      0.417  0.7563E+01  0.1195E+02
      0.476  0.6145E+01  0.1231E+02
      0.534  0.5912E+01  0.1266E+02
      0.593  0.2835E+01  0.1283E+02
      0.652  0.8121E+01  0.1330E+02
      0.710  0.5450E+01  0.1362E+02
      0.769  0.6868E+01  0.1403E+02
      0.828  0.7933E+01  0.1449E+02
      0.886  0.6851E+01  0.1490E+02
      0.945  0.5606E+01  0.1522E+02
      1.004  0.4511E+01  0.1549E+02
      1.063  0.6047E+01  0.1584E+02
      1.121  0.6170E+01  0.1621E+02
      1.180  0.7542E+01  0.1665E+02
      1.239  0.7672E+01  0.1710E+02
      1.297  0.8066E+01  0.1757E+02
      1.356  0.6395E+01  0.1795E+02
      1.415  0.4730E+01  0.1823E+02
      1.474  0.8184E+01  0.1871E+02
      1.532  0.6383E+01  0.1908E+02
      1.591  0.7112E+01  0.1950E+02
      1.650  0.4819E+01  0.1978E+02
      1.708  0.8169E+01  0.2026E+02
      1.767  0.6952E+01  0.2067E+02
      1.826  0.8747E+01  0.2118E+02
      1.884  0.9642E+01  0.2175E+02
      1.943  0.5133E+01  0.2205E+02
      2.002  0.7440E+01  0.2249E+02
      2.061  0.7240E+01  0.2291E+02
      2.119  0.5801E+01  0.2325E+02
      2.178  0.5827E+01  0.2359E+02
      2.237  0.9093E+01  0.2413E+02
      2.295  0.8449E+01  0.2462E+02
      2.354  0.9838E+01  0.2520E+02
      2.413  0.6726E+01  0.2560E+02
      2.471  0.8512E+01  0.2610E+02
      2.530  0.7645E+01  0.2655E+02
      2.589  0.4875E+01  0.2683E+02
      2.648  0.9577E+01  0.2739E+02
      2.706  0.5587E+01  0.2772E+02
      2.765  0.8990E+01  0.2825E+02
      2.824  0.9185E+01  0.2879E+02
      2.882  0.9478E+01  0.2935E+02
      2.941  0.6401E+01  0.2972E+02
      3.000  0.7346E+01  0.3015E+02
      3.058  0.1308E+02  0.3092E+02
      3.117  0.6246E+01  0.3129E+02
      3.176  0.7853E+01  0.3175E+02
      3.235  0.7300E+01  0.3218E+02
      3.293  0.9773E+01  0.3275E+02
      3.352  0.5308E+01  0.3306E+02
      3.411  0.9531E+01  0.3362E+02
      3.469  0.7463E+01  0.3406E+02
      3.528  0.1196E+02  0.3476E+02
      3.587  0.1025E+02  0.3536E+02
      3.645  0.9755E+01  0.3594E+02
      3.704  0.7454E+01  0.3637E+02
      3.763  0.5964E+01  0.3672E+02
      3.822  0.1155E+02  0.3740E+02
      3.880  0.7159E+01  0.3782E+02
      3.939  0.8978E+01  0.3835E+02
      3.998  0.7368E+01  0.3878E+02
      4.056  0.1133E+02  0.3945E+02
      4.115  0.9065E+01  0.3998E+02
      4.174  0.1060E+02  0.4060E+02
      4.232  0.9944E+01  0.4118E+02
      4.291  0.9671E+01  0.4175E+02
      4.350  0.6755E+01  0.4215E+02
      4.409  0.1537E+02  0.4305E+02
      4.467  0.7848E+01  0.4351E+02
      4.526  0.7261E+01  0.4394E+02
      4.585  0.1123E+02  0.4460E+02
      4.643  0.8658E+01  0.4511E+02
      4.702  0.7336E+01  0.4554E+02
      4.761  0.8122E+01  0.4601E+02
      4.820  0.1195E+02  0.4671E+02
      4.878  0.8675E+01  0.4722E+02
      4.937  0.1118E+02  0.4788E+02
      4.996  0.7354E+01  0.4831E+02
      5.054  0.1141E+02  0.4898E+02
      5.113  0.9363E+01  0.4953E+02
      5.172  0.1010E+02  0.5012E+02
      5.230  0.7035E+01  0.5054E+02
      5.289  0.8685E+01  0.5105E+02
      5.348  0.1223E+02  0.5176E+02
      5.407  0.1001E+02  0.5235E+02
      5.465  0.1172E+02  0.5304E+02
      5.524  0.1049E+02  0.5366E+02
      5.583  0.1056E+02  0.5428E+02
      5.641  0.8234E+01  0.5476E+02
      5.700  0.1015E+02  0.5536E+02
      5.759  0.7641E+01  0.5580E+02
      5.817  0.1249E+02  0.5654E+02
      5.876  0.1017E+02  0.5713E+02
      5.935  0.1446E+02  0.5798E+02
      5.994  0.8382E+01  0.5847E+02
      6.052  0.1232E+02  0.5920E+02
      6.111  0.1163E+02  0.5988E+02
      6.170  0.8041E+01  0.6035E+02
      6.228  0.1215E+02  0.6107E+02
      6.287  0.1188E+02  0.6176E+02
      6.346  0.1118E+02  0.6242E+02
      6.404  0.1575E+02  0.6334E+02
      6.463  0.8557E+01  0.6385E+02
      6.522  0.9476E+01  0.6440E+02
      6.581  0.1098E+02  0.6505E+02
      6.639  0.1127E+02  0.6571E+02
      6.698  0.1216E+02  0.6642E+02
      6.757  0.1011E+02  0.6702E+02
      6.815  0.1232E+02  0.6774E+02
      6.874  0.9812E+01  0.6832E+02
      6.933  0.1409E+02  0.6914E+02
      6.991  0.8617E+01  0.6965E+02
      7.050  0.8171E+01  0.7013E+02
      7.109  0.9482E+01  0.7069E+02
      7.168  0.1546E+02  0.7159E+02
      7.226  0.9308E+01  0.7214E+02
      7.285  0.1001E+02  0.7273E+02
      7.344  0.9808E+01  0.7330E+02
      7.402  0.9172E+01  0.7384E+02
      7.461  0.1034E+02  0.7445E+02
      7.520  0.1082E+02  0.7508E+02
      7.578  0.1155E+02  0.7576E+02
      7.637  0.9007E+01  0.7629E+02
      7.696  0.1057E+02  0.7691E+02
      7.755  0.1438E+02  0.7776E+02
      7.813  0.7119E+01  0.7817E+02
      7.872  0.1051E+02  0.7879E+02
      7.931  0.1251E+02  0.7952E+02
      7.989  0.8633E+01  0.8003E+02
      8.048  0.1465E+02  0.8089E+02
      8.107  0.7355E+01  0.8132E+02
      8.165  0.1470E+02  0.8219E+02
      8.224  0.1448E+02  0.8304E+02
      8.283  0.1025E+02  0.8364E+02
      8.342  0.1324E+02  0.8442E+02
      8.400  0.1038E+02  0.8503E+02
      8.459  0.1030E+02  0.8563E+02
      8.518  0.1597E+02  0.8657E+02
      8.576  0.1139E+02  0.8724E+02
      8.635  0.1149E+02  0.8791E+02
      8.694  0.1199E+02  0.8861E+02
      8.753  0.7482E+01  0.8905E+02
      8.811  0.1525E+02  0.8995E+02
      8.870  0.1001E+02  0.9054E+02
      8.929  0.8352E+01  0.9103E+02
      8.987  0.1198E+02  0.9173E+02
      9.046  0.1108E+02  0.9238E+02
      9.105  0.1056E+02  0.9300E+02
      9.163  0.1090E+02  0.9364E+02
      9.222  0.9868E+01  0.9422E+02
      9.281  0.1188E+02  0.9492E+02
      9.340  0.9052E+01  0.9545E+02
      9.398  0.1133E+02  0.9611E+02
      9.457  0.9021E+01  0.9664E+02
      9.516  0.1210E+02  0.9735E+02
      9.574  0.1419E+02  0.9819E+02
      9.633  0.1671E+02  0.9917E+02
      9.692  0.1430E+02  0.1000E+03
      9.750  0.8604E+01  0.1005E+03
      9.809  0.1113E+02  0.1012E+03
      9.868  0.9487E+01  0.1017E+03
      9.927  0.1735E+02  0.1027E+03
      9.985  0.1396E+02  0.1036E+03
     10.044  0.1485E+02  0.1044E+03
     10.103  0.1094E+02  0.1051E+03
     10.161  0.1515E+02  0.1060E+03
     10.220  0.9469E+01  0.1065E+03
     10.279  0.8577E+01  0.1070E+03
     10.337  0.9965E+01  0.1076E+03
     10.396  0.1085E+02  0.1082E+03
     10.455  0.1155E+02  0.1089E+03
     10.514  0.1886E+02  0.1100E+03
     10.572  0.1524E+02  0.1109E+03
     10.631  0.1690E+02  0.1119E+03
     10.690  0.1314E+02  0.1127E+03
     10.748  0.1306E+02  0.1135E+03
     10.807  0.7794E+01  0.1139E+03
     10.866  0.1018E+02  0.1145E+03
     10.924  0.1199E+02  0.1152E+03
     10.983  0.8778E+01  0.1157E+03
     11.042  0.1242E+02  0.1165E+03
     11.101  0.1030E+02  0.1171E+03
     11.159  0.1586E+02  0.1180E+03
     11.218  0.1784E+02  0.1190E+03
     11.277  0.8818E+01  0.1196E+03
     11.335  0.1038E+02  0.1202E+03
     11.394  0.1451E+02  0.1210E+03
     11.453  0.1719E+02  0.1220E+03
     11.511  0.1120E+02  0.1227E+03
     11.570  0.1166E+02  0.1234E+03
     11.629  0.1084E+02  0.1240E+03
     11.688  0.1558E+02  0.1249E+03
     11.746  0.9827E+01  0.1255E+03
     11.805  0.1358E+02  0.1263E+03
     11.864  0.6300E+01  0.1267E+03
     11.922  0.1931E+02  0.1278E+03
     11.981  0.9128E+01  0.1283E+03
     12.040  0.1417E+02  0.1292E+03
     12.098  0.6547E+01  0.1296E+03
     12.157  0.1480E+02  0.1304E+03
     12.216  0.1500E+02  0.1313E+03
     12.275  0.1511E+02  0.1322E+03
     12.333  0.7220E+01  0.1326E+03
     12.392  0.9166E+01  0.1332E+03
     12.451  0.6968E+01  0.1336E+03
     12.509  0.9733E+01  0.1341E+03
     12.568  0.7335E+01  0.1346E+03
     12.627  0.6737E+01  0.1350E+03
     12.686  0.5178E+01  0.1353E+03
     12.744  0.3672E+01  0.1355E+03
     12.803  0.2924E+01  0.1356E+03
     12.862  0.8771E+00  0.1357E+03
     12.920  0.1924E+01  0.1358E+03
     12.979  0.4610E+00  0.1358E+03
     13.038  0.1348E+01  0.1359E+03
     13.096  0.7202E+00  0.1360E+03
     13.155  0.1631E-02  0.1360E+03
     13.214  0.4729E+00  0.1360E+03
     13.273  0.1182E+00  0.1360E+03
     13.331  0.1853E-03  0.1360E+03
     13.390  0.7868E-01  0.1360E+03
     13.449  0.0000E+00  0.1360E+03
     13.507  0.0000E+00  0.1360E+03
     13.566  0.0000E+00  0.1360E+03
     13.625  0.0000E+00  0.1360E+03
     13.683  0.0000E+00  0.1360E+03
     13.742  0.0000E+00  0.1360E+03
     13.801  0.0000E+00  0.1360E+03
     13.860  0.0000E+00  0.1360E+03
     13.918  0.0000E+00  0.1360E+03
     13.977  0.0000E+00  0.1360E+03
     14.036  0.0000E+00  0.1360E+03
     14.094  0.0000E+00  0.1360E+03
     14.153  0.0000E+00  0.1360E+03
