   32   32    1    1
  0.1455556E+02  0.7751628E-09  0.7751628E-09  0.7751628E-09  0.5000000E-15
  1.000000000000000E-004
  CAR 
 unknown system                          
   96  196   68
 
  0.0000000E+00  0.0000000E+00  0.0000000E+00  0.5787037E-03
   1       -2.6569
   2       -0.2232
   3       -0.2192
   4       -0.2192
   5       -0.2192
   6       -0.2192
   7       -0.2152
   8        2.1638
   9        2.1683
  10        2.1683
  11        2.1702
  12        2.1704
  13        2.1704
  14        2.1704
  15        2.1704
  16        2.1706
  17        2.1724
  18        2.1724
  19        2.1769
  20        4.2682
  21        4.2682
  22        4.2683
  23        4.2683
  24        4.8154
  25        4.8154
  26        4.8154
  27        4.8154
  28        6.1460
  29        6.1460
  30        6.1460
  31        7.7202
  32        7.7203
  33        7.7203
  34        8.3632
  35        8.3632
  36        8.3679
  37        8.3679
  38        8.3681
  39        8.3681
  40        8.3681
  41        8.3681
  42        8.3683
  43        8.3683
  44        8.3729
  45        8.3729
  46        9.3035
  47        9.3081
  48        9.3081
  49        9.3081
  50        9.3081
  51        9.3126
  52       10.5996
  53       10.5996
  54       10.6010
  55       10.6038
  56       10.6039
  57       10.6039
  58       10.6039
  59       10.6040
  60       10.6041
  61       10.6068
  62       10.6082
  63       10.6082
  64       11.2163
  65       11.2170
  66       11.2170
  67       11.2170
  68       11.2182
 
  0.8333333E-01  0.0000000E+00  0.0000000E+00  0.1157407E-02
   1       -2.6399
   2       -0.6053
   3       -0.2024
   4       -0.2024
   5       -0.2024
   6       -0.2024
   7        0.1990
   8        1.7920
   9        1.7921
  10        1.7921
  11        1.7921
  12        2.1868
  13        2.1868
  14        2.1868
  15        2.1868
  16        2.5801
  17        2.5801
  18        2.5801
  19        2.5801
  20        4.0811
  21        4.0811
  22        4.0811
  23        4.0811
  24        5.0337
  25        5.0337
  26        5.0337
  27        5.0338
  28        5.8438
  29        6.1614
  30        6.1614
  31        7.7360
  32        7.7360
  33        8.0124
  34        8.0124
  35        8.0507
  36        8.0578
  37        8.0578
  38        8.0578
  39        8.0583
  40        8.3836
  41        8.3836
  42        8.3836
  43        8.3836
  44        8.7549
  45        8.7549
  46        9.2453
  47        9.2453
  48        9.5408
  49        9.5408
  50        9.5408
  51        9.5408
  52       10.2462
  53       10.2462
  54       10.2463
  55       10.2463
  56       10.3543
  57       10.3543
  58       10.3543
  59       10.3543
  60       10.9928
  61       10.9928
  62       10.9928
  63       10.9928
  64       11.3083
  65       11.3102
  66       11.3394
  67       11.3394
  68       11.3394
 
  0.1666667E+00  0.0000000E+00  0.0000000E+00  0.1157407E-02
   1       -2.5886
   2       -0.9589
   3       -0.1522
   4       -0.1522
   5       -0.1522
   6       -0.1522
   7        0.6489
   8        1.4455
   9        1.4455
  10        1.4455
  11        1.4455
  12        2.2360
  13        2.2360
  14        2.2360
  15        2.2360
  16        3.0206
  17        3.0206
  18        3.0206
  19        3.0206
  20        3.7782
  21        3.7782
  22        3.7782
  23        3.7782
  24        5.2548
  25        5.4303
  26        5.4303
  27        5.4303
  28        5.4304
  29        6.2076
  30        6.2076
  31        7.4887
  32        7.4887
  33        7.4887
  34        7.4887
  35        7.6879
  36        7.6879
  37        7.7832
  38        7.7832
  39        8.4301
  40        8.4301
  41        8.4301
  42        8.4301
  43        8.7264
  44        9.0863
  45        9.0863
  46        9.1730
  47        9.1730
  48        9.8252
  49        9.8253
  50        9.8253
  51        9.8253
  52        9.8749
  53        9.8749
  54        9.8749
  55        9.8751
  56        9.9199
  57        9.9199
  58        9.9200
  59        9.9200
  60       11.4129
  61       11.4129
  62       11.4130
  63       11.4130
  64       11.5529
  65       11.5529
  66       11.7090
  67       11.7091
  68       11.7097
 
  0.2500000E+00  0.0000000E+00  0.0000000E+00  0.1157407E-02
   1       -2.5032
   2       -1.2797
   3       -0.0685
   4       -0.0684
   5       -0.0684
   6       -0.0684
   7        1.1278
   8        1.1310
   9        1.1310
  10        1.1310
  11        1.1332
  12        2.3179
  13        2.3179
  14        2.3179
  15        2.3179
  16        3.4813
  17        3.4821
  18        3.4821
  19        3.4823
  20        3.4913
  21        3.4916
  22        3.4916
  23        3.4923
  24        4.6128
  25        5.8821
  26        5.8821
  27        5.8821
  28        5.8821
  29        6.2845
  30        6.2845
  31        6.8736
  32        6.8736
  33        6.8736
  34        6.8736
  35        7.3945
  36        7.3945
  37        7.8613
  38        7.8613
  39        8.5075
  40        8.5075
  41        8.5076
  42        8.5076
  43        8.8817
  44        8.8817
  45        9.2233
  46        9.2233
  47        9.2233
  48        9.2234
  49        9.5120
  50        9.6207
  51        9.6207
  52        9.6247
  53        9.6247
  54        9.6263
  55        9.6263
  56       10.1327
  57       10.1327
  58       10.1327
  59       10.1327
  60       11.5099
  61       11.5099
  62       11.5099
  63       11.5099
  64       11.8644
  65       11.8644
  66       11.8644
  67       11.8874
  68       11.8991
 
  0.3333333E+00  0.0000000E+00  0.0000000E+00  0.1157407E-02
   1       -2.3837
   2       -1.5675
   3        0.0487
   4        0.0487
   5        0.0487
   6        0.0487
   7        0.8489
   8        0.8489
   9        0.8489
  10        0.8489
  11        1.6417
  12        2.4325
  13        2.4325
  14        2.4325
  15        2.4325
  16        3.2113
  17        3.2113
  18        3.2113
  19        3.2113
  20        3.9730
  21        3.9916
  22        3.9916
  23        3.9916
  24        3.9916
  25        6.2578
  26        6.2578
  27        6.2578
  28        6.2579
  29        6.3706
  30        6.3706
  31        6.3708
  32        6.3708
  33        6.3924
  34        6.3924
  35        7.1321
  36        7.1321
  37        7.9697
  38        7.9697
  39        8.6118
  40        8.6118
  41        8.6127
  42        8.6132
  43        8.6161
  44        8.6166
  45        8.6175
  46        8.6175
  47        8.6666
  48        8.6667
  49        9.3608
  50        9.3608
  51        9.3608
  52        9.3608
  53       10.1027
  54       10.1027
  55       10.3413
  56       10.3413
  57       10.3413
  58       10.3413
  59       10.3527
  60       11.2299
  61       11.2299
  62       11.2299
  63       11.2299
  64       12.3113
  65       12.3158
  66       12.3383
  67       12.3418
  68       12.3472
 
  0.4166667E+00  0.0000000E+00  0.0000000E+00  0.1157407E-02
   1       -2.2302
   2       -1.8220
   3        0.1991
   4        0.1991
   5        0.1991
   6        0.1991
   7        0.5994
   8        0.5994
   9        0.5994
  10        0.5994
  11        2.1833
  12        2.5795
  13        2.5795
  14        2.5795
  15        2.5795
  16        2.9695
  17        2.9695
  18        2.9695
  19        2.9695
  20        3.3513
  21        4.5203
  22        4.5203
  23        4.5203
  24        4.5203
  25        5.6563
  26        5.6563
  27        5.6563
  28        5.6563
  29        6.5309
  30        6.5309
  31        6.8909
  32        6.8909
  33        6.8912
  34        6.8912
  35        6.9012
  36        6.9012
  37        8.0161
  38        8.0161
  39        8.0161
  40        8.0161
  41        8.1071
  42        8.1071
  43        8.4599
  44        8.4599
  45        8.7556
  46        8.7556
  47        8.7556
  48        8.7556
  49        9.1279
  50        9.1280
  51        9.1280
  52        9.1280
  53       10.5394
  54       10.5394
  55       10.5394
  56       10.5394
  57       10.6142
  58       10.6142
  59       10.9766
  60       10.9766
  61       10.9766
  62       10.9766
  63       11.2326
  64       11.7292
  65       11.7292
  66       12.7652
  67       12.7862
  68       12.8611
 
  0.5000000E+00  0.0000000E+00  0.0000000E+00  0.5787037E-03
   1       -2.0444
   2       -2.0414
   3        0.3785
   4        0.3818
   5        0.3818
   6        0.3827
   7        0.3828
   8        0.3836
   9        0.3836
  10        0.3869
  11        2.7510
  12        2.7538
  13        2.7572
  14        2.7573
  15        2.7573
  16        2.7582
  17        2.7592
  18        2.7600
  19        2.7600
  20        2.7628
  21        5.0750
  22        5.0750
  23        5.0757
  24        5.0757
  25        5.0761
  26        5.0761
  27        5.0768
  28        5.0768
  29        6.6987
  30        6.6987
  31        6.7020
  32        6.7020
  33        7.4397
  34        7.4397
  35        7.4400
  36        7.4406
  37        7.4407
  38        7.4413
  39        7.4416
  40        7.4416
  41        8.2694
  42        8.2707
  43        8.2725
  44        8.2738
  45        8.9237
  46        8.9237
  47        8.9246
  48        8.9262
  49        8.9263
  50        8.9279
  51        8.9288
  52        8.9288
  53       10.7456
  54       10.7465
  55       10.7465
  56       10.7467
  57       10.7492
  58       10.7494
  59       10.7494
  60       10.7503
  61       11.1553
  62       11.1553
  63       11.1576
  64       11.1576
  65       12.1450
  66       12.1459
  67       13.2482
  68       13.2491
 
  0.0000000E+00  0.8333333E-01  0.0000000E+00  0.2314815E-02
   1       -2.6399
   2       -0.6053
   3       -0.2055
   4       -0.2024
   5       -0.2024
   6       -0.1993
   7        0.1990
   8        1.7889
   9        1.7921
  10        1.7921
  11        1.7951
  12        2.1846
  13        2.1855
  14        2.1881
  15        2.1890
  16        2.5769
  17        2.5801
  18        2.5801
  19        2.5832
  20        4.0793
  21        4.0801
  22        4.0822
  23        4.0829
  24        5.0319
  25        5.0327
  26        5.0348
  27        5.0355
  28        5.8438
  29        6.1614
  30        6.1614
  31        7.7360
  32        7.7360
  33        8.0123
  34        8.0124
  35        8.0512
  36        8.0544
  37        8.0578
  38        8.0578
  39        8.0614
  40        8.3806
  41        8.3836
  42        8.3836
  43        8.3865
  44        8.7549
  45        8.7549
  46        9.2453
  47        9.2453
  48        9.5377
  49        9.5408
  50        9.5408
  51        9.5440
  52       10.2433
  53       10.2463
  54       10.2463
  55       10.2493
  56       10.3514
  57       10.3530
  58       10.3556
  59       10.3572
  60       10.9897
  61       10.9928
  62       10.9928
  63       10.9958
  64       11.3083
  65       11.3084
  66       11.3388
  67       11.3394
  68       11.3397
 
  0.8333333E-01  0.8333333E-01  0.0000000E+00  0.4629630E-02
   1       -2.6228
   2       -0.5897
   3       -0.5872
   4       -0.1857
   5       -0.1857
   6        0.2144
   7        0.2170
   8        1.4125
   9        1.8067
  10        1.8077
  11        1.8093
  12        1.8103
  13        2.2027
  14        2.2036
  15        2.5946
  16        2.5956
  17        2.5972
  18        2.5982
  19        2.9881
  20        3.7461
  21        3.7461
  22        4.2996
  23        4.2996
  24        4.8483
  25        4.8484
  26        5.3982
  27        5.3982
  28        5.8590
  29        5.8597
  30        6.1768
  31        7.7111
  32        7.7136
  33        7.7517
  34        7.9753
  35        7.9753
  36        8.0264
  37        8.0294
  38        8.0664
  39        8.0671
  40        8.1968
  41        8.1968
  42        8.4164
  43        8.4186
  44        8.7689
  45        8.7719
  46        9.4547
  47        9.4572
  48        9.5138
  49        9.5168
  50        9.7647
  51        9.7647
  52        9.8889
  53        9.9937
  54        9.9946
  55        9.9962
  56        9.9972
  57       10.6340
  58       10.6358
  59       10.7429
  60       10.7438
  61       10.7446
  62       10.7455
  63       11.3819
  64       11.3830
  65       11.3838
  66       11.4451
  67       11.4484
  68       11.4806
 
  0.1666667E+00  0.8333333E-01  0.0000000E+00  0.4629630E-02
   1       -2.5715
   2       -0.9420
   3       -0.5380
   4       -0.1354
   5       -0.1354
   6        0.2658
   7        0.6655
   8        1.0648
   9        1.4620
  10        1.4620
  11        1.8572
  12        1.8579
  13        1.8586
  14        2.6446
  15        2.6453
  16        2.6460
  17        3.0368
  18        3.0368
  19        3.4177
  20        3.4177
  21        3.4269
  22        4.1447
  23        4.1447
  24        5.0987
  25        5.0987
  26        5.2706
  27        5.8185
  28        5.8185
  29        5.9060
  30        6.2230
  31        7.1413
  32        7.3919
  33        7.4851
  34        7.4851
  35        7.7034
  36        7.7986
  37        7.8547
  38        8.0744
  39        8.1132
  40        8.1798
  41        8.1798
  42        8.7371
  43        8.7417
  44        8.8170
  45        9.1885
  46        9.3608
  47        9.3814
  48        9.4647
  49        9.4647
  50        9.5628
  51        9.6675
  52        9.6676
  53        9.6903
  54        9.9722
  55       10.1192
  56       10.1193
  57       10.2169
  58       10.2170
  59       10.3083
  60       11.0548
  61       11.1650
  62       11.1651
  63       11.4563
  64       11.5986
  65       11.6322
  66       11.7594
  67       11.7788
  68       11.7940
 
  0.2500000E+00  0.8333333E-01  0.0000000E+00  0.4629630E-02
   1       -2.4861
   2       -1.2628
   3       -0.4540
   4       -0.0517
   5       -0.0517
   6        0.3492
   7        0.7492
   8        1.1451
   9        1.1476
  10        1.1490
  11        1.5444
  12        1.9402
  13        1.9402
  14        2.7269
  15        2.7269
  16        3.1131
  17        3.1139
  18        3.1185
  19        3.5074
  20        3.5074
  21        3.8743
  22        3.8745
  23        3.8958
  24        4.6287
  25        5.5265
  26        5.5265
  27        5.9839
  28        6.2763
  29        6.2763
  30        6.3000
  31        6.5202
  32        6.8823
  33        6.8823
  34        7.0999
  35        7.2506
  36        7.4099
  37        7.8764
  38        8.1518
  39        8.1903
  40        8.2504
  41        8.2504
  42        8.8065
  43        8.8612
  44        8.8613
  45        8.8946
  46        9.1899
  47        9.2679
  48        9.3709
  49        9.3710
  50        9.5162
  51        9.5267
  52        9.6163
  53        9.6164
  54        9.6378
  55        9.8694
  56       10.0129
  57       10.3575
  58       10.3996
  59       10.3996
  60       11.1504
  61       11.5060
  62       11.6167
  63       11.6167
  64       11.7918
  65       11.7918
  66       11.8959
  67       11.9304
  68       12.0986
 
  0.3333333E+00  0.8333333E-01  0.0000000E+00  0.4629630E-02
   1       -2.3666
   2       -1.5505
   3       -0.3365
   4        0.0654
   5        0.0654
   6        0.4654
   7        0.4667
   8        0.8655
   9        0.8655
  10        1.2633
  11        1.6582
  12        2.0553
  13        2.0553
  14        2.8388
  15        2.8391
  16        2.8409
  17        2.8412
  18        3.6115
  19        3.6115
  20        3.6200
  21        3.9891
  22        4.0075
  23        4.0075
  24        4.3935
  25        5.8991
  26        6.0089
  27        6.0089
  28        6.0928
  29        6.2705
  30        6.2705
  31        6.4077
  32        6.6430
  33        6.7669
  34        6.7669
  35        6.8374
  36        7.1476
  37        7.9840
  38        8.2498
  39        8.2500
  40        8.2604
  41        8.2971
  42        8.3575
  43        8.3575
  44        8.6539
  45        8.9818
  46        9.0022
  47        9.0044
  48        9.0075
  49        9.0082
  50        9.1056
  51        9.1056
  52        9.7486
  53        9.9223
  54       10.0341
  55       10.1182
  56       10.3669
  57       10.6195
  58       10.6195
  59       10.6447
  60       10.8733
  61       11.5130
  62       11.5130
  63       11.6123
  64       11.9885
  65       12.0961
  66       12.0989
  67       12.0993
  68       12.3359
 
  0.4166667E+00  0.8333333E-01  0.0000000E+00  0.4629630E-02
   1       -2.2132
   2       -1.8050
   3       -0.1856
   4        0.2144
   5        0.2158
   6        0.2173
   7        0.6145
   8        0.6160
   9        0.6174
  10        1.0147
  11        2.1992
  12        2.2030
  13        2.2035
  14        2.5953
  15        2.5954
  16        2.9868
  17        2.9868
  18        3.3671
  19        3.3734
  20        3.3738
  21        4.1511
  22        4.5359
  23        4.5359
  24        4.9193
  25        5.2933
  26        5.6706
  27        5.6707
  28        6.0475
  29        6.2327
  30        6.5274
  31        6.5274
  32        6.5464
  33        6.6052
  34        6.9162
  35        7.2877
  36        7.2877
  37        7.6522
  38        7.6522
  39        8.1200
  40        8.3995
  41        8.4113
  42        8.4114
  43        8.4326
  44        8.4638
  45        8.4972
  46        8.4972
  47        8.7715
  48        8.7796
  49        8.8714
  50        8.8714
  51        9.1429
  52        9.5156
  53       10.2086
  54       10.4096
  55       10.6247
  56       10.6297
  57       10.8221
  58       10.8221
  59       10.8831
  60       11.2460
  61       11.2605
  62       11.2605
  63       11.3525
  64       11.5037
  65       11.7448
  66       12.5022
  67       12.6113
  68       12.6115
 
  0.5000000E+00  0.8333333E-01  0.0000000E+00  0.2314815E-02
   1       -2.0274
   2       -2.0244
   3       -0.0030
   4        0.0001
   5        0.3973
   6        0.3985
   7        0.4003
   8        0.4016
   9        0.7973
  10        0.8004
  11        2.3809
  12        2.3822
  13        2.3840
  14        2.3853
  15        2.7695
  16        2.7706
  17        3.1624
  18        3.1638
  19        3.1655
  20        3.1669
  21        4.7089
  22        4.7101
  23        5.0901
  24        5.0909
  25        5.0913
  26        5.0920
  27        5.4710
  28        5.4721
  29        6.4019
  30        6.4051
  31        6.7141
  32        6.7175
  33        7.0756
  34        7.0760
  35        7.0769
  36        7.0772
  37        7.8359
  38        7.8362
  39        7.8372
  40        7.8375
  41        8.2801
  42        8.2831
  43        8.5683
  44        8.5717
  45        8.5930
  46        8.5960
  47        8.6661
  48        8.6676
  49        8.6695
  50        8.6710
  51        9.3120
  52        9.3154
  53       10.4023
  54       10.4054
  55       10.9388
  56       10.9408
  57       11.0300
  58       11.0306
  59       11.0333
  60       11.0339
  61       11.1109
  62       11.1142
  63       11.1710
  64       11.1733
  65       12.1574
  66       12.1583
  67       13.0465
  68       13.0814
 
  0.0000000E+00  0.1666667E+00  0.0000000E+00  0.2314815E-02
   1       -2.5886
   2       -0.9589
   3       -0.1552
   4       -0.1522
   5       -0.1522
   6       -0.1491
   7        0.6489
   8        1.4424
   9        1.4455
  10        1.4455
  11        1.4486
  12        2.2339
  13        2.2347
  14        2.2373
  15        2.2382
  16        3.0174
  17        3.0206
  18        3.0206
  19        3.0237
  20        3.7761
  21        3.7770
  22        3.7794
  23        3.7802
  24        5.2548
  25        5.4282
  26        5.4291
  27        5.4316
  28        5.4324
  29        6.2076
  30        6.2076
  31        7.4852
  32        7.4887
  33        7.4887
  34        7.4921
  35        7.6879
  36        7.6879
  37        7.7832
  38        7.7832
  39        8.4271
  40        8.4301
  41        8.4301
  42        8.4330
  43        8.7264
  44        9.0863
  45        9.0863
  46        9.1730
  47        9.1730
  48        9.8227
  49        9.8240
  50        9.8266
  51        9.8280
  52        9.8719
  53        9.8749
  54        9.8749
  55        9.8779
  56        9.9169
  57        9.9199
  58        9.9200
  59        9.9229
  60       11.4099
  61       11.4130
  62       11.4130
  63       11.4160
  64       11.5529
  65       11.5529
  66       11.7080
  67       11.7092
  68       11.7112
 
  0.8333333E-01  0.1666667E+00  0.0000000E+00  0.4629630E-02
   1       -2.5715
   2       -0.9420
   3       -0.5380
   4       -0.1354
   5       -0.1354
   6        0.2658
   7        0.6655
   8        1.0647
   9        1.4620
  10        1.4620
  11        1.8565
  12        1.8579
  13        1.8593
  14        2.6439
  15        2.6453
  16        2.6467
  17        3.0368
  18        3.0368
  19        3.4177
  20        3.4177
  21        3.4269
  22        4.1447
  23        4.1447
  24        5.0987
  25        5.0987
  26        5.2706
  27        5.8185
  28        5.8185
  29        5.9061
  30        6.2230
  31        7.1412
  32        7.3919
  33        7.4851
  34        7.4851
  35        7.7034
  36        7.7986
  37        7.8548
  38        8.0743
  39        8.1132
  40        8.1798
  41        8.1798
  42        8.7369
  43        8.7419
  44        8.8170
  45        9.1885
  46        9.3608
  47        9.3814
  48        9.4647
  49        9.4647
  50        9.5628
  51        9.6676
  52        9.6676
  53        9.6903
  54        9.9722
  55       10.1193
  56       10.1193
  57       10.2169
  58       10.2169
  59       10.3083
  60       11.0548
  61       11.1651
  62       11.1651
  63       11.4563
  64       11.5986
  65       11.6322
  66       11.7612
  67       11.7788
  68       11.7814
 
  0.1666667E+00  0.1666667E+00  0.0000000E+00  0.4629630E-02
   1       -2.5202
   2       -0.8927
   3       -0.8902
   4       -0.0852
   5       -0.0852
   6        0.7136
   7        0.7157
   8        0.7175
   9        1.5098
  10        1.5108
  11        1.5124
  12        1.5134
  13        2.3009
  14        2.3018
  15        3.0806
  16        3.0811
  17        3.0842
  18        3.0848
  19        3.0864
  20        3.0875
  21        3.8635
  22        4.3935
  23        4.3935
  24        4.9471
  25        4.9471
  26        5.3175
  27        5.3183
  28        6.2447
  29        6.2448
  30        6.2692
  31        6.8178
  32        6.8204
  33        7.3724
  34        7.3724
  35        7.7483
  36        7.7512
  37        7.7947
  38        7.7948
  39        7.8449
  40        8.2187
  41        8.2211
  42        8.7864
  43        8.7874
  44        9.1332
  45        9.1342
  46        9.1359
  47        9.1369
  48        9.2330
  49        9.2357
  50        9.2384
  51        9.4952
  52        9.4970
  53        9.9347
  54        9.9376
  55       10.5591
  56       10.5592
  57       10.6379
  58       10.6388
  59       10.6394
  60       10.6404
  61       10.7270
  62       10.7289
  63       11.1232
  64       11.7510
  65       11.7517
  66       12.0176
  67       12.0176
  68       12.2317
 
  0.2500000E+00  0.1666667E+00  0.0000000E+00  0.4629630E-02
   1       -2.4349
   2       -1.2121
   3       -0.8072
   4       -0.0015
   5       -0.0015
   6        0.3995
   7        0.7985
   8        1.1948
   9        1.1973
  10        1.1987
  11        1.5941
  12        1.5941
  13        1.9892
  14        2.7727
  15        2.7740
  16        2.7767
  17        3.1664
  18        3.1664
  19        3.5557
  20        3.5557
  21        4.2716
  22        4.2717
  23        4.3300
  24        4.6766
  25        5.2283
  26        5.2283
  27        5.3968
  28        6.1939
  29        6.3461
  30        6.5250
  31        6.7044
  32        6.7044
  33        6.8950
  34        6.8950
  35        7.4563
  36        7.6429
  37        7.7427
  38        7.7427
  39        7.8271
  40        7.9211
  41        8.5126
  42        8.5304
  43        8.5304
  44        8.8367
  45        8.8367
  46        8.8620
  47        8.9422
  48        9.3128
  49        9.3990
  50        9.5708
  51        9.6140
  52        9.6844
  53        9.7985
  54       10.0399
  55       10.0399
  56       10.4323
  57       10.4772
  58       10.8191
  59       10.9319
  60       10.9319
  61       11.0916
  62       11.0916
  63       11.1789
  64       12.0310
  65       12.0595
  66       12.1935
  67       12.3069
  68       12.4109
 
  0.3333333E+00  0.1666667E+00  0.0000000E+00  0.4629630E-02
   1       -2.3155
   2       -1.4997
   3       -0.6894
   4        0.1142
   5        0.1156
   6        0.1171
   7        0.9136
   8        0.9153
   9        0.9166
  10        1.7063
  11        1.7092
  12        1.7096
  13        1.7109
  14        2.4972
  15        2.4972
  16        3.2788
  17        3.2795
  18        3.2801
  19        4.0341
  20        4.0348
  21        4.0380
  22        4.0552
  23        4.0553
  24        4.8249
  25        5.5072
  26        5.5689
  27        5.6863
  28        5.6863
  29        6.2603
  30        6.3054
  31        6.3054
  32        6.4539
  33        7.0507
  34        7.1931
  35        7.1953
  36        7.1961
  37        7.8287
  38        7.8288
  39        7.9183
  40        7.9185
  41        7.9356
  42        8.0261
  43        8.5698
  44        8.5699
  45        8.5799
  46        8.6787
  47        8.9660
  48        9.4213
  49        9.4324
  50        9.4326
  51        9.5693
  52        9.6175
  53        9.7455
  54       10.1641
  55       10.1687
  56       10.4092
  57       10.5446
  58       10.9027
  59       11.2030
  60       11.2030
  61       11.5738
  62       11.5739
  63       11.5935
  64       11.6611
  65       12.0172
  66       12.1319
  67       12.1319
  68       12.3954
 
  0.4166667E+00  0.1666667E+00  0.0000000E+00  0.4629630E-02
   1       -2.1621
   2       -1.7541
   3       -0.5380
   4       -0.1353
   5        0.2659
   6        0.2659
   7        0.6660
   8        0.6660
   9        1.0642
  10        1.4615
  11        1.8578
  12        1.8579
  13        2.2484
  14        2.2520
  15        2.2525
  16        3.4159
  17        3.4242
  18        3.4245
  19        3.8049
  20        3.8049
  21        3.8125
  22        4.5826
  23        4.5826
  24        4.9598
  25        5.3473
  26        5.6489
  27        5.7127
  28        5.7127
  29        6.0257
  30        6.1982
  31        6.1983
  32        6.4646
  33        6.5925
  34        6.9625
  35        7.3203
  36        7.3203
  37        7.7156
  38        7.7156
  39        7.9624
  40        7.9624
  41        8.0747
  42        8.1571
  43        8.3348
  44        8.3348
  45        8.4463
  46        8.4653
  47        8.8375
  48        8.8375
  49        9.0974
  50        9.4299
  51        9.5614
  52        9.9015
  53        9.9345
  54        9.9708
  55       10.3002
  56       10.6766
  57       11.0146
  58       11.2201
  59       11.2860
  60       11.4276
  61       11.4277
  62       11.7474
  63       11.7918
  64       11.8786
  65       11.8786
  66       12.0855
  67       12.0855
  68       12.1745
 
  0.5000000E+00  0.1666667E+00  0.0000000E+00  0.2314815E-02
   1       -1.9764
   2       -1.9734
   3       -0.3548
   4       -0.3517
   5        0.4473
   6        0.4485
   7        0.4504
   8        0.4516
   9        1.2449
  10        1.2480
  11        2.0365
  12        2.0378
  13        2.0396
  14        2.0409
  15        2.8184
  16        2.8196
  17        3.5977
  18        3.5990
  19        3.6008
  20        3.6022
  21        4.3727
  22        4.3738
  23        5.1352
  24        5.1360
  25        5.1364
  26        5.1371
  27        5.8202
  28        5.8234
  29        5.8944
  30        5.8955
  31        6.7441
  32        6.7446
  33        6.7456
  34        6.7457
  35        6.7606
  36        6.7639
  37        8.1297
  38        8.1310
  39        8.1330
  40        8.1342
  41        8.2433
  42        8.2466
  43        8.2631
  44        8.2634
  45        8.2643
  46        8.2648
  47        8.3069
  48        8.3099
  49        9.2520
  50        9.2551
  51        9.7307
  52        9.7341
  53       10.0844
  54       10.0875
  55       10.4675
  56       10.4692
  57       11.2178
  58       11.2201
  59       11.4864
  60       11.4898
  61       11.6445
  62       11.6453
  63       11.6479
  64       11.6487
  65       12.1937
  66       12.1945
  67       12.6252
  68       12.6301
 
  0.0000000E+00  0.2500000E+00  0.0000000E+00  0.2314815E-02
   1       -2.5032
   2       -1.2797
   3       -0.0715
   4       -0.0684
   5       -0.0684
   6       -0.0654
   7        1.1277
   8        1.1301
   9        1.1310
  10        1.1310
  11        1.1342
  12        2.3158
  13        2.3167
  14        2.3192
  15        2.3201
  16        3.4801
  17        3.4811
  18        3.4836
  19        3.4843
  20        3.4883
  21        3.4913
  22        3.4914
  23        3.4946
  24        4.6128
  25        5.8799
  26        5.8808
  27        5.8833
  28        5.8842
  29        6.2845
  30        6.2845
  31        6.8703
  32        6.8736
  33        6.8736
  34        6.8770
  35        7.3945
  36        7.3945
  37        7.8613
  38        7.8613
  39        8.5046
  40        8.5076
  41        8.5076
  42        8.5105
  43        8.8817
  44        8.8817
  45        9.2208
  46        9.2220
  47        9.2247
  48        9.2259
  49        9.5119
  50        9.6208
  51        9.6223
  52        9.6230
  53        9.6248
  54        9.6248
  55        9.6280
  56       10.1298
  57       10.1327
  58       10.1327
  59       10.1355
  60       11.5073
  61       11.5099
  62       11.5099
  63       11.5125
  64       11.8622
  65       11.8644
  66       11.8658
  67       11.8701
  68       11.8992
 