 vasp.4.6.28 25Jul05 complex 
 executed on             LinuxIFC date 2016.10.21  16:37:45
 running on    4 nodes
 distr:  one band on    1 nodes,    4 groups


--------------------------------------------------------------------------------------------------------


 INCAR:
 POTCAR:   PAW_PBE Al 04Jan2001                   
 POTCAR:   PAW_PBE Al 04Jan2001                   
   VRHFIN =Al: s2p1                                                             
   LEXCH  = PE                                                                  
   EATOM  =    53.5387 eV,    3.9350 Ry                                         
                                                                                
   TITEL  = PAW_PBE Al 04Jan2001                                                
   LULTRA =        F    use ultrasoft PP ?                                      
   IUNSCR =        1    unscreen: 0-lin 1-nonlin 2-no                           
   RPACOR =    1.500    partial core radius                                     
   POMASS =   26.982; ZVAL   =    3.000    mass and valenz                      
   RCORE  =    1.900    outmost cutoff radius                                   
   RWIGS  =    2.650; RWIGS  =    1.402    wigner-seitz radius (au A)           
   ENMAX  =  240.300; ENMIN  =  180.225 eV                                      
   ICORE  =        2    local potential                                         
   LCOR   =        T    correct aug charges                                     
   LPAW   =        T    paw PP                                                  
   EAUG   =  291.052                                                            
   DEXC   =    -.041                                                            
   RMAX   =    2.974    core radius for proj-oper                               
   RAUG   =    1.300    factor for augmentation sphere                          
   RDEP   =    1.966    radius for radial grids                                 
   QCUT   =   -4.203; QGAM   =    8.405    optimization parameters              
                                                                                
   Description                                                                  
     l     E      TYP  RCUT    TYP  RCUT                                        
     0   .000     23  1.900                                                     
     0   .000     23  1.900                                                     
     1   .000     23  1.900                                                     
     1  1.000     23  1.900                                                     
     2   .000      7  1.900                                                     
  local pseudopotential read in
  partial core-charges read in
  atomic valenz-charges read in
  non local Contribution for L=           0  read in
    real space projection operators read in
  non local Contribution for L=           0  read in
    real space projection operators read in
  non local Contribution for L=           1  read in
    real space projection operators read in
  non local Contribution for L=           1  read in
    real space projection operators read in
    PAW grid and wavefunctions read in
 
   number of l-projection  operators is LMAX  =           4
   number of lm-projection operators is LMMAX =           8
 

 ----------------------------------------------------------------------------- 
|                                                                             |
|  ADVICE TO THIS USER RUNNING 'VASP/VAMP'   (HEAR YOUR MASTER'S VOICE ...):  |
|                                                                             |
|      You have a (more or less) 'large supercell' and for larger cells       |
|      it might be more efficient to use real space projection operators      |
|      So try LREAL= Auto  in the INCAR   file.                               |
|      Mind: If you want to do an extremely accurate calculations keep the    |
|      reciprocal projection scheme          (i.e. LREAL=.FALSE.)             |
|                                                                             |
 ----------------------------------------------------------------------------- 

 PAW_PBE Al 04Jan2001                   :
 energy of atom  1       EATOM=  -53.5387
 kinetic energy error for atom=    0.0003 (will be added to EATOM!!)
 
 EXHCAR: internal setup
 exchange correlation table for  LEXCH =        8
   RHO(1)=    0.500       N(1)  =     2000
   RHO(2)=  100.500       N(2)  =     4000
 
 POSCAR: Al                                      
  positions in direct lattice
  No initial velocities read in
 


--------------------------------------------------------------------------------------------------------


 ion  position               nearest neighbor table
   1  0.251  0.250  0.000-  18 2.73  22 2.73  26 2.73  28 2.73   9 2.74  11 2.74  13 2.74  15 2.74
                            25 2.75  21 2.75  27 2.75  17 2.75
   2  0.750  0.250  0.000-  10 2.74  12 2.74  14 2.74  16 2.74  17 2.74  18 2.74  21 2.74  22 2.74
                            25 2.74  26 2.74  27 2.74  28 2.74
   3  0.250  0.750  0.000-   9 2.74  11 2.74  13 2.74  15 2.74  19 2.74  20 2.74  23 2.74  24 2.74
                            25 2.74  26 2.74  27 2.74  28 2.74
   4  0.750  0.750  0.000-  10 2.74  12 2.74  14 2.74  16 2.74  19 2.74  20 2.74  23 2.74  24 2.74
                            25 2.74  26 2.74  27 2.74  28 2.74
   5  0.250  0.250  0.500-   9 2.74  11 2.74  13 2.74  15 2.74  17 2.74  18 2.74  21 2.74  22 2.74
                            29 2.74  30 2.74  31 2.74  32 2.74
   6  0.750  0.250  0.500-  10 2.74  12 2.74  14 2.74  16 2.74  17 2.74  18 2.74  21 2.74  22 2.74
                            29 2.74  30 2.74  31 2.74  32 2.74
   7  0.250  0.750  0.500-   9 2.74  11 2.74  13 2.74  15 2.74  19 2.74  20 2.74  23 2.74  24 2.74
                            29 2.74  30 2.74  31 2.74  32 2.74
   8  0.750  0.750  0.500-  10 2.74  12 2.74  14 2.74  16 2.74  19 2.74  20 2.74  23 2.74  24 2.74
                            29 2.74  30 2.74  31 2.74  32 2.74
   9  0.250  0.000  0.250-   3 2.74   5 2.74   7 2.74  17 2.74  18 2.74  19 2.74  20 2.74  25 2.74
                            26 2.74  29 2.74  30 2.74   1 2.74
  10  0.750  0.000  0.250-   2 2.74   4 2.74   6 2.74   8 2.74  17 2.74  18 2.74  19 2.74  20 2.74
                            25 2.74  26 2.74  29 2.74  30 2.74
  11  0.250  0.500  0.250-   3 2.74   5 2.74   7 2.74  17 2.74  18 2.74  19 2.74  20 2.74  27 2.74
                            28 2.74  31 2.74  32 2.74   1 2.74
  12  0.750  0.500  0.250-   2 2.74   4 2.74   6 2.74   8 2.74  17 2.74  18 2.74  19 2.74  20 2.74
                            27 2.74  28 2.74  31 2.74  32 2.74
  13  0.250  0.000  0.750-   3 2.74   5 2.74   7 2.74  21 2.74  22 2.74  23 2.74  24 2.74  25 2.74
                            26 2.74  29 2.74  30 2.74   1 2.74
  14  0.750  0.000  0.750-   2 2.74   4 2.74   6 2.74   8 2.74  21 2.74  22 2.74  23 2.74  24 2.74
                            25 2.74  26 2.74  29 2.74  30 2.74
  15  0.250  0.500  0.750-   3 2.74   5 2.74   7 2.74  21 2.74  22 2.74  23 2.74  24 2.74  27 2.74
                            28 2.74  31 2.74  32 2.74   1 2.74
  16  0.750  0.500  0.750-   2 2.74   4 2.74   6 2.74   8 2.74  21 2.74  22 2.74  23 2.74  24 2.74
                            27 2.74  28 2.74  31 2.74  32 2.74
  17  0.000  0.250  0.250-   2 2.74   5 2.74   6 2.74   9 2.74  10 2.74  11 2.74  12 2.74  25 2.74
                            27 2.74  29 2.74  31 2.74   1 2.75
  18  0.500  0.250  0.250-   1 2.73   2 2.74   5 2.74   6 2.74   9 2.74  10 2.74  11 2.74  12 2.74
                            26 2.74  28 2.74  30 2.74  32 2.74
  19  0.000  0.750  0.250-   3 2.74   4 2.74   7 2.74   8 2.74   9 2.74  10 2.74  11 2.74  12 2.74
                            25 2.74  27 2.74  29 2.74  31 2.74
  20  0.500  0.750  0.250-   3 2.74   4 2.74   7 2.74   8 2.74   9 2.74  10 2.74  11 2.74  12 2.74
                            26 2.74  28 2.74  30 2.74  32 2.74
  21  0.000  0.250  0.750-   2 2.74   5 2.74   6 2.74  13 2.74  14 2.74  15 2.74  16 2.74  25 2.74
                            27 2.74  29 2.74  31 2.74   1 2.75
  22  0.500  0.250  0.750-   1 2.73   2 2.74   5 2.74   6 2.74  13 2.74  14 2.74  15 2.74  16 2.74
                            26 2.74  28 2.74  30 2.74  32 2.74
  23  0.000  0.750  0.750-   3 2.74   4 2.74   7 2.74   8 2.74  13 2.74  14 2.74  15 2.74  16 2.74
                            25 2.74  27 2.74  29 2.74  31 2.74
  24  0.500  0.750  0.750-   3 2.74   4 2.74   7 2.74   8 2.74  13 2.74  14 2.74  15 2.74  16 2.74
                            26 2.74  28 2.74  30 2.74  32 2.74
  25  0.000  0.000  0.000-   2 2.74   3 2.74   4 2.74   9 2.74  10 2.74  13 2.74  14 2.74  17 2.74
                            19 2.74  21 2.74  23 2.74   1 2.75
  26  0.500  0.000  0.000-   1 2.73   2 2.74   3 2.74   4 2.74   9 2.74  10 2.74  13 2.74  14 2.74
                            18 2.74  20 2.74  22 2.74  24 2.74
  27  0.000  0.500  0.000-   2 2.74   3 2.74   4 2.74  11 2.74  12 2.74  15 2.74  16 2.74  17 2.74
                            19 2.74  21 2.74  23 2.74   1 2.75
  28  0.500  0.500  0.000-   1 2.73   2 2.74   3 2.74   4 2.74  11 2.74  12 2.74  15 2.74  16 2.74
                            18 2.74  20 2.74  22 2.74  24 2.74
  29  0.000  0.000  0.500-   5 2.74   6 2.74   7 2.74   8 2.74   9 2.74  10 2.74  13 2.74  14 2.74
                            17 2.74  19 2.74  21 2.74  23 2.74
  30  0.500  0.000  0.500-   5 2.74   6 2.74   7 2.74   8 2.74   9 2.74  10 2.74  13 2.74  14 2.74
                            18 2.74  20 2.74  22 2.74  24 2.74
  31  0.000  0.500  0.500-   5 2.74   6 2.74   7 2.74   8 2.74  11 2.74  12 2.74  15 2.74  16 2.74
                            17 2.74  19 2.74  21 2.74  23 2.74
  32  0.500  0.500  0.500-   5 2.74   6 2.74   7 2.74   8 2.74  11 2.74  12 2.74  15 2.74  16 2.74
                            18 2.74  20 2.74  22 2.74  24 2.74
 
  LATTYP: Found a simple cubic cell.
 ALAT       =     7.7516282298
  
  Lattice vectors:
  
 A1 = (   7.7516282298,   0.0000000000,   0.0000000000)
 A2 = (   0.0000000000,   7.7516282298,   0.0000000000)
 A3 = (   0.0000000000,   0.0000000000,   7.7516282298)
 Subroutine PRICEL returns:
 Original cell was already a primitive cell.
 

Analysis of symmetry for initial positions (statically):

 Routine SETGRP: Setting up the symmetry group for a 
 simple cubic supercell.


 Subroutine GETGRP returns: Found  8 space group operations
 (whereof  2 operations were pure point group operations)
 out of a pool of 48 trial point group operations.


The static configuration has the point symmetry C_1h.
 The point group associated with its full space group is C_4v.

Analysis of symmetry for dynamics (positions and initial velocities):

 Subroutine DYNSYM returns: Found  8 space group operations
 (whereof  2 operations were pure point group operations)
 out of a pool of  8 trial space group operations
 (whereof  2 operations were pure point group operations)
 and found also     1 'primitive' translations


The dynamic configuration has the point symmetry C_1h.
 The point group associated with its full space group is C_4v.
 
 
 KPOINTS: Automatic mesh                          

Automatic generation of k-mesh.
 
 Subroutine IBZKPT returns following result:
 ===========================================
 
 Found    196 irreducible k-points:
 
 Following reciprocal coordinates:
            Coordinates               Weight
  0.000000  0.000000  0.000000      1.000000
  0.083333  0.000000  0.000000      2.000000
  0.166667  0.000000  0.000000      2.000000
  0.250000  0.000000  0.000000      2.000000
  0.333333  0.000000  0.000000      2.000000
  0.416667  0.000000  0.000000      2.000000
  0.500000  0.000000  0.000000      1.000000
  0.000000  0.083333  0.000000      4.000000
  0.083333  0.083333  0.000000      8.000000
  0.166667  0.083333  0.000000      8.000000
  0.250000  0.083333  0.000000      8.000000
  0.333333  0.083333  0.000000      8.000000
  0.416667  0.083333  0.000000      8.000000
  0.500000  0.083333  0.000000      4.000000
  0.000000  0.166667  0.000000      4.000000
  0.083333  0.166667  0.000000      8.000000
  0.166667  0.166667  0.000000      8.000000
  0.250000  0.166667  0.000000      8.000000
  0.333333  0.166667  0.000000      8.000000
  0.416667  0.166667  0.000000      8.000000
  0.500000  0.166667  0.000000      4.000000
  0.000000  0.250000  0.000000      4.000000
  0.083333  0.250000  0.000000      8.000000
  0.166667  0.250000  0.000000      8.000000
  0.250000  0.250000  0.000000      8.000000
  0.333333  0.250000  0.000000      8.000000
  0.416667  0.250000  0.000000      8.000000
  0.500000  0.250000  0.000000      4.000000
  0.000000  0.333333  0.000000      4.000000
  0.083333  0.333333  0.000000      8.000000
  0.166667  0.333333  0.000000      8.000000
  0.250000  0.333333  0.000000      8.000000
  0.333333  0.333333  0.000000      8.000000
  0.416667  0.333333  0.000000      8.000000
  0.500000  0.333333  0.000000      4.000000
  0.000000  0.416667  0.000000      4.000000
  0.083333  0.416667  0.000000      8.000000
  0.166667  0.416667  0.000000      8.000000
  0.250000  0.416667  0.000000      8.000000
  0.333333  0.416667  0.000000      8.000000
  0.416667  0.416667  0.000000      8.000000
  0.500000  0.416667  0.000000      4.000000
  0.000000  0.500000  0.000000      2.000000
  0.083333  0.500000  0.000000      4.000000
  0.166667  0.500000  0.000000      4.000000
  0.250000  0.500000  0.000000      4.000000
  0.333333  0.500000  0.000000      4.000000
  0.416667  0.500000  0.000000      4.000000
  0.500000  0.500000  0.000000      2.000000
  0.000000  0.083333  0.083333      4.000000
  0.083333  0.083333  0.083333      8.000000
  0.166667  0.083333  0.083333      8.000000
  0.250000  0.083333  0.083333      8.000000
  0.333333  0.083333  0.083333      8.000000
  0.416667  0.083333  0.083333      8.000000
  0.500000  0.083333  0.083333      4.000000
  0.000000  0.166667  0.083333      8.000000
  0.083333  0.166667  0.083333     16.000000
  0.166667  0.166667  0.083333     16.000000
  0.250000  0.166667  0.083333     16.000000
  0.333333  0.166667  0.083333     16.000000
  0.416667  0.166667  0.083333     16.000000
  0.500000  0.166667  0.083333      8.000000
  0.000000  0.250000  0.083333      8.000000
  0.083333  0.250000  0.083333     16.000000
  0.166667  0.250000  0.083333     16.000000
  0.250000  0.250000  0.083333     16.000000
  0.333333  0.250000  0.083333     16.000000
  0.416667  0.250000  0.083333     16.000000
  0.500000  0.250000  0.083333      8.000000
  0.000000  0.333333  0.083333      8.000000
  0.083333  0.333333  0.083333     16.000000
  0.166667  0.333333  0.083333     16.000000
  0.250000  0.333333  0.083333     16.000000
  0.333333  0.333333  0.083333     16.000000
  0.416667  0.333333  0.083333     16.000000
  0.500000  0.333333  0.083333      8.000000
  0.000000  0.416667  0.083333      8.000000
  0.083333  0.416667  0.083333     16.000000
  0.166667  0.416667  0.083333     16.000000
  0.250000  0.416667  0.083333     16.000000
  0.333333  0.416667  0.083333     16.000000
  0.416667  0.416667  0.083333     16.000000
  0.500000  0.416667  0.083333      8.000000
  0.000000  0.500000  0.083333      4.000000
  0.083333  0.500000  0.083333      8.000000
  0.166667  0.500000  0.083333      8.000000
  0.250000  0.500000  0.083333      8.000000
  0.333333  0.500000  0.083333      8.000000
  0.416667  0.500000  0.083333      8.000000
  0.500000  0.500000  0.083333      4.000000
  0.000000  0.166667  0.166667      4.000000
  0.083333  0.166667  0.166667      8.000000
  0.166667  0.166667  0.166667      8.000000
  0.250000  0.166667  0.166667      8.000000
  0.333333  0.166667  0.166667      8.000000
  0.416667  0.166667  0.166667      8.000000
  0.500000  0.166667  0.166667      4.000000
  0.000000  0.250000  0.166667      8.000000
  0.083333  0.250000  0.166667     16.000000
  0.166667  0.250000  0.166667     16.000000
  0.250000  0.250000  0.166667     16.000000
  0.333333  0.250000  0.166667     16.000000
  0.416667  0.250000  0.166667     16.000000
  0.500000  0.250000  0.166667      8.000000
  0.000000  0.333333  0.166667      8.000000
  0.083333  0.333333  0.166667     16.000000
  0.166667  0.333333  0.166667     16.000000
  0.250000  0.333333  0.166667     16.000000
  0.333333  0.333333  0.166667     16.000000
  0.416667  0.333333  0.166667     16.000000
  0.500000  0.333333  0.166667      8.000000
  0.000000  0.416667  0.166667      8.000000
  0.083333  0.416667  0.166667     16.000000
  0.166667  0.416667  0.166667     16.000000
  0.250000  0.416667  0.166667     16.000000
  0.333333  0.416667  0.166667     16.000000
  0.416667  0.416667  0.166667     16.000000
  0.500000  0.416667  0.166667      8.000000
  0.000000  0.500000  0.166667      4.000000
  0.083333  0.500000  0.166667      8.000000
  0.166667  0.500000  0.166667      8.000000
  0.250000  0.500000  0.166667      8.000000
  0.333333  0.500000  0.166667      8.000000
  0.416667  0.500000  0.166667      8.000000
  0.500000  0.500000  0.166667      4.000000
  0.000000  0.250000  0.250000      4.000000
  0.083333  0.250000  0.250000      8.000000
  0.166667  0.250000  0.250000      8.000000
  0.250000  0.250000  0.250000      8.000000
  0.333333  0.250000  0.250000      8.000000
  0.416667  0.250000  0.250000      8.000000
  0.500000  0.250000  0.250000      4.000000
  0.000000  0.333333  0.250000      8.000000
  0.083333  0.333333  0.250000     16.000000
  0.166667  0.333333  0.250000     16.000000
  0.250000  0.333333  0.250000     16.000000
  0.333333  0.333333  0.250000     16.000000
  0.416667  0.333333  0.250000     16.000000
  0.500000  0.333333  0.250000      8.000000
  0.000000  0.416667  0.250000      8.000000
  0.083333  0.416667  0.250000     16.000000
  0.166667  0.416667  0.250000     16.000000
  0.250000  0.416667  0.250000     16.000000
  0.333333  0.416667  0.250000     16.000000
  0.416667  0.416667  0.250000     16.000000
  0.500000  0.416667  0.250000      8.000000
  0.000000  0.500000  0.250000      4.000000
  0.083333  0.500000  0.250000      8.000000
  0.166667  0.500000  0.250000      8.000000
  0.250000  0.500000  0.250000      8.000000
  0.333333  0.500000  0.250000      8.000000
  0.416667  0.500000  0.250000      8.000000
  0.500000  0.500000  0.250000      4.000000
  0.000000  0.333333  0.333333      4.000000
  0.083333  0.333333  0.333333      8.000000
  0.166667  0.333333  0.333333      8.000000
  0.250000  0.333333  0.333333      8.000000
  0.333333  0.333333  0.333333      8.000000
  0.416667  0.333333  0.333333      8.000000
  0.500000  0.333333  0.333333      4.000000
  0.000000  0.416667  0.333333      8.000000
  0.083333  0.416667  0.333333     16.000000
  0.166667  0.416667  0.333333     16.000000
  0.250000  0.416667  0.333333     16.000000
  0.333333  0.416667  0.333333     16.000000
  0.416667  0.416667  0.333333     16.000000
  0.500000  0.416667  0.333333      8.000000
  0.000000  0.500000  0.333333      4.000000
  0.083333  0.500000  0.333333      8.000000
  0.166667  0.500000  0.333333      8.000000
  0.250000  0.500000  0.333333      8.000000
  0.333333  0.500000  0.333333      8.000000
  0.416667  0.500000  0.333333      8.000000
  0.500000  0.500000  0.333333      4.000000
  0.000000  0.416667  0.416667      4.000000
  0.083333  0.416667  0.416667      8.000000
  0.166667  0.416667  0.416667      8.000000
  0.250000  0.416667  0.416667      8.000000
  0.333333  0.416667  0.416667      8.000000
  0.416667  0.416667  0.416667      8.000000
  0.500000  0.416667  0.416667      4.000000
  0.000000  0.500000  0.416667      4.000000
  0.083333  0.500000  0.416667      8.000000
  0.166667  0.500000  0.416667      8.000000
  0.250000  0.500000  0.416667      8.000000
  0.333333  0.500000  0.416667      8.000000
  0.416667  0.500000  0.416667      8.000000
  0.500000  0.500000  0.416667      4.000000
  0.000000  0.500000  0.500000      1.000000
  0.083333  0.500000  0.500000      2.000000
  0.166667  0.500000  0.500000      2.000000
  0.250000  0.500000  0.500000      2.000000
  0.333333  0.500000  0.500000      2.000000
  0.416667  0.500000  0.500000      2.000000
  0.500000  0.500000  0.500000      1.000000
 
 Following cartesian coordinates:
            Coordinates               Weight
  0.000000  0.000000  0.000000      1.000000
  0.010750  0.000000  0.000000      2.000000
  0.021501  0.000000  0.000000      2.000000
  0.032251  0.000000  0.000000      2.000000
  0.043002  0.000000  0.000000      2.000000
  0.053752  0.000000  0.000000      2.000000
  0.064503  0.000000  0.000000      1.000000
  0.000000  0.010750  0.000000      4.000000
  0.010750  0.010750  0.000000      8.000000
  0.021501  0.010750  0.000000      8.000000
  0.032251  0.010750  0.000000      8.000000
  0.043002  0.010750  0.000000      8.000000
  0.053752  0.010750  0.000000      8.000000
  0.064503  0.010750  0.000000      4.000000
  0.000000  0.021501  0.000000      4.000000
  0.010750  0.021501  0.000000      8.000000
  0.021501  0.021501  0.000000      8.000000
  0.032251  0.021501  0.000000      8.000000
  0.043002  0.021501  0.000000      8.000000
  0.053752  0.021501  0.000000      8.000000
  0.064503  0.021501  0.000000      4.000000
  0.000000  0.032251  0.000000      4.000000
  0.010750  0.032251  0.000000      8.000000
  0.021501  0.032251  0.000000      8.000000
  0.032251  0.032251  0.000000      8.000000
  0.043002  0.032251  0.000000      8.000000
  0.053752  0.032251  0.000000      8.000000
  0.064503  0.032251  0.000000      4.000000
  0.000000  0.043002  0.000000      4.000000
  0.010750  0.043002  0.000000      8.000000
  0.021501  0.043002  0.000000      8.000000
  0.032251  0.043002  0.000000      8.000000
  0.043002  0.043002  0.000000      8.000000
  0.053752  0.043002  0.000000      8.000000
  0.064503  0.043002  0.000000      4.000000
  0.000000  0.053752  0.000000      4.000000
  0.010750  0.053752  0.000000      8.000000
  0.021501  0.053752  0.000000      8.000000
  0.032251  0.053752  0.000000      8.000000
  0.043002  0.053752  0.000000      8.000000
  0.053752  0.053752  0.000000      8.000000
  0.064503  0.053752  0.000000      4.000000
  0.000000  0.064503  0.000000      2.000000
  0.010750  0.064503  0.000000      4.000000
  0.021501  0.064503  0.000000      4.000000
  0.032251  0.064503  0.000000      4.000000
  0.043002  0.064503  0.000000      4.000000
  0.053752  0.064503  0.000000      4.000000
  0.064503  0.064503  0.000000      2.000000
  0.000000  0.010750  0.010750      4.000000
  0.010750  0.010750  0.010750      8.000000
  0.021501  0.010750  0.010750      8.000000
  0.032251  0.010750  0.010750      8.000000
  0.043002  0.010750  0.010750      8.000000
  0.053752  0.010750  0.010750      8.000000
  0.064503  0.010750  0.010750      4.000000
  0.000000  0.021501  0.010750      8.000000
  0.010750  0.021501  0.010750     16.000000
  0.021501  0.021501  0.010750     16.000000
  0.032251  0.021501  0.010750     16.000000
  0.043002  0.021501  0.010750     16.000000
  0.053752  0.021501  0.010750     16.000000
  0.064503  0.021501  0.010750      8.000000
  0.000000  0.032251  0.010750      8.000000
  0.010750  0.032251  0.010750     16.000000
  0.021501  0.032251  0.010750     16.000000
  0.032251  0.032251  0.010750     16.000000
  0.043002  0.032251  0.010750     16.000000
  0.053752  0.032251  0.010750     16.000000
  0.064503  0.032251  0.010750      8.000000
  0.000000  0.043002  0.010750      8.000000
  0.010750  0.043002  0.010750     16.000000
  0.021501  0.043002  0.010750     16.000000
  0.032251  0.043002  0.010750     16.000000
  0.043002  0.043002  0.010750     16.000000
  0.053752  0.043002  0.010750     16.000000
  0.064503  0.043002  0.010750      8.000000
  0.000000  0.053752  0.010750      8.000000
  0.010750  0.053752  0.010750     16.000000
  0.021501  0.053752  0.010750     16.000000
  0.032251  0.053752  0.010750     16.000000
  0.043002  0.053752  0.010750     16.000000
  0.053752  0.053752  0.010750     16.000000
  0.064503  0.053752  0.010750      8.000000
  0.000000  0.064503  0.010750      4.000000
  0.010750  0.064503  0.010750      8.000000
  0.021501  0.064503  0.010750      8.000000
  0.032251  0.064503  0.010750      8.000000
  0.043002  0.064503  0.010750      8.000000
  0.053752  0.064503  0.010750      8.000000
  0.064503  0.064503  0.010750      4.000000
  0.000000  0.021501  0.021501      4.000000
  0.010750  0.021501  0.021501      8.000000
  0.021501  0.021501  0.021501      8.000000
  0.032251  0.021501  0.021501      8.000000
  0.043002  0.021501  0.021501      8.000000
  0.053752  0.021501  0.021501      8.000000
  0.064503  0.021501  0.021501      4.000000
  0.000000  0.032251  0.021501      8.000000
  0.010750  0.032251  0.021501     16.000000
  0.021501  0.032251  0.021501     16.000000
  0.032251  0.032251  0.021501     16.000000
  0.043002  0.032251  0.021501     16.000000
  0.053752  0.032251  0.021501     16.000000
  0.064503  0.032251  0.021501      8.000000
  0.000000  0.043002  0.021501      8.000000
  0.010750  0.043002  0.021501     16.000000
  0.021501  0.043002  0.021501     16.000000
  0.032251  0.043002  0.021501     16.000000
  0.043002  0.043002  0.021501     16.000000
  0.053752  0.043002  0.021501     16.000000
  0.064503  0.043002  0.021501      8.000000
  0.000000  0.053752  0.021501      8.000000
  0.010750  0.053752  0.021501     16.000000
  0.021501  0.053752  0.021501     16.000000
  0.032251  0.053752  0.021501     16.000000
  0.043002  0.053752  0.021501     16.000000
  0.053752  0.053752  0.021501     16.000000
  0.064503  0.053752  0.021501      8.000000
  0.000000  0.064503  0.021501      4.000000
  0.010750  0.064503  0.021501      8.000000
  0.021501  0.064503  0.021501      8.000000
  0.032251  0.064503  0.021501      8.000000
  0.043002  0.064503  0.021501      8.000000
  0.053752  0.064503  0.021501      8.000000
  0.064503  0.064503  0.021501      4.000000
  0.000000  0.032251  0.032251      4.000000
  0.010750  0.032251  0.032251      8.000000
  0.021501  0.032251  0.032251      8.000000
  0.032251  0.032251  0.032251      8.000000
  0.043002  0.032251  0.032251      8.000000
  0.053752  0.032251  0.032251      8.000000
  0.064503  0.032251  0.032251      4.000000
  0.000000  0.043002  0.032251      8.000000
  0.010750  0.043002  0.032251     16.000000
  0.021501  0.043002  0.032251     16.000000
  0.032251  0.043002  0.032251     16.000000
  0.043002  0.043002  0.032251     16.000000
  0.053752  0.043002  0.032251     16.000000
  0.064503  0.043002  0.032251      8.000000
  0.000000  0.053752  0.032251      8.000000
  0.010750  0.053752  0.032251     16.000000
  0.021501  0.053752  0.032251     16.000000
  0.032251  0.053752  0.032251     16.000000
  0.043002  0.053752  0.032251     16.000000
  0.053752  0.053752  0.032251     16.000000
  0.064503  0.053752  0.032251      8.000000
  0.000000  0.064503  0.032251      4.000000
  0.010750  0.064503  0.032251      8.000000
  0.021501  0.064503  0.032251      8.000000
  0.032251  0.064503  0.032251      8.000000
  0.043002  0.064503  0.032251      8.000000
  0.053752  0.064503  0.032251      8.000000
  0.064503  0.064503  0.032251      4.000000
  0.000000  0.043002  0.043002      4.000000
  0.010750  0.043002  0.043002      8.000000
  0.021501  0.043002  0.043002      8.000000
  0.032251  0.043002  0.043002      8.000000
  0.043002  0.043002  0.043002      8.000000
  0.053752  0.043002  0.043002      8.000000
  0.064503  0.043002  0.043002      4.000000
  0.000000  0.053752  0.043002      8.000000
  0.010750  0.053752  0.043002     16.000000
  0.021501  0.053752  0.043002     16.000000
  0.032251  0.053752  0.043002     16.000000
  0.043002  0.053752  0.043002     16.000000
  0.053752  0.053752  0.043002     16.000000
  0.064503  0.053752  0.043002      8.000000
  0.000000  0.064503  0.043002      4.000000
  0.010750  0.064503  0.043002      8.000000
  0.021501  0.064503  0.043002      8.000000
  0.032251  0.064503  0.043002      8.000000
  0.043002  0.064503  0.043002      8.000000
  0.053752  0.064503  0.043002      8.000000
  0.064503  0.064503  0.043002      4.000000
  0.000000  0.053752  0.053752      4.000000
  0.010750  0.053752  0.053752      8.000000
  0.021501  0.053752  0.053752      8.000000
  0.032251  0.053752  0.053752      8.000000
  0.043002  0.053752  0.053752      8.000000
  0.053752  0.053752  0.053752      8.000000
  0.064503  0.053752  0.053752      4.000000
  0.000000  0.064503  0.053752      4.000000
  0.010750  0.064503  0.053752      8.000000
  0.021501  0.064503  0.053752      8.000000
  0.032251  0.064503  0.053752      8.000000
  0.043002  0.064503  0.053752      8.000000
  0.053752  0.064503  0.053752      8.000000
  0.064503  0.064503  0.053752      4.000000
  0.000000  0.064503  0.064503      1.000000
  0.010750  0.064503  0.064503      2.000000
  0.021501  0.064503  0.064503      2.000000
  0.032251  0.064503  0.064503      2.000000
  0.043002  0.064503  0.064503      2.000000
  0.053752  0.064503  0.064503      2.000000
  0.064503  0.064503  0.064503      1.000000
 


--------------------------------------------------------------------------------------------------------




 Dimension of arrays:
   k-Points           NKPTS =    196   number of bands    NBANDS=     68
   number of dos      NEDOS =    301   number of ions     NIONS =     32
   non local maximal  LDIM  =      4   non local SUM 2l+1 LMDIM =      8
   total plane-waves  NPLWV = 216000
   max r-space proj   IRMAX =      1   max aug-charges    IRDMAX=  18246
   dimension x,y,z NGX =    60 NGY =   60 NGZ =   60
   dimension x,y,z NGXF=   120 NGYF=  120 NGZF=  120
   support grid    NGXF=   120 NGYF=  120 NGZF=  120
   ions per type =              32
 NGX,Y,Z   is equivalent  to a cutoff of  12.87, 12.87, 12.87 a.u.
 NGXF,Y,Z  is equivalent  to a cutoff of  25.74, 25.74, 25.74 a.u.


 I would recommend the setting:
   dimension x,y,z NGX =    57 NGY =   57 NGZ =   57
 SYSTEM =  unknown system                          
 POSCAR =  Al                                      

 Startparameter for this run:
   NWRITE =      2    write-flag & timer
   PREC   = accura    medium, high low
   ISTART =      0    job   : 0-new  1-cont  2-samecut
   ICHARG =      2    charge: 1-file 2-atom 10-const
   ISPIN  =      1    spin polarized calculation?
   LNONCOLLINEAR =      F non collinear calculations
   LSORBIT =      F    spin-orbit coupling
   INIWAV =      1    electr: 0-lowe 1-rand  2-diag
   LASPH  =      F    aspherical Exc in radial PAW
   METAGGA=      F    non-selfconsistent MetaGGA calc.

 Electronic Relaxation 1
   ENCUT  =  500.0 eV  36.75 Ry    6.06 a.u.  14.13 14.13 14.13*2*pi/ulx,y,z
   ENINI  =  500.0     initial cutoff
   ENAUG  =  291.1 eV  augmentation charge cutoff
   NELM   =     60;   NELMIN=  2; NELMDL= -5     # of ELM steps 
   EDIFF  = 0.1E-07   stopping-criterion for ELM
   LREAL  =      F    real-space projection
   LCOMPAT=      F    compatible to vasp.4.4
   LREAL_COMPAT= F    compatible to vasp.4.5.1-3
   GGA_COMPAT  = T    GGA compatible to vasp.4.4-vasp.4.6
   LMAXPAW     = -100 max onsite density
   LMAXMIX     =    2 max onsite mixed and CHGCAR
   VOSKOWN=      0    Vosko Wilk Nusair interpolation
   ROPT   =    0.00000
 Ionic relaxation
   EDIFFG = 0.1E-06   stopping-criterion for IOM
   NSW    =      0    number of steps for IOM
   NBLOCK =      1;   KBLOCK =      1    inner block; outer block 
   IBRION =     -1    ionic relax: 0-MD 1-quasi-New 2-CG
   NFREE  =      0    steps in history (QN), initial steepest desc. (CG)
   ISIF   =      2    stress and relaxation
   IWAVPR =     10    prediction:  0-non 1-charg 2-wave 3-comb
   ISYM   =      2    0-nonsym 1-usesym 2-fastsym
   LCORR  =      T    Harris-Foulkes like correction to forces

   POTIM  =   0.50    time-step for ionic-motion
   TEIN   =    0.0    initial temperature
   TEBEG  =    0.0;   TEEND  =   0.0 temperature during run
   SMASS  =  -3.00    Nose mass-parameter (am)
   estimated Nose-frequenzy (Omega)   =  0.10E-29 period in steps =****** mass=  -0.137E-26a.u.
   NPACO  =    256;   APACO  = 16.0  distance and # of slots for P.C.
   PSTRESS=    0.0 pullay stress

  Mass of Ions in am
   POMASS =  26.98
  Ionic Valenz
   ZVAL   =   3.00
  Atomic Wigner-Seitz radii
   RWIGS  =  -1.00
   NELECT =      96.0000    total number of electrons
   NUPDOWN=      -1.0000    fix difference up-down

 DOS related values:
   EMIN   =  10.00;   EMAX   =-10.00  energy-range for DOS
   ISMEAR =     0;   SIGMA  =   0.01  broadening in eV -4-tet -1-fermi 0-gaus

 Electronic relaxation 2 (details)
   IALGO  =     38    algorithm
   LDIAG  =      T    sub-space diagonalisation
   IMIX   =      4    mixing-type and parameters
     AMIX     =   0.40;   BMIX     =  1.00
     AMIX_MAG =   1.60;   BMIX_MAG =  1.00
     AMIN     =   0.10
     WC   =   100.;   INIMIX=   1;  MIXPRE=   1

 Intra band minimization:
   WEIMIN = 0.0000     energy-eigenvalue tresh-hold
   EBREAK =  0.38E-10  absolut break condition
   DEPER  =   0.30     relativ break condition  

   TIME   =   0.10     timestep for ELM

  volume/ion in A,a.u.               =      14.56        98.23
  Fermi-wavevector in a.u.,eV,Ry     =   0.967028 12.723391  0.935143

 Second variation
   LSECVAR=     F    do a second variation
 
 Write flags
   LWAVE  =      F    write WAVECAR
   LCHARG =      F    write CHGCAR
   LVTOT  =      F    write LOCPOT, local potential
   LELF   =      F    write electronic localiz. function (ELF)
   LORBIT =      0    0 simple, 1 ext, 2 COOP (PROOUT)


 Dipole corrections
   IDIPOL =      0    1-x, 2-y, 3-z
   LDIPOL =      F    correct potential



--------------------------------------------------------------------------------------------------------


 Static calculation
 charge density will be updated during run
 non-spin polarized calculation
 Variant of blocked Davidson
 Davidson routine will perform the subspace rotation
 performe sub-space diagonalisation
    after iterative eigenvector-optimisation
 modified Broyden-mixing scheme, WC =      100.0
 initial mixing is a Kerker type mixing with AMIX =  0.4000 and BMIX =      1.0000
 Hartree-type preconditioning will be used
 using additional bands           20
 reciprocal scheme for non local part
 use partial core corrections
 calculate Harris-corrections to forces 
   (improved forces if not selfconsistent)
 use gradient corrections 
 use of overlap-Matrix (Vanderbilt PP)
 Gauss-broadening in eV      SIGMA  =   0.01


--------------------------------------------------------------------------------------------------------


  energy-cutoff  :      500.00
  volume of cell :      465.78
      direct lattice vectors                 reciprocal lattice vectors
     7.751628230  0.000000000  0.000000000     0.129005155  0.000000000  0.000000000
     0.000000000  7.751628230  0.000000000     0.000000000  0.129005155  0.000000000
     0.000000000  0.000000000  7.751628230     0.000000000  0.000000000  0.129005155

  length of vectors
     7.751628230  7.751628230  7.751628230     0.129005155  0.129005155  0.129005155


 
 k-points in units of 2pi/SCALE and weight: Automatic mesh                          
   0.00000000  0.00000000  0.00000000       0.001
   0.01075043  0.00000000  0.00000000       0.001
   0.02150086  0.00000000  0.00000000       0.001
   0.03225129  0.00000000  0.00000000       0.001
   0.04300172  0.00000000  0.00000000       0.001
   0.05375215  0.00000000  0.00000000       0.001
   0.06450258  0.00000000  0.00000000       0.001
   0.00000000  0.01075043  0.00000000       0.002
   0.01075043  0.01075043  0.00000000       0.005
   0.02150086  0.01075043  0.00000000       0.005
   0.03225129  0.01075043  0.00000000       0.005
   0.04300172  0.01075043  0.00000000       0.005
   0.05375215  0.01075043  0.00000000       0.005
   0.06450258  0.01075043  0.00000000       0.002
   0.00000000  0.02150086  0.00000000       0.002
   0.01075043  0.02150086  0.00000000       0.005
   0.02150086  0.02150086  0.00000000       0.005
   0.03225129  0.02150086  0.00000000       0.005
   0.04300172  0.02150086  0.00000000       0.005
   0.05375215  0.02150086  0.00000000       0.005
   0.06450258  0.02150086  0.00000000       0.002
   0.00000000  0.03225129  0.00000000       0.002
   0.01075043  0.03225129  0.00000000       0.005
   0.02150086  0.03225129  0.00000000       0.005
   0.03225129  0.03225129  0.00000000       0.005
   0.04300172  0.03225129  0.00000000       0.005
   0.05375215  0.03225129  0.00000000       0.005
   0.06450258  0.03225129  0.00000000       0.002
   0.00000000  0.04300172  0.00000000       0.002
   0.01075043  0.04300172  0.00000000       0.005
   0.02150086  0.04300172  0.00000000       0.005
   0.03225129  0.04300172  0.00000000       0.005
   0.04300172  0.04300172  0.00000000       0.005
   0.05375215  0.04300172  0.00000000       0.005
   0.06450258  0.04300172  0.00000000       0.002
   0.00000000  0.05375215  0.00000000       0.002
   0.01075043  0.05375215  0.00000000       0.005
   0.02150086  0.05375215  0.00000000       0.005
   0.03225129  0.05375215  0.00000000       0.005
   0.04300172  0.05375215  0.00000000       0.005
   0.05375215  0.05375215  0.00000000       0.005
   0.06450258  0.05375215  0.00000000       0.002
   0.00000000  0.06450258  0.00000000       0.001
   0.01075043  0.06450258  0.00000000       0.002
   0.02150086  0.06450258  0.00000000       0.002
   0.03225129  0.06450258  0.00000000       0.002
   0.04300172  0.06450258  0.00000000       0.002
   0.05375215  0.06450258  0.00000000       0.002
   0.06450258  0.06450258  0.00000000       0.001
   0.00000000  0.01075043  0.01075043       0.002
   0.01075043  0.01075043  0.01075043       0.005
   0.02150086  0.01075043  0.01075043       0.005
   0.03225129  0.01075043  0.01075043       0.005
   0.04300172  0.01075043  0.01075043       0.005
   0.05375215  0.01075043  0.01075043       0.005
   0.06450258  0.01075043  0.01075043       0.002
   0.00000000  0.02150086  0.01075043       0.005
   0.01075043  0.02150086  0.01075043       0.009
   0.02150086  0.02150086  0.01075043       0.009
   0.03225129  0.02150086  0.01075043       0.009
   0.04300172  0.02150086  0.01075043       0.009
   0.05375215  0.02150086  0.01075043       0.009
   0.06450258  0.02150086  0.01075043       0.005
   0.00000000  0.03225129  0.01075043       0.005
   0.01075043  0.03225129  0.01075043       0.009
   0.02150086  0.03225129  0.01075043       0.009
   0.03225129  0.03225129  0.01075043       0.009
   0.04300172  0.03225129  0.01075043       0.009
   0.05375215  0.03225129  0.01075043       0.009
   0.06450258  0.03225129  0.01075043       0.005
   0.00000000  0.04300172  0.01075043       0.005
   0.01075043  0.04300172  0.01075043       0.009
   0.02150086  0.04300172  0.01075043       0.009
   0.03225129  0.04300172  0.01075043       0.009
   0.04300172  0.04300172  0.01075043       0.009
   0.05375215  0.04300172  0.01075043       0.009
   0.06450258  0.04300172  0.01075043       0.005
   0.00000000  0.05375215  0.01075043       0.005
   0.01075043  0.05375215  0.01075043       0.009
   0.02150086  0.05375215  0.01075043       0.009
   0.03225129  0.05375215  0.01075043       0.009
   0.04300172  0.05375215  0.01075043       0.009
   0.05375215  0.05375215  0.01075043       0.009
   0.06450258  0.05375215  0.01075043       0.005
   0.00000000  0.06450258  0.01075043       0.002
   0.01075043  0.06450258  0.01075043       0.005
   0.02150086  0.06450258  0.01075043       0.005
   0.03225129  0.06450258  0.01075043       0.005
   0.04300172  0.06450258  0.01075043       0.005
   0.05375215  0.06450258  0.01075043       0.005
   0.06450258  0.06450258  0.01075043       0.002
   0.00000000  0.02150086  0.02150086       0.002
   0.01075043  0.02150086  0.02150086       0.005
   0.02150086  0.02150086  0.02150086       0.005
   0.03225129  0.02150086  0.02150086       0.005
   0.04300172  0.02150086  0.02150086       0.005
   0.05375215  0.02150086  0.02150086       0.005
   0.06450258  0.02150086  0.02150086       0.002
   0.00000000  0.03225129  0.02150086       0.005
   0.01075043  0.03225129  0.02150086       0.009
   0.02150086  0.03225129  0.02150086       0.009
   0.03225129  0.03225129  0.02150086       0.009
   0.04300172  0.03225129  0.02150086       0.009
   0.05375215  0.03225129  0.02150086       0.009
   0.06450258  0.03225129  0.02150086       0.005
   0.00000000  0.04300172  0.02150086       0.005
   0.01075043  0.04300172  0.02150086       0.009
   0.02150086  0.04300172  0.02150086       0.009
   0.03225129  0.04300172  0.02150086       0.009
   0.04300172  0.04300172  0.02150086       0.009
   0.05375215  0.04300172  0.02150086       0.009
   0.06450258  0.04300172  0.02150086       0.005
   0.00000000  0.05375215  0.02150086       0.005
   0.01075043  0.05375215  0.02150086       0.009
   0.02150086  0.05375215  0.02150086       0.009
   0.03225129  0.05375215  0.02150086       0.009
   0.04300172  0.05375215  0.02150086       0.009
   0.05375215  0.05375215  0.02150086       0.009
   0.06450258  0.05375215  0.02150086       0.005
   0.00000000  0.06450258  0.02150086       0.002
   0.01075043  0.06450258  0.02150086       0.005
   0.02150086  0.06450258  0.02150086       0.005
   0.03225129  0.06450258  0.02150086       0.005
   0.04300172  0.06450258  0.02150086       0.005
   0.05375215  0.06450258  0.02150086       0.005
   0.06450258  0.06450258  0.02150086       0.002
   0.00000000  0.03225129  0.03225129       0.002
   0.01075043  0.03225129  0.03225129       0.005
   0.02150086  0.03225129  0.03225129       0.005
   0.03225129  0.03225129  0.03225129       0.005
   0.04300172  0.03225129  0.03225129       0.005
   0.05375215  0.03225129  0.03225129       0.005
   0.06450258  0.03225129  0.03225129       0.002
   0.00000000  0.04300172  0.03225129       0.005
   0.01075043  0.04300172  0.03225129       0.009
   0.02150086  0.04300172  0.03225129       0.009
   0.03225129  0.04300172  0.03225129       0.009
   0.04300172  0.04300172  0.03225129       0.009
   0.05375215  0.04300172  0.03225129       0.009
   0.06450258  0.04300172  0.03225129       0.005
   0.00000000  0.05375215  0.03225129       0.005
   0.01075043  0.05375215  0.03225129       0.009
   0.02150086  0.05375215  0.03225129       0.009
   0.03225129  0.05375215  0.03225129       0.009
   0.04300172  0.05375215  0.03225129       0.009
   0.05375215  0.05375215  0.03225129       0.009
   0.06450258  0.05375215  0.03225129       0.005
   0.00000000  0.06450258  0.03225129       0.002
   0.01075043  0.06450258  0.03225129       0.005
   0.02150086  0.06450258  0.03225129       0.005
   0.03225129  0.06450258  0.03225129       0.005
   0.04300172  0.06450258  0.03225129       0.005
   0.05375215  0.06450258  0.03225129       0.005
   0.06450258  0.06450258  0.03225129       0.002
   0.00000000  0.04300172  0.04300172       0.002
   0.01075043  0.04300172  0.04300172       0.005
   0.02150086  0.04300172  0.04300172       0.005
   0.03225129  0.04300172  0.04300172       0.005
   0.04300172  0.04300172  0.04300172       0.005
   0.05375215  0.04300172  0.04300172       0.005
   0.06450258  0.04300172  0.04300172       0.002
   0.00000000  0.05375215  0.04300172       0.005
   0.01075043  0.05375215  0.04300172       0.009
   0.02150086  0.05375215  0.04300172       0.009
   0.03225129  0.05375215  0.04300172       0.009
   0.04300172  0.05375215  0.04300172       0.009
   0.05375215  0.05375215  0.04300172       0.009
   0.06450258  0.05375215  0.04300172       0.005
   0.00000000  0.06450258  0.04300172       0.002
   0.01075043  0.06450258  0.04300172       0.005
   0.02150086  0.06450258  0.04300172       0.005
   0.03225129  0.06450258  0.04300172       0.005
   0.04300172  0.06450258  0.04300172       0.005
   0.05375215  0.06450258  0.04300172       0.005
   0.06450258  0.06450258  0.04300172       0.002
   0.00000000  0.05375215  0.05375215       0.002
   0.01075043  0.05375215  0.05375215       0.005
   0.02150086  0.05375215  0.05375215       0.005
   0.03225129  0.05375215  0.05375215       0.005
   0.04300172  0.05375215  0.05375215       0.005
   0.05375215  0.05375215  0.05375215       0.005
   0.06450258  0.05375215  0.05375215       0.002
   0.00000000  0.06450258  0.05375215       0.002
   0.01075043  0.06450258  0.05375215       0.005
   0.02150086  0.06450258  0.05375215       0.005
   0.03225129  0.06450258  0.05375215       0.005
   0.04300172  0.06450258  0.05375215       0.005
   0.05375215  0.06450258  0.05375215       0.005
   0.06450258  0.06450258  0.05375215       0.002
   0.00000000  0.06450258  0.06450258       0.001
   0.01075043  0.06450258  0.06450258       0.001
   0.02150086  0.06450258  0.06450258       0.001
   0.03225129  0.06450258  0.06450258       0.001
   0.04300172  0.06450258  0.06450258       0.001
   0.05375215  0.06450258  0.06450258       0.001
   0.06450258  0.06450258  0.06450258       0.001
 
 k-points in reciprocal lattice and weights: Automatic mesh                          
   0.00000000  0.00000000  0.00000000       0.001
   0.08333333  0.00000000  0.00000000       0.001
   0.16666667  0.00000000  0.00000000       0.001
   0.25000000  0.00000000  0.00000000       0.001
   0.33333333  0.00000000  0.00000000       0.001
   0.41666667  0.00000000  0.00000000       0.001
   0.50000000  0.00000000  0.00000000       0.001
   0.00000000  0.08333333  0.00000000       0.002
   0.08333333  0.08333333  0.00000000       0.005
   0.16666667  0.08333333  0.00000000       0.005
   0.25000000  0.08333333  0.00000000       0.005
   0.33333333  0.08333333  0.00000000       0.005
   0.41666667  0.08333333  0.00000000       0.005
   0.50000000  0.08333333  0.00000000       0.002
   0.00000000  0.16666667  0.00000000       0.002
   0.08333333  0.16666667  0.00000000       0.005
   0.16666667  0.16666667  0.00000000       0.005
   0.25000000  0.16666667  0.00000000       0.005
   0.33333333  0.16666667  0.00000000       0.005
   0.41666667  0.16666667  0.00000000       0.005
   0.50000000  0.16666667  0.00000000       0.002
   0.00000000  0.25000000  0.00000000       0.002
   0.08333333  0.25000000  0.00000000       0.005
   0.16666667  0.25000000  0.00000000       0.005
   0.25000000  0.25000000  0.00000000       0.005
   0.33333333  0.25000000  0.00000000       0.005
   0.41666667  0.25000000  0.00000000       0.005
   0.50000000  0.25000000  0.00000000       0.002
   0.00000000  0.33333333  0.00000000       0.002
   0.08333333  0.33333333  0.00000000       0.005
   0.16666667  0.33333333  0.00000000       0.005
   0.25000000  0.33333333  0.00000000       0.005
   0.33333333  0.33333333  0.00000000       0.005
   0.41666667  0.33333333  0.00000000       0.005
   0.50000000  0.33333333  0.00000000       0.002
   0.00000000  0.41666667  0.00000000       0.002
   0.08333333  0.41666667  0.00000000       0.005
   0.16666667  0.41666667  0.00000000       0.005
   0.25000000  0.41666667  0.00000000       0.005
   0.33333333  0.41666667  0.00000000       0.005
   0.41666667  0.41666667  0.00000000       0.005
   0.50000000  0.41666667  0.00000000       0.002
   0.00000000  0.50000000  0.00000000       0.001
   0.08333333  0.50000000  0.00000000       0.002
   0.16666667  0.50000000  0.00000000       0.002
   0.25000000  0.50000000  0.00000000       0.002
   0.33333333  0.50000000  0.00000000       0.002
   0.41666667  0.50000000  0.00000000       0.002
   0.50000000  0.50000000  0.00000000       0.001
   0.00000000  0.08333333  0.08333333       0.002
   0.08333333  0.08333333  0.08333333       0.005
   0.16666667  0.08333333  0.08333333       0.005
   0.25000000  0.08333333  0.08333333       0.005
   0.33333333  0.08333333  0.08333333       0.005
   0.41666667  0.08333333  0.08333333       0.005
   0.50000000  0.08333333  0.08333333       0.002
   0.00000000  0.16666667  0.08333333       0.005
   0.08333333  0.16666667  0.08333333       0.009
   0.16666667  0.16666667  0.08333333       0.009
   0.25000000  0.16666667  0.08333333       0.009
   0.33333333  0.16666667  0.08333333       0.009
   0.41666667  0.16666667  0.08333333       0.009
   0.50000000  0.16666667  0.08333333       0.005
   0.00000000  0.25000000  0.08333333       0.005
   0.08333333  0.25000000  0.08333333       0.009
   0.16666667  0.25000000  0.08333333       0.009
   0.25000000  0.25000000  0.08333333       0.009
   0.33333333  0.25000000  0.08333333       0.009
   0.41666667  0.25000000  0.08333333       0.009
   0.50000000  0.25000000  0.08333333       0.005
   0.00000000  0.33333333  0.08333333       0.005
   0.08333333  0.33333333  0.08333333       0.009
   0.16666667  0.33333333  0.08333333       0.009
   0.25000000  0.33333333  0.08333333       0.009
   0.33333333  0.33333333  0.08333333       0.009
   0.41666667  0.33333333  0.08333333       0.009
   0.50000000  0.33333333  0.08333333       0.005
   0.00000000  0.41666667  0.08333333       0.005
   0.08333333  0.41666667  0.08333333       0.009
   0.16666667  0.41666667  0.08333333       0.009
   0.25000000  0.41666667  0.08333333       0.009
   0.33333333  0.41666667  0.08333333       0.009
   0.41666667  0.41666667  0.08333333       0.009
   0.50000000  0.41666667  0.08333333       0.005
   0.00000000  0.50000000  0.08333333       0.002
   0.08333333  0.50000000  0.08333333       0.005
   0.16666667  0.50000000  0.08333333       0.005
   0.25000000  0.50000000  0.08333333       0.005
   0.33333333  0.50000000  0.08333333       0.005
   0.41666667  0.50000000  0.08333333       0.005
   0.50000000  0.50000000  0.08333333       0.002
   0.00000000  0.16666667  0.16666667       0.002
   0.08333333  0.16666667  0.16666667       0.005
   0.16666667  0.16666667  0.16666667       0.005
   0.25000000  0.16666667  0.16666667       0.005
   0.33333333  0.16666667  0.16666667       0.005
   0.41666667  0.16666667  0.16666667       0.005
   0.50000000  0.16666667  0.16666667       0.002
   0.00000000  0.25000000  0.16666667       0.005
   0.08333333  0.25000000  0.16666667       0.009
   0.16666667  0.25000000  0.16666667       0.009
   0.25000000  0.25000000  0.16666667       0.009
   0.33333333  0.25000000  0.16666667       0.009
   0.41666667  0.25000000  0.16666667       0.009
   0.50000000  0.25000000  0.16666667       0.005
   0.00000000  0.33333333  0.16666667       0.005
   0.08333333  0.33333333  0.16666667       0.009
   0.16666667  0.33333333  0.16666667       0.009
   0.25000000  0.33333333  0.16666667       0.009
   0.33333333  0.33333333  0.16666667       0.009
   0.41666667  0.33333333  0.16666667       0.009
   0.50000000  0.33333333  0.16666667       0.005
   0.00000000  0.41666667  0.16666667       0.005
   0.08333333  0.41666667  0.16666667       0.009
   0.16666667  0.41666667  0.16666667       0.009
   0.25000000  0.41666667  0.16666667       0.009
   0.33333333  0.41666667  0.16666667       0.009
   0.41666667  0.41666667  0.16666667       0.009
   0.50000000  0.41666667  0.16666667       0.005
   0.00000000  0.50000000  0.16666667       0.002
   0.08333333  0.50000000  0.16666667       0.005
   0.16666667  0.50000000  0.16666667       0.005
   0.25000000  0.50000000  0.16666667       0.005
   0.33333333  0.50000000  0.16666667       0.005
   0.41666667  0.50000000  0.16666667       0.005
   0.50000000  0.50000000  0.16666667       0.002
   0.00000000  0.25000000  0.25000000       0.002
   0.08333333  0.25000000  0.25000000       0.005
   0.16666667  0.25000000  0.25000000       0.005
   0.25000000  0.25000000  0.25000000       0.005
   0.33333333  0.25000000  0.25000000       0.005
   0.41666667  0.25000000  0.25000000       0.005
   0.50000000  0.25000000  0.25000000       0.002
   0.00000000  0.33333333  0.25000000       0.005
   0.08333333  0.33333333  0.25000000       0.009
   0.16666667  0.33333333  0.25000000       0.009
   0.25000000  0.33333333  0.25000000       0.009
   0.33333333  0.33333333  0.25000000       0.009
   0.41666667  0.33333333  0.25000000       0.009
   0.50000000  0.33333333  0.25000000       0.005
   0.00000000  0.41666667  0.25000000       0.005
   0.08333333  0.41666667  0.25000000       0.009
   0.16666667  0.41666667  0.25000000       0.009
   0.25000000  0.41666667  0.25000000       0.009
   0.33333333  0.41666667  0.25000000       0.009
   0.41666667  0.41666667  0.25000000       0.009
   0.50000000  0.41666667  0.25000000       0.005
   0.00000000  0.50000000  0.25000000       0.002
   0.08333333  0.50000000  0.25000000       0.005
   0.16666667  0.50000000  0.25000000       0.005
   0.25000000  0.50000000  0.25000000       0.005
   0.33333333  0.50000000  0.25000000       0.005
   0.41666667  0.50000000  0.25000000       0.005
   0.50000000  0.50000000  0.25000000       0.002
   0.00000000  0.33333333  0.33333333       0.002
   0.08333333  0.33333333  0.33333333       0.005
   0.16666667  0.33333333  0.33333333       0.005
   0.25000000  0.33333333  0.33333333       0.005
   0.33333333  0.33333333  0.33333333       0.005
   0.41666667  0.33333333  0.33333333       0.005
   0.50000000  0.33333333  0.33333333       0.002
   0.00000000  0.41666667  0.33333333       0.005
   0.08333333  0.41666667  0.33333333       0.009
   0.16666667  0.41666667  0.33333333       0.009
   0.25000000  0.41666667  0.33333333       0.009
   0.33333333  0.41666667  0.33333333       0.009
   0.41666667  0.41666667  0.33333333       0.009
   0.50000000  0.41666667  0.33333333       0.005
   0.00000000  0.50000000  0.33333333       0.002
   0.08333333  0.50000000  0.33333333       0.005
   0.16666667  0.50000000  0.33333333       0.005
   0.25000000  0.50000000  0.33333333       0.005
   0.33333333  0.50000000  0.33333333       0.005
   0.41666667  0.50000000  0.33333333       0.005
   0.50000000  0.50000000  0.33333333       0.002
   0.00000000  0.41666667  0.41666667       0.002
   0.08333333  0.41666667  0.41666667       0.005
   0.16666667  0.41666667  0.41666667       0.005
   0.25000000  0.41666667  0.41666667       0.005
   0.33333333  0.41666667  0.41666667       0.005
   0.41666667  0.41666667  0.41666667       0.005
   0.50000000  0.41666667  0.41666667       0.002
   0.00000000  0.50000000  0.41666667       0.002
   0.08333333  0.50000000  0.41666667       0.005
   0.16666667  0.50000000  0.41666667       0.005
   0.25000000  0.50000000  0.41666667       0.005
   0.33333333  0.50000000  0.41666667       0.005
   0.41666667  0.50000000  0.41666667       0.005
   0.50000000  0.50000000  0.41666667       0.002
   0.00000000  0.50000000  0.50000000       0.001
   0.08333333  0.50000000  0.50000000       0.001
   0.16666667  0.50000000  0.50000000       0.001
   0.25000000  0.50000000  0.50000000       0.001
   0.33333333  0.50000000  0.50000000       0.001
   0.41666667  0.50000000  0.50000000       0.001
   0.50000000  0.50000000  0.50000000       0.001
 
 position of ions in fractional coordinates (direct lattice) 
   0.25129005  0.25000000  0.00000000
   0.75000000  0.25000000  0.00000000
   0.25000000  0.75000000  0.00000000
   0.75000000  0.75000000  0.00000000
   0.25000000  0.25000000  0.50000000
   0.75000000  0.25000000  0.50000000
   0.25000000  0.75000000  0.50000000
   0.75000000  0.75000000  0.50000000
   0.25000000  0.00000000  0.25000000
   0.75000000  0.00000000  0.25000000
   0.25000000  0.50000000  0.25000000
   0.75000000  0.50000000  0.25000000
   0.25000000  0.00000000  0.75000000
   0.75000000  0.00000000  0.75000000
   0.25000000  0.50000000  0.75000000
   0.75000000  0.50000000  0.75000000
   0.00000000  0.25000000  0.25000000
   0.50000000  0.25000000  0.25000000
   0.00000000  0.75000000  0.25000000
   0.50000000  0.75000000  0.25000000
   0.00000000  0.25000000  0.75000000
   0.50000000  0.25000000  0.75000000
   0.00000000  0.75000000  0.75000000
   0.50000000  0.75000000  0.75000000
   0.00000000  0.00000000  0.00000000
   0.50000000  0.00000000  0.00000000
   0.00000000  0.50000000  0.00000000
   0.50000000  0.50000000  0.00000000
   0.00000000  0.00000000  0.50000000
   0.50000000  0.00000000  0.50000000
   0.00000000  0.50000000  0.50000000
   0.50000000  0.50000000  0.50000000
 
 position of ions in cartesian coordinates  (Angst):
   1.94790706  1.93790706  0.00000000
   5.81372117  1.93790706  0.00000000
   1.93790706  5.81372117  0.00000000
   5.81372117  5.81372117  0.00000000
   1.93790706  1.93790706  3.87581411
   5.81372117  1.93790706  3.87581411
   1.93790706  5.81372117  3.87581411
   5.81372117  5.81372117  3.87581411
   1.93790706  0.00000000  1.93790706
   5.81372117  0.00000000  1.93790706
   1.93790706  3.87581411  1.93790706
   5.81372117  3.87581411  1.93790706
   1.93790706  0.00000000  5.81372117
   5.81372117  0.00000000  5.81372117
   1.93790706  3.87581411  5.81372117
   5.81372117  3.87581411  5.81372117
   0.00000000  1.93790706  1.93790706
   3.87581411  1.93790706  1.93790706
   0.00000000  5.81372117  1.93790706
   3.87581411  5.81372117  1.93790706
   0.00000000  1.93790706  5.81372117
   3.87581411  1.93790706  5.81372117
   0.00000000  5.81372117  5.81372117
   3.87581411  5.81372117  5.81372117
   0.00000000  0.00000000  0.00000000
   3.87581411  0.00000000  0.00000000
   0.00000000  3.87581411  0.00000000
   3.87581411  3.87581411  0.00000000
   0.00000000  0.00000000  3.87581411
   3.87581411  0.00000000  3.87581411
   0.00000000  3.87581411  3.87581411
   3.87581411  3.87581411  3.87581411
 


--------------------------------------------------------------------------------------------------------


 k-point  1 :  0.00000.00000.0000  plane waves:  11753
 k-point  2 :  0.08330.00000.0000  plane waves:  11813
 k-point  3 :  0.16670.00000.0000  plane waves:  11812
 k-point  4 :  0.25000.00000.0000  plane waves:  11804
 k-point  5 :  0.33330.00000.0000  plane waves:  11780
 k-point  6 :  0.41670.00000.0000  plane waves:  11816
 k-point  7 :  0.50000.00000.0000  plane waves:  11804
 k-point  8 :  0.00000.08330.0000  plane waves:  11813
 k-point  9 :  0.08330.08330.0000  plane waves:  11816
 k-point 10 :  0.16670.08330.0000  plane waves:  11819
 k-point 11 :  0.25000.08330.0000  plane waves:  11805
 k-point 12 :  0.33330.08330.0000  plane waves:  11792
 k-point 13 :  0.41670.08330.0000  plane waves:  11823
 k-point 14 :  0.50000.08330.0000  plane waves:  11806
 k-point 15 :  0.00000.16670.0000  plane waves:  11812
 k-point 16 :  0.08330.16670.0000  plane waves:  11819
 k-point 17 :  0.16670.16670.0000  plane waves:  11826
 k-point 18 :  0.25000.16670.0000  plane waves:  11788
 k-point 19 :  0.33330.16670.0000  plane waves:  11809
 k-point 20 :  0.41670.16670.0000  plane waves:  11836
 k-point 21 :  0.50000.16670.0000  plane waves:  11846
 k-point 22 :  0.00000.25000.0000  plane waves:  11804
 k-point 23 :  0.08330.25000.0000  plane waves:  11805
 k-point 24 :  0.16670.25000.0000  plane waves:  11788
 k-point 25 :  0.25000.25000.0000  plane waves:  11860
 k-point 26 :  0.33330.25000.0000  plane waves:  11839
 k-point 27 :  0.41670.25000.0000  plane waves:  11854
 k-point 28 :  0.50000.25000.0000  plane waves:  11826
 k-point 29 :  0.00000.33330.0000  plane waves:  11780
 k-point 30 :  0.08330.33330.0000  plane waves:  11792
 k-point 31 :  0.16670.33330.0000  plane waves:  11809
 k-point 32 :  0.25000.33330.0000  plane waves:  11839
 k-point 33 :  0.33330.33330.0000  plane waves:  11852
 k-point 34 :  0.41670.33330.0000  plane waves:  11839
 k-point 35 :  0.50000.33330.0000  plane waves:  11842
 k-point 36 :  0.00000.41670.0000  plane waves:  11816
 k-point 37 :  0.08330.41670.0000  plane waves:  11823
 k-point 38 :  0.16670.41670.0000  plane waves:  11836
 k-point 39 :  0.25000.41670.0000  plane waves:  11854
 k-point 40 :  0.33330.41670.0000  plane waves:  11839
 k-point 41 :  0.41670.41670.0000  plane waves:  11830
 k-point 42 :  0.50000.41670.0000  plane waves:  11818
 k-point 43 :  0.00000.50000.0000  plane waves:  11804
 k-point 44 :  0.08330.50000.0000  plane waves:  11806
 k-point 45 :  0.16670.50000.0000  plane waves:  11846
 k-point 46 :  0.25000.50000.0000  plane waves:  11826
 k-point 47 :  0.33330.50000.0000  plane waves:  11842
 k-point 48 :  0.41670.50000.0000  plane waves:  11818
 k-point 49 :  0.50000.50000.0000  plane waves:  11872
 k-point 50 :  0.00000.08330.0833  plane waves:  11816
 k-point 51 :  0.08330.08330.0833  plane waves:  11822
 k-point 52 :  0.16670.08330.0833  plane waves:  11818
 k-point 53 :  0.25000.08330.0833  plane waves:  11798
 k-point 54 :  0.33330.08330.0833  plane waves:  11803
 k-point 55 :  0.41670.08330.0833  plane waves:  11822
 k-point 56 :  0.50000.08330.0833  plane waves:  11820
 k-point 57 :  0.00000.16670.0833  plane waves:  11819
 k-point 58 :  0.08330.16670.0833  plane waves:  11818
 k-point 59 :  0.16670.16670.0833  plane waves:  11804
 k-point 60 :  0.25000.16670.0833  plane waves:  11796
 k-point 61 :  0.33330.16670.0833  plane waves:  11815
 k-point 62 :  0.41670.16670.0833  plane waves:  11818
 k-point 63 :  0.50000.16670.0833  plane waves:  11832
 k-point 64 :  0.00000.25000.0833  plane waves:  11805
 k-point 65 :  0.08330.25000.0833  plane waves:  11798
 k-point 66 :  0.16670.25000.0833  plane waves:  11796
 k-point 67 :  0.25000.25000.0833  plane waves:  11817
 k-point 68 :  0.33330.25000.0833  plane waves:  11828
 k-point 69 :  0.41670.25000.0833  plane waves:  11830
 k-point 70 :  0.50000.25000.0833  plane waves:  11832
 k-point 71 :  0.00000.33330.0833  plane waves:  11792
 k-point 72 :  0.08330.33330.0833  plane waves:  11803
 k-point 73 :  0.16670.33330.0833  plane waves:  11815
 k-point 74 :  0.25000.33330.0833  plane waves:  11828
 k-point 75 :  0.33330.33330.0833  plane waves:  11841
 k-point 76 :  0.41670.33330.0833  plane waves:  11839
 k-point 77 :  0.50000.33330.0833  plane waves:  11838
 k-point 78 :  0.00000.41670.0833  plane waves:  11823
 k-point 79 :  0.08330.41670.0833  plane waves:  11822
 k-point 80 :  0.16670.41670.0833  plane waves:  11818
 k-point 81 :  0.25000.41670.0833  plane waves:  11830
 k-point 82 :  0.33330.41670.0833  plane waves:  11839
 k-point 83 :  0.41670.41670.0833  plane waves:  11837
 k-point 84 :  0.50000.41670.0833  plane waves:  11832
 k-point 85 :  0.00000.50000.0833  plane waves:  11806
 k-point 86 :  0.08330.50000.0833  plane waves:  11820
 k-point 87 :  0.16670.50000.0833  plane waves:  11832
 k-point 88 :  0.25000.50000.0833  plane waves:  11832
 k-point 89 :  0.33330.50000.0833  plane waves:  11838
 k-point 90 :  0.41670.50000.0833  plane waves:  11832
 k-point 91 :  0.50000.50000.0833  plane waves:  11844
 k-point 92 :  0.00000.16670.1667  plane waves:  11826
 k-point 93 :  0.08330.16670.1667  plane waves:  11804
 k-point 94 :  0.16670.16670.1667  plane waves:  11794
 k-point 95 :  0.25000.16670.1667  plane waves:  11792
 k-point 96 :  0.33330.16670.1667  plane waves:  11807
 k-point 97 :  0.41670.16670.1667  plane waves:  11839
 k-point 98 :  0.50000.16670.1667  plane waves:  11844
 k-point 99 :  0.00000.25000.1667  plane waves:  11788
 k-point ** :  0.08330.25000.1667  plane waves:  11796
 k-point ** :  0.16670.25000.1667  plane waves:  11792
 k-point ** :  0.25000.25000.1667  plane waves:  11818
 k-point ** :  0.33330.25000.1667  plane waves:  11828
 k-point ** :  0.41670.25000.1667  plane waves:  11829
 k-point ** :  0.50000.25000.1667  plane waves:  11834
 k-point ** :  0.00000.33330.1667  plane waves:  11809
 k-point ** :  0.08330.33330.1667  plane waves:  11815
 k-point ** :  0.16670.33330.1667  plane waves:  11807
 k-point ** :  0.25000.33330.1667  plane waves:  11828
 k-point ** :  0.33330.33330.1667  plane waves:  11846
 k-point ** :  0.41670.33330.1667  plane waves:  11844
 k-point ** :  0.50000.33330.1667  plane waves:  11852
 k-point ** :  0.00000.41670.1667  plane waves:  11836
 k-point ** :  0.08330.41670.1667  plane waves:  11818
 k-point ** :  0.16670.41670.1667  plane waves:  11839
 k-point ** :  0.25000.41670.1667  plane waves:  11829
 k-point ** :  0.33330.41670.1667  plane waves:  11844
 k-point ** :  0.41670.41670.1667  plane waves:  11845
 k-point ** :  0.50000.41670.1667  plane waves:  11838
 k-point ** :  0.00000.50000.1667  plane waves:  11846
 k-point ** :  0.08330.50000.1667  plane waves:  11832
 k-point ** :  0.16670.50000.1667  plane waves:  11844
 k-point ** :  0.25000.50000.1667  plane waves:  11834
 k-point ** :  0.33330.50000.1667  plane waves:  11852
 k-point ** :  0.41670.50000.1667  plane waves:  11838
 k-point ** :  0.50000.50000.1667  plane waves:  11824
 k-point ** :  0.00000.25000.2500  plane waves:  11860
 k-point ** :  0.08330.25000.2500  plane waves:  11817
 k-point ** :  0.16670.25000.2500  plane waves:  11818
 k-point ** :  0.25000.25000.2500  plane waves:  11845
 k-point ** :  0.33330.25000.2500  plane waves:  11842
 k-point ** :  0.41670.25000.2500  plane waves:  11829
 k-point ** :  0.50000.25000.2500  plane waves:  11808
 k-point ** :  0.00000.33330.2500  plane waves:  11839
 k-point ** :  0.08330.33330.2500  plane waves:  11828
 k-point ** :  0.16670.33330.2500  plane waves:  11828
 k-point ** :  0.25000.33330.2500  plane waves:  11842
 k-point ** :  0.33330.33330.2500  plane waves:  11831
 k-point ** :  0.41670.33330.2500  plane waves:  11827
 k-point ** :  0.50000.33330.2500  plane waves:  11826
 k-point ** :  0.00000.41670.2500  plane waves:  11854
 k-point ** :  0.08330.41670.2500  plane waves:  11830
 k-point ** :  0.16670.41670.2500  plane waves:  11829
 k-point ** :  0.25000.41670.2500  plane waves:  11829
 k-point ** :  0.33330.41670.2500  plane waves:  11827
 k-point ** :  0.41670.41670.2500  plane waves:  11818
 k-point ** :  0.50000.41670.2500  plane waves:  11838
 k-point ** :  0.00000.50000.2500  plane waves:  11826
 k-point ** :  0.08330.50000.2500  plane waves:  11832
 k-point ** :  0.16670.50000.2500  plane waves:  11834
 k-point ** :  0.25000.50000.2500  plane waves:  11808
 k-point ** :  0.33330.50000.2500  plane waves:  11826
 k-point ** :  0.41670.50000.2500  plane waves:  11838
 k-point ** :  0.50000.50000.2500  plane waves:  11832
 k-point ** :  0.00000.33330.3333  plane waves:  11852
 k-point ** :  0.08330.33330.3333  plane waves:  11841
 k-point ** :  0.16670.33330.3333  plane waves:  11846
 k-point ** :  0.25000.33330.3333  plane waves:  11831
 k-point ** :  0.33330.33330.3333  plane waves:  11824
 k-point ** :  0.41670.33330.3333  plane waves:  11830
 k-point ** :  0.50000.33330.3333  plane waves:  11820
 k-point ** :  0.00000.41670.3333  plane waves:  11839
 k-point ** :  0.08330.41670.3333  plane waves:  11839
 k-point ** :  0.16670.41670.3333  plane waves:  11844
 k-point ** :  0.25000.41670.3333  plane waves:  11827
 k-point ** :  0.33330.41670.3333  plane waves:  11830
 k-point ** :  0.41670.41670.3333  plane waves:  11821
 k-point ** :  0.50000.41670.3333  plane waves:  11828
 k-point ** :  0.00000.50000.3333  plane waves:  11842
 k-point ** :  0.08330.50000.3333  plane waves:  11838
 k-point ** :  0.16670.50000.3333  plane waves:  11852
 k-point ** :  0.25000.50000.3333  plane waves:  11826
 k-point ** :  0.33330.50000.3333  plane waves:  11820
 k-point ** :  0.41670.50000.3333  plane waves:  11828
 k-point ** :  0.50000.50000.3333  plane waves:  11824
 k-point ** :  0.00000.41670.4167  plane waves:  11830
 k-point ** :  0.08330.41670.4167  plane waves:  11837
 k-point ** :  0.16670.41670.4167  plane waves:  11845
 k-point ** :  0.25000.41670.4167  plane waves:  11818
 k-point ** :  0.33330.41670.4167  plane waves:  11821
 k-point ** :  0.41670.41670.4167  plane waves:  11818
 k-point ** :  0.50000.41670.4167  plane waves:  11792
 k-point ** :  0.00000.50000.4167  plane waves:  11818
 k-point ** :  0.08330.50000.4167  plane waves:  11832
 k-point ** :  0.16670.50000.4167  plane waves:  11838
 k-point ** :  0.25000.50000.4167  plane waves:  11838
 k-point ** :  0.33330.50000.4167  plane waves:  11828
 k-point ** :  0.41670.50000.4167  plane waves:  11792
 k-point ** :  0.50000.50000.4167  plane waves:  11804
 k-point ** :  0.00000.50000.5000  plane waves:  11872
 k-point ** :  0.08330.50000.5000  plane waves:  11844
 k-point ** :  0.16670.50000.5000  plane waves:  11824
 k-point ** :  0.25000.50000.5000  plane waves:  11832
 k-point ** :  0.33330.50000.5000  plane waves:  11824
 k-point ** :  0.41670.50000.5000  plane waves:  11804
 k-point ** :  0.50000.50000.5000  plane waves:  11752

 maximum and minimum number of plane-waves per node :  11872 11752

 maximum number of plane-waves:  11872
 maximal index in each direction: 
   IXMAX= 14   IYMAX= 14   IZMAX= 14
   IXMIN=-14   IYMIN=-14   IZMIN=-14

 NGX is ok and might be reduce to  58
 NGY is ok and might be reduce to  58
 NGZ is ok and might be reduce to  58

 parallel 3dFFT wavefunction:
    minimum data exchange during FFTs selected (reduces bandwidth)
 parallel 3dFFT charge:
    minimum data exchange during FFTs selected (reduces bandwidth)

 For storing wavefunctions 2521.50 MBYTES are necessary
 For predicting wavefunctions   30.68 MBYTES are necessary
Broyden mixing: mesh for mixing (old mesh)
   NGX = 29   NGY = 29   NGZ = 29
  (NGX  =120   NGY  =120   NGZ  =120)
 gives a total of  24389 points
 initial charge density was supplied:
 charge density of overlapping atoms calculated
 number of electron   96.0000000 magnetization 
 keeping initial charge density in first step


--------------------------------------------------------------------------------------------------------


 Maximum index for augmentation-charges         4392 (set IRDMAX)


--------------------------------------------------------------------------------------------------------


 First call to EWALD:  gamma=   0.229
 Maximum number of real-space cells 3x 3x 3
 Maximum number of reciprocal cells 3x 3x 3

    FEWALD:  VPU time    0.00: CPU time    0.00


----------------------------------------- Iteration    1(   1)  ---------------------------------------


    POTLOK:  VPU time    0.27: CPU time    0.27
    SETDIJ:  VPU time    0.01: CPU time    0.01
    EDDAV :  VPU time  150.95: CPU time  151.22
    DOS   :  VPU time    0.00: CPU time   -0.00
    ------------------------------------------
      LOOP:  VPU time  151.25: CPU time  151.52

 eigenvalue-minimisations  : 26656
 total energy-change (2. order) : 0.1442760E+03  (-0.3378847E+04)
 number of electron   96.0000000 magnetization 
 augmentation part    96.0000000 magnetization 

 Free energy of the ion-electron system (eV)
  ---------------------------------------------------
  alpha Z        PSCENC =        -7.38425772
  Ewald energy   TEWEN  =     -2452.91010324
  -1/2 Hartree   DENC   =        -2.22650109
  -V(xc)+E(xc)   XCENC  =      -832.28823291
  PAW double counting   =      1137.73615723     -115.16745734
  entropy T*S    EENTRO =        -0.00029641
  eigenvalues    EBANDS =       703.28758430
  atomic energy  EATOM  =      1713.22913220
  ---------------------------------------------------
  free energy    TOTEN  =       144.27602501 eV

  energy without entropy =      144.27632142  energy(sigma->0) =      144.27617321


--------------------------------------------------------------------------------------------------------




----------------------------------------- Iteration    1(   2)  ---------------------------------------


    EDDAV :  VPU time  169.99: CPU time  170.29
    DOS   :  VPU time    0.00: CPU time   -0.00
    ------------------------------------------
      LOOP:  VPU time  170.01: CPU time  170.31

 eigenvalue-minimisations  : 31352
 total energy-change (2. order) :-0.2482299E+03  (-0.2320766E+03)
 number of electron   96.0000000 magnetization 
 augmentation part    96.0000000 magnetization 

 Free energy of the ion-electron system (eV)
  ---------------------------------------------------
  alpha Z        PSCENC =        -7.38425772
  Ewald energy   TEWEN  =     -2452.91010324
  -1/2 Hartree   DENC   =        -2.22650109
  -V(xc)+E(xc)   XCENC  =      -832.28823291
  PAW double counting   =      1137.73615723     -115.16745734
  entropy T*S    EENTRO =        -0.00037398
  eigenvalues    EBANDS =       455.05774062
  atomic energy  EATOM  =      1713.22913220
  ---------------------------------------------------
  free energy    TOTEN  =      -103.95389624 eV

  energy without entropy =     -103.95352226  energy(sigma->0) =     -103.95370925


--------------------------------------------------------------------------------------------------------




----------------------------------------- Iteration    1(   3)  ---------------------------------------


    EDDAV :  VPU time  175.60: CPU time  175.91
    DOS   :  VPU time    0.00: CPU time   -0.00
    ------------------------------------------
      LOOP:  VPU time  175.62: CPU time  175.93

 eigenvalue-minimisations  : 32828
 total energy-change (2. order) :-0.1422915E+02  (-0.1349864E+02)
 number of electron   96.0000000 magnetization 
 augmentation part    96.0000000 magnetization 

 Free energy of the ion-electron system (eV)
  ---------------------------------------------------
  alpha Z        PSCENC =        -7.38425772
  Ewald energy   TEWEN  =     -2452.91010324
  -1/2 Hartree   DENC   =        -2.22650109
  -V(xc)+E(xc)   XCENC  =      -832.28823291
  PAW double counting   =      1137.73615723     -115.16745734
  entropy T*S    EENTRO =        -0.00050992
  eigenvalues    EBANDS =       440.82872756
  atomic energy  EATOM  =      1713.22913220
  ---------------------------------------------------
  free energy    TOTEN  =      -118.18304525 eV

  energy without entropy =     -118.18253533  energy(sigma->0) =     -118.18279029


--------------------------------------------------------------------------------------------------------




----------------------------------------- Iteration    1(   4)  ---------------------------------------


    EDDAV :  VPU time  169.66: CPU time  169.94
    DOS   :  VPU time    0.00: CPU time   -0.00
    ------------------------------------------
      LOOP:  VPU time  169.68: CPU time  169.96

 eigenvalue-minimisations  : 31312
 total energy-change (2. order) :-0.2906735E+00  (-0.2877171E+00)
 number of electron   96.0000000 magnetization 
 augmentation part    96.0000000 magnetization 

 Free energy of the ion-electron system (eV)
  ---------------------------------------------------
  alpha Z        PSCENC =        -7.38425772
  Ewald energy   TEWEN  =     -2452.91010324
  -1/2 Hartree   DENC   =        -2.22650109
  -V(xc)+E(xc)   XCENC  =      -832.28823291
  PAW double counting   =      1137.73615723     -115.16745734
  entropy T*S    EENTRO =        -0.00049938
  eigenvalues    EBANDS =       440.53804351
  atomic energy  EATOM  =      1713.22913220
  ---------------------------------------------------
  free energy    TOTEN  =      -118.47371875 eV

  energy without entropy =     -118.47321938  energy(sigma->0) =     -118.47346906


--------------------------------------------------------------------------------------------------------




----------------------------------------- Iteration    1(   5)  ---------------------------------------


    EDDAV :  VPU time  170.63: CPU time  170.91
    DOS   :  VPU time    0.00: CPU time   -0.00
    CHARGE:  VPU time    9.84: CPU time    9.85
    MIXING:  VPU time    0.01: CPU time    0.01
    ------------------------------------------
      LOOP:  VPU time  180.49: CPU time  180.79

 eigenvalue-minimisations  : 31484
 total energy-change (2. order) :-0.3878002E-02  (-0.3872263E-02)
 number of electron   95.9999999 magnetization 
 augmentation part    -1.1122287 magnetization 

 Broyden mixing:
  rms(total) = 0.56193E+00    rms(broyden)= 0.56193E+00
  rms(prec ) = 0.80528E+00
  weight for this iteration     100.00

 Free energy of the ion-electron system (eV)
  ---------------------------------------------------
  alpha Z        PSCENC =        -7.38425772
  Ewald energy   TEWEN  =     -2452.91010324
  -1/2 Hartree   DENC   =        -2.22650109
  -V(xc)+E(xc)   XCENC  =      -832.28823291
  PAW double counting   =      1137.73615723     -115.16745734
  entropy T*S    EENTRO =        -0.00049886
  eigenvalues    EBANDS =       440.53416499
  atomic energy  EATOM  =      1713.22913220
  ---------------------------------------------------
  free energy    TOTEN  =      -118.47759676 eV

  energy without entropy =     -118.47709790  energy(sigma->0) =     -118.47734733


--------------------------------------------------------------------------------------------------------




----------------------------------------- Iteration    1(   6)  ---------------------------------------


    POTLOK:  VPU time    0.27: CPU time    0.27
    SETDIJ:  VPU time    0.01: CPU time    0.01
    EDDAV :  VPU time  167.39: CPU time  167.73
    DOS   :  VPU time    0.00: CPU time   -0.00
    CHARGE:  VPU time    9.91: CPU time    9.93
    MIXING:  VPU time    0.01: CPU time    0.01
    ------------------------------------------
      LOOP:  VPU time  177.61: CPU time  177.98

 eigenvalue-minimisations  : 30732
 total energy-change (2. order) : 0.4767851E+00  (-0.3403770E-02)
 number of electron   95.9999999 magnetization 
 augmentation part    -1.1257901 magnetization 

 Broyden mixing:
  rms(total) = 0.34957E+00    rms(broyden)= 0.34957E+00
  rms(prec ) = 0.50309E+00
  weight for this iteration     100.00

 eigenvalues of (default mixing * dielectric matrix)
  average eigenvalue GAMMA=   2.6377
  2.6377

 Free energy of the ion-electron system (eV)
  ---------------------------------------------------
  alpha Z        PSCENC =        -7.38425772
  Ewald energy   TEWEN  =     -2452.91010324
  -1/2 Hartree   DENC   =        -2.43753349
  -V(xc)+E(xc)   XCENC  =      -830.82730532
  PAW double counting   =      1145.12109048     -122.96354515
  entropy T*S    EENTRO =        -0.00049904
  eigenvalues    EBANDS =       440.17220963
  atomic energy  EATOM  =      1713.22913220
  ---------------------------------------------------
  free energy    TOTEN  =      -118.00081165 eV

  energy without entropy =     -118.00031261  energy(sigma->0) =     -118.00056213


--------------------------------------------------------------------------------------------------------




----------------------------------------- Iteration    1(   7)  ---------------------------------------


    POTLOK:  VPU time    0.27: CPU time    0.27
    SETDIJ:  VPU time    0.01: CPU time    0.01
    EDDAV :  VPU time  161.49: CPU time  161.76
    DOS   :  VPU time    0.00: CPU time   -0.00
    CHARGE:  VPU time    9.88: CPU time    9.90
    MIXING:  VPU time    0.01: CPU time    0.01
    ------------------------------------------
      LOOP:  VPU time  171.68: CPU time  171.96

 eigenvalue-minimisations  : 29172
 total energy-change (2. order) : 0.3451907E+00  (-0.1064312E-01)
 number of electron   95.9999999 magnetization 
 augmentation part    -1.1547556 magnetization 

 Broyden mixing:
  rms(total) = 0.13468E-01    rms(broyden)= 0.13468E-01
  rms(prec ) = 0.15795E-01
  weight for this iteration     100.00

 eigenvalues of (default mixing * dielectric matrix)
  average eigenvalue GAMMA=   2.4714
  2.4714  2.4714

 Free energy of the ion-electron system (eV)
  ---------------------------------------------------
  alpha Z        PSCENC =        -7.38425772
  Ewald energy   TEWEN  =     -2452.91010324
  -1/2 Hartree   DENC   =        -4.23036756
  -V(xc)+E(xc)   XCENC  =      -827.96412089
  PAW double counting   =      1156.31836847     -134.91287412
  entropy T*S    EENTRO =        -0.00058664
  eigenvalues    EBANDS =       440.19918852
  atomic energy  EATOM  =      1713.22913220
  ---------------------------------------------------
  free energy    TOTEN  =      -117.65562099 eV

  energy without entropy =     -117.65503434  energy(sigma->0) =     -117.65532766


[...]
     64      11.5389      0.00000
     65      12.8882      0.00000
     66      12.8886      0.00000
     67      12.8887      0.00000
     68      12.8895      0.00000

 k-point 194 :       0.3333    0.5000    0.5000
  band No.  band energies     occupation 
      1      -1.1615      2.00000
      2      -1.1614      2.00000
      3      -1.1614      2.00000
      4      -1.1614      2.00000
      5      -0.3532      2.00000
      6      -0.3532      2.00000
      7      -0.3532      2.00000
      8      -0.3532      2.00000
      9       2.8228      2.00000
     10       2.8228      2.00000
     11       2.8228      2.00000
     12       2.8228      2.00000
     13       3.5986      2.00000
     14       3.5986      2.00000
     15       3.5987      2.00000
     16       3.5987      2.00000
     17       3.5987      2.00000
     18       3.5987      2.00000
     19       3.5987      2.00000
     20       3.5987      2.00000
     21       4.3670      2.00000
     22       4.3670      2.00000
     23       4.3671      2.00000
     24       4.3672      2.00000
     25       4.3672      2.00000
     26       4.3672      2.00000
     27       4.3673      2.00000
     28       4.3673      2.00000
     29       5.1195      2.00000
     30       5.1195      2.00000
     31       5.1195      2.00000
     32       5.1196      2.00000
     33       7.4966      2.00000
     34       7.4966      2.00000
     35       7.4972      2.00000
     36       7.4972      2.00000
     37       7.4972      2.00000
     38       7.4972      2.00000
     39       7.4978      2.00000
     40       7.4978      2.00000
     41       8.2224      2.00000
     42       8.2224      2.00000
     43       8.2224      2.00000
     44       8.2224      2.00000
     45       8.9998      2.00000
     46       8.9998      2.00000
     47       8.9998      2.00000
     48       8.9998      2.00000
     49       9.7030      0.00000
     50       9.7030      0.00000
     51       9.7037      0.00000
     52       9.7037      0.00000
     53       9.7037      0.00000
     54       9.7037      0.00000
     55       9.7043      0.00000
     56       9.7043      0.00000
     57      11.5975      0.00000
     58      11.5975      0.00000
     59      11.5975      0.00000
     60      11.5975      0.00000
     61      12.0215      0.00000
     62      12.0215      0.00000
     63      12.0216      0.00000
     64      12.0216      0.00000
     65      13.0252      0.00000
     66      13.0260      0.00000
     67      13.0261      0.00000
     68      13.0266      0.00000

 k-point 195 :       0.4167    0.5000    0.5000
  band No.  band energies     occupation 
      1      -1.0096      2.00000
      2      -1.0095      2.00000
      3      -1.0095      2.00000
      4      -1.0095      2.00000
      5      -0.6052      2.00000
      6      -0.6052      2.00000
      7      -0.6052      2.00000
      8      -0.6052      2.00000
      9       3.3578      2.00000
     10       3.3579      2.00000
     11       3.3579      2.00000
     12       3.3579      2.00000
     13       3.7438      2.00000
     14       3.7438      2.00000
     15       3.7438      2.00000
     16       3.7438      2.00000
     17       3.7438      2.00000
     18       3.7438      2.00000
     19       3.7439      2.00000
     20       3.7439      2.00000
     21       4.1286      2.00000
     22       4.1286      2.00000
     23       4.1288      2.00000
     24       4.1288      2.00000
     25       4.1288      2.00000
     26       4.1288      2.00000
     27       4.1289      2.00000
     28       4.1289      2.00000
     29       4.5091      2.00000
     30       4.5091      2.00000
     31       4.5091      2.00000
     32       4.5092      2.00000
     33       8.0094      2.00000
     34       8.0094      2.00000
     35       8.0099      2.00000
     36       8.0099      2.00000
     37       8.0099      2.00000
     38       8.0100      2.00000
     39       8.0105      2.00000
     40       8.0105      2.00000
     41       8.3722      2.00000
     42       8.3722      2.00000
     43       8.3722      2.00000
     44       8.3722      2.00000
     45       8.7600      2.00000
     46       8.7600      2.00000
     47       8.7600      2.00000
     48       8.7600      2.00000
     49       9.1165      2.00000
     50       9.1165      2.00000
     51       9.1171      2.00000
     52       9.1171      2.00000
     53       9.1171      2.00000
     54       9.1171      2.00000
     55       9.1177      2.00000
     56       9.1177      2.00000
     57      12.4567      0.00000
     58      12.4568      0.00000
     59      12.4568      0.00000
     60      12.4568      0.00000
     61      12.5325      0.00000
     62      12.5325      0.00000
     63      12.5325      0.00000
     64      12.5326      0.00000
     65      13.1778      0.00000
     66      13.1781      0.00000
     67      13.1789      0.00000
     68      13.1791      0.00000

 k-point 196 :       0.5000    0.5000    0.5000
  band No.  band energies     occupation 
      1      -0.8292      2.00000
      2      -0.8245      2.00000
      3      -0.8245      2.00000
      4      -0.8240      2.00000
      5      -0.8240      2.00000
      6      -0.8235      2.00000
      7      -0.8235      2.00000
      8      -0.8189      2.00000
      9       3.9102      2.00000
     10       3.9162      2.00000
     11       3.9162      2.00000
     12       3.9197      2.00000
     13       3.9201      2.00000
     14       3.9202      2.00000
     15       3.9206      2.00000
     16       3.9206      2.00000
     17       3.9207      2.00000
     18       3.9207      2.00000
     19       3.9207      2.00000
     20       3.9207      2.00000
     21       3.9207      2.00000
     22       3.9207      2.00000
     23       3.9207      2.00000
     24       3.9207      2.00000
     25       3.9208      2.00000
     26       3.9208      2.00000
     27       3.9212      2.00000
     28       3.9213      2.00000
     29       3.9217      2.00000
     30       3.9252      2.00000
     31       3.9252      2.00000
     32       3.9312      2.00000
     33       8.5444      2.00000
     34       8.5444      2.00000
     35       8.5469      2.00000
     36       8.5483      2.00000
     37       8.5501      2.00000
     38       8.5505      2.00000
     39       8.5507      2.00000
     40       8.5507      2.00000
     41       8.5509      2.00000
     42       8.5509      2.00000
     43       8.5509      2.00000
     44       8.5510      2.00000
     45       8.5510      2.00000
     46       8.5511      2.00000
     47       8.5511      2.00000
     48       8.5511      2.00000
     49       8.5513      2.00000
     50       8.5513      2.00000
     51       8.5514      2.00000
     52       8.5519      2.00000
     53       8.5537      2.00000
     54       8.5551      2.00000
     55       8.5576      2.00000
     56       8.5576      2.00000
     57      13.0686      0.00000
     58      13.0693      0.00000
     59      13.0693      0.00000
     60      13.0695      0.00000
     61      13.0714      0.00000
     62      13.0717      0.00000
     63      13.0717      0.00000
     64      13.0724      0.00000
     65      13.3501      0.00000
     66      13.3512      0.00000
     67      13.3516      0.00000
     68      13.3526      0.00000


--------------------------------------------------------------------------------------------------------


 soft charge-density along one line, spin component           1
         0         1         2         3         4         5         6         7         8         9
 total charge-density along one line
 
 pseudopotential strength for first ion, spin component:           1
  8.402  -0.008  -0.000  -0.000  -0.000  -0.000  -0.000  -0.000
 -0.008   0.000  -0.000  -0.000  -0.000   0.000   0.000   0.000
 -0.000  -0.000   1.995  -0.000  -0.000  -0.031   0.000   0.000
 -0.000  -0.000  -0.000   1.995   0.000   0.000  -0.031  -0.000
 -0.000  -0.000  -0.000   0.000   1.995   0.000  -0.000  -0.031
 -0.000   0.000  -0.031   0.000   0.000  -0.011   0.000   0.000
 -0.000   0.000   0.000  -0.031  -0.000   0.000  -0.011  -0.000
 -0.000   0.000   0.000  -0.000  -0.031   0.000  -0.000  -0.011
 total augmentation occupancy for first ion, spin component:           1
  1.293  -0.626  -0.000   0.000   0.003   0.000  -0.000  -0.002
 -0.626   0.633   0.000   0.000  -0.004   0.000  -0.000   0.002
 -0.000   0.000   0.836   0.002   0.006  -0.183  -0.001  -0.001
  0.000   0.000   0.002   0.842  -0.002  -0.001  -0.179  -0.001
  0.003  -0.004   0.006  -0.002   0.839  -0.001  -0.001  -0.181
  0.000   0.000  -0.183  -0.001  -0.001   0.046   0.000   0.000
 -0.000  -0.000  -0.001  -0.179  -0.001   0.000   0.045   0.000
 -0.002   0.002  -0.001  -0.001  -0.181   0.000   0.000   0.045


------------------------ aborting loop because EDIFF is reached ----------------------------------------




--------------------------------------------------------------------------------------------------------


    CHARGE:  VPU time    5.63: CPU time    5.64
    FORLOC:  VPU time    0.05: CPU time    0.05
    FORNL :  VPU time   42.97: CPU time   43.02
    STRESS:  VPU time   81.18: CPU time   81.29
    FORCOR:  VPU time    0.25: CPU time    0.25
    FORHAR:  VPU time    0.08: CPU time    0.08
    MIXING:  VPU time    0.01: CPU time    0.01


--------------------------------------------------------------------------------------------------------



  FREE ENERGIE OF THE ION-ELECTRON SYSTEM (eV)
  ---------------------------------------------------
  free  energy   TOTEN  =      -117.655883 eV

  energy  without entropy=     -117.655290  energy(sigma->0) =     -117.655586
 

  FORCE on cell =-STRESS in cart. coord.  units (eV/reduce length):
  Direction    X        Y        Z        XY       YZ       ZX
  --------------------------------------------------------------------------------------
  Alpha Z     -7.38     -7.38     -7.38
  Ewald     -817.64   -817.64   -817.64     -0.00     -0.00     -0.00
  Hartree      1.43      1.43      1.43     -0.00     -0.00     -0.00
  E(xc)     -285.69   -285.69   -285.69      0.00     -0.00      0.00
  Local       27.33     27.32     27.32     -0.00      0.00      0.00
  n-local    627.81    626.80    628.83     -1.88     -0.54      0.80
  augment    -30.80    -30.80    -30.80      0.00      0.00      0.00
  Kinetic    521.98    514.86    529.09      6.52     -0.03     -6.58
  -------------------------------------------------------------------------------------
  Total       37.03     37.03     37.03      0.00      0.00      0.00
  in kB      127.37    127.37    127.37      0.00      0.00      0.00
  external pressure =      127.37 kB  Pullay stress =        0.00 kB


 VOLUME and BASIS-vectors are now :
 -----------------------------------------------------------------------------
  energy-cutoff  :      500.00
  volume of cell :      465.78
      direct lattice vectors                 reciprocal lattice vectors
     7.751628230  0.000000000  0.000000000     0.129005155  0.000000000  0.000000000
     0.000000000  7.751628230  0.000000000     0.000000000  0.129005155  0.000000000
     0.000000000  0.000000000  7.751628230     0.000000000  0.000000000  0.129005155

  length of vectors
     7.751628230  7.751628230  7.751628230     0.129005155  0.129005155  0.129005155


 FORCES acting on ions
    electron-ion (+dipol)            ewald-force                    non-local-force                 convergence-correction
 -----------------------------------------------------------------------------------------------
   0.441E+00 -.826E-14 -.623E-08   -.361E+00 0.266E-14 -.342E-14   -.154E+00 -.288E-19 0.571E-19   -.371E-06 0.246E-14 -.183E-13
   -.950E-01 0.280E-12 -.112E-12   0.954E-01 -.355E-14 -.692E-15   0.220E-02 0.166E-19 0.926E-20   -.763E-06 0.368E-14 -.215E-13
   0.309E-01 -.444E-14 -.962E-13   -.302E-01 0.000E+00 0.108E-14   -.856E-03 0.352E-19 0.193E-19   -.113E-05 -.333E-14 -.171E-13
   -.238E-01 -.366E-12 -.383E-13   0.237E-01 -.355E-14 0.108E-14   0.782E-03 -.102E-20 -.119E-19   0.310E-06 -.440E-14 -.193E-13
   0.309E-01 0.569E-14 -.654E-13   -.302E-01 -.355E-14 0.900E-14   -.856E-03 -.264E-19 -.232E-19   -.112E-05 0.107E-14 0.188E-13
   -.238E-01 -.729E-13 0.632E-14   0.237E-01 -.355E-14 0.545E-14   0.782E-03 -.113E-19 0.276E-20   0.305E-06 0.139E-14 0.218E-13
   0.135E-01 -.164E-13 -.291E-13   -.125E-01 0.000E+00 0.323E-14   -.321E-03 -.324E-20 -.811E-20   -.244E-05 -.193E-14 0.175E-13
   -.127E-01 0.132E-12 0.324E-12   0.117E-01 -.355E-14 -.327E-15   0.382E-03 -.488E-19 -.355E-21   0.224E-05 -.212E-14 0.197E-13
   0.548E-01 -.265E-03 0.265E-03   -.570E-01 0.231E-03 -.231E-03   0.811E-03 0.688E-04 -.688E-04   -.119E-05 0.202E-06 -.202E-06
   -.344E-01 0.834E-04 -.834E-04   0.320E-01 -.692E-04 0.692E-04   0.196E-02 -.169E-04 0.169E-04   0.351E-06 0.138E-06 -.138E-06
   0.548E-01 0.265E-03 0.265E-03   -.570E-01 -.231E-03 -.231E-03   0.811E-03 -.688E-04 -.688E-04   -.119E-05 -.202E-06 -.202E-06
   -.344E-01 -.834E-04 -.834E-04   0.320E-01 0.692E-04 0.692E-04   0.196E-02 0.169E-04 0.169E-04   0.351E-06 -.138E-06 -.138E-06
   0.548E-01 -.265E-03 -.265E-03   -.570E-01 0.231E-03 0.231E-03   0.811E-03 0.688E-04 0.688E-04   -.119E-05 0.202E-06 0.202E-06
   -.344E-01 0.834E-04 0.834E-04   0.320E-01 -.692E-04 -.692E-04   0.196E-02 -.169E-04 -.169E-04   0.351E-06 0.138E-06 0.138E-06
   0.548E-01 0.265E-03 -.265E-03   -.570E-01 -.231E-03 0.231E-03   0.811E-03 -.688E-04 0.688E-04   -.119E-05 -.202E-06 0.202E-06
   -.344E-01 -.834E-04 0.834E-04   0.320E-01 0.692E-04 -.692E-04   0.196E-02 0.169E-04 -.169E-04   0.351E-06 -.138E-06 0.138E-06
   -.541E-01 0.118E-14 0.957E-01   0.461E-01 0.488E-14 -.873E-01   0.176E-01 0.158E-19 -.187E-01   0.518E-06 0.197E-14 0.227E-06
   -.539E-01 -.318E-12 -.966E-01   0.458E-01 0.178E-14 0.881E-01   0.179E-01 -.498E-22 0.192E-01   0.528E-06 0.139E-14 -.681E-06
   -.138E-02 -.110E-13 0.748E-02   0.154E-02 0.444E-14 -.723E-02   -.166E-03 -.687E-20 -.240E-03   0.204E-06 -.267E-14 0.706E-06
   -.123E-02 -.621E-13 -.748E-02   0.139E-02 0.355E-14 0.724E-02   -.158E-03 -.141E-19 0.236E-03   0.340E-06 -.219E-14 -.906E-06
   -.541E-01 -.299E-16 -.957E-01   0.461E-01 0.311E-14 0.873E-01   0.176E-01 -.966E-20 0.187E-01   0.518E-06 0.282E-14 -.227E-06
   -.539E-01 0.660E-13 0.966E-01   0.458E-01 0.355E-14 -.881E-01   0.179E-01 0.138E-19 -.192E-01   0.528E-06 0.260E-14 0.681E-06
   -.138E-02 -.139E-13 -.748E-02   0.154E-02 0.444E-14 0.723E-02   -.166E-03 -.113E-19 0.240E-03   0.204E-06 -.351E-14 -.706E-06
   -.123E-02 0.121E-12 0.748E-02   0.139E-02 0.355E-14 -.724E-02   -.158E-03 -.647E-21 -.236E-03   0.340E-06 -.338E-14 0.906E-06
   -.541E-01 -.957E-01 0.324E-14   0.461E-01 0.873E-01 -.346E-14   0.176E-01 0.187E-01 -.184E-19   0.519E-06 -.231E-06 -.190E-13
   -.539E-01 0.966E-01 0.447E-13   0.458E-01 -.881E-01 -.213E-14   0.179E-01 -.192E-01 0.613E-20   0.529E-06 0.685E-06 -.181E-13
   -.541E-01 0.957E-01 -.916E-15   0.461E-01 -.873E-01 -.346E-14   0.176E-01 -.187E-01 0.256E-19   0.519E-06 0.231E-06 -.198E-13
   -.539E-01 -.966E-01 0.493E-13   0.458E-01 0.881E-01 -.213E-14   0.179E-01 0.192E-01 0.111E-19   0.529E-06 -.685E-06 -.193E-13
   -.138E-02 -.748E-02 -.850E-14   0.154E-02 0.723E-02 0.120E-14   -.166E-03 0.240E-03 0.554E-20   0.203E-06 -.710E-06 0.194E-13
   -.123E-02 0.748E-02 -.842E-13   0.139E-02 -.724E-02 -.501E-14   -.158E-03 -.236E-03 0.352E-20   0.340E-06 0.910E-06 0.185E-13
   -.138E-02 0.748E-02 -.464E-14   0.154E-02 -.723E-02 -.191E-14   -.166E-03 -.240E-03 0.586E-20   0.203E-06 0.710E-06 0.202E-13
   -.123E-02 -.748E-02 0.949E-13   0.139E-02 0.724E-02 -.679E-14   -.158E-03 0.236E-03 -.852E-20   0.340E-06 -.910E-06 0.197E-13
 -----------------------------------------------------------------------------------------------
   0.261E-05 0.132E-12 -.623E-08   -.568E-15 0.907E-14 0.548E-14   -.965E-06 0.347E-17 -.813E-17   0.396E-07 -.289E-16 -.510E-16
 
 
 POSITION                                       TOTAL-FORCE (eV/Angst)
 -----------------------------------------------------------------------------------
      1.94791      1.93791      0.00000        -0.074491      0.000000      0.000000
      5.81372      1.93791      0.00000         0.002530     -0.000000     -0.000000
      1.93791      5.81372      0.00000        -0.000168      0.000000      0.000000
      5.81372      5.81372      0.00000         0.000701      0.000000     -0.000000
      1.93791      1.93791      3.87581        -0.000168     -0.000000     -0.000000
      5.81372      1.93791      3.87581         0.000701     -0.000000     -0.000000
      1.93791      5.81372      3.87581         0.000727     -0.000000      0.000000
      5.81372      5.81372      3.87581        -0.000647     -0.000000     -0.000000
      1.93791      0.00000      1.93791        -0.001319      0.000035     -0.000035
      5.81372      0.00000      1.93791        -0.000406     -0.000002      0.000002
      1.93791      3.87581      1.93791        -0.001319     -0.000035     -0.000035
      5.81372      3.87581      1.93791        -0.000406      0.000002      0.000002
      1.93791      0.00000      5.81372        -0.001319      0.000035      0.000035
      5.81372      0.00000      5.81372        -0.000406     -0.000002     -0.000002
      1.93791      3.87581      5.81372        -0.001319     -0.000035      0.000035
      5.81372      3.87581      5.81372        -0.000406      0.000002     -0.000002
      0.00000      1.93791      1.93791         0.009609     -0.000000     -0.010312
      3.87581      1.93791      1.93791         0.009820     -0.000000      0.010620
      0.00000      5.81372      1.93791        -0.000003     -0.000000      0.000010
      3.87581      5.81372      1.93791         0.000002     -0.000000     -0.000006
      0.00000      1.93791      5.81372         0.009609      0.000000      0.010312
      3.87581      1.93791      5.81372         0.009820     -0.000000     -0.010620
      0.00000      5.81372      5.81372        -0.000003     -0.000000     -0.000010
      3.87581      5.81372      5.81372         0.000002     -0.000000      0.000006
      0.00000      0.00000      0.00000         0.009609      0.010312     -0.000000
      3.87581      0.00000      0.00000         0.009820     -0.010620      0.000000
      0.00000      3.87581      0.00000         0.009609     -0.010312     -0.000000
      3.87581      3.87581      0.00000         0.009820      0.010620      0.000000
      0.00000      0.00000      3.87581        -0.000003     -0.000010      0.000000
      3.87581      0.00000      3.87581         0.000002      0.000006     -0.000000
      0.00000      3.87581      3.87581        -0.000003      0.000010      0.000000
      3.87581      3.87581      3.87581         0.000002     -0.000006     -0.000000
 -----------------------------------------------------------------------------------
    total drift:                                0.000002      0.000000     -0.000000


--------------------------------------------------------------------------------------------------------



 mean value of Nose-termostat <S>:     1.000 mean value of <T> :     0.000
 mean temperature <T/S>/<1/S>  :     0.000

     LOOP+:  VPU time 2506.05: CPU time 2510.68
  
  
 General timing and accounting informations for this job:
 ========================================================
  
                  Total CPU time used (sec):     2531.366
                            User time (sec):     2458.253
                          System time (sec):       73.113
                         Elapsed time (sec):     2536.044
  
                   Maximum memory used (kb):     4038460.
                   Average memory used (kb):           0.
  
                          Minor page faults:       812928
                          Major page faults:            0
                 Voluntary context switches:          903
