  32  32   0   0
  0.1645186E+02  0.8074613E-09  0.8074613E-09  0.8074613E-09  0.5000000E-15
  1.000000000000000E-004
  CAR 
 unknown system                          
     12.70785552     -3.87779508  301      8.03676462      1.00000000
     -3.878  0.0000E+00  0.0000E+00
     -3.823  0.0000E+00  0.0000E+00
     -3.767  0.0000E+00  0.0000E+00
     -3.712  0.0000E+00  0.0000E+00
     -3.657  0.0000E+00  0.0000E+00
     -3.601  0.0000E+00  0.0000E+00
     -3.546  0.0000E+00  0.0000E+00
     -3.491  0.0000E+00  0.0000E+00
     -3.436  0.0000E+00  0.0000E+00
     -3.380  0.0000E+00  0.0000E+00
     -3.325  0.0000E+00  0.0000E+00
     -3.270  0.0000E+00  0.0000E+00
     -3.214  0.0000E+00  0.0000E+00
     -3.159  0.6814E-08  0.3767E-09
     -3.104  0.1260E+00  0.6969E-02
     -3.049  0.7192E+00  0.4673E-01
     -2.993  0.1073E+01  0.1060E+00
     -2.938  0.1700E+01  0.2000E+00
     -2.883  0.1643E+01  0.2909E+00
     -2.827  0.2031E+01  0.4031E+00
     -2.772  0.2245E+01  0.5272E+00
     -2.717  0.1793E+01  0.6264E+00
     -2.662  0.2909E+01  0.7872E+00
     -2.606  0.1889E+01  0.8916E+00
     -2.551  0.3170E+01  0.1067E+01
     -2.496  0.2315E+01  0.1195E+01
     -2.440  0.3759E+01  0.1403E+01
     -2.385  0.3023E+01  0.1570E+01
     -2.330  0.2971E+01  0.1734E+01
     -2.275  0.4150E+01  0.1964E+01
     -2.219  0.2956E+01  0.2127E+01
     -2.164  0.2947E+01  0.2290E+01
     -2.109  0.3122E+01  0.2462E+01
     -2.053  0.4820E+01  0.2729E+01
     -1.998  0.3516E+01  0.2923E+01
     -1.943  0.4900E+01  0.3194E+01
     -1.888  0.3828E+01  0.3406E+01
     -1.832  0.3512E+01  0.3600E+01
     -1.777  0.4547E+01  0.3851E+01
     -1.722  0.4755E+01  0.4114E+01
     -1.666  0.4382E+01  0.4357E+01
     -1.611  0.3113E+01  0.4529E+01
     -1.556  0.5076E+01  0.4809E+01
     -1.501  0.5052E+01  0.5089E+01
     -1.445  0.5662E+01  0.5402E+01
     -1.390  0.5577E+01  0.5710E+01
     -1.335  0.3612E+01  0.5910E+01
     -1.279  0.5977E+01  0.6240E+01
     -1.224  0.3572E+01  0.6438E+01
     -1.169  0.4925E+01  0.6710E+01
     -1.114  0.5389E+01  0.7008E+01
     -1.058  0.6723E+01  0.7379E+01
     -1.003  0.5240E+01  0.7669E+01
     -0.948  0.5738E+01  0.7986E+01
     -0.892  0.4582E+01  0.8240E+01
     -0.837  0.5461E+01  0.8542E+01
     -0.782  0.7075E+01  0.8933E+01
     -0.727  0.5867E+01  0.9257E+01
     -0.671  0.5230E+01  0.9546E+01
     -0.616  0.3794E+01  0.9756E+01
     -0.561  0.7463E+01  0.1017E+02
     -0.505  0.5628E+01  0.1048E+02
     -0.450  0.7104E+01  0.1087E+02
     -0.395  0.7748E+01  0.1130E+02
     -0.340  0.3384E+01  0.1149E+02
     -0.284  0.8029E+01  0.1193E+02
     -0.229  0.6649E+01  0.1230E+02
     -0.174  0.6462E+01  0.1266E+02
     -0.118  0.3143E+01  0.1283E+02
     -0.063  0.8715E+01  0.1331E+02
     -0.008  0.5883E+01  0.1364E+02
      0.047  0.7391E+01  0.1405E+02
      0.103  0.8238E+01  0.1450E+02
      0.158  0.7657E+01  0.1492E+02
      0.213  0.5955E+01  0.1525E+02
      0.269  0.5192E+01  0.1554E+02
      0.324  0.7267E+01  0.1594E+02
      0.379  0.6085E+01  0.1628E+02
      0.434  0.7532E+01  0.1670E+02
      0.490  0.7661E+01  0.1712E+02
      0.545  0.9033E+01  0.1762E+02
      0.600  0.6116E+01  0.1796E+02
      0.656  0.6727E+01  0.1833E+02
      0.711  0.8903E+01  0.1882E+02
      0.766  0.7420E+01  0.1923E+02
      0.821  0.6689E+01  0.1960E+02
      0.877  0.6305E+01  0.1995E+02
      0.932  0.8961E+01  0.2045E+02
      0.987  0.6024E+01  0.2078E+02
      1.043  0.8372E+01  0.2124E+02
      1.098  0.9866E+01  0.2179E+02
      1.153  0.7996E+01  0.2223E+02
      1.208  0.7164E+01  0.2262E+02
      1.264  0.8282E+01  0.2308E+02
      1.319  0.7477E+01  0.2350E+02
      1.374  0.5971E+01  0.2383E+02
      1.430  0.1042E+02  0.2440E+02
      1.485  0.8630E+01  0.2488E+02
      1.540  0.8643E+01  0.2536E+02
      1.595  0.5251E+01  0.2565E+02
      1.651  0.1136E+02  0.2628E+02
      1.706  0.6101E+01  0.2661E+02
      1.761  0.1161E+02  0.2725E+02
      1.817  0.6203E+01  0.2760E+02
      1.872  0.7804E+01  0.2803E+02
      1.927  0.1123E+02  0.2865E+02
      1.982  0.9558E+01  0.2918E+02
      2.038  0.7113E+01  0.2957E+02
      2.093  0.5243E+01  0.2986E+02
      2.148  0.1084E+02  0.3046E+02
      2.204  0.1125E+02  0.3108E+02
      2.259  0.7403E+01  0.3149E+02
      2.314  0.8511E+01  0.3196E+02
      2.369  0.1028E+02  0.3253E+02
      2.425  0.6734E+01  0.3290E+02
      2.480  0.1016E+02  0.3346E+02
      2.535  0.1002E+02  0.3402E+02
      2.591  0.8491E+01  0.3449E+02
      2.646  0.1108E+02  0.3510E+02
      2.701  0.1056E+02  0.3568E+02
      2.756  0.8433E+01  0.3615E+02
      2.812  0.5485E+01  0.3645E+02
      2.867  0.1036E+02  0.3703E+02
      2.922  0.1048E+02  0.3761E+02
      2.978  0.1056E+02  0.3819E+02
      3.033  0.8060E+01  0.3864E+02
      3.088  0.1029E+02  0.3920E+02
      3.143  0.1228E+02  0.3988E+02
      3.199  0.9330E+01  0.4040E+02
      3.254  0.1107E+02  0.4101E+02
      3.309  0.7219E+01  0.4141E+02
      3.365  0.1042E+02  0.4199E+02
      3.420  0.9988E+01  0.4254E+02
      3.475  0.1249E+02  0.4323E+02
      3.530  0.6688E+01  0.4360E+02
      3.586  0.1168E+02  0.4424E+02
      3.641  0.8833E+01  0.4473E+02
      3.696  0.1144E+02  0.4537E+02
      3.752  0.8119E+01  0.4581E+02
      3.807  0.1352E+02  0.4656E+02
      3.862  0.9385E+01  0.4708E+02
      3.917  0.9469E+01  0.4760E+02
      3.973  0.1260E+02  0.4830E+02
      4.028  0.9351E+01  0.4882E+02
      4.083  0.1285E+02  0.4953E+02
      4.139  0.8823E+01  0.5002E+02
      4.194  0.7874E+01  0.5045E+02
      4.249  0.1079E+02  0.5105E+02
      4.304  0.1260E+02  0.5174E+02
      4.360  0.1088E+02  0.5235E+02
      4.415  0.1268E+02  0.5305E+02
      4.470  0.8857E+01  0.5354E+02
      4.526  0.1311E+02  0.5426E+02
      4.581  0.9372E+01  0.5478E+02
      4.636  0.1202E+02  0.5544E+02
      4.691  0.9126E+01  0.5595E+02
      4.747  0.1019E+02  0.5651E+02
      4.802  0.1074E+02  0.5711E+02
      4.857  0.1619E+02  0.5800E+02
      4.913  0.1321E+02  0.5873E+02
      4.968  0.1208E+02  0.5940E+02
      5.023  0.8449E+01  0.5987E+02
      5.078  0.1167E+02  0.6051E+02
      5.134  0.1085E+02  0.6111E+02
      5.189  0.1334E+02  0.6185E+02
      5.244  0.1620E+02  0.6274E+02
      5.300  0.1277E+02  0.6345E+02
      5.355  0.9623E+01  0.6398E+02
      5.410  0.1179E+02  0.6463E+02
      5.465  0.8699E+01  0.6511E+02
      5.521  0.1238E+02  0.6580E+02
      5.576  0.1671E+02  0.6672E+02
      5.631  0.1085E+02  0.6732E+02
      5.687  0.9596E+01  0.6785E+02
      5.742  0.1151E+02  0.6849E+02
      5.797  0.1199E+02  0.6915E+02
      5.852  0.1455E+02  0.6996E+02
      5.908  0.8525E+01  0.7043E+02
      5.963  0.1153E+02  0.7107E+02
      6.018  0.1232E+02  0.7175E+02
      6.074  0.1221E+02  0.7242E+02
      6.129  0.1286E+02  0.7313E+02
      6.184  0.9515E+01  0.7366E+02
      6.239  0.5651E+01  0.7397E+02
      6.295  0.1345E+02  0.7471E+02
      6.350  0.1424E+02  0.7550E+02
      6.405  0.1169E+02  0.7615E+02
      6.461  0.9741E+01  0.7669E+02
      6.516  0.1218E+02  0.7736E+02
      6.571  0.1101E+02  0.7797E+02
      6.626  0.1021E+02  0.7853E+02
      6.682  0.1097E+02  0.7914E+02
      6.737  0.1097E+02  0.7975E+02
      6.792  0.1524E+02  0.8059E+02
      6.848  0.1043E+02  0.8117E+02
      6.903  0.1129E+02  0.8179E+02
      6.958  0.1466E+02  0.8260E+02
      7.013  0.1503E+02  0.8343E+02
      7.069  0.9045E+01  0.8393E+02
      7.124  0.1275E+02  0.8464E+02
      7.179  0.9896E+01  0.8518E+02
      7.235  0.1529E+02  0.8603E+02
      7.290  0.1360E+02  0.8678E+02
      7.345  0.1184E+02  0.8744E+02
      7.400  0.1222E+02  0.8811E+02
      7.456  0.1139E+02  0.8874E+02
      7.511  0.1535E+02  0.8959E+02
      7.566  0.1185E+02  0.9024E+02
      7.622  0.8701E+01  0.9072E+02
      7.677  0.1354E+02  0.9147E+02
      7.732  0.1255E+02  0.9217E+02
      7.787  0.1246E+02  0.9286E+02
      7.843  0.1035E+02  0.9343E+02
      7.898  0.1279E+02  0.9414E+02
      7.953  0.1382E+02  0.9490E+02
      8.009  0.1306E+02  0.9562E+02
      8.064  0.1213E+02  0.9629E+02
      8.119  0.1424E+02  0.9708E+02
      8.174  0.1241E+02  0.9777E+02
      8.230  0.1372E+02  0.9852E+02
      8.285  0.1176E+02  0.9917E+02
      8.340  0.1381E+02  0.9994E+02
      8.396  0.1323E+02  0.1007E+03
      8.451  0.1286E+02  0.1014E+03
      8.506  0.1202E+02  0.1020E+03
      8.561  0.1943E+02  0.1031E+03
      8.617  0.1418E+02  0.1039E+03
      8.672  0.1421E+02  0.1047E+03
      8.727  0.1166E+02  0.1053E+03
      8.783  0.1363E+02  0.1061E+03
      8.838  0.7259E+01  0.1065E+03
      8.893  0.1335E+02  0.1072E+03
      8.948  0.1070E+02  0.1078E+03
      9.004  0.1090E+02  0.1084E+03
      9.059  0.2247E+02  0.1097E+03
      9.114  0.1481E+02  0.1105E+03
      9.170  0.1258E+02  0.1112E+03
      9.225  0.1599E+02  0.1121E+03
      9.280  0.1188E+02  0.1127E+03
      9.335  0.1710E+02  0.1137E+03
      9.391  0.1118E+02  0.1143E+03
      9.446  0.9461E+01  0.1148E+03
      9.501  0.1105E+02  0.1154E+03
      9.557  0.1428E+02  0.1162E+03
      9.612  0.1748E+02  0.1172E+03
      9.667  0.1360E+02  0.1179E+03
      9.722  0.1154E+02  0.1186E+03
      9.778  0.1709E+02  0.1195E+03
      9.833  0.1396E+02  0.1203E+03
      9.888  0.1695E+02  0.1212E+03
      9.944  0.1280E+02  0.1219E+03
      9.999  0.1203E+02  0.1226E+03
     10.054  0.1458E+02  0.1234E+03
     10.109  0.1249E+02  0.1241E+03
     10.165  0.1752E+02  0.1251E+03
     10.220  0.1526E+02  0.1259E+03
     10.275  0.1476E+02  0.1267E+03
     10.331  0.1330E+02  0.1274E+03
     10.386  0.8983E+01  0.1279E+03
     10.441  0.1588E+02  0.1288E+03
     10.496  0.1719E+02  0.1298E+03
     10.552  0.1630E+02  0.1307E+03
     10.607  0.9282E+01  0.1312E+03
     10.662  0.1395E+02  0.1320E+03
     10.718  0.1860E+02  0.1330E+03
     10.773  0.1540E+02  0.1338E+03
     10.828  0.1270E+02  0.1345E+03
     10.883  0.1554E+02  0.1354E+03
     10.939  0.1074E+02  0.1360E+03
     10.994  0.1615E+02  0.1369E+03
     11.049  0.1532E+02  0.1377E+03
     11.105  0.9876E+01  0.1383E+03
     11.160  0.1354E+02  0.1390E+03
     11.215  0.9448E+01  0.1395E+03
     11.270  0.1645E+02  0.1405E+03
     11.326  0.1119E+02  0.1411E+03
     11.381  0.1085E+02  0.1417E+03
     11.436  0.8929E+01  0.1422E+03
     11.492  0.6702E+01  0.1425E+03
     11.547  0.6275E+01  0.1429E+03
     11.602  0.5788E+01  0.1432E+03
     11.657  0.5620E+01  0.1435E+03
     11.713  0.4470E+01  0.1438E+03
     11.768  0.9504E+00  0.1438E+03
     11.823  0.1115E+01  0.1439E+03
     11.879  0.1060E+01  0.1439E+03
     11.934  0.4986E+00  0.1440E+03
     11.989  0.5938E+00  0.1440E+03
     12.044  0.0000E+00  0.1440E+03
     12.100  0.0000E+00  0.1440E+03
     12.155  0.0000E+00  0.1440E+03
     12.210  0.0000E+00  0.1440E+03
     12.266  0.0000E+00  0.1440E+03
     12.321  0.0000E+00  0.1440E+03
     12.376  0.0000E+00  0.1440E+03
     12.431  0.0000E+00  0.1440E+03
     12.487  0.0000E+00  0.1440E+03
     12.542  0.0000E+00  0.1440E+03
     12.597  0.0000E+00  0.1440E+03
     12.653  0.0000E+00  0.1440E+03
     12.708  0.0000E+00  0.1440E+03
