   32   32    1    1
  0.1645186E+02  0.8074613E-09  0.8074613E-09  0.8074613E-09  0.5000000E-15
  1.000000000000000E-004
  CAR 
 unknown system                          
   96  196   72
 
  0.0000000E+00  0.0000000E+00  0.0000000E+00  0.5787037E-03
   1       -3.1239
   2       -0.8751
   3       -0.8714
   4       -0.8714
   5       -0.8714
   6       -0.8714
   7       -0.8677
   8        1.3396
   9        1.3440
  10        1.3440
  11        1.3457
  12        1.3458
  13        1.3458
  14        1.3458
  15        1.3458
  16        1.3460
  17        1.3477
  18        1.3477
  19        1.3521
  20        3.4261
  21        3.4261
  22        3.4261
  23        3.4261
  24        3.6470
  25        3.6470
  26        3.6471
  27        3.6471
  28        5.0999
  29        5.0999
  30        5.0999
  31        6.4295
  32        6.4295
  33        6.4295
  34        7.1765
  35        7.1765
  36        7.1809
  37        7.1809
  38        7.1810
  39        7.1810
  40        7.1810
  41        7.1810
  42        7.1811
  43        7.1811
  44        7.1854
  45        7.1854
  46        8.1911
  47        8.1953
  48        8.1953
  49        8.1953
  50        8.1953
  51        8.1994
  52        9.1530
  53        9.1540
  54        9.1540
  55        9.1540
  56        9.1540
  57        9.1550
  58        9.2645
  59        9.2645
  60        9.2661
  61        9.2685
  62        9.2686
  63        9.2686
  64        9.2686
  65        9.2687
  66        9.2687
  67        9.2710
  68        9.2727
  69        9.2727
  70       10.7906
  71       10.7927
  72       10.7934
 
  0.8333333E-01  0.0000000E+00  0.0000000E+00  0.1157407E-02
   1       -3.1081
   2       -1.2287
   3       -0.8559
   4       -0.8559
   5       -0.8559
   6       -0.8559
   7       -0.4841
   8        0.9940
   9        0.9941
  10        0.9941
  11        0.9941
  12        1.3611
  13        1.3611
  14        1.3611
  15        1.3611
  16        1.7271
  17        1.7271
  18        1.7271
  19        1.7271
  20        3.1726
  21        3.1726
  22        3.1726
  23        3.1726
  24        3.9298
  25        3.9298
  26        3.9298
  27        3.9298
  28        4.7975
  29        5.1143
  30        5.1143
  31        6.4448
  32        6.4448
  33        6.7591
  34        6.8480
  35        6.8480
  36        6.8905
  37        6.8905
  38        6.8905
  39        6.8905
  40        7.1955
  41        7.1955
  42        7.1955
  43        7.1955
  44        7.5431
  45        7.5431
  46        8.0886
  47        8.0886
  48        8.3762
  49        8.3762
  50        8.3762
  51        8.3762
  52        8.9348
  53        8.9348
  54        8.9348
  55        8.9348
  56        9.0061
  57        9.0061
  58        9.0062
  59        9.0062
  60        9.2877
  61        9.2878
  62        9.3054
  63        9.3054
  64        9.3055
  65        9.3055
  66        9.6315
  67        9.6315
  68        9.6315
  69        9.6315
  70       10.4577
  71       10.4577
  72       10.4577
 
  0.1666667E+00  0.0000000E+00  0.0000000E+00  0.1157407E-02
   1       -3.0609
   2       -1.5558
   3       -0.8094
   4       -0.8093
   5       -0.8093
   6       -0.8093
   7       -0.0672
   8        0.6721
   9        0.6721
  10        0.6721
  11        0.6721
  12        1.4070
  13        1.4070
  14        1.4070
  15        1.4070
  16        2.1375
  17        2.1375
  18        2.1375
  19        2.1375
  20        2.8627
  21        2.8627
  22        2.8627
  23        2.8627
  24        4.2314
  25        4.3273
  26        4.3273
  27        4.3273
  28        4.3273
  29        5.1576
  30        5.1576
  31        6.3461
  32        6.3462
  33        6.3462
  34        6.3462
  35        6.4904
  36        6.4905
  37        6.5442
  38        6.5442
  39        7.2389
  40        7.2389
  41        7.2389
  42        7.2389
  43        7.4071
  44        7.8642
  45        7.8642
  46        7.9343
  47        7.9343
  48        8.4819
  49        8.4819
  50        8.4819
  51        8.4820
  52        8.5884
  53        8.5884
  54        8.5885
  55        8.5885
  56        8.6302
  57        8.6302
  58        8.6303
  59        8.6303
  60        9.5931
  61        9.5931
  62        9.7628
  63        9.7628
  64        9.7629
  65        9.7629
  66       10.0235
  67       10.0235
  68       10.0235
  69       10.0235
  70       10.1489
  71       10.1489
  72       10.1489
 
  0.2500000E+00  0.0000000E+00  0.0000000E+00  0.1157407E-02
   1       -2.9821
   2       -1.8524
   3       -0.7318
   4       -0.7318
   5       -0.7318
   6       -0.7318
   7        0.3769
   8        0.3801
   9        0.3801
  10        0.3801
  11        0.3822
  12        1.4833
  13        1.4833
  14        1.4833
  15        1.4833
  16        2.5736
  17        2.5755
  18        2.5755
  19        2.5766
  20        2.5772
  21        2.5782
  22        2.5782
  23        2.5801
  24        3.6253
  25        4.7587
  26        4.7587
  27        4.7587
  28        4.7587
  29        5.2297
  30        5.2297
  31        5.7588
  32        5.7588
  33        5.7588
  34        5.7588
  35        6.2695
  36        6.2695
  37        6.5664
  38        6.5664
  39        7.3113
  40        7.3113
  41        7.3113
  42        7.3113
  43        7.6172
  44        7.6172
  45        7.9042
  46        7.9042
  47        7.9042
  48        7.9042
  49        8.1496
  50        8.3524
  51        8.3524
  52        8.3547
  53        8.3547
  54        8.3571
  55        8.3571
  56        8.7326
  57        8.7326
  58        8.7326
  59        8.7326
  60        9.8674
  61        9.8674
  62        9.8674
  63        9.8674
  64        9.9743
  65        9.9743
  66       10.4146
  67       10.4146
  68       10.4147
  69       10.4149
  70       10.4446
  71       10.4446
  72       10.4447
 
  0.3333333E+00  0.0000000E+00  0.0000000E+00  0.1157407E-02
   1       -2.8718
   2       -2.1183
   3       -0.6234
   4       -0.6233
   5       -0.6233
   6       -0.6233
   7        0.1184
   8        0.1184
   9        0.1184
  10        0.1184
  11        0.8541
  12        1.5902
  13        1.5902
  14        1.5902
  15        1.5902
  16        2.3201
  17        2.3201
  18        2.3201
  19        2.3201
  20        3.0256
  21        3.0439
  22        3.0439
  23        3.0439
  24        3.0439
  25        5.1742
  26        5.1742
  27        5.1742
  28        5.1742
  29        5.2196
  30        5.2196
  31        5.2196
  32        5.2196
  33        5.3307
  34        5.3307
  35        6.0238
  36        6.0238
  37        6.6723
  38        6.6723
  39        7.3262
  40        7.3262
  41        7.3262
  42        7.3262
  43        7.3799
  44        7.3800
  45        7.4127
  46        7.4127
  47        7.4127
  48        7.4127
  49        8.1082
  50        8.1082
  51        8.1082
  52        8.1082
  53        8.8045
  54        8.8045
  55        8.8667
  56        8.8667
  57        8.8667
  58        8.8667
  59        8.9402
  60        9.6135
  61        9.6135
  62        9.6135
  63        9.6135
  64       10.3979
  65       10.3979
  66       10.8938
  67       10.8938
  68       10.8949
  69       10.8949
  70       10.8965
  71       10.8965
  72       11.1563
 
  0.4166667E+00  0.0000000E+00  0.0000000E+00  0.1157407E-02
   1       -2.7302
   2       -2.3533
   3       -0.4840
   4       -0.4840
   5       -0.4840
   6       -0.4840
   7       -0.1130
   8       -0.1130
   9       -0.1130
  10       -0.1130
  11        1.3573
  12        1.7274
  13        1.7274
  14        1.7274
  15        1.7274
  16        2.0926
  17        2.0926
  18        2.0926
  19        2.0926
  20        2.4449
  21        3.5387
  22        3.5387
  23        3.5387
  24        3.5387
  25        4.6060
  26        4.6060
  27        4.6060
  28        4.6060
  29        5.4605
  30        5.4605
  31        5.7083
  32        5.7083
  33        5.7084
  34        5.7084
  35        5.8071
  36        5.8071
  37        6.7640
  38        6.7640
  39        6.7640
  40        6.7640
  41        6.8077
  42        6.8077
  43        7.1632
  44        7.1633
  45        7.5430
  46        7.5430
  47        7.5430
  48        7.5430
  49        7.8908
  50        7.8908
  51        7.8908
  52        7.8908
  53        9.0159
  54        9.0159
  55        9.0159
  56        9.0159
  57        9.2835
  58        9.2835
  59        9.3873
  60        9.3873
  61        9.3873
  62        9.3873
  63        9.7661
  64       10.3290
  65       10.3290
  66       10.8507
  67       10.8507
  68       11.3743
  69       11.3743
  70       11.3743
  71       11.3743
  72       11.5067
 
  0.5000000E+00  0.0000000E+00  0.0000000E+00  0.5787037E-03
   1       -2.5588
   2       -2.5559
   3       -0.3178
   4       -0.3147
   5       -0.3147
   6       -0.3139
   7       -0.3137
   8       -0.3130
   9       -0.3130
  10       -0.3099
  11        1.8859
  12        1.8882
  13        1.8932
  14        1.8937
  15        1.8937
  16        1.8945
  17        1.8954
  18        1.8962
  19        1.8962
  20        1.8986
  21        4.0591
  22        4.0591
  23        4.0591
  24        4.0598
  25        4.0601
  26        4.0608
  27        4.0608
  28        4.0608
  29        5.6178
  30        5.6178
  31        5.6209
  32        5.6209
  33        6.2227
  34        6.2227
  35        6.2232
  36        6.2236
  37        6.2239
  38        6.2243
  39        6.2248
  40        6.2248
  41        6.9698
  42        6.9708
  43        6.9726
  44        6.9737
  45        7.7000
  46        7.7000
  47        7.7010
  48        7.7023
  49        7.7025
  50        7.7038
  51        7.7048
  52        7.7048
  53        9.1863
  54        9.1872
  55        9.1872
  56        9.1874
  57        9.1896
  58        9.1897
  59        9.1897
  60        9.1907
  61        9.7905
  62        9.7905
  63        9.7928
  64        9.7928
  65       10.6218
  66       10.6231
  67       11.3237
  68       11.3242
  69       11.3255
  70       11.3260
  71       11.8824
  72       11.8833
 
  0.0000000E+00  0.8333333E-01  0.0000000E+00  0.2314815E-02
   1       -3.1081
   2       -1.2287
   3       -0.8587
   4       -0.8559
   5       -0.8559
   6       -0.8530
   7       -0.4841
   8        0.9912
   9        0.9941
  10        0.9941
  11        0.9970
  12        1.3590
  13        1.3600
  14        1.3623
  15        1.3633
  16        1.7242
  17        1.7271
  18        1.7271
  19        1.7300
  20        3.1705
  21        3.1715
  22        3.1737
  23        3.1747
  24        3.9277
  25        3.9287
  26        3.9309
  27        3.9319
  28        4.7975
  29        5.1143
  30        5.1143
  31        6.4447
  32        6.4448
  33        6.7592
  34        6.8479
  35        6.8480
  36        6.8873
  37        6.8905
  38        6.8905
  39        6.8937
  40        7.1927
  41        7.1955
  42        7.1955
  43        7.1982
  44        7.5431
  45        7.5431
  46        8.0886
  47        8.0886
  48        8.3734
  49        8.3762
  50        8.3762
  51        8.3790
  52        8.9320
  53        8.9348
  54        8.9348
  55        8.9376
  56        9.0034
  57        9.0050
  58        9.0072
  59        9.0088
  60        9.2877
  61        9.2878
  62        9.3044
  63        9.3054
  64        9.3055
  65        9.3065
  66        9.6287
  67        9.6315
  68        9.6315
  69        9.6343
  70       10.4558
  71       10.4577
  72       10.4598
 
  0.8333333E-01  0.8333333E-01  0.0000000E+00  0.4629630E-02
   1       -3.0924
   2       -1.2143
   3       -1.2120
   4       -0.8404
   5       -0.8404
   6       -0.4698
   7       -0.4675
   8        0.6415
   9        1.0078
  10        1.0087
  11        1.0101
  12        1.0111
  13        1.3758
  14        1.3768
  15        1.7407
  16        1.7416
  17        1.7430
  18        1.7440
  19        2.1073
  20        2.8326
  21        2.8326
  22        3.4553
  23        3.4553
  24        3.6779
  25        3.6779
  26        4.2974
  27        4.2974
  28        4.8117
  29        4.8125
  30        5.1287
  31        6.4600
  32        6.5584
  33        6.5606
  34        6.7738
  35        6.7746
  36        6.8469
  37        6.8470
  38        6.8612
  39        6.8639
  40        6.9723
  41        6.9723
  42        7.2427
  43        7.2445
  44        7.5562
  45        7.5589
  46        8.1988
  47        8.2010
  48        8.3547
  49        8.3574
  50        8.5882
  51        8.5882
  52        8.6012
  53        8.6695
  54        8.6705
  55        8.6719
  56        8.6728
  57        9.2967
  58        9.2986
  59        9.3504
  60        9.3510
  61        9.3687
  62        9.3697
  63        9.3702
  64        9.3712
  65        9.4164
  66        9.4164
  67        9.5169
  68        9.5185
  69        9.9944
  70       10.1212
  71       10.7471
  72       10.7483
 
  0.1666667E+00  0.8333333E-01  0.0000000E+00  0.4629630E-02
   1       -3.0451
   2       -1.5402
   3       -1.1665
   4       -0.7938
   5       -0.7938
   6       -0.4223
   7       -0.0518
   8        0.3187
   9        0.6875
  10        0.6875
  11        1.0546
  12        1.0554
  13        1.0560
  14        1.7872
  15        1.7880
  16        1.7886
  17        2.1527
  18        2.1527
  19        2.5161
  20        2.5168
  21        2.5171
  22        3.2323
  23        3.2323
  24        3.9900
  25        3.9900
  26        4.2462
  27        4.6994
  28        4.6994
  29        4.8560
  30        5.1720
  31        6.0124
  32        6.2554
  33        6.3546
  34        6.3546
  35        6.5056
  36        6.5587
  37        6.7041
  38        6.8192
  39        6.9059
  40        6.9692
  41        6.9692
  42        7.4219
  43        7.5835
  44        7.6010
  45        7.9488
  46        7.9969
  47        8.1454
  48        8.1454
  49        8.1644
  50        8.2966
  51        8.3181
  52        8.3652
  53        8.3652
  54        8.7723
  55        8.8469
  56        8.8472
  57        8.8579
  58        8.8581
  59        8.9929
  60        9.6071
  61        9.6237
  62        9.6896
  63        9.7625
  64        9.7625
  65        9.8107
  66        9.8111
  67        9.8121
  68        9.8529
  69       10.0639
  70       10.3864
  71       10.4403
  72       10.4417
 
  0.2500000E+00  0.8333333E-01  0.0000000E+00  0.4629630E-02
   1       -2.9663
   2       -1.8367
   3       -1.0888
   4       -0.7163
   5       -0.7163
   6       -0.3449
   7        0.0260
   8        0.3931
   9        0.3955
  10        0.3969
  11        0.7640
  12        1.1319
  13        1.1319
  14        1.8642
  15        1.8642
  16        2.2267
  17        2.2293
  18        2.2306
  19        2.5917
  20        2.5917
  21        2.9516
  22        2.9529
  23        2.9555
  24        3.6403
  25        4.4169
  26        4.4169
  27        4.9291
  28        5.1312
  29        5.1312
  30        5.2441
  31        5.4216
  32        5.7716
  33        5.7716
  34        5.9793
  35        6.1224
  36        6.2839
  37        6.5814
  38        6.8941
  39        6.9783
  40        7.0393
  41        7.0393
  42        7.5662
  43        7.5662
  44        7.5978
  45        7.6735
  46        7.9281
  47        8.0212
  48        8.0882
  49        8.0882
  50        8.1450
  51        8.1641
  52        8.2709
  53        8.2710
  54        8.3693
  55        8.4227
  56        8.7173
  57        9.0230
  58        9.0230
  59        9.0350
  60        9.5296
  61        9.9955
  62       10.1107
  63       10.1442
  64       10.1602
  65       10.1602
  66       10.1838
  67       10.1838
  68       10.2314
  69       10.2449
  70       10.4397
  71       10.4397
  72       10.7501
 
  0.3333333E+00  0.8333333E-01  0.0000000E+00  0.4629630E-02
   1       -2.8561
   2       -2.1026
   3       -0.9800
   4       -0.6079
   5       -0.6078
   6       -0.2372
   7       -0.2360
   8        0.1338
   9        0.1338
  10        0.5030
  11        0.8694
  12        1.2390
  13        1.2390
  14        1.9701
  15        1.9705
  16        1.9714
  17        1.9718
  18        2.6964
  19        2.6978
  20        2.6980
  21        3.0406
  22        3.0589
  23        3.0590
  24        3.4202
  25        4.8341
  26        4.8772
  27        4.8772
  28        5.0314
  29        5.1882
  30        5.1882
  31        5.3451
  32        5.5418
  33        5.5916
  34        5.5916
  35        5.7318
  36        6.0382
  37        6.6871
  38        6.9870
  39        6.9870
  40        6.9986
  41        7.0796
  42        7.1406
  43        7.1406
  44        7.3863
  45        7.6936
  46        7.6943
  47        7.6967
  48        7.7741
  49        7.7757
  50        7.8404
  51        7.8404
  52        8.4707
  53        8.5413
  54        8.5639
  55        8.8191
  56        8.9545
  57        9.1624
  58        9.1624
  59        9.2076
  60        9.2757
  61        9.9077
  62        9.9077
  63        9.9774
  64       10.4156
  65       10.5610
  66       10.6295
  67       10.6335
  68       10.6338
  69       10.6729
  70       10.8511
  71       10.9099
  72       11.1748
 
  0.4166667E+00  0.8333333E-01  0.0000000E+00  0.4629630E-02
   1       -2.7145
   2       -2.3376
   3       -0.8403
   4       -0.4698
   5       -0.4685
   6       -0.4671
   7       -0.0990
   8       -0.0976
   9       -0.0963
  10        0.2722
  11        1.3722
  12        1.3766
  13        1.3770
  14        1.7428
  15        1.7429
  16        2.1075
  17        2.1075
  18        2.4599
  19        2.4714
  20        2.4716
  21        3.1928
  22        3.5536
  23        3.5536
  24        3.9134
  25        4.2637
  26        4.6206
  27        4.6206
  28        4.9766
  29        5.1628
  30        5.3664
  31        5.3664
  32        5.4750
  33        5.5132
  34        5.8215
  35        6.0796
  36        6.0796
  37        6.4238
  38        6.4238
  39        6.8220
  40        7.1313
  41        7.1332
  42        7.1340
  43        7.1750
  44        7.2099
  45        7.2716
  46        7.2716
  47        7.4827
  48        7.5575
  49        7.6216
  50        7.6216
  51        7.9053
  52        8.2532
  53        8.6836
  54        9.0344
  55        9.0501
  56        9.2980
  57        9.3127
  58        9.3127
  59        9.3705
  60        9.6828
  61        9.6828
  62        9.7503
  63        9.7801
  64       10.0704
  65       10.3436
  66       10.8669
  67       11.0405
  68       11.1114
  69       11.1114
  70       11.1279
  71       11.5197
  72       11.6327
 
  0.5000000E+00  0.8333333E-01  0.0000000E+00  0.2314815E-02
   1       -2.5431
   2       -2.5402
   3       -0.6712
   4       -0.6683
   5       -0.3004
   6       -0.2992
   7       -0.2975
   8       -0.2963
   9        0.0705
  10        0.0734
  11        1.5425
  12        1.5438
  13        1.5455
  14        1.5467
  15        1.9026
  16        1.9039
  17        2.2724
  18        2.2736
  19        2.2753
  20        2.2766
  21        3.7150
  22        3.7163
  23        4.0739
  24        4.0743
  25        4.0752
  26        4.0756
  27        4.4321
  28        4.4334
  29        5.3219
  30        5.3250
  31        5.6322
  32        5.6353
  33        5.8818
  34        5.8819
  35        5.8832
  36        5.8833
  37        6.5932
  38        6.5934
  39        6.5947
  40        6.5948
  41        6.9839
  42        6.9867
  43        7.2925
  44        7.2954
  45        7.3676
  46        7.3708
  47        7.4297
  48        7.4312
  49        7.4329
  50        7.4343
  51        8.0632
  52        8.0663
  53        8.8514
  54        8.8542
  55        9.4831
  56        9.4837
  57        9.4861
  58        9.4867
  59        9.5367
  60        9.5388
  61        9.5475
  62        9.5505
  63        9.8051
  64        9.8074
  65       10.6353
  66       10.6367
  67       11.3400
  68       11.3405
  69       11.5482
  70       11.5525
  71       11.6076
  72       11.6167
 
  0.0000000E+00  0.1666667E+00  0.0000000E+00  0.2314815E-02
   1       -3.0609
   2       -1.5558
   3       -0.8122
   4       -0.8093
   5       -0.8093
   6       -0.8065
   7       -0.0672
   8        0.6692
   9        0.6721
  10        0.6721
  11        0.6750
  12        1.4048
  13        1.4058
  14        1.4081
  15        1.4091
  16        2.1346
  17        2.1375
  18        2.1375
  19        2.1404
  20        2.8605
  21        2.8615
  22        2.8638
  23        2.8648
  24        4.2314
  25        4.3251
  26        4.3262
  27        4.3285
  28        4.3295
  29        5.1576
  30        5.1576
  31        6.3430
  32        6.3462
  33        6.3462
  34        6.3492
  35        6.4904
  36        6.4904
  37        6.5442
  38        6.5443
  39        7.2362
  40        7.2389
  41        7.2389
  42        7.2416
  43        7.4071
  44        7.8642
  45        7.8642
  46        7.9343
  47        7.9344
  48        8.4794
  49        8.4808
  50        8.4831
  51        8.4845
  52        8.5859
  53        8.5885
  54        8.5885
  55        8.5910
  56        8.6275
  57        8.6302
  58        8.6303
  59        8.6330
  60        9.5931
  61        9.5931
  62        9.7611
  63        9.7628
  64        9.7629
  65        9.7646
  66       10.0207
  67       10.0235
  68       10.0235
  69       10.0263
  70       10.1479
  71       10.1489
  72       10.1507
 
  0.8333333E-01  0.1666667E+00  0.0000000E+00  0.4629630E-02
   1       -3.0451
   2       -1.5402
   3       -1.1665
   4       -0.7938
   5       -0.7938
   6       -0.4223
   7       -0.0518
   8        0.3187
   9        0.6875
  10        0.6875
  11        1.0539
  12        1.0554
  13        1.0567
  14        1.7865
  15        1.7880
  16        1.7893
  17        2.1527
  18        2.1527
  19        2.5161
  20        2.5168
  21        2.5171
  22        3.2323
  23        3.2323
  24        3.9900
  25        3.9900
  26        4.2462
  27        4.6994
  28        4.6994
  29        4.8560
  30        5.1720
  31        6.0124
  32        6.2553
  33        6.3546
  34        6.3546
  35        6.5056
  36        6.5587
  37        6.7041
  38        6.8192
  39        6.9059
  40        6.9693
  41        6.9693
  42        7.4219
  43        7.5835
  44        7.6010
  45        7.9488
  46        7.9969
  47        8.1454
  48        8.1454
  49        8.1644
  50        8.2966
  51        8.3181
  52        8.3652
  53        8.3652
  54        8.7722
  55        8.8473
  56        8.8473
  57        8.8578
  58        8.8578
  59        8.9929
  60        9.6072
  61        9.6237
  62        9.6896
  63        9.7625
  64        9.7625
  65        9.8107
  66        9.8111
  67        9.8121
  68        9.8529
  69       10.0640
  70       10.3864
  71       10.4403
  72       10.4406
 
  0.1666667E+00  0.1666667E+00  0.0000000E+00  0.4629630E-02
   1       -2.9978
   2       -1.4946
   3       -1.4923
   4       -0.7473
   5       -0.7473
   6       -0.0072
   7       -0.0052
   8       -0.0034
   9        0.7319
  10        0.7328
  11        0.7342
  12        0.7352
  13        1.4671
  14        1.4681
  15        2.1959
  16        2.1972
  17        2.1984
  18        2.1985
  19        2.1998
  20        2.2009
  21        2.9244
  22        3.5428
  23        3.5428
  24        3.7703
  25        3.7703
  26        4.2902
  27        4.2911
  28        5.1017
  29        5.1017
  30        5.2153
  31        5.7045
  32        5.7069
  33        6.3026
  34        6.3026
  35        6.5285
  36        6.5285
  37        6.5510
  38        6.6008
  39        6.6034
  40        7.0754
  41        7.0772
  42        7.4657
  43        7.4667
  44        7.8360
  45        7.8370
  46        7.8384
  47        7.8394
  48        7.9900
  49        7.9923
  50        7.9946
  51        8.0534
  52        8.0550
  53        8.7264
  54        8.7289
  55        9.2399
  56        9.2410
  57        9.2413
  58        9.2423
  59        9.3092
  60        9.3092
  61        9.3839
  62        9.3858
  63        9.5015
  64        9.7355
  65        9.7361
  66       10.0210
  67       10.0210
  68       10.4260
  69       10.4282
  70       10.7784
  71       10.9011
  72       10.9013
 
  0.2500000E+00  0.1666667E+00  0.0000000E+00  0.4629630E-02
   1       -2.9191
   2       -1.7899
   3       -1.4155
   4       -0.6698
   5       -0.6698
   6       -0.2982
   7        0.0716
   8        0.4392
   9        0.4417
  10        0.4430
  11        0.8103
  12        0.8103
  13        1.1772
  14        1.9077
  15        1.9104
  16        1.9116
  17        2.2741
  18        2.2741
  19        2.6371
  20        2.6371
  21        3.3512
  22        3.3516
  23        3.3612
  24        3.6851
  25        4.1103
  26        4.1103
  27        4.3647
  28        5.1121
  29        5.2874
  30        5.4270
  31        5.5331
  32        5.5331
  33        5.8052
  34        5.8052
  35        6.3273
  36        6.5087
  37        6.5140
  38        6.5141
  39        6.6264
  40        6.6744
  41        7.2572
  42        7.2572
  43        7.3957
  44        7.5398
  45        7.5591
  46        7.5591
  47        7.7168
  48        7.8867
  49        8.0648
  50        8.1333
  51        8.2077
  52        8.4128
  53        8.5374
  54        8.6661
  55        8.6662
  56        9.1091
  57        9.2191
  58        9.2374
  59        9.5929
  60        9.5929
  61        9.6633
  62        9.6633
  63        9.8059
  64       10.0287
  65       10.0641
  66       10.5301
  67       10.5301
  68       10.6204
  69       10.6821
  70       10.7684
  71       10.7685
  72       10.8286
 
  0.3333333E+00  0.1666667E+00  0.0000000E+00  0.4629630E-02
   1       -2.8089
   2       -2.0557
   3       -1.3065
   4       -0.5627
   5       -0.5614
   6       -0.5599
   7        0.1783
   8        0.1800
   9        0.1811
  10        0.9142
  11        0.9170
  12        0.9176
  13        0.9187
  14        1.6515
  15        1.6515
  16        2.3784
  17        2.3803
  18        2.3805
  19        3.0857
  20        3.1019
  21        3.1024
  22        3.1046
  23        3.1053
  24        3.8251
  25        4.4683
  26        4.5224
  27        4.5658
  28        4.5658
  29        5.1770
  30        5.2294
  31        5.2294
  32        5.3884
  33        5.9353
  34        5.9927
  35        5.9927
  36        6.0816
  37        6.6084
  38        6.6085
  39        6.6769
  40        6.6770
  41        6.7313
  42        6.7757
  43        7.3096
  44        7.3096
  45        7.3867
  46        7.4706
  47        7.6424
  48        8.0908
  49        8.0908
  50        8.0987
  51        8.1663
  52        8.2407
  53        8.3213
  54        8.8609
  55        8.8642
  56        8.9651
  57        8.9973
  58        9.5384
  59        9.7629
  60        9.7629
  61       10.1083
  62       10.1133
  63       10.1135
  64       10.2562
  65       10.3659
  66       10.4705
  67       10.5175
  68       10.5175
  69       10.6097
  70       10.9536
  71       11.2335
  72       11.2395
 
  0.4166667E+00  0.1666667E+00  0.0000000E+00  0.4629630E-02
   1       -2.6674
   2       -2.2906
   3       -1.1665
   4       -0.7937
   5       -0.4221
   6       -0.4221
   7       -0.0513
   8       -0.0513
   9        0.3180
  10        0.6869
  11        1.0555
  12        1.0555
  13        1.4180
  14        1.4226
  15        1.4230
  16        2.5052
  17        2.5165
  18        2.5167
  19        2.8760
  20        2.8786
  21        2.8787
  22        3.5985
  23        3.5985
  24        3.9500
  25        4.3164
  26        4.6015
  27        4.6640
  28        4.6640
  29        4.9559
  30        5.0543
  31        5.0543
  32        5.3743
  33        5.5183
  34        5.8649
  35        6.1127
  36        6.1127
  37        6.4797
  38        6.4797
  39        6.7383
  40        6.7383
  41        6.8648
  42        6.9059
  43        7.0895
  44        7.0895
  45        7.2066
  46        7.2533
  47        7.5311
  48        7.5311
  49        7.7734
  50        8.1159
  51        8.2968
  52        8.3775
  53        8.5356
  54        8.6449
  55        8.7400
  56        9.3416
  57        9.5554
  58        9.7392
  59        9.8219
  60        9.9213
  61        9.9213
  62       10.1368
  63       10.2936
  64       10.2936
  65       10.3872
  66       10.5908
  67       10.5908
  68       10.7356
  69       10.9161
  70       11.3560
  71       11.5583
  72       11.6256
 
  0.5000000E+00  0.1666667E+00  0.0000000E+00  0.2314815E-02
   1       -2.4960
   2       -2.4931
   3       -0.9969
   4       -0.9940
   5       -0.2541
   6       -0.2529
   7       -0.2511
   8       -0.2500
   9        0.4858
  10        0.4887
  11        1.2218
  12        1.2230
  13        1.2247
  14        1.2259
  15        1.9482
  16        1.9495
  17        2.6807
  18        2.6819
  19        2.6836
  20        2.6849
  21        3.3997
  22        3.4010
  23        4.1182
  24        4.1186
  25        4.1195
  26        4.1199
  27        4.7626
  28        4.7656
  29        4.8328
  30        4.8341
  31        5.5700
  32        5.5702
  33        5.5714
  34        5.5716
  35        5.6756
  36        5.6787
  37        6.8968
  38        6.8981
  39        6.8998
  40        6.9011
  41        6.9922
  42        6.9924
  43        6.9936
  44        6.9938
  45        7.0236
  46        7.0264
  47        7.0636
  48        7.0667
  49        7.9304
  50        7.9334
  51        8.4547
  52        8.4579
  53        8.5426
  54        8.5454
  55        9.0280
  56        9.0298
  57        9.8487
  58        9.8510
  59        9.9288