       N       E                     dE             d eps       ncg     rms          rms(c)
DAV:   1     0.120008520776E+03    0.12001E+03   -0.32718E+04 28224   0.104E+03
DAV:   2    -0.107450760185E+03   -0.22746E+03   -0.21149E+03 33288   0.138E+02
DAV:   3    -0.120330333158E+03   -0.12880E+02   -0.12273E+02 35016   0.264E+01
DAV:   4    -0.120570616345E+03   -0.24028E+00   -0.23808E+00 33136   0.382E+00
DAV:   5    -0.120573492147E+03   -0.28758E-02   -0.28740E-02 33168   0.489E-01    0.530E+00
DAV:   6    -0.120155107373E+03    0.41838E+00   -0.49558E-02 32432   0.692E-01    0.329E+00
DAV:   7    -0.119849456439E+03    0.30565E+00   -0.14894E-01 31320   0.112E+00    0.134E-01
DAV:   8    -0.119849580308E+03   -0.12387E-03   -0.12321E-03 33432   0.130E-01    0.455E-02
DAV:   9    -0.119849610028E+03   -0.29720E-04   -0.50053E-05 32960   0.195E-02    0.368E-03
DAV:  10    -0.119849611037E+03   -0.10082E-05   -0.26766E-06 33432   0.508E-03    0.195E-03
DAV:  11    -0.119849608268E+03    0.27687E-05   -0.19170E-07 33024   0.126E-03    0.735E-04
DAV:  12    -0.119849607235E+03    0.10325E-05   -0.21236E-08 22232   0.444E-04    0.117E-04
DAV:  13    -0.119849607103E+03    0.13226E-06   -0.29679E-09 18480   0.193E-04    0.339E-05
DAV:  14    -0.119849607095E+03    0.82164E-08   -0.49571E-10 18352   0.732E-05
   1 F= -.11984961E+03 E0= -.11984933E+03  d E =-.555682E-03
