 vasp.4.6.28 25Jul05 complex 
 executed on             LinuxIFC date 2016.10.21  16:38:57
 running on    8 nodes
 distr:  one band on    1 nodes,    8 groups


--------------------------------------------------------------------------------------------------------


 INCAR:
 POTCAR:   PAW_PBE Al 04Jan2001                   
 POTCAR:   PAW_PBE Al 04Jan2001                   
   VRHFIN =Al: s2p1                                                             
   LEXCH  = PE                                                                  
   EATOM  =    53.5387 eV,    3.9350 Ry                                         
                                                                                
   TITEL  = PAW_PBE Al 04Jan2001                                                
   LULTRA =        F    use ultrasoft PP ?                                      
   IUNSCR =        1    unscreen: 0-lin 1-nonlin 2-no                           
   RPACOR =    1.500    partial core radius                                     
   POMASS =   26.982; ZVAL   =    3.000    mass and valenz                      
   RCORE  =    1.900    outmost cutoff radius                                   
   RWIGS  =    2.650; RWIGS  =    1.402    wigner-seitz radius (au A)           
   ENMAX  =  240.300; ENMIN  =  180.225 eV                                      
   ICORE  =        2    local potential                                         
   LCOR   =        T    correct aug charges                                     
   LPAW   =        T    paw PP                                                  
   EAUG   =  291.052                                                            
   DEXC   =    -.041                                                            
   RMAX   =    2.974    core radius for proj-oper                               
   RAUG   =    1.300    factor for augmentation sphere                          
   RDEP   =    1.966    radius for radial grids                                 
   QCUT   =   -4.203; QGAM   =    8.405    optimization parameters              
                                                                                
   Description                                                                  
     l     E      TYP  RCUT    TYP  RCUT                                        
     0   .000     23  1.900                                                     
     0   .000     23  1.900                                                     
     1   .000     23  1.900                                                     
     1  1.000     23  1.900                                                     
     2   .000      7  1.900                                                     
  local pseudopotential read in
  partial core-charges read in
  atomic valenz-charges read in
  non local Contribution for L=           0  read in
    real space projection operators read in
  non local Contribution for L=           0  read in
    real space projection operators read in
  non local Contribution for L=           1  read in
    real space projection operators read in
  non local Contribution for L=           1  read in
    real space projection operators read in
    PAW grid and wavefunctions read in
 
   number of l-projection  operators is LMAX  =           4
   number of lm-projection operators is LMMAX =           8
 

 ----------------------------------------------------------------------------- 
|                                                                             |
|  ADVICE TO THIS USER RUNNING 'VASP/VAMP'   (HEAR YOUR MASTER'S VOICE ...):  |
|                                                                             |
|      You have a (more or less) 'large supercell' and for larger cells       |
|      it might be more efficient to use real space projection operators      |
|      So try LREAL= Auto  in the INCAR   file.                               |
|      Mind: If you want to do an extremely accurate calculations keep the    |
|      reciprocal projection scheme          (i.e. LREAL=.FALSE.)             |
|                                                                             |
 ----------------------------------------------------------------------------- 

 PAW_PBE Al 04Jan2001                   :
 energy of atom  1       EATOM=  -53.5387
 kinetic energy error for atom=    0.0003 (will be added to EATOM!!)
 
 EXHCAR: internal setup
 exchange correlation table for  LEXCH =        8
   RHO(1)=    0.500       N(1)  =     2000
   RHO(2)=  100.500       N(2)  =     4000
 
 POSCAR: Al                                      
  positions in direct lattice
  No initial velocities read in
 


--------------------------------------------------------------------------------------------------------


 ion  position               nearest neighbor table
   1  0.251  0.250  0.000-  18 2.85  22 2.85  26 2.85  28 2.85   9 2.85  11 2.85  13 2.85  15 2.85
                            25 2.86  21 2.86  27 2.86  17 2.86
   2  0.750  0.250  0.000-  10 2.85  12 2.85  14 2.85  16 2.85  17 2.85  18 2.85  21 2.85  22 2.85
                            25 2.85  26 2.85  27 2.85  28 2.85
   3  0.250  0.750  0.000-   9 2.85  11 2.85  13 2.85  15 2.85  19 2.85  20 2.85  23 2.85  24 2.85
                            25 2.85  26 2.85  27 2.85  28 2.85
   4  0.750  0.750  0.000-  10 2.85  12 2.85  14 2.85  16 2.85  19 2.85  20 2.85  23 2.85  24 2.85
                            25 2.85  26 2.85  27 2.85  28 2.85
   5  0.250  0.250  0.500-   9 2.85  11 2.85  13 2.85  15 2.85  17 2.85  18 2.85  21 2.85  22 2.85
                            29 2.85  30 2.85  31 2.85  32 2.85
   6  0.750  0.250  0.500-  10 2.85  12 2.85  14 2.85  16 2.85  17 2.85  18 2.85  21 2.85  22 2.85
                            29 2.85  30 2.85  31 2.85  32 2.85
   7  0.250  0.750  0.500-   9 2.85  11 2.85  13 2.85  15 2.85  19 2.85  20 2.85  23 2.85  24 2.85
                            29 2.85  30 2.85  31 2.85  32 2.85
   8  0.750  0.750  0.500-  10 2.85  12 2.85  14 2.85  16 2.85  19 2.85  20 2.85  23 2.85  24 2.85
                            29 2.85  30 2.85  31 2.85  32 2.85
   9  0.250  0.000  0.250-   3 2.85   5 2.85   7 2.85  17 2.85  18 2.85  19 2.85  20 2.85  25 2.85
                            26 2.85  29 2.85  30 2.85   1 2.85
  10  0.750  0.000  0.250-   2 2.85   4 2.85   6 2.85   8 2.85  17 2.85  18 2.85  19 2.85  20 2.85
                            25 2.85  26 2.85  29 2.85  30 2.85
  11  0.250  0.500  0.250-   3 2.85   5 2.85   7 2.85  17 2.85  18 2.85  19 2.85  20 2.85  27 2.85
                            28 2.85  31 2.85  32 2.85   1 2.85
  12  0.750  0.500  0.250-   2 2.85   4 2.85   6 2.85   8 2.85  17 2.85  18 2.85  19 2.85  20 2.85
                            27 2.85  28 2.85  31 2.85  32 2.85
  13  0.250  0.000  0.750-   3 2.85   5 2.85   7 2.85  21 2.85  22 2.85  23 2.85  24 2.85  25 2.85
                            26 2.85  29 2.85  30 2.85   1 2.85
  14  0.750  0.000  0.750-   2 2.85   4 2.85   6 2.85   8 2.85  21 2.85  22 2.85  23 2.85  24 2.85
                            25 2.85  26 2.85  29 2.85  30 2.85
  15  0.250  0.500  0.750-   3 2.85   5 2.85   7 2.85  21 2.85  22 2.85  23 2.85  24 2.85  27 2.85
                            28 2.85  31 2.85  32 2.85   1 2.85
  16  0.750  0.500  0.750-   2 2.85   4 2.85   6 2.85   8 2.85  21 2.85  22 2.85  23 2.85  24 2.85
                            27 2.85  28 2.85  31 2.85  32 2.85
  17  0.000  0.250  0.250-   2 2.85   5 2.85   6 2.85   9 2.85  10 2.85  11 2.85  12 2.85  25 2.85
                            27 2.85  29 2.85  31 2.85   1 2.86
  18  0.500  0.250  0.250-   1 2.85   2 2.85   5 2.85   6 2.85   9 2.85  10 2.85  11 2.85  12 2.85
                            26 2.85  28 2.85  30 2.85  32 2.85
  19  0.000  0.750  0.250-   3 2.85   4 2.85   7 2.85   8 2.85   9 2.85  10 2.85  11 2.85  12 2.85
                            25 2.85  27 2.85  29 2.85  31 2.85
  20  0.500  0.750  0.250-   3 2.85   4 2.85   7 2.85   8 2.85   9 2.85  10 2.85  11 2.85  12 2.85
                            26 2.85  28 2.85  30 2.85  32 2.85
  21  0.000  0.250  0.750-   2 2.85   5 2.85   6 2.85  13 2.85  14 2.85  15 2.85  16 2.85  25 2.85
                            27 2.85  29 2.85  31 2.85   1 2.86
  22  0.500  0.250  0.750-   1 2.85   2 2.85   5 2.85   6 2.85  13 2.85  14 2.85  15 2.85  16 2.85
                            26 2.85  28 2.85  30 2.85  32 2.85
  23  0.000  0.750  0.750-   3 2.85   4 2.85   7 2.85   8 2.85  13 2.85  14 2.85  15 2.85  16 2.85
                            25 2.85  27 2.85  29 2.85  31 2.85
  24  0.500  0.750  0.750-   3 2.85   4 2.85   7 2.85   8 2.85  13 2.85  14 2.85  15 2.85  16 2.85
                            26 2.85  28 2.85  30 2.85  32 2.85
  25  0.000  0.000  0.000-   2 2.85   3 2.85   4 2.85   9 2.85  10 2.85  13 2.85  14 2.85  17 2.85
                            19 2.85  21 2.85  23 2.85   1 2.86
  26  0.500  0.000  0.000-   1 2.85   2 2.85   3 2.85   4 2.85   9 2.85  10 2.85  13 2.85  14 2.85
                            18 2.85  20 2.85  22 2.85  24 2.85
  27  0.000  0.500  0.000-   2 2.85   3 2.85   4 2.85  11 2.85  12 2.85  15 2.85  16 2.85  17 2.85
                            19 2.85  21 2.85  23 2.85   1 2.86
  28  0.500  0.500  0.000-   1 2.85   2 2.85   3 2.85   4 2.85  11 2.85  12 2.85  15 2.85  16 2.85
                            18 2.85  20 2.85  22 2.85  24 2.85
  29  0.000  0.000  0.500-   5 2.85   6 2.85   7 2.85   8 2.85   9 2.85  10 2.85  13 2.85  14 2.85
                            17 2.85  19 2.85  21 2.85  23 2.85
  30  0.500  0.000  0.500-   5 2.85   6 2.85   7 2.85   8 2.85   9 2.85  10 2.85  13 2.85  14 2.85
                            18 2.85  20 2.85  22 2.85  24 2.85
  31  0.000  0.500  0.500-   5 2.85   6 2.85   7 2.85   8 2.85  11 2.85  12 2.85  15 2.85  16 2.85
                            17 2.85  19 2.85  21 2.85  23 2.85
  32  0.500  0.500  0.500-   5 2.85   6 2.85   7 2.85   8 2.85  11 2.85  12 2.85  15 2.85  16 2.85
                            18 2.85  20 2.85  22 2.85  24 2.85
 
  LATTYP: Found a simple cubic cell.
 ALAT       =     8.0746127393
  
  Lattice vectors:
  
 A1 = (   8.0746127393,   0.0000000000,   0.0000000000)
 A2 = (   0.0000000000,   8.0746127393,   0.0000000000)
 A3 = (   0.0000000000,   0.0000000000,   8.0746127393)
 Subroutine PRICEL returns:
 Original cell was already a primitive cell.
 

Analysis of symmetry for initial positions (statically):

 Routine SETGRP: Setting up the symmetry group for a 
 simple cubic supercell.


 Subroutine GETGRP returns: Found  8 space group operations
 (whereof  2 operations were pure point group operations)
 out of a pool of 48 trial point group operations.


The static configuration has the point symmetry C_1h.
 The point group associated with its full space group is C_4v.

Analysis of symmetry for dynamics (positions and initial velocities):

 Subroutine DYNSYM returns: Found  8 space group operations
 (whereof  2 operations were pure point group operations)
 out of a pool of  8 trial space group operations
 (whereof  2 operations were pure point group operations)
 and found also     1 'primitive' translations


The dynamic configuration has the point symmetry C_1h.
 The point group associated with its full space group is C_4v.
 
 
 KPOINTS: Automatic mesh                          

Automatic generation of k-mesh.
 
 Subroutine IBZKPT returns following result:
 ===========================================
 
 Found    196 irreducible k-points:
 
 Following reciprocal coordinates:
            Coordinates               Weight
  0.000000  0.000000  0.000000      1.000000
  0.083333  0.000000  0.000000      2.000000
  0.166667  0.000000  0.000000      2.000000
  0.250000  0.000000  0.000000      2.000000
  0.333333  0.000000  0.000000      2.000000
  0.416667  0.000000  0.000000      2.000000
  0.500000  0.000000  0.000000      1.000000
  0.000000  0.083333  0.000000      4.000000
  0.083333  0.083333  0.000000      8.000000
  0.166667  0.083333  0.000000      8.000000
  0.250000  0.083333  0.000000      8.000000
  0.333333  0.083333  0.000000      8.000000
  0.416667  0.083333  0.000000      8.000000
  0.500000  0.083333  0.000000      4.000000
  0.000000  0.166667  0.000000      4.000000
  0.083333  0.166667  0.000000      8.000000
  0.166667  0.166667  0.000000      8.000000
  0.250000  0.166667  0.000000      8.000000
  0.333333  0.166667  0.000000      8.000000
  0.416667  0.166667  0.000000      8.000000
  0.500000  0.166667  0.000000      4.000000
  0.000000  0.250000  0.000000      4.000000
  0.083333  0.250000  0.000000      8.000000
  0.166667  0.250000  0.000000      8.000000
  0.250000  0.250000  0.000000      8.000000
  0.333333  0.250000  0.000000      8.000000
  0.416667  0.250000  0.000000      8.000000
  0.500000  0.250000  0.000000      4.000000
  0.000000  0.333333  0.000000      4.000000
  0.083333  0.333333  0.000000      8.000000
  0.166667  0.333333  0.000000      8.000000
  0.250000  0.333333  0.000000      8.000000
  0.333333  0.333333  0.000000      8.000000
  0.416667  0.333333  0.000000      8.000000
  0.500000  0.333333  0.000000      4.000000
  0.000000  0.416667  0.000000      4.000000
  0.083333  0.416667  0.000000      8.000000
  0.166667  0.416667  0.000000      8.000000
  0.250000  0.416667  0.000000      8.000000
  0.333333  0.416667  0.000000      8.000000
  0.416667  0.416667  0.000000      8.000000
  0.500000  0.416667  0.000000      4.000000
  0.000000  0.500000  0.000000      2.000000
  0.083333  0.500000  0.000000      4.000000
  0.166667  0.500000  0.000000      4.000000
  0.250000  0.500000  0.000000      4.000000
  0.333333  0.500000  0.000000      4.000000
  0.416667  0.500000  0.000000      4.000000
  0.500000  0.500000  0.000000      2.000000
  0.000000  0.083333  0.083333      4.000000
  0.083333  0.083333  0.083333      8.000000
  0.166667  0.083333  0.083333      8.000000
  0.250000  0.083333  0.083333      8.000000
  0.333333  0.083333  0.083333      8.000000
  0.416667  0.083333  0.083333      8.000000
  0.500000  0.083333  0.083333      4.000000
  0.000000  0.166667  0.083333      8.000000
  0.083333  0.166667  0.083333     16.000000
  0.166667  0.166667  0.083333     16.000000
  0.250000  0.166667  0.083333     16.000000
  0.333333  0.166667  0.083333     16.000000
  0.416667  0.166667  0.083333     16.000000
  0.500000  0.166667  0.083333      8.000000
  0.000000  0.250000  0.083333      8.000000
  0.083333  0.250000  0.083333     16.000000
  0.166667  0.250000  0.083333     16.000000
  0.250000  0.250000  0.083333     16.000000
  0.333333  0.250000  0.083333     16.000000
  0.416667  0.250000  0.083333     16.000000
  0.500000  0.250000  0.083333      8.000000
  0.000000  0.333333  0.083333      8.000000
  0.083333  0.333333  0.083333     16.000000
  0.166667  0.333333  0.083333     16.000000
  0.250000  0.333333  0.083333     16.000000
  0.333333  0.333333  0.083333     16.000000
  0.416667  0.333333  0.083333     16.000000
  0.500000  0.333333  0.083333      8.000000
  0.000000  0.416667  0.083333      8.000000
  0.083333  0.416667  0.083333     16.000000
  0.166667  0.416667  0.083333     16.000000
  0.250000  0.416667  0.083333     16.000000
  0.333333  0.416667  0.083333     16.000000
  0.416667  0.416667  0.083333     16.000000
  0.500000  0.416667  0.083333      8.000000
  0.000000  0.500000  0.083333      4.000000
  0.083333  0.500000  0.083333      8.000000
  0.166667  0.500000  0.083333      8.000000
  0.250000  0.500000  0.083333      8.000000
  0.333333  0.500000  0.083333      8.000000
  0.416667  0.500000  0.083333      8.000000
  0.500000  0.500000  0.083333      4.000000
  0.000000  0.166667  0.166667      4.000000
  0.083333  0.166667  0.166667      8.000000
  0.166667  0.166667  0.166667      8.000000
  0.250000  0.166667  0.166667      8.000000
  0.333333  0.166667  0.166667      8.000000
  0.416667  0.166667  0.166667      8.000000
  0.500000  0.166667  0.166667      4.000000
  0.000000  0.250000  0.166667      8.000000
  0.083333  0.250000  0.166667     16.000000
  0.166667  0.250000  0.166667     16.000000
  0.250000  0.250000  0.166667     16.000000
  0.333333  0.250000  0.166667     16.000000
  0.416667  0.250000  0.166667     16.000000
  0.500000  0.250000  0.166667      8.000000
  0.000000  0.333333  0.166667      8.000000
  0.083333  0.333333  0.166667     16.000000
  0.166667  0.333333  0.166667     16.000000
  0.250000  0.333333  0.166667     16.000000
  0.333333  0.333333  0.166667     16.000000
  0.416667  0.333333  0.166667     16.000000
  0.500000  0.333333  0.166667      8.000000
  0.000000  0.416667  0.166667      8.000000
  0.083333  0.416667  0.166667     16.000000
  0.166667  0.416667  0.166667     16.000000
  0.250000  0.416667  0.166667     16.000000
  0.333333  0.416667  0.166667     16.000000
  0.416667  0.416667  0.166667     16.000000
  0.500000  0.416667  0.166667      8.000000
  0.000000  0.500000  0.166667      4.000000
  0.083333  0.500000  0.166667      8.000000
  0.166667  0.500000  0.166667      8.000000
  0.250000  0.500000  0.166667      8.000000
  0.333333  0.500000  0.166667      8.000000
  0.416667  0.500000  0.166667      8.000000
  0.500000  0.500000  0.166667      4.000000
  0.000000  0.250000  0.250000      4.000000
  0.083333  0.250000  0.250000      8.000000
  0.166667  0.250000  0.250000      8.000000
  0.250000  0.250000  0.250000      8.000000
  0.333333  0.250000  0.250000      8.000000
  0.416667  0.250000  0.250000      8.000000
  0.500000  0.250000  0.250000      4.000000
  0.000000  0.333333  0.250000      8.000000
  0.083333  0.333333  0.250000     16.000000
  0.166667  0.333333  0.250000     16.000000
  0.250000  0.333333  0.250000     16.000000
  0.333333  0.333333  0.250000     16.000000
  0.416667  0.333333  0.250000     16.000000
  0.500000  0.333333  0.250000      8.000000
  0.000000  0.416667  0.250000      8.000000
  0.083333  0.416667  0.250000     16.000000
  0.166667  0.416667  0.250000     16.000000
  0.250000  0.416667  0.250000     16.000000
  0.333333  0.416667  0.250000     16.000000
  0.416667  0.416667  0.250000     16.000000
  0.500000  0.416667  0.250000      8.000000
  0.000000  0.500000  0.250000      4.000000
  0.083333  0.500000  0.250000      8.000000
  0.166667  0.500000  0.250000      8.000000
  0.250000  0.500000  0.250000      8.000000
  0.333333  0.500000  0.250000      8.000000
  0.416667  0.500000  0.250000      8.000000
  0.500000  0.500000  0.250000      4.000000
  0.000000  0.333333  0.333333      4.000000
  0.083333  0.333333  0.333333      8.000000
  0.166667  0.333333  0.333333      8.000000
  0.250000  0.333333  0.333333      8.000000
  0.333333  0.333333  0.333333      8.000000
  0.416667  0.333333  0.333333      8.000000
  0.500000  0.333333  0.333333      4.000000
  0.000000  0.416667  0.333333      8.000000
  0.083333  0.416667  0.333333     16.000000
  0.166667  0.416667  0.333333     16.000000
  0.250000  0.416667  0.333333     16.000000
  0.333333  0.416667  0.333333     16.000000
  0.416667  0.416667  0.333333     16.000000
  0.500000  0.416667  0.333333      8.000000
  0.000000  0.500000  0.333333      4.000000
  0.083333  0.500000  0.333333      8.000000
  0.166667  0.500000  0.333333      8.000000
  0.250000  0.500000  0.333333      8.000000
  0.333333  0.500000  0.333333      8.000000
  0.416667  0.500000  0.333333      8.000000
  0.500000  0.500000  0.333333      4.000000
  0.000000  0.416667  0.416667      4.000000
  0.083333  0.416667  0.416667      8.000000
  0.166667  0.416667  0.416667      8.000000
  0.250000  0.416667  0.416667      8.000000
  0.333333  0.416667  0.416667      8.000000
  0.416667  0.416667  0.416667      8.000000
  0.500000  0.416667  0.416667      4.000000
  0.000000  0.500000  0.416667      4.000000
  0.083333  0.500000  0.416667      8.000000
  0.166667  0.500000  0.416667      8.000000
  0.250000  0.500000  0.416667      8.000000
  0.333333  0.500000  0.416667      8.000000
  0.416667  0.500000  0.416667      8.000000
  0.500000  0.500000  0.416667      4.000000
  0.000000  0.500000  0.500000      1.000000
  0.083333  0.500000  0.500000      2.000000
  0.166667  0.500000  0.500000      2.000000
  0.250000  0.500000  0.500000      2.000000
  0.333333  0.500000  0.500000      2.000000
  0.416667  0.500000  0.500000      2.000000
  0.500000  0.500000  0.500000      1.000000
 
 Following cartesian coordinates:
            Coordinates               Weight
  0.000000  0.000000  0.000000      1.000000
  0.010320  0.000000  0.000000      2.000000
  0.020641  0.000000  0.000000      2.000000
  0.030961  0.000000  0.000000      2.000000
  0.041282  0.000000  0.000000      2.000000
  0.051602  0.000000  0.000000      2.000000
  0.061922  0.000000  0.000000      1.000000
  0.000000  0.010320  0.000000      4.000000
  0.010320  0.010320  0.000000      8.000000
  0.020641  0.010320  0.000000      8.000000
  0.030961  0.010320  0.000000      8.000000
  0.041282  0.010320  0.000000      8.000000
  0.051602  0.010320  0.000000      8.000000
  0.061922  0.010320  0.000000      4.000000
  0.000000  0.020641  0.000000      4.000000
  0.010320  0.020641  0.000000      8.000000
  0.020641  0.020641  0.000000      8.000000
  0.030961  0.020641  0.000000      8.000000
  0.041282  0.020641  0.000000      8.000000
  0.051602  0.020641  0.000000      8.000000
  0.061922  0.020641  0.000000      4.000000
  0.000000  0.030961  0.000000      4.000000
  0.010320  0.030961  0.000000      8.000000
  0.020641  0.030961  0.000000      8.000000
  0.030961  0.030961  0.000000      8.000000
  0.041282  0.030961  0.000000      8.000000
  0.051602  0.030961  0.000000      8.000000
  0.061922  0.030961  0.000000      4.000000
  0.000000  0.041282  0.000000      4.000000
  0.010320  0.041282  0.000000      8.000000
  0.020641  0.041282  0.000000      8.000000
  0.030961  0.041282  0.000000      8.000000
  0.041282  0.041282  0.000000      8.000000
  0.051602  0.041282  0.000000      8.000000
  0.061922  0.041282  0.000000      4.000000
  0.000000  0.051602  0.000000      4.000000
  0.010320  0.051602  0.000000      8.000000
  0.020641  0.051602  0.000000      8.000000
  0.030961  0.051602  0.000000      8.000000
  0.041282  0.051602  0.000000      8.000000
  0.051602  0.051602  0.000000      8.000000
  0.061922  0.051602  0.000000      4.000000
  0.000000  0.061922  0.000000      2.000000
  0.010320  0.061922  0.000000      4.000000
  0.020641  0.061922  0.000000      4.000000
  0.030961  0.061922  0.000000      4.000000
  0.041282  0.061922  0.000000      4.000000
  0.051602  0.061922  0.000000      4.000000
  0.061922  0.061922  0.000000      2.000000
  0.000000  0.010320  0.010320      4.000000
  0.010320  0.010320  0.010320      8.000000
  0.020641  0.010320  0.010320      8.000000
  0.030961  0.010320  0.010320      8.000000
  0.041282  0.010320  0.010320      8.000000
  0.051602  0.010320  0.010320      8.000000
  0.061922  0.010320  0.010320      4.000000
  0.000000  0.020641  0.010320      8.000000
  0.010320  0.020641  0.010320     16.000000
  0.020641  0.020641  0.010320     16.000000
  0.030961  0.020641  0.010320     16.000000
  0.041282  0.020641  0.010320     16.000000
  0.051602  0.020641  0.010320     16.000000
  0.061922  0.020641  0.010320      8.000000
  0.000000  0.030961  0.010320      8.000000
  0.010320  0.030961  0.010320     16.000000
  0.020641  0.030961  0.010320     16.000000
  0.030961  0.030961  0.010320     16.000000
  0.041282  0.030961  0.010320     16.000000
  0.051602  0.030961  0.010320     16.000000
  0.061922  0.030961  0.010320      8.000000
  0.000000  0.041282  0.010320      8.000000
  0.010320  0.041282  0.010320     16.000000
  0.020641  0.041282  0.010320     16.000000
  0.030961  0.041282  0.010320     16.000000
  0.041282  0.041282  0.010320     16.000000
  0.051602  0.041282  0.010320     16.000000
  0.061922  0.041282  0.010320      8.000000
  0.000000  0.051602  0.010320      8.000000
  0.010320  0.051602  0.010320     16.000000
  0.020641  0.051602  0.010320     16.000000
  0.030961  0.051602  0.010320     16.000000
  0.041282  0.051602  0.010320     16.000000
  0.051602  0.051602  0.010320     16.000000
  0.061922  0.051602  0.010320      8.000000
  0.000000  0.061922  0.010320      4.000000
  0.010320  0.061922  0.010320      8.000000
  0.020641  0.061922  0.010320      8.000000
  0.030961  0.061922  0.010320      8.000000
  0.041282  0.061922  0.010320      8.000000
  0.051602  0.061922  0.010320      8.000000
  0.061922  0.061922  0.010320      4.000000
  0.000000  0.020641  0.020641      4.000000
  0.010320  0.020641  0.020641      8.000000
  0.020641  0.020641  0.020641      8.000000
  0.030961  0.020641  0.020641      8.000000
  0.041282  0.020641  0.020641      8.000000
  0.051602  0.020641  0.020641      8.000000
  0.061922  0.020641  0.020641      4.000000
  0.000000  0.030961  0.020641      8.000000
  0.010320  0.030961  0.020641     16.000000
  0.020641  0.030961  0.020641     16.000000
  0.030961  0.030961  0.020641     16.000000
  0.041282  0.030961  0.020641     16.000000
  0.051602  0.030961  0.020641     16.000000
  0.061922  0.030961  0.020641      8.000000
  0.000000  0.041282  0.020641      8.000000
  0.010320  0.041282  0.020641     16.000000
  0.020641  0.041282  0.020641     16.000000
  0.030961  0.041282  0.020641     16.000000
  0.041282  0.041282  0.020641     16.000000
  0.051602  0.041282  0.020641     16.000000
  0.061922  0.041282  0.020641      8.000000
  0.000000  0.051602  0.020641      8.000000
  0.010320  0.051602  0.020641     16.000000
  0.020641  0.051602  0.020641     16.000000
  0.030961  0.051602  0.020641     16.000000
  0.041282  0.051602  0.020641     16.000000
  0.051602  0.051602  0.020641     16.000000
  0.061922  0.051602  0.020641      8.000000
  0.000000  0.061922  0.020641      4.000000
  0.010320  0.061922  0.020641      8.000000
  0.020641  0.061922  0.020641      8.000000
  0.030961  0.061922  0.020641      8.000000
  0.041282  0.061922  0.020641      8.000000
  0.051602  0.061922  0.020641      8.000000
  0.061922  0.061922  0.020641      4.000000
  0.000000  0.030961  0.030961      4.000000
  0.010320  0.030961  0.030961      8.000000
  0.020641  0.030961  0.030961      8.000000
  0.030961  0.030961  0.030961      8.000000
  0.041282  0.030961  0.030961      8.000000
  0.051602  0.030961  0.030961      8.000000
  0.061922  0.030961  0.030961      4.000000
  0.000000  0.041282  0.030961      8.000000
  0.010320  0.041282  0.030961     16.000000
  0.020641  0.041282  0.030961     16.000000
  0.030961  0.041282  0.030961     16.000000
  0.041282  0.041282  0.030961     16.000000
  0.051602  0.041282  0.030961     16.000000
  0.061922  0.041282  0.030961      8.000000
  0.000000  0.051602  0.030961      8.000000
  0.010320  0.051602  0.030961     16.000000
  0.020641  0.051602  0.030961     16.000000
  0.030961  0.051602  0.030961     16.000000
  0.041282  0.051602  0.030961     16.000000
  0.051602  0.051602  0.030961     16.000000
  0.061922  0.051602  0.030961      8.000000
  0.000000  0.061922  0.030961      4.000000
  0.010320  0.061922  0.030961      8.000000
  0.020641  0.061922  0.030961      8.000000
  0.030961  0.061922  0.030961      8.000000
  0.041282  0.061922  0.030961      8.000000
  0.051602  0.061922  0.030961      8.000000
  0.061922  0.061922  0.030961      4.000000
  0.000000  0.041282  0.041282      4.000000
  0.010320  0.041282  0.041282      8.000000
  0.020641  0.041282  0.041282      8.000000
  0.030961  0.041282  0.041282      8.000000
  0.041282  0.041282  0.041282      8.000000
  0.051602  0.041282  0.041282      8.000000
  0.061922  0.041282  0.041282      4.000000
  0.000000  0.051602  0.041282      8.000000
  0.010320  0.051602  0.041282     16.000000
  0.020641  0.051602  0.041282     16.000000
  0.030961  0.051602  0.041282     16.000000
  0.041282  0.051602  0.041282     16.000000
  0.051602  0.051602  0.041282     16.000000
  0.061922  0.051602  0.041282      8.000000
  0.000000  0.061922  0.041282      4.000000
  0.010320  0.061922  0.041282      8.000000
  0.020641  0.061922  0.041282      8.000000
  0.030961  0.061922  0.041282      8.000000
  0.041282  0.061922  0.041282      8.000000
  0.051602  0.061922  0.041282      8.000000
  0.061922  0.061922  0.041282      4.000000
  0.000000  0.051602  0.051602      4.000000
  0.010320  0.051602  0.051602      8.000000
  0.020641  0.051602  0.051602      8.000000
  0.030961  0.051602  0.051602      8.000000
  0.041282  0.051602  0.051602      8.000000
  0.051602  0.051602  0.051602      8.000000
  0.061922  0.051602  0.051602      4.000000
  0.000000  0.061922  0.051602      4.000000
  0.010320  0.061922  0.051602      8.000000
  0.020641  0.061922  0.051602      8.000000
  0.030961  0.061922  0.051602      8.000000
  0.041282  0.061922  0.051602      8.000000
  0.051602  0.061922  0.051602      8.000000
  0.061922  0.061922  0.051602      4.000000
  0.000000  0.061922  0.061922      1.000000
  0.010320  0.061922  0.061922      2.000000
  0.020641  0.061922  0.061922      2.000000
  0.030961  0.061922  0.061922      2.000000
  0.041282  0.061922  0.061922      2.000000
  0.051602  0.061922  0.061922      2.000000
  0.061922  0.061922  0.061922      1.000000
 


--------------------------------------------------------------------------------------------------------




 Dimension of arrays:
   k-Points           NKPTS =    196   number of bands    NBANDS=     72
   number of dos      NEDOS =    301   number of ions     NIONS =     32
   non local maximal  LDIM  =      4   non local SUM 2l+1 LMDIM =      8
   total plane-waves  NPLWV = 216000
   max r-space proj   IRMAX =      1   max aug-charges    IRDMAX=  16166
   dimension x,y,z NGX =    60 NGY =   60 NGZ =   60
   dimension x,y,z NGXF=   120 NGYF=  120 NGZF=  120
   support grid    NGXF=   120 NGYF=  120 NGZF=  120
   ions per type =              32
 NGX,Y,Z   is equivalent  to a cutoff of  12.35, 12.35, 12.35 a.u.
 NGXF,Y,Z  is equivalent  to a cutoff of  24.71, 24.71, 24.71 a.u.


 I would recommend the setting:
   dimension x,y,z NGX =    59 NGY =   59 NGZ =   59
 SYSTEM =  unknown system                          
 POSCAR =  Al                                      

 Startparameter for this run:
   NWRITE =      2    write-flag & timer
   PREC   = accura    medium, high low
   ISTART =      0    job   : 0-new  1-cont  2-samecut
   ICHARG =      2    charge: 1-file 2-atom 10-const
   ISPIN  =      1    spin polarized calculation?
   LNONCOLLINEAR =      F non collinear calculations
   LSORBIT =      F    spin-orbit coupling
   INIWAV =      1    electr: 0-lowe 1-rand  2-diag
   LASPH  =      F    aspherical Exc in radial PAW
   METAGGA=      F    non-selfconsistent MetaGGA calc.

 Electronic Relaxation 1
   ENCUT  =  500.0 eV  36.75 Ry    6.06 a.u.  14.72 14.72 14.72*2*pi/ulx,y,z
   ENINI  =  500.0     initial cutoff
   ENAUG  =  291.1 eV  augmentation charge cutoff
   NELM   =     60;   NELMIN=  2; NELMDL=  0     # of ELM steps 
   EDIFF  = 0.1E-07   stopping-criterion for ELM
   LREAL  =      F    real-space projection
   LCOMPAT=      F    compatible to vasp.4.4
   LREAL_COMPAT= F    compatible to vasp.4.5.1-3
   GGA_COMPAT  = T    GGA compatible to vasp.4.4-vasp.4.6
   LMAXPAW     = -100 max onsite density
   LMAXMIX     =    2 max onsite mixed and CHGCAR
   VOSKOWN=      0    Vosko Wilk Nusair interpolation
   ROPT   =    0.00000
 Ionic relaxation
   EDIFFG = 0.1E-06   stopping-criterion for IOM
   NSW    =      0    number of steps for IOM
   NBLOCK =      1;   KBLOCK =      1    inner block; outer block 
   IBRION =     -1    ionic relax: 0-MD 1-quasi-New 2-CG
   NFREE  =      0    steps in history (QN), initial steepest desc. (CG)
   ISIF   =      2    stress and relaxation
   IWAVPR =     10    prediction:  0-non 1-charg 2-wave 3-comb
   ISYM   =      2    0-nonsym 1-usesym 2-fastsym
   LCORR  =      T    Harris-Foulkes like correction to forces

   POTIM  =   0.50    time-step for ionic-motion
   TEIN   =    0.0    initial temperature
   TEBEG  =    0.0;   TEEND  =   0.0 temperature during run
   SMASS  =  -3.00    Nose mass-parameter (am)
   estimated Nose-frequenzy (Omega)   =  0.10E-29 period in steps =****** mass=  -0.149E-26a.u.
   NPACO  =    256;   APACO  = 16.0  distance and # of slots for P.C.
   PSTRESS=    0.0 pullay stress

  Mass of Ions in am
   POMASS =  26.98
  Ionic Valenz
   ZVAL   =   3.00
  Atomic Wigner-Seitz radii
   RWIGS  =  -1.00
   NELECT =      96.0000    total number of electrons
   NUPDOWN=      -1.0000    fix difference up-down

 DOS related values:
   EMIN   =  10.00;   EMAX   =-10.00  energy-range for DOS
   ISMEAR =     0;   SIGMA  =   0.01  broadening in eV -4-tet -1-fermi 0-gaus

 Electronic relaxation 2 (details)
   IALGO  =     38    algorithm
   LDIAG  =      T    sub-space diagonalisation
   IMIX   =      4    mixing-type and parameters
     AMIX     =   0.40;   BMIX     =  1.00
     AMIX_MAG =   1.60;   BMIX_MAG =  1.00
     AMIN     =   0.10
     WC   =   100.;   INIMIX=   1;  MIXPRE=   1

 Intra band minimization:
   WEIMIN = 0.0000     energy-eigenvalue tresh-hold
   EBREAK =  0.38E-10  absolut break condition
   DEPER  =   0.30     relativ break condition  

   TIME   =   0.10     timestep for ELM

  volume/ion in A,a.u.               =      16.45       111.02
  Fermi-wavevector in a.u.,eV,Ry     =   0.928347 11.725877  0.861828

 Second variation
   LSECVAR=     F    do a second variation
 
 Write flags
   LWAVE  =      F    write WAVECAR
   LCHARG =      F    write CHGCAR
   LVTOT  =      F    write LOCPOT, local potential
   LELF   =      F    write electronic localiz. function (ELF)
   LORBIT =      0    0 simple, 1 ext, 2 COOP (PROOUT)


 Dipole corrections
   IDIPOL =      0    1-x, 2-y, 3-z
   LDIPOL =      F    correct potential



--------------------------------------------------------------------------------------------------------


 Static calculation
 charge density will be updated during run
 non-spin polarized calculation
 Variant of blocked Davidson
 Davidson routine will perform the subspace rotation
 performe sub-space diagonalisation
    after iterative eigenvector-optimisation
 modified Broyden-mixing scheme, WC =      100.0
 initial mixing is a Kerker type mixing with AMIX =  0.4000 and BMIX =      1.0000
 Hartree-type preconditioning will be used
 using additional bands           24
 reciprocal scheme for non local part
 use partial core corrections
 calculate Harris-corrections to forces 
   (improved forces if not selfconsistent)
 use gradient corrections 
 use of overlap-Matrix (Vanderbilt PP)
 Gauss-broadening in eV      SIGMA  =   0.01


--------------------------------------------------------------------------------------------------------


  energy-cutoff  :      500.00
  volume of cell :      526.46
      direct lattice vectors                 reciprocal lattice vectors
     8.074612739  0.000000000  0.000000000     0.123844949  0.000000000  0.000000000
     0.000000000  8.074612739  0.000000000     0.000000000  0.123844949  0.000000000
     0.000000000  0.000000000  8.074612739     0.000000000  0.000000000  0.123844949

  length of vectors
     8.074612739  8.074612739  8.074612739     0.123844949  0.123844949  0.123844949


 
 k-points in units of 2pi/SCALE and weight: Automatic mesh                          
   0.00000000  0.00000000  0.00000000       0.001
   0.01032041  0.00000000  0.00000000       0.001
   0.02064082  0.00000000  0.00000000       0.001
   0.03096124  0.00000000  0.00000000       0.001
   0.04128165  0.00000000  0.00000000       0.001
   0.05160206  0.00000000  0.00000000       0.001
   0.06192247  0.00000000  0.00000000       0.001
   0.00000000  0.01032041  0.00000000       0.002
   0.01032041  0.01032041  0.00000000       0.005
   0.02064082  0.01032041  0.00000000       0.005
   0.03096124  0.01032041  0.00000000       0.005
   0.04128165  0.01032041  0.00000000       0.005
   0.05160206  0.01032041  0.00000000       0.005
   0.06192247  0.01032041  0.00000000       0.002
   0.00000000  0.02064082  0.00000000       0.002
   0.01032041  0.02064082  0.00000000       0.005
   0.02064082  0.02064082  0.00000000       0.005
   0.03096124  0.02064082  0.00000000       0.005
   0.04128165  0.02064082  0.00000000       0.005
   0.05160206  0.02064082  0.00000000       0.005
   0.06192247  0.02064082  0.00000000       0.002
   0.00000000  0.03096124  0.00000000       0.002
   0.01032041  0.03096124  0.00000000       0.005
   0.02064082  0.03096124  0.00000000       0.005
   0.03096124  0.03096124  0.00000000       0.005
   0.04128165  0.03096124  0.00000000       0.005
   0.05160206  0.03096124  0.00000000       0.005
   0.06192247  0.03096124  0.00000000       0.002
   0.00000000  0.04128165  0.00000000       0.002
   0.01032041  0.04128165  0.00000000       0.005
   0.02064082  0.04128165  0.00000000       0.005
   0.03096124  0.04128165  0.00000000       0.005
   0.04128165  0.04128165  0.00000000       0.005
   0.05160206  0.04128165  0.00000000       0.005
   0.06192247  0.04128165  0.00000000       0.002
   0.00000000  0.05160206  0.00000000       0.002
   0.01032041  0.05160206  0.00000000       0.005
   0.02064082  0.05160206  0.00000000       0.005
   0.03096124  0.05160206  0.00000000       0.005
   0.04128165  0.05160206  0.00000000       0.005
   0.05160206  0.05160206  0.00000000       0.005
   0.06192247  0.05160206  0.00000000       0.002
   0.00000000  0.06192247  0.00000000       0.001
   0.01032041  0.06192247  0.00000000       0.002
   0.02064082  0.06192247  0.00000000       0.002
   0.03096124  0.06192247  0.00000000       0.002
   0.04128165  0.06192247  0.00000000       0.002
   0.05160206  0.06192247  0.00000000       0.002
   0.06192247  0.06192247  0.00000000       0.001
   0.00000000  0.01032041  0.01032041       0.002
   0.01032041  0.01032041  0.01032041       0.005
   0.02064082  0.01032041  0.01032041       0.005
   0.03096124  0.01032041  0.01032041       0.005
   0.04128165  0.01032041  0.01032041       0.005
   0.05160206  0.01032041  0.01032041       0.005
   0.06192247  0.01032041  0.01032041       0.002
   0.00000000  0.02064082  0.01032041       0.005
   0.01032041  0.02064082  0.01032041       0.009
   0.02064082  0.02064082  0.01032041       0.009
   0.03096124  0.02064082  0.01032041       0.009
   0.04128165  0.02064082  0.01032041       0.009
   0.05160206  0.02064082  0.01032041       0.009
   0.06192247  0.02064082  0.01032041       0.005
   0.00000000  0.03096124  0.01032041       0.005
   0.01032041  0.03096124  0.01032041       0.009
   0.02064082  0.03096124  0.01032041       0.009
   0.03096124  0.03096124  0.01032041       0.009
   0.04128165  0.03096124  0.01032041       0.009
   0.05160206  0.03096124  0.01032041       0.009
   0.06192247  0.03096124  0.01032041       0.005
   0.00000000  0.04128165  0.01032041       0.005
   0.01032041  0.04128165  0.01032041       0.009
   0.02064082  0.04128165  0.01032041       0.009
   0.03096124  0.04128165  0.01032041       0.009
   0.04128165  0.04128165  0.01032041       0.009
   0.05160206  0.04128165  0.01032041       0.009
   0.06192247  0.04128165  0.01032041       0.005
   0.00000000  0.05160206  0.01032041       0.005
   0.01032041  0.05160206  0.01032041       0.009
   0.02064082  0.05160206  0.01032041       0.009
   0.03096124  0.05160206  0.01032041       0.009
   0.04128165  0.05160206  0.01032041       0.009
   0.05160206  0.05160206  0.01032041       0.009
   0.06192247  0.05160206  0.01032041       0.005
   0.00000000  0.06192247  0.01032041       0.002
   0.01032041  0.06192247  0.01032041       0.005
   0.02064082  0.06192247  0.01032041       0.005
   0.03096124  0.06192247  0.01032041       0.005
   0.04128165  0.06192247  0.01032041       0.005
   0.05160206  0.06192247  0.01032041       0.005
   0.06192247  0.06192247  0.01032041       0.002
   0.00000000  0.02064082  0.02064082       0.002
   0.01032041  0.02064082  0.02064082       0.005
   0.02064082  0.02064082  0.02064082       0.005
   0.03096124  0.02064082  0.02064082       0.005
   0.04128165  0.02064082  0.02064082       0.005
   0.05160206  0.02064082  0.02064082       0.005
   0.06192247  0.02064082  0.02064082       0.002
   0.00000000  0.03096124  0.02064082       0.005
   0.01032041  0.03096124  0.02064082       0.009
   0.02064082  0.03096124  0.02064082       0.009
   0.03096124  0.03096124  0.02064082       0.009
   0.04128165  0.03096124  0.02064082       0.009
   0.05160206  0.03096124  0.02064082       0.009
   0.06192247  0.03096124  0.02064082       0.005
   0.00000000  0.04128165  0.02064082       0.005
   0.01032041  0.04128165  0.02064082       0.009
   0.02064082  0.04128165  0.02064082       0.009
   0.03096124  0.04128165  0.02064082       0.009
   0.04128165  0.04128165  0.02064082       0.009
   0.05160206  0.04128165  0.02064082       0.009
   0.06192247  0.04128165  0.02064082       0.005
   0.00000000  0.05160206  0.02064082       0.005
   0.01032041  0.05160206  0.02064082       0.009
   0.02064082  0.05160206  0.02064082       0.009
   0.03096124  0.05160206  0.02064082       0.009
   0.04128165  0.05160206  0.02064082       0.009
   0.05160206  0.05160206  0.02064082       0.009
   0.06192247  0.05160206  0.02064082       0.005
   0.00000000  0.06192247  0.02064082       0.002
   0.01032041  0.06192247  0.02064082       0.005
   0.02064082  0.06192247  0.02064082       0.005
   0.03096124  0.06192247  0.02064082       0.005
   0.04128165  0.06192247  0.02064082       0.005
   0.05160206  0.06192247  0.02064082       0.005
   0.06192247  0.06192247  0.02064082       0.002
   0.00000000  0.03096124  0.03096124       0.002
   0.01032041  0.03096124  0.03096124       0.005
   0.02064082  0.03096124  0.03096124       0.005
   0.03096124  0.03096124  0.03096124       0.005
   0.04128165  0.03096124  0.03096124       0.005
   0.05160206  0.03096124  0.03096124       0.005
   0.06192247  0.03096124  0.03096124       0.002
   0.00000000  0.04128165  0.03096124       0.005
   0.01032041  0.04128165  0.03096124       0.009
   0.02064082  0.04128165  0.03096124       0.009
   0.03096124  0.04128165  0.03096124       0.009
   0.04128165  0.04128165  0.03096124       0.009
   0.05160206  0.04128165  0.03096124       0.009
   0.06192247  0.04128165  0.03096124       0.005
   0.00000000  0.05160206  0.03096124       0.005
   0.01032041  0.05160206  0.03096124       0.009
   0.02064082  0.05160206  0.03096124       0.009
   0.03096124  0.05160206  0.03096124       0.009
   0.04128165  0.05160206  0.03096124       0.009
   0.05160206  0.05160206  0.03096124       0.009
   0.06192247  0.05160206  0.03096124       0.005
   0.00000000  0.06192247  0.03096124       0.002
   0.01032041  0.06192247  0.03096124       0.005
   0.02064082  0.06192247  0.03096124       0.005
   0.03096124  0.06192247  0.03096124       0.005
   0.04128165  0.06192247  0.03096124       0.005
   0.05160206  0.06192247  0.03096124       0.005
   0.06192247  0.06192247  0.03096124       0.002
   0.00000000  0.04128165  0.04128165       0.002
   0.01032041  0.04128165  0.04128165       0.005
   0.02064082  0.04128165  0.04128165       0.005
   0.03096124  0.04128165  0.04128165       0.005
   0.04128165  0.04128165  0.04128165       0.005
   0.05160206  0.04128165  0.04128165       0.005
   0.06192247  0.04128165  0.04128165       0.002
   0.00000000  0.05160206  0.04128165       0.005
   0.01032041  0.05160206  0.04128165       0.009
   0.02064082  0.05160206  0.04128165       0.009
   0.03096124  0.05160206  0.04128165       0.009
   0.04128165  0.05160206  0.04128165       0.009
   0.05160206  0.05160206  0.04128165       0.009
   0.06192247  0.05160206  0.04128165       0.005
   0.00000000  0.06192247  0.04128165       0.002
   0.01032041  0.06192247  0.04128165       0.005
   0.02064082  0.06192247  0.04128165       0.005
   0.03096124  0.06192247  0.04128165       0.005
   0.04128165  0.06192247  0.04128165       0.005
   0.05160206  0.06192247  0.04128165       0.005
   0.06192247  0.06192247  0.04128165       0.002
   0.00000000  0.05160206  0.05160206       0.002
   0.01032041  0.05160206  0.05160206       0.005
   0.02064082  0.05160206  0.05160206       0.005
   0.03096124  0.05160206  0.05160206       0.005
   0.04128165  0.05160206  0.05160206       0.005
   0.05160206  0.05160206  0.05160206       0.005
   0.06192247  0.05160206  0.05160206       0.002
   0.00000000  0.06192247  0.05160206       0.002
   0.01032041  0.06192247  0.05160206       0.005
   0.02064082  0.06192247  0.05160206       0.005
   0.03096124  0.06192247  0.05160206       0.005
   0.04128165  0.06192247  0.05160206       0.005
   0.05160206  0.06192247  0.05160206       0.005
   0.06192247  0.06192247  0.05160206       0.002
   0.00000000  0.06192247  0.06192247       0.001
   0.01032041  0.06192247  0.06192247       0.001
   0.02064082  0.06192247  0.06192247       0.001
   0.03096124  0.06192247  0.06192247       0.001
   0.04128165  0.06192247  0.06192247       0.001
   0.05160206  0.06192247  0.06192247       0.001
   0.06192247  0.06192247  0.06192247       0.001
 
 k-points in reciprocal lattice and weights: Automatic mesh                          
   0.00000000  0.00000000  0.00000000       0.001
   0.08333333  0.00000000  0.00000000       0.001
   0.16666667  0.00000000  0.00000000       0.001
   0.25000000  0.00000000  0.00000000       0.001
   0.33333333  0.00000000  0.00000000       0.001
   0.41666667  0.00000000  0.00000000       0.001
   0.50000000  0.00000000  0.00000000       0.001
   0.00000000  0.08333333  0.00000000       0.002
   0.08333333  0.08333333  0.00000000       0.005
   0.16666667  0.08333333  0.00000000       0.005
   0.25000000  0.08333333  0.00000000       0.005
   0.33333333  0.08333333  0.00000000       0.005
   0.41666667  0.08333333  0.00000000       0.005
   0.50000000  0.08333333  0.00000000       0.002
   0.00000000  0.16666667  0.00000000       0.002
   0.08333333  0.16666667  0.00000000       0.005
   0.16666667  0.16666667  0.00000000       0.005
   0.25000000  0.16666667  0.00000000       0.005
   0.33333333  0.16666667  0.00000000       0.005
   0.41666667  0.16666667  0.00000000       0.005
   0.50000000  0.16666667  0.00000000       0.002
   0.00000000  0.25000000  0.00000000       0.002
   0.08333333  0.25000000  0.00000000       0.005
   0.16666667  0.25000000  0.00000000       0.005
   0.25000000  0.25000000  0.00000000       0.005
   0.33333333  0.25000000  0.00000000       0.005
   0.41666667  0.25000000  0.00000000       0.005
   0.50000000  0.25000000  0.00000000       0.002
   0.00000000  0.33333333  0.00000000       0.002
   0.08333333  0.33333333  0.00000000       0.005
   0.16666667  0.33333333  0.00000000       0.005
   0.25000000  0.33333333  0.00000000       0.005
   0.33333333  0.33333333  0.00000000       0.005
   0.41666667  0.33333333  0.00000000       0.005
   0.50000000  0.33333333  0.00000000       0.002
   0.00000000  0.41666667  0.00000000       0.002
   0.08333333  0.41666667  0.00000000       0.005
   0.16666667  0.41666667  0.00000000       0.005
   0.25000000  0.41666667  0.00000000       0.005
   0.33333333  0.41666667  0.00000000       0.005
   0.41666667  0.41666667  0.00000000       0.005
   0.50000000  0.41666667  0.00000000       0.002
   0.00000000  0.50000000  0.00000000       0.001
   0.08333333  0.50000000  0.00000000       0.002
   0.16666667  0.50000000  0.00000000       0.002
   0.25000000  0.50000000  0.00000000       0.002
   0.33333333  0.50000000  0.00000000       0.002
   0.41666667  0.50000000  0.00000000       0.002
   0.50000000  0.50000000  0.00000000       0.001
   0.00000000  0.08333333  0.08333333       0.002
   0.08333333  0.08333333  0.08333333       0.005
   0.16666667  0.08333333  0.08333333       0.005
   0.25000000  0.08333333  0.08333333       0.005
   0.33333333  0.08333333  0.08333333       0.005
   0.41666667  0.08333333  0.08333333       0.005
   0.50000000  0.08333333  0.08333333       0.002
   0.00000000  0.16666667  0.08333333       0.005
   0.08333333  0.16666667  0.08333333       0.009
   0.16666667  0.16666667  0.08333333       0.009
   0.25000000  0.16666667  0.08333333       0.009
   0.33333333  0.16666667  0.08333333       0.009
   0.41666667  0.16666667  0.08333333       0.009
   0.50000000  0.16666667  0.08333333       0.005
   0.00000000  0.25000000  0.08333333       0.005
   0.08333333  0.25000000  0.08333333       0.009
   0.16666667  0.25000000  0.08333333       0.009
   0.25000000  0.25000000  0.08333333       0.009
   0.33333333  0.25000000  0.08333333       0.009
   0.41666667  0.25000000  0.08333333       0.009
   0.50000000  0.25000000  0.08333333       0.005
   0.00000000  0.33333333  0.08333333       0.005
   0.08333333  0.33333333  0.08333333       0.009
   0.16666667  0.33333333  0.08333333       0.009
   0.25000000  0.33333333  0.08333333       0.009
   0.33333333  0.33333333  0.08333333       0.009
   0.41666667  0.33333333  0.08333333       0.009
   0.50000000  0.33333333  0.08333333       0.005
   0.00000000  0.41666667  0.08333333       0.005
   0.08333333  0.41666667  0.08333333       0.009
   0.16666667  0.41666667  0.08333333       0.009
   0.25000000  0.41666667  0.08333333       0.009
   0.33333333  0.41666667  0.08333333       0.009
   0.41666667  0.41666667  0.08333333       0.009
   0.50000000  0.41666667  0.08333333       0.005
   0.00000000  0.50000000  0.08333333       0.002
   0.08333333  0.50000000  0.08333333       0.005
   0.16666667  0.50000000  0.08333333       0.005
   0.25000000  0.50000000  0.08333333       0.005
   0.33333333  0.50000000  0.08333333       0.005
   0.41666667  0.50000000  0.08333333       0.005
   0.50000000  0.50000000  0.08333333       0.002
   0.00000000  0.16666667  0.16666667       0.002
   0.08333333  0.16666667  0.16666667       0.005
   0.16666667  0.16666667  0.16666667       0.005
   0.25000000  0.16666667  0.16666667       0.005
   0.33333333  0.16666667  0.16666667       0.005
   0.41666667  0.16666667  0.16666667       0.005
   0.50000000  0.16666667  0.16666667       0.002
   0.00000000  0.25000000  0.16666667       0.005
   0.08333333  0.25000000  0.16666667       0.009
   0.16666667  0.25000000  0.16666667       0.009
   0.25000000  0.25000000  0.16666667       0.009
   0.33333333  0.25000000  0.16666667       0.009
   0.41666667  0.25000000  0.16666667       0.009
   0.50000000  0.25000000  0.16666667       0.005
   0.00000000  0.33333333  0.16666667       0.005
   0.08333333  0.33333333  0.16666667       0.009
   0.16666667  0.33333333  0.16666667       0.009
   0.25000000  0.33333333  0.16666667       0.009
   0.33333333  0.33333333  0.16666667       0.009
   0.41666667  0.33333333  0.16666667       0.009
   0.50000000  0.33333333  0.16666667       0.005
   0.00000000  0.41666667  0.16666667       0.005
   0.08333333  0.41666667  0.16666667       0.009
   0.16666667  0.41666667  0.16666667       0.009
   0.25000000  0.41666667  0.16666667       0.009
   0.33333333  0.41666667  0.16666667       0.009
   0.41666667  0.41666667  0.16666667       0.009
   0.50000000  0.41666667  0.16666667       0.005
   0.00000000  0.50000000  0.16666667       0.002
   0.08333333  0.50000000  0.16666667       0.005
   0.16666667  0.50000000  0.16666667       0.005
   0.25000000  0.50000000  0.16666667       0.005
   0.33333333  0.50000000  0.16666667       0.005
   0.41666667  0.50000000  0.16666667       0.005
   0.50000000  0.50000000  0.16666667       0.002
   0.00000000  0.25000000  0.25000000       0.002
   0.08333333  0.25000000  0.25000000       0.005
   0.16666667  0.25000000  0.25000000       0.005
   0.25000000  0.25000000  0.25000000       0.005
   0.33333333  0.25000000  0.25000000       0.005
   0.41666667  0.25000000  0.25000000       0.005
   0.50000000  0.25000000  0.25000000       0.002
   0.00000000  0.33333333  0.25000000       0.005
   0.08333333  0.33333333  0.25000000       0.009
   0.16666667  0.33333333  0.25000000       0.009
   0.25000000  0.33333333  0.25000000       0.009
   0.33333333  0.33333333  0.25000000       0.009
   0.41666667  0.33333333  0.25000000       0.009
   0.50000000  0.33333333  0.25000000       0.005
   0.00000000  0.41666667  0.25000000       0.005
   0.08333333  0.41666667  0.25000000       0.009
   0.16666667  0.41666667  0.25000000       0.009
   0.25000000  0.41666667  0.25000000       0.009
   0.33333333  0.41666667  0.25000000       0.009
   0.41666667  0.41666667  0.25000000       0.009
   0.50000000  0.41666667  0.25000000       0.005
   0.00000000  0.50000000  0.25000000       0.002
   0.08333333  0.50000000  0.25000000       0.005
   0.16666667  0.50000000  0.25000000       0.005
   0.25000000  0.50000000  0.25000000       0.005
   0.33333333  0.50000000  0.25000000       0.005
   0.41666667  0.50000000  0.25000000       0.005
   0.50000000  0.50000000  0.25000000       0.002
   0.00000000  0.33333333  0.33333333       0.002
   0.08333333  0.33333333  0.33333333       0.005
   0.16666667  0.33333333  0.33333333       0.005
   0.25000000  0.33333333  0.33333333       0.005
   0.33333333  0.33333333  0.33333333       0.005
   0.41666667  0.33333333  0.33333333       0.005
   0.50000000  0.33333333  0.33333333       0.002
   0.00000000  0.41666667  0.33333333       0.005
   0.08333333  0.41666667  0.33333333       0.009
   0.16666667  0.41666667  0.33333333       0.009
   0.25000000  0.41666667  0.33333333       0.009
   0.33333333  0.41666667  0.33333333       0.009
   0.41666667  0.41666667  0.33333333       0.009
   0.50000000  0.41666667  0.33333333       0.005
   0.00000000  0.50000000  0.33333333       0.002
   0.08333333  0.50000000  0.33333333       0.005
   0.16666667  0.50000000  0.33333333       0.005
   0.25000000  0.50000000  0.33333333       0.005
   0.33333333  0.50000000  0.33333333       0.005
   0.41666667  0.50000000  0.33333333       0.005
   0.50000000  0.50000000  0.33333333       0.002
   0.00000000  0.41666667  0.41666667       0.002
   0.08333333  0.41666667  0.41666667       0.005
   0.16666667  0.41666667  0.41666667       0.005
   0.25000000  0.41666667  0.41666667       0.005
   0.33333333  0.41666667  0.41666667       0.005
   0.41666667  0.41666667  0.41666667       0.005
   0.50000000  0.41666667  0.41666667       0.002
   0.00000000  0.50000000  0.41666667       0.002
   0.08333333  0.50000000  0.41666667       0.005
   0.16666667  0.50000000  0.41666667       0.005
   0.25000000  0.50000000  0.41666667       0.005
   0.33333333  0.50000000  0.41666667       0.005
   0.41666667  0.50000000  0.41666667       0.005
   0.50000000  0.50000000  0.41666667       0.002
   0.00000000  0.50000000  0.50000000       0.001
   0.08333333  0.50000000  0.50000000       0.001
   0.16666667  0.50000000  0.50000000       0.001
   0.25000000  0.50000000  0.50000000       0.001
   0.33333333  0.50000000  0.50000000       0.001
   0.41666667  0.50000000  0.50000000       0.001
   0.50000000  0.50000000  0.50000000       0.001
 
 position of ions in fractional coordinates (direct lattice) 
   0.25123845  0.25000000  0.00000000
   0.75000000  0.25000000  0.00000000
   0.25000000  0.75000000  0.00000000
   0.75000000  0.75000000  0.00000000
   0.25000000  0.25000000  0.50000000
   0.75000000  0.25000000  0.50000000
   0.25000000  0.75000000  0.50000000
   0.75000000  0.75000000  0.50000000
   0.25000000  0.00000000  0.25000000
   0.75000000  0.00000000  0.25000000
   0.25000000  0.50000000  0.25000000
   0.75000000  0.50000000  0.25000000
   0.25000000  0.00000000  0.75000000
   0.75000000  0.00000000  0.75000000
   0.25000000  0.50000000  0.75000000
   0.75000000  0.50000000  0.75000000
   0.00000000  0.25000000  0.25000000
   0.50000000  0.25000000  0.25000000
   0.00000000  0.75000000  0.25000000
   0.50000000  0.75000000  0.25000000
   0.00000000  0.25000000  0.75000000
   0.50000000  0.25000000  0.75000000
   0.00000000  0.75000000  0.75000000
   0.50000000  0.75000000  0.75000000
   0.00000000  0.00000000  0.00000000
   0.50000000  0.00000000  0.00000000
   0.00000000  0.50000000  0.00000000
   0.50000000  0.50000000  0.00000000
   0.00000000  0.00000000  0.50000000
   0.50000000  0.00000000  0.50000000
   0.00000000  0.50000000  0.50000000
   0.50000000  0.50000000  0.50000000
 
 position of ions in cartesian coordinates  (Angst):
   2.02865318  2.01865318  0.00000000
   6.05595955  2.01865318  0.00000000
   2.01865318  6.05595955  0.00000000
   6.05595955  6.05595955  0.00000000
   2.01865318  2.01865318  4.03730637
   6.05595955  2.01865318  4.03730637
   2.01865318  6.05595955  4.03730637
   6.05595955  6.05595955  4.03730637
   2.01865318  0.00000000  2.01865318
   6.05595955  0.00000000  2.01865318
   2.01865318  4.03730637  2.01865318
   6.05595955  4.03730637  2.01865318
   2.01865318  0.00000000  6.05595955
   6.05595955  0.00000000  6.05595955
   2.01865318  4.03730637  6.05595955
   6.05595955  4.03730637  6.05595955
   0.00000000  2.01865318  2.01865318
   4.03730637  2.01865318  2.01865318
   0.00000000  6.05595955  2.01865318
   4.03730637  6.05595955  2.01865318
   0.00000000  2.01865318  6.05595955
   4.03730637  2.01865318  6.05595955
   0.00000000  6.05595955  6.05595955
   4.03730637  6.05595955  6.05595955
   0.00000000  0.00000000  0.00000000
   4.03730637  0.00000000  0.00000000
   0.00000000  4.03730637  0.00000000
   4.03730637  4.03730637  0.00000000
   0.00000000  0.00000000  4.03730637
   4.03730637  0.00000000  4.03730637
   0.00000000  4.03730637  4.03730637
   4.03730637  4.03730637  4.03730637
 


--------------------------------------------------------------------------------------------------------


 k-point  1 :  0.00000.00000.0000  plane waves:  13301
 k-point  2 :  0.08330.00000.0000  plane waves:  13349
 k-point  3 :  0.16670.00000.0000  plane waves:  13397
 k-point  4 :  0.25000.00000.0000  plane waves:  13401
 k-point  5 :  0.33330.00000.0000  plane waves:  13350
 k-point  6 :  0.41670.00000.0000  plane waves:  13370
 k-point  7 :  0.50000.00000.0000  plane waves:  13350
 k-point  8 :  0.00000.08330.0000  plane waves:  13349
 k-point  9 :  0.08330.08330.0000  plane waves:  13345
 k-point 10 :  0.16670.08330.0000  plane waves:  13368
 k-point 11 :  0.25000.08330.0000  plane waves:  13373
 k-point 12 :  0.33330.08330.0000  plane waves:  13370
 k-point 13 :  0.41670.08330.0000  plane waves:  13361
 k-point 14 :  0.50000.08330.0000  plane waves:  13362
 k-point 15 :  0.00000.16670.0000  plane waves:  13397
 k-point 16 :  0.08330.16670.0000  plane waves:  13368
 k-point 17 :  0.16670.16670.0000  plane waves:  13381
 k-point 18 :  0.25000.16670.0000  plane waves:  13357
 k-point 19 :  0.33330.16670.0000  plane waves:  13347
 k-point 20 :  0.41670.16670.0000  plane waves:  13363
 k-point 21 :  0.50000.16670.0000  plane waves:  13364
 k-point 22 :  0.00000.25000.0000  plane waves:  13401
 k-point 23 :  0.08330.25000.0000  plane waves:  13373
 k-point 24 :  0.16670.25000.0000  plane waves:  13357
 k-point 25 :  0.25000.25000.0000  plane waves:  13369
 k-point 26 :  0.33330.25000.0000  plane waves:  13363
 k-point 27 :  0.41670.25000.0000  plane waves:  13353
 k-point 28 :  0.50000.25000.0000  plane waves:  13364
 k-point 29 :  0.00000.33330.0000  plane waves:  13350
 k-point 30 :  0.08330.33330.0000  plane waves:  13370
 k-point 31 :  0.16670.33330.0000  plane waves:  13347
 k-point 32 :  0.25000.33330.0000  plane waves:  13363
 k-point 33 :  0.33330.33330.0000  plane waves:  13415
 k-point 34 :  0.41670.33330.0000  plane waves:  13380
 k-point 35 :  0.50000.33330.0000  plane waves:  13396
 k-point 36 :  0.00000.41670.0000  plane waves:  13370
 k-point 37 :  0.08330.41670.0000  plane waves:  13361
 k-point 38 :  0.16670.41670.0000  plane waves:  13363
 k-point 39 :  0.25000.41670.0000  plane waves:  13353
 k-point 40 :  0.33330.41670.0000  plane waves:  13380
 k-point 41 :  0.41670.41670.0000  plane waves:  13382
 k-point 42 :  0.50000.41670.0000  plane waves:  13376
 k-point 43 :  0.00000.50000.0000  plane waves:  13350
 k-point 44 :  0.08330.50000.0000  plane waves:  13362
 k-point 45 :  0.16670.50000.0000  plane waves:  13364
 k-point 46 :  0.25000.50000.0000  plane waves:  13364
 k-point 47 :  0.33330.50000.0000  plane waves:  13396
 k-point 48 :  0.41670.50000.0000  plane waves:  13376
 k-point 49 :  0.50000.50000.0000  plane waves:  13448
 k-point 50 :  0.00000.08330.0833  plane waves:  13345
 k-point 51 :  0.08330.08330.0833  plane waves:  13343
 k-point 52 :  0.16670.08330.0833  plane waves:  13368
 k-point 53 :  0.25000.08330.0833  plane waves:  13372
 k-point 54 :  0.33330.08330.0833  plane waves:  13378
 k-point 55 :  0.41670.08330.0833  plane waves:  13363
 k-point 56 :  0.50000.08330.0833  plane waves:  13346
 k-point 57 :  0.00000.16670.0833  plane waves:  13368
 k-point 58 :  0.08330.16670.0833  plane waves:  13368
 k-point 59 :  0.16670.16670.0833  plane waves:  13376
 k-point 60 :  0.25000.16670.0833  plane waves:  13357
 k-point 61 :  0.33330.16670.0833  plane waves:  13377
 k-point 62 :  0.41670.16670.0833  plane waves:  13361
 k-point 63 :  0.50000.16670.0833  plane waves:  13370
 k-point 64 :  0.00000.25000.0833  plane waves:  13373
 k-point 65 :  0.08330.25000.0833  plane waves:  13372
 k-point 66 :  0.16670.25000.0833  plane waves:  13357
 k-point 67 :  0.25000.25000.0833  plane waves:  13368
 k-point 68 :  0.33330.25000.0833  plane waves:  13358
 k-point 69 :  0.41670.25000.0833  plane waves:  13355
 k-point 70 :  0.50000.25000.0833  plane waves:  13362
 k-point 71 :  0.00000.33330.0833  plane waves:  13370
 k-point 72 :  0.08330.33330.0833  plane waves:  13378
 k-point 73 :  0.16670.33330.0833  plane waves:  13377
 k-point 74 :  0.25000.33330.0833  plane waves:  13358
 k-point 75 :  0.33330.33330.0833  plane waves:  13381
 k-point 76 :  0.41670.33330.0833  plane waves:  13368
 k-point 77 :  0.50000.33330.0833  plane waves:  13376
 k-point 78 :  0.00000.41670.0833  plane waves:  13361
 k-point 79 :  0.08330.41670.0833  plane waves:  13363
 k-point 80 :  0.16670.41670.0833  plane waves:  13361
 k-point 81 :  0.25000.41670.0833  plane waves:  13355
 k-point 82 :  0.33330.41670.0833  plane waves:  13368
 k-point 83 :  0.41670.41670.0833  plane waves:  13386
 k-point 84 :  0.50000.41670.0833  plane waves:  13390
 k-point 85 :  0.00000.50000.0833  plane waves:  13362
 k-point 86 :  0.08330.50000.0833  plane waves:  13346
 k-point 87 :  0.16670.50000.0833  plane waves:  13370
 k-point 88 :  0.25000.50000.0833  plane waves:  13362
 k-point 89 :  0.33330.50000.0833  plane waves:  13376
 k-point 90 :  0.41670.50000.0833  plane waves:  13390
 k-point 91 :  0.50000.50000.0833  plane waves:  13388
 k-point 92 :  0.00000.16670.1667  plane waves:  13381
 k-point 93 :  0.08330.16670.1667  plane waves:  13376
 k-point 94 :  0.16670.16670.1667  plane waves:  13343
 k-point 95 :  0.25000.16670.1667  plane waves:  13363
 k-point 96 :  0.33330.16670.1667  plane waves:  13366
 k-point 97 :  0.41670.16670.1667  plane waves:  13380
 k-point 98 :  0.50000.16670.1667  plane waves:  13340
 k-point 99 :  0.00000.25000.1667  plane waves:  13357
 k-point ** :  0.08330.25000.1667  plane waves:  13357
 k-point ** :  0.16670.25000.1667  plane waves:  13363
 k-point ** :  0.25000.25000.1667  plane waves:  13366
 k-point ** :  0.33330.25000.1667  plane waves:  13364
 k-point ** :  0.41670.25000.1667  plane waves:  13356
 k-point ** :  0.50000.25000.1667  plane waves:  13360
 k-point ** :  0.00000.33330.1667  plane waves:  13347
 k-point ** :  0.08330.33330.1667  plane waves:  13377
 k-point ** :  0.16670.33330.1667  plane waves:  13366
 k-point ** :  0.25000.33330.1667  plane waves:  13364
 k-point ** :  0.33330.33330.1667  plane waves:  13371
 k-point ** :  0.41670.33330.1667  plane waves:  13366
 k-point ** :  0.50000.33330.1667  plane waves:  13380
 k-point ** :  0.00000.41670.1667  plane waves:  13363
 k-point ** :  0.08330.41670.1667  plane waves:  13361
 k-point ** :  0.16670.41670.1667  plane waves:  13380
 k-point ** :  0.25000.41670.1667  plane waves:  13356
 k-point ** :  0.33330.41670.1667  plane waves:  13366
 k-point ** :  0.41670.41670.1667  plane waves:  13384
 k-point ** :  0.50000.41670.1667  plane waves:  13380
 k-point ** :  0.00000.50000.1667  plane waves:  13364
 k-point ** :  0.08330.50000.1667  plane waves:  13370
 k-point ** :  0.16670.50000.1667  plane waves:  13340
 k-point ** :  0.25000.50000.1667  plane waves:  13360
 k-point ** :  0.33330.50000.1667  plane waves:  13380
 k-point ** :  0.41670.50000.1667  plane waves:  13380
 k-point ** :  0.50000.50000.1667  plane waves:  13400
 k-point ** :  0.00000.25000.2500  plane waves:  13369
 k-point ** :  0.08330.25000.2500  plane waves:  13368
 k-point ** :  0.16670.25000.2500  plane waves:  13366
 k-point ** :  0.25000.25000.2500  plane waves:  13379
 k-point ** :  0.33330.25000.2500  plane waves:  13362
 k-point ** :  0.41670.25000.2500  plane waves:  13358
 k-point ** :  0.50000.25000.2500  plane waves:  13330
 k-point ** :  0.00000.33330.2500  plane waves:  13363
 k-point ** :  0.08330.33330.2500  plane waves:  13358
 k-point ** :  0.16670.33330.2500  plane waves:  13364
 k-point ** :  0.25000.33330.2500  plane waves:  13362
 k-point ** :  0.33330.33330.2500  plane waves:  13363
 k-point ** :  0.41670.33330.2500  plane waves:  13355
 k-point ** :  0.50000.33330.2500  plane waves:  13340
 k-point ** :  0.00000.41670.2500  plane waves:  13353
 k-point ** :  0.08330.41670.2500  plane waves:  13355
 k-point ** :  0.16670.41670.2500  plane waves:  13356
 k-point ** :  0.25000.41670.2500  plane waves:  13358
 k-point ** :  0.33330.41670.2500  plane waves:  13355
 k-point ** :  0.41670.41670.2500  plane waves:  13350
 k-point ** :  0.50000.41670.2500  plane waves:  13362
 k-point ** :  0.00000.50000.2500  plane waves:  13364
 k-point ** :  0.08330.50000.2500  plane waves:  13362
 k-point ** :  0.16670.50000.2500  plane waves:  13360
 k-point ** :  0.25000.50000.2500  plane waves:  13330
 k-point ** :  0.33330.50000.2500  plane waves:  13340
 k-point ** :  0.41670.50000.2500  plane waves:  13362
 k-point ** :  0.50000.50000.2500  plane waves:  13372
 k-point ** :  0.00000.33330.3333  plane waves:  13415
 k-point ** :  0.08330.33330.3333  plane waves:  13381
 k-point ** :  0.16670.33330.3333  plane waves:  13371
 k-point ** :  0.25000.33330.3333  plane waves:  13363
 k-point ** :  0.33330.33330.3333  plane waves:  13361
 k-point ** :  0.41670.33330.3333  plane waves:  13346
 k-point ** :  0.50000.33330.3333  plane waves:  13306
 k-point ** :  0.00000.41670.3333  plane waves:  13380
 k-point ** :  0.08330.41670.3333  plane waves:  13368
 k-point ** :  0.16670.41670.3333  plane waves:  13366
 k-point ** :  0.25000.41670.3333  plane waves:  13355
 k-point ** :  0.33330.41670.3333  plane waves:  13346
 k-point ** :  0.41670.41670.3333  plane waves:  13353
 k-point ** :  0.50000.41670.3333  plane waves:  13350
 k-point ** :  0.00000.50000.3333  plane waves:  13396
 k-point ** :  0.08330.50000.3333  plane waves:  13376
 k-point ** :  0.16670.50000.3333  plane waves:  13380
 k-point ** :  0.25000.50000.3333  plane waves:  13340
 k-point ** :  0.33330.50000.3333  plane waves:  13306
 k-point ** :  0.41670.50000.3333  plane waves:  13350
 k-point ** :  0.50000.50000.3333  plane waves:  13368
 k-point ** :  0.00000.41670.4167  plane waves:  13382
 k-point ** :  0.08330.41670.4167  plane waves:  13386
 k-point ** :  0.16670.41670.4167  plane waves:  13384
 k-point ** :  0.25000.41670.4167  plane waves:  13350
 k-point ** :  0.33330.41670.4167  plane waves:  13353
 k-point ** :  0.41670.41670.4167  plane waves:  13361
 k-point ** :  0.50000.41670.4167  plane waves:  13358
 k-point ** :  0.00000.50000.4167  plane waves:  13376
 k-point ** :  0.08330.50000.4167  plane waves:  13390
 k-point ** :  0.16670.50000.4167  plane waves:  13380
 k-point ** :  0.25000.50000.4167  plane waves:  13362
 k-point ** :  0.33330.50000.4167  plane waves:  13350
 k-point ** :  0.41670.50000.4167  plane waves:  13358
 k-point ** :  0.50000.50000.4167  plane waves:  13344
 k-point ** :  0.00000.50000.5000  plane waves:  13448
 k-point ** :  0.08330.50000.5000  plane waves:  13388
 k-point ** :  0.16670.50000.5000  plane waves:  13400
 k-point ** :  0.25000.50000.5000  plane waves:  13372
 k-point ** :  0.33330.50000.5000  plane waves:  13368
 k-point ** :  0.41670.50000.5000  plane waves:  13344
 k-point ** :  0.50000.50000.5000  plane waves:  13264

 maximum and minimum number of plane-waves per node :  13448 13264

 maximum number of plane-waves:  13448
 maximal index in each direction: 
   IXMAX= 14   IYMAX= 14   IZMAX= 14
   IXMIN=-15   IYMIN=-15   IZMIN=-15

 NGX is ok and might be reduce to  60
 NGY is ok and might be reduce to  60
 NGZ is ok and might be reduce to  60

 parallel 3dFFT wavefunction:
    minimum data exchange during FFTs selected (reduces bandwidth)
 parallel 3dFFT charge:
    minimum data exchange during FFTs selected (reduces bandwidth)

 For storing wavefunctions 3017.81 MBYTES are necessary
 For predicting wavefunctions   34.21 MBYTES are necessary
Broyden mixing: mesh for mixing (old mesh)
   NGX = 29   NGY = 29   NGZ = 29
  (NGX  =120   NGY  =120   NGZ  =120)
 gives a total of  24389 points
 initial charge density was supplied:
 charge density of overlapping atoms calculated
 number of electron   96.0000000 magnetization 
 keeping initial charge density in first step


--------------------------------------------------------------------------------------------------------


 Maximum index for augmentation-charges         1980 (set IRDMAX)


--------------------------------------------------------------------------------------------------------


 First call to EWALD:  gamma=   0.220
 Maximum number of real-space cells 3x 3x 3
 Maximum number of reciprocal cells 3x 3x 3

    FEWALD:  VPU time    0.01: CPU time    0.01


----------------------------------------- Iteration    1(   1)  ---------------------------------------


    POTLOK:  VPU time    0.26: CPU time    0.26
    SETDIJ:  VPU time    0.01: CPU time    0.01
    EDDAV :  VPU time  279.08: CPU time  279.74
    DOS   :  VPU time    0.00: CPU time   -0.00
    ------------------------------------------
      LOOP:  VPU time  279.38: CPU time  280.03

 eigenvalue-minimisations  : 28224
 total energy-change (2. order) : 0.1200085E+03  (-0.3271812E+04)
 number of electron   96.0000000 magnetization 
 augmentation part    96.0000000 magnetization 

 Free energy of the ion-electron system (eV)
  ---------------------------------------------------
  alpha Z        PSCENC =        -6.53311864
  Ewald energy   TEWEN  =     -2354.79383508
  -1/2 Hartree   DENC   =        -3.21085913
  -V(xc)+E(xc)   XCENC  =      -839.50335709
  PAW double counting   =      1137.73615723     -115.16745734
  entropy T*S    EENTRO =        -0.00040912
  eigenvalues    EBANDS =       588.25226774
  atomic energy  EATOM  =      1713.22913220
  ---------------------------------------------------
  free energy    TOTEN  =       120.00852078 eV

  energy without entropy =      120.00892990  energy(sigma->0) =      120.00872534


--------------------------------------------------------------------------------------------------------




----------------------------------------- Iteration    1(   2)  ---------------------------------------


    EDDAV :  VPU time  327.96: CPU time  328.22
    DOS   :  VPU time    0.00: CPU time   -0.00
    ------------------------------------------
      LOOP:  VPU time  327.99: CPU time  328.25

 eigenvalue-minimisations  : 33288
 total energy-change (2. order) :-0.2274593E+03  (-0.2114868E+03)
 number of electron   96.0000000 magnetization 
 augmentation part    96.0000000 magnetization 

 Free energy of the ion-electron system (eV)
  ---------------------------------------------------
  alpha Z        PSCENC =        -6.53311864
  Ewald energy   TEWEN  =     -2354.79383508
  -1/2 Hartree   DENC   =        -3.21085913
  -V(xc)+E(xc)   XCENC  =      -839.50335709
  PAW double counting   =      1137.73615723     -115.16745734
  entropy T*S    EENTRO =        -0.00050422
  eigenvalues    EBANDS =       360.79308188
  atomic energy  EATOM  =      1713.22913220
  ---------------------------------------------------
  free energy    TOTEN  =      -107.45076018 eV

  energy without entropy =     -107.45025596  energy(sigma->0) =     -107.45050807


--------------------------------------------------------------------------------------------------------




----------------------------------------- Iteration    1(   3)  ---------------------------------------


    EDDAV :  VPU time  339.91: CPU time  340.69
    DOS   :  VPU time    0.00: CPU time   -0.00
    ------------------------------------------
      LOOP:  VPU time  339.93: CPU time  340.72

 eigenvalue-minimisations  : 35016
 total energy-change (2. order) :-0.1287957E+02  (-0.1227274E+02)
 number of electron   96.0000000 magnetization 
 augmentation part    96.0000000 magnetization 

 Free energy of the ion-electron system (eV)
  ---------------------------------------------------
  alpha Z        PSCENC =        -6.53311864
  Ewald energy   TEWEN  =     -2354.79383508
  -1/2 Hartree   DENC   =        -3.21085913
  -V(xc)+E(xc)   XCENC  =      -839.50335709
  PAW double counting   =      1137.73615723     -115.16745734
  entropy T*S    EENTRO =        -0.00058511
  eigenvalues    EBANDS =       347.91358980
  atomic energy  EATOM  =      1713.22913220
  ---------------------------------------------------
  free energy    TOTEN  =      -120.33033316 eV

  energy without entropy =     -120.32974804  energy(sigma->0) =     -120.33004060


--------------------------------------------------------------------------------------------------------




----------------------------------------- Iteration    1(   4)  ---------------------------------------


    EDDAV :  VPU time  325.91: CPU time  326.65
    DOS   :  VPU time    0.00: CPU time   -0.00
    ------------------------------------------
      LOOP:  VPU time  325.93: CPU time  326.68

 eigenvalue-minimisations  : 33136
 total energy-change (2. order) :-0.2402832E+00  (-0.2380793E+00)
 number of electron   96.0000000 magnetization 
 augmentation part    96.0000000 magnetization 

 Free energy of the ion-electron system (eV)
  ---------------------------------------------------
  alpha Z        PSCENC =        -6.53311864
  Ewald energy   TEWEN  =     -2354.79383508
  -1/2 Hartree   DENC   =        -3.21085913
  -V(xc)+E(xc)   XCENC  =      -839.50335709
  PAW double counting   =      1137.73615723     -115.16745734
  entropy T*S    EENTRO =        -0.00050330
  eigenvalues    EBANDS =       347.67322480
  atomic energy  EATOM  =      1713.22913220
  ---------------------------------------------------
  free energy    TOTEN  =      -120.57061635 eV

  energy without entropy =     -120.57011304  energy(sigma->0) =     -120.57036469


--------------------------------------------------------------------------------------------------------




----------------------------------------- Iteration    1(   5)  ---------------------------------------


    EDDAV :  VPU time  326.01: CPU time  326.76
    DOS   :  VPU time    0.00: CPU time   -0.00
    CHARGE:  VPU time   15.50: CPU time   15.54
    MIXING:  VPU time    0.01: CPU time    0.01
    ------------------------------------------
      LOOP:  VPU time  341.54: CPU time  342.33

 eigenvalue-minimisations  : 33168
 total energy-change (2. order) :-0.2875802E-02  (-0.2873978E-02)
 number of electron   96.0000001 magnetization 
 augmentation part    -1.1862835 magnetization 

 Broyden mixing:
  rms(total) = 0.53023E+00    rms(broyden)= 0.53023E+00
  rms(prec ) = 0.76688E+00
  weight for this iteration     100.00

 Free energy of the ion-electron system (eV)
  ---------------------------------------------------
  alpha Z        PSCENC =        -6.53311864
  Ewald energy   TEWEN  =     -2354.79383508
  -1/2 Hartree   DENC   =        -3.21085913
  -V(xc)+E(xc)   XCENC  =      -839.50335709
  PAW double counting   =      1137.73615723     -115.16745734
  entropy T*S    EENTRO =        -0.00050148
  eigenvalues    EBANDS =       347.67034717
  atomic energy  EATOM  =      1713.22913220
  ---------------------------------------------------
  free energy    TOTEN  =      -120.57349215 eV

  energy without entropy =     -120.57299067  energy(sigma->0) =     -120.57324141


--------------------------------------------------------------------------------------------------------




----------------------------------------- Iteration    1(   6)  ---------------------------------------


    POTLOK:  VPU time    0.32: CPU time    0.32
    SETDIJ:  VPU time    0.01: CPU time    0.01
    EDDAV :  VPU time  320.63: CPU time  321.37
    DOS   :  VPU time    0.00: CPU time   -0.00
    CHARGE:  VPU time   15.24: CPU time   15.28
    MIXING:  VPU time    0.01: CPU time    0.01
    ------------------------------------------
      LOOP:  VPU time  336.24: CPU time  337.02

 eigenvalue-minimisations  : 32432
 total energy-change (2. order) : 0.4183848E+00  (-0.4955843E-02)
 number of electron   96.0000001 magnetization 
 augmentation part    -1.2031525 magnetization 

 Broyden mixing:
  rms(total) = 0.32933E+00    rms(broyden)= 0.32933E+00
  rms(prec ) = 0.47813E+00
  weight for this iteration     100.00

 eigenvalues of (default mixing * dielectric matrix)
  average eigenvalue GAMMA=   2.6302
  2.6302

 Free energy of the ion-electron system (eV)
  ---------------------------------------------------
  alpha Z        PSCENC =        -6.53311864
  Ewald energy   TEWEN  =     -2354.79383508
  -1/2 Hartree   DENC   =        -2.70673447
  -V(xc)+E(xc)   XCENC  =      -838.36857064
  PAW double counting   =      1138.97255881     -116.51344252
  entropy T*S    EENTRO =        -0.00047715
  eigenvalues    EBANDS =       346.55938010
  atomic energy  EATOM  =      1713.22913220
  ---------------------------------------------------
  free energy    TOTEN  =      -120.15510737 eV

  energy without entropy =     -120.15463023  energy(sigma->0) =     -120.15486880


--------------------------------------------------------------------------------------------------------




----------------------------------------- Iteration    1(   7)  ---------------------------------------


    POTLOK:  VPU time    0.31: CPU time    0.31
    SETDIJ:  VPU time    0.01: CPU time    0.01
    EDDAV :  VPU time  313.11: CPU time  313.84
    DOS   :  VPU time    0.00: CPU time   -0.00
    CHARGE:  VPU time   15.71: CPU time   15.75
    MIXING:  VPU time    0.01: CPU time    0.01
    ------------------------------------------
      LOOP:  VPU time  329.17: CPU time  329.95

 eigenvalue-minimisations  : 31320
 total energy-change (2. order) : 0.3056509E+00  (-0.1489444E-01)
 number of electron   96.0000001 magnetization 
 augmentation part    -1.2358374 magnetization 

 Broyden mixing:
  rms(total) = 0.13412E-01    rms(broyden)= 0.13412E-01
  rms(prec ) = 0.15904E-01
  weight for this iteration     100.00

 eigenvalues of (default mixing * dielectric matrix)
  average eigenvalue GAMMA=   2.4814
  2.4814  2.4814

 Free energy of the ion-electron system (eV)
  ---------------------------------------------------
  alpha Z        PSCENC =        -6.53311864
  Ewald energy   TEWEN  =     -2354.79383508
  -1/2 Hartree   DENC   =        -3.28347678
  -V(xc)+E(xc)   XCENC  =      -836.06184015
  PAW double counting   =      1140.65031832     -118.42514989
  entropy T*S    EENTRO =        -0.00055094
  eigenvalues    EBANDS =       345.36906451
  atomic energy  EATOM  =      1713.22913220
  ---------------------------------------------------
  free energy    TOTEN  =      -119.84945644 eV

  energy without entropy =     -119.84890550  energy(sigma->0) =     -119.84918097


[...]
      6      -0.9955      2.00000
      7      -0.9955      2.00000
      8      -0.9955      2.00000
      9       1.9534      2.00000
     10       1.9534      2.00000
     11       1.9534      2.00000
     12       1.9534      2.00000
     13       2.6765      2.00000
     14       2.6765      2.00000
     15       2.6765      2.00000
     16       2.6765      2.00000
     17       2.6765      2.00000
     18       2.6765      2.00000
     19       2.6765      2.00000
     20       2.6765      2.00000
     21       3.3994      2.00000
     22       3.3994      2.00000
     23       3.3994      2.00000
     24       3.3994      2.00000
     25       3.3994      2.00000
     26       3.3994      2.00000
     27       3.3995      2.00000
     28       3.3995      2.00000
     29       4.1039      2.00000
     30       4.1039      2.00000
     31       4.1039      2.00000
     32       4.1040      2.00000
     33       6.2787      2.00000
     34       6.2787      2.00000
     35       6.2790      2.00000
     36       6.2790      2.00000
     37       6.2790      2.00000
     38       6.2790      2.00000
     39       6.2793      2.00000
     40       6.2793      2.00000
     41       6.9751      2.00000
     42       6.9751      2.00000
     43       6.9751      2.00000
     44       6.9751      2.00000
     45       7.6884      2.00000
     46       7.6884      2.00000
     47       7.6884      2.00000
     48       7.6884      2.00000
     49       8.3652      0.00000
     50       8.3652      0.00000
     51       8.3656      0.00000
     52       8.3656      0.00000
     53       8.3656      0.00000
     54       8.3656      0.00000
     55       8.3659      0.00000
     56       8.3659      0.00000
     57      10.0340      0.00000
     58      10.0340      0.00000
     59      10.0340      0.00000
     60      10.0340      0.00000
     61      10.4977      0.00000
     62      10.4977      0.00000
     63      10.4977      0.00000
     64      10.4977      0.00000
     65      11.4015      0.00000
     66      11.4015      0.00000
     67      11.4021      0.00000
     68      11.4021      0.00000
     69      11.4021      0.00000
     70      11.4021      0.00000
     71      11.4027      0.00000
     72      11.4027      0.00000

 k-point 195 :       0.4167    0.5000    0.5000
  band No.  band energies     occupation 
      1      -1.6026      2.00000
      2      -1.6026      2.00000
      3      -1.6026      2.00000
      4      -1.6026      2.00000
      5      -1.2287      2.00000
      6      -1.2287      2.00000
      7      -1.2287      2.00000
      8      -1.2286      2.00000
      9       2.4524      2.00000
     10       2.4525      2.00000
     11       2.4525      2.00000
     12       2.4525      2.00000
     13       2.8124      2.00000
     14       2.8124      2.00000
     15       2.8124      2.00000
     16       2.8125      2.00000
     17       2.8125      2.00000
     18       2.8125      2.00000
     19       2.8125      2.00000
     20       2.8125      2.00000
     21       3.1741      2.00000
     22       3.1741      2.00000
     23       3.1742      2.00000
     24       3.1742      2.00000
     25       3.1742      2.00000
     26       3.1742      2.00000
     27       3.1742      2.00000
     28       3.1742      2.00000
     29       3.5298      2.00000
     30       3.5298      2.00000
     31       3.5298      2.00000
     32       3.5299      2.00000
     33       6.7628      2.00000
     34       6.7628      2.00000
     35       6.7631      2.00000
     36       6.7631      2.00000
     37       6.7631      2.00000
     38       6.7631      2.00000
     39       6.7634      2.00000
     40       6.7634      2.00000
     41       7.1100      2.00000
     42       7.1100      2.00000
     43       7.1100      2.00000
     44       7.1100      2.00000
     45       7.4665      2.00000
     46       7.4665      2.00000
     47       7.4665      2.00000
     48       7.4665      2.00000
     49       7.8086      2.00000
     50       7.8086      2.00000
     51       7.8089      2.00000
     52       7.8089      2.00000
     53       7.8089      2.00000
     54       7.8089      2.00000
     55       7.8092      2.00000
     56       7.8092      2.00000
     57      10.8492      0.00000
     58      10.8492      0.00000
     59      10.8492      0.00000
     60      10.8492      0.00000
     61      10.9739      0.00000
     62      10.9739      0.00000
     63      10.9739      0.00000
     64      10.9740      0.00000
     65      11.5352      0.00000
     66      11.5352      0.00000
     67      11.5357      0.00000
     68      11.5357      0.00000
     69      11.5357      0.00000
     70      11.5357      0.00000
     71      11.5362      0.00000
     72      11.5362      0.00000

 k-point 196 :       0.5000    0.5000    0.5000
  band No.  band energies     occupation 
      1      -1.4358      2.00000
      2      -1.4316      2.00000
      3      -1.4316      2.00000
      4      -1.4312      2.00000
      5      -1.4310      2.00000
      6      -1.4306      2.00000
      7      -1.4306      2.00000
      8      -1.4263      2.00000
      9       2.9682      2.00000
     10       2.9743      2.00000
     11       2.9743      2.00000
     12       2.9776      2.00000
     13       2.9779      2.00000
     14       2.9779      2.00000
     15       2.9783      2.00000
     16       2.9783      2.00000
     17       2.9783      2.00000
     18       2.9783      2.00000
     19       2.9784      2.00000
     20       2.9784      2.00000
     21       2.9784      2.00000
     22       2.9785      2.00000
     23       2.9785      2.00000
     24       2.9785      2.00000
     25       2.9785      2.00000
     26       2.9785      2.00000
     27       2.9789      2.00000
     28       2.9790      2.00000
     29       2.9792      2.00000
     30       2.9825      2.00000
     31       2.9825      2.00000
     32       2.9887      2.00000
     33       7.2677      2.00000
     34       7.2677      2.00000
     35       7.2697      2.00000
     36       7.2715      2.00000
     37       7.2730      2.00000
     38       7.2734      2.00000
     39       7.2735      2.00000
     40       7.2735      2.00000
     41       7.2737      2.00000
     42       7.2737      2.00000
     43       7.2737      2.00000
     44       7.2737      2.00000
     45       7.2738      2.00000
     46       7.2738      2.00000
     47       7.2738      2.00000
     48       7.2738      2.00000
     49       7.2740      2.00000
     50       7.2740      2.00000
     51       7.2741      2.00000
     52       7.2745      2.00000
     53       7.2760      2.00000
     54       7.2778      2.00000
     55       7.2798      2.00000
     56       7.2798      2.00000
     57      11.4744      0.00000
     58      11.4746      0.00000
     59      11.4746      0.00000
     60      11.4751      0.00000
     61      11.4767      0.00000
     62      11.4772      0.00000
     63      11.4772      0.00000
     64      11.4775      0.00000
     65      11.6925      0.00000
     66      11.6932      0.00000
     67      11.6940      0.00000
     68      11.6947      0.00000
     69      11.6954      0.00000
     70      11.6958      0.00000
     71      11.6965      0.00000
     72      11.6968      0.00000


--------------------------------------------------------------------------------------------------------


 soft charge-density along one line, spin component           1
         0         1         2         3         4         5         6         7         8         9
 total charge-density along one line
 
 pseudopotential strength for first ion, spin component:           1
  8.443  -0.006  -0.000  -0.000  -0.000  -0.000  -0.000  -0.000
 -0.006   0.000  -0.000  -0.000  -0.000   0.000   0.000   0.000
 -0.000  -0.000   1.988  -0.000  -0.000  -0.027   0.000   0.000
 -0.000  -0.000  -0.000   1.988   0.000   0.000  -0.027  -0.000
 -0.000  -0.000  -0.000   0.000   1.988   0.000  -0.000  -0.027
 -0.000   0.000  -0.027   0.000   0.000  -0.012   0.000   0.000
 -0.000   0.000   0.000  -0.027  -0.000   0.000  -0.012  -0.000
 -0.000   0.000   0.000  -0.000  -0.027   0.000  -0.000  -0.012
 total augmentation occupancy for first ion, spin component:           1
  1.328  -0.480  -0.000   0.000   0.002   0.000  -0.000  -0.001
 -0.480   0.477   0.000   0.000  -0.003   0.000  -0.000   0.001
 -0.000   0.000   0.731   0.002   0.007  -0.149  -0.001  -0.001
  0.000   0.000   0.002   0.739  -0.002  -0.001  -0.146  -0.001
  0.002  -0.003   0.007  -0.002   0.735  -0.001  -0.001  -0.148
  0.000   0.000  -0.149  -0.001  -0.001   0.035   0.000   0.000
 -0.000  -0.000  -0.001  -0.146  -0.001   0.000   0.034   0.000
 -0.001   0.001  -0.001  -0.001  -0.148   0.000   0.000   0.034


------------------------ aborting loop because EDIFF is reached ----------------------------------------




--------------------------------------------------------------------------------------------------------


    CHARGE:  VPU time   15.40: CPU time   15.41
    FORLOC:  VPU time    0.05: CPU time    0.05
    FORNL :  VPU time   42.87: CPU time   42.89
    STRESS:  VPU time  186.88: CPU time  186.95
    FORCOR:  VPU time    0.33: CPU time    0.33
    FORHAR:  VPU time    0.11: CPU time    0.11
    MIXING:  VPU time    0.01: CPU time    0.01


--------------------------------------------------------------------------------------------------------



  FREE ENERGIE OF THE ION-ELECTRON SYSTEM (eV)
  ---------------------------------------------------
  free  energy   TOTEN  =      -119.849607 eV

  energy  without entropy=     -119.849051  energy(sigma->0) =     -119.849329
 

  FORCE on cell =-STRESS in cart. coord.  units (eV/reduce length):
  Direction    X        Y        Z        XY       YZ       ZX
  --------------------------------------------------------------------------------------
  Alpha Z     -6.53     -6.53     -6.53
  Ewald     -784.94   -784.93   -784.93     -0.00     -0.00     -0.00
  Hartree      1.12      1.12      1.12     -0.00     -0.00     -0.00
  E(xc)     -274.30   -274.30   -274.30     -0.00     -0.00      0.00
  Local       11.56     11.56     11.56     -0.00      0.00      0.00
  n-local    605.29    605.42    605.17     -0.94     -0.26      0.43
  augment    -33.05    -33.05    -33.05      0.00      0.00      0.00
  Kinetic    481.32    474.13    488.52      6.27      0.79     -4.69
  -------------------------------------------------------------------------------------
  Total        0.48      0.48      0.48     -0.00      0.00      0.00
  in kB        1.45      1.45      1.45     -0.00      0.00      0.00
  external pressure =        1.45 kB  Pullay stress =        0.00 kB


 VOLUME and BASIS-vectors are now :
 -----------------------------------------------------------------------------
  energy-cutoff  :      500.00
  volume of cell :      526.46
      direct lattice vectors                 reciprocal lattice vectors
     8.074612739  0.000000000  0.000000000     0.123844949  0.000000000  0.000000000
     0.000000000  8.074612739  0.000000000     0.000000000  0.123844949  0.000000000
     0.000000000  0.000000000  8.074612739     0.000000000  0.000000000  0.123844949

  length of vectors
     8.074612739  8.074612739  8.074612739     0.123844949  0.123844949  0.123844949


 FORCES acting on ions
    electron-ion (+dipol)            ewald-force                    non-local-force                 convergence-correction
 -----------------------------------------------------------------------------------------------
   0.389E+00 -.735E-13 -.141E-07   -.320E+00 0.311E-14 -.397E-14   -.116E+00 0.000E+00 -.136E-19   -.938E-07 0.183E-14 -.237E-13
   -.865E-01 0.220E-12 -.945E-13   0.844E-01 -.278E-14 -.146E-13   0.419E-02 -.407E-19 0.000E+00   0.249E-05 0.493E-14 -.301E-13
   0.269E-01 0.858E-13 -.915E-13   -.267E-01 -.122E-14 -.243E-14   -.613E-03 -.271E-19 0.000E+00   -.123E-07 -.236E-14 -.216E-13
   -.209E-01 -.337E-12 -.272E-13   0.210E-01 0.233E-14 -.954E-14   0.448E-03 -.271E-19 0.000E+00   -.120E-05 -.566E-14 -.261E-13
   0.269E-01 0.186E-13 -.668E-13   -.267E-01 0.999E-15 -.983E-15   -.613E-03 0.000E+00 0.000E+00   -.381E-08 0.713E-16 0.240E-13
   -.209E-01 -.485E-13 -.153E-13   0.210E-01 -.255E-14 -.121E-14   0.448E-03 -.428E-19 0.000E+00   -.120E-05 0.107E-14 0.305E-13
   0.107E-01 -.159E-13 -.358E-13   -.110E-01 -.999E-15 -.542E-14   0.383E-03 -.390E-19 0.000E+00   -.239E-05 -.580E-15 0.219E-13
   -.103E-01 0.142E-12 0.371E-12   0.103E-01 0.255E-14 -.542E-14   -.315E-03 -.104E-19 0.000E+00   0.198E-05 -.178E-14 0.264E-13
   0.484E-01 -.227E-03 0.227E-03   -.504E-01 0.196E-03 -.196E-03   0.538E-03 0.520E-04 -.520E-04   -.148E-05 -.150E-06 0.150E-06
   -.298E-01 0.748E-04 -.748E-04   0.283E-01 -.588E-04 0.588E-04   0.108E-02 -.166E-04 0.166E-04   0.106E-05 -.808E-07 0.808E-07
   0.484E-01 0.227E-03 0.227E-03   -.504E-01 -.196E-03 -.196E-03   0.538E-03 -.520E-04 -.520E-04   -.148E-05 0.150E-06 0.150E-06
   -.298E-01 -.748E-04 -.748E-04   0.283E-01 0.588E-04 0.588E-04   0.108E-02 0.166E-04 0.166E-04   0.106E-05 0.808E-07 0.808E-07
   0.484E-01 -.227E-03 -.227E-03   -.504E-01 0.196E-03 0.196E-03   0.538E-03 0.520E-04 0.520E-04   -.148E-05 -.150E-06 -.150E-06
   -.298E-01 0.748E-04 0.748E-04   0.283E-01 -.588E-04 -.588E-04   0.108E-02 -.166E-04 -.166E-04   0.106E-05 -.808E-07 -.808E-07
   0.484E-01 0.227E-03 -.227E-03   -.504E-01 -.196E-03 0.196E-03   0.538E-03 -.520E-04 0.520E-04   -.148E-05 0.150E-06 -.150E-06
   -.298E-01 -.748E-04 0.748E-04   0.283E-01 0.588E-04 -.588E-04   0.108E-02 0.166E-04 -.166E-04   0.106E-05 0.808E-07 -.808E-07
   -.480E-01 0.603E-14 0.849E-01   0.408E-01 -.588E-14 -.773E-01   0.137E-01 0.000E+00 -.141E-01   -.213E-06 0.137E-14 -.834E-06
   -.479E-01 -.303E-12 -.857E-01   0.405E-01 -.966E-14 0.779E-01   0.139E-01 0.000E+00 0.145E-01   -.197E-06 0.635E-15 0.103E-05
   -.776E-03 -.609E-14 0.685E-02   0.136E-02 -.877E-14 -.639E-02   -.568E-03 0.000E+00 -.213E-03   0.535E-06 -.192E-14 0.147E-05
   -.648E-03 -.403E-13 -.685E-02   0.123E-02 -.455E-14 0.640E-02   -.563E-03 0.678E-20 0.208E-03   0.407E-06 -.141E-14 -.130E-05
   -.480E-01 0.471E-14 -.849E-01   0.408E-01 -.588E-14 0.773E-01   0.137E-01 -.678E-20 0.141E-01   -.213E-06 0.282E-14 0.834E-06
   -.479E-01 0.921E-13 0.857E-01   0.405E-01 -.966E-14 -.779E-01   0.139E-01 0.000E+00 -.145E-01   -.197E-06 0.299E-14 -.103E-05
   -.776E-03 -.933E-14 -.685E-02   0.136E-02 -.699E-14 0.639E-02   -.568E-03 -.339E-20 0.213E-03   0.535E-06 -.336E-14 -.147E-05
   -.648E-03 0.143E-12 0.685E-02   0.123E-02 -.455E-14 -.640E-02   -.563E-03 0.000E+00 -.208E-03   0.407E-06 -.372E-14 0.130E-05
   -.480E-01 -.849E-01 0.509E-14   0.408E-01 0.773E-01 0.734E-15   0.137E-01 0.141E-01 0.508E-20   -.212E-06 0.831E-06 -.253E-13
   -.479E-01 0.857E-01 0.270E-13   0.405E-01 -.779E-01 0.606E-14   0.139E-01 -.145E-01 0.000E+00   -.196E-06 -.102E-05 -.235E-13
   -.480E-01 0.849E-01 -.492E-15   0.408E-01 -.773E-01 0.503E-15   0.137E-01 -.141E-01 0.000E+00   -.212E-06 -.831E-06 -.267E-13
   -.479E-01 -.857E-01 0.353E-13   0.405E-01 0.779E-01 0.249E-14   0.139E-01 0.145E-01 -.169E-20   -.196E-06 0.102E-05 -.259E-13
   -.776E-03 -.685E-02 -.747E-14   0.136E-02 0.639E-02 0.124E-13   -.568E-03 0.213E-03 0.000E+00   0.534E-06 -.148E-05 0.256E-13
   -.648E-03 0.685E-02 -.109E-12   0.123E-02 -.640E-02 0.135E-13   -.563E-03 -.208E-03 0.678E-20   0.407E-06 0.130E-05 0.239E-13
   -.776E-03 0.685E-02 -.370E-14   0.136E-02 -.639E-02 0.904E-14   -.568E-03 -.213E-03 0.000E+00   0.534E-06 0.148E-05 0.270E-13
   -.648E-03 -.685E-02 0.104E-12   0.123E-02 0.640E-02 0.637E-14   -.563E-03 0.208E-03 -.678E-20   0.407E-06 -.130E-05 0.262E-13
 -----------------------------------------------------------------------------------------------
   -.149E-05 0.431E-12 -.141E-07   0.118E-14 -.914E-14 0.117E-13   -.578E-05 -.518E-17 -.246E-17   0.411E-07 0.157E-16 0.906E-17
 
 
 POSITION                                       TOTAL-FORCE (eV/Angst)
 -----------------------------------------------------------------------------------
      2.02865      2.01865      0.00000        -0.046714      0.000000      0.000000
      6.05596      2.01865      0.00000         0.002050      0.000000     -0.000000
      2.01865      6.05596      0.00000        -0.000419      0.000000      0.000000
      6.05596      6.05596      0.00000         0.000498      0.000000      0.000000
      2.01865      2.01865      4.03731        -0.000419     -0.000000     -0.000000
      6.05596      2.01865      4.03731         0.000498      0.000000      0.000000
      2.01865      6.05596      4.03731         0.000013      0.000000     -0.000000
      6.05596      6.05596      4.03731        -0.000283     -0.000000      0.000000
      2.01865      0.00000      2.01865        -0.001453      0.000021     -0.000021
      6.05596      0.00000      2.01865        -0.000413     -0.000001      0.000001
      2.01865      4.03731      2.01865        -0.001453     -0.000021     -0.000021
      6.05596      4.03731      2.01865        -0.000413      0.000001      0.000001
      2.01865      0.00000      6.05596        -0.001453      0.000021      0.000021
      6.05596      0.00000      6.05596        -0.000413     -0.000001     -0.000001
      2.01865      4.03731      6.05596        -0.001453     -0.000021      0.000021
      6.05596      4.03731      6.05596        -0.000413      0.000001     -0.000001
      0.00000      2.01865      2.01865         0.006435      0.000000     -0.006485
      4.03731      2.01865      2.01865         0.006586      0.000000      0.006702
      0.00000      6.05596      2.01865         0.000017     -0.000000      0.000242
      4.03731      6.05596      2.01865         0.000022      0.000000     -0.000243
      0.00000      2.01865      6.05596         0.006435      0.000000      0.006485
      4.03731      2.01865      6.05596         0.006586     -0.000000     -0.006702
      0.00000      6.05596      6.05596         0.000017      0.000000     -0.000242
      4.03731      6.05596      6.05596         0.000022      0.000000      0.000243
      0.00000      0.00000      0.00000         0.006435      0.006485     -0.000000
      4.03731      0.00000      0.00000         0.006586     -0.006702      0.000000
      0.00000      4.03731      0.00000         0.006435     -0.006485      0.000000
      4.03731      4.03731      0.00000         0.006586      0.006702      0.000000
      0.00000      0.00000      4.03731         0.000017     -0.000242      0.000000
      4.03731      0.00000      4.03731         0.000022      0.000243     -0.000000
      0.00000      4.03731      4.03731         0.000017      0.000242     -0.000000
      4.03731      4.03731      4.03731         0.000022     -0.000243     -0.000000
 -----------------------------------------------------------------------------------
    total drift:                               -0.000007      0.000000     -0.000000


--------------------------------------------------------------------------------------------------------



 mean value of Nose-termostat <S>:     1.000 mean value of <T> :     0.000
 mean temperature <T/S>/<1/S>  :     0.000

     LOOP+:  VPU time 4624.78: CPU time 4634.23
  
  
 General timing and accounting informations for this job:
 ========================================================
  
                  Total CPU time used (sec):     4671.462
                            User time (sec):     4470.065
                          System time (sec):      201.396
                         Elapsed time (sec):     4680.943
  
                   Maximum memory used (kb):     4280556.
                   Average memory used (kb):           0.
  
                          Minor page faults:       924718
                          Major page faults:            0
                 Voluntary context switches:          964
