 running on    4 nodes
 distr:  one band on    1 nodes,    4 groups
 vasp.4.6.28 25Jul05 complex 
 POSCAR found :  1 types and   32 ions

 ----------------------------------------------------------------------------- 
|                                                                             |
|  ADVICE TO THIS USER RUNNING 'VASP/VAMP'   (HEAR YOUR MASTER'S VOICE ...):  |
|                                                                             |
|      You have a (more or less) 'large supercell' and for larger cells       |
|      it might be more efficient to use real space projection operators      |
|      So try LREAL= Auto  in the INCAR   file.                               |
|      Mind: If you want to do an extremely accurate calculations keep the    |
|      reciprocal projection scheme          (i.e. LREAL=.FALSE.)             |
|                                                                             |
 ----------------------------------------------------------------------------- 

 LDA part: xc-table for Pade appr. of Perdew
 POSCAR, INCAR and KPOINTS ok, starting setup
 FFT: planning ...           1
 reading WAVECAR
 WARNING: random wavefunctions but no delay for mixing, default for NELMDL
 entering main loop
       N       E                     dE             d eps       ncg     rms          rms(c)
DAV:   1     0.375045661238E+04    0.37505E+04   -0.19032E+05 83104   0.315E+03
DAV:   2     0.386507824788E+03   -0.33639E+04   -0.32477E+04 83104   0.671E+02
DAV:   3    -0.110724401863E+03   -0.49723E+03   -0.45485E+03 83104   0.248E+02
DAV:   4    -0.140977533596E+03   -0.30253E+02   -0.29215E+02 87624   0.702E+01
DAV:   5    -0.141318445318E+03   -0.34091E+00   -0.33943E+00 88868   0.725E+00    0.379E+01
DAV:   6    -0.129186130170E+03    0.12132E+02   -0.30304E+02 88668   0.965E+01    0.215E+01
DAV:   7    -0.116145584420E+03    0.13041E+02   -0.58451E+01 92616   0.430E+01    0.205E+00
DAV:   8    -0.116078675325E+03    0.66909E-01   -0.13159E+00 88788   0.449E+00    0.258E+00
DAV:   9    -0.115951954136E+03    0.12672E+00   -0.49429E-01 86648   0.393E+00    0.218E-01
DAV:  10    -0.115953658938E+03   -0.17048E-02   -0.17349E-02 88064   0.977E-01    0.245E-01
DAV:  11    -0.115952613979E+03    0.10450E-02   -0.40161E-03 87248   0.371E-01    0.247E-02
DAV:  12    -0.115952631555E+03   -0.17576E-04   -0.19130E-04 87444   0.142E-01    0.201E-02
DAV:  13    -0.115952626926E+03    0.46290E-05   -0.55002E-05 86960   0.985E-02    0.418E-03
DAV:  14    -0.115952624686E+03    0.22394E-05   -0.52377E-06 90208   0.135E-02    0.163E-03
DAV:  15    -0.115952624197E+03    0.48902E-06   -0.11233E-06 88924   0.108E-02    0.129E-03
DAV:  16    -0.115952623798E+03    0.39889E-06   -0.31038E-07 89492   0.556E-03    0.526E-04
DAV:  17    -0.115952624626E+03   -0.82733E-06   -0.57627E-08 83004   0.194E-03    0.301E-04
DAV:  18    -0.115952624745E+03   -0.11984E-06   -0.17821E-08 44124   0.159E-03    0.159E-04
DAV:  19    -0.115952624817E+03   -0.71319E-07   -0.42187E-09 43792   0.637E-04    0.524E-05
DAV:  20    -0.115952624765E+03    0.51456E-07   -0.32480E-09 43736   0.430E-04    0.795E-05
DAV:  21    -0.115952624750E+03    0.15389E-07   -0.65444E-10 43732   0.248E-04    0.627E-05
DAV:  22    -0.115952624747E+03    0.33469E-08   -0.14330E-10 43672   0.125E-04
   1 F= -.11595262E+03 E0= -.11595214E+03  d E =-.972616E-03
