  32  32   0   0
  0.1391645E+02  0.7636473E-09  0.7636473E-09  0.7636473E-09  0.5000000E-15
  1.000000000000000E-004
  CAR 
 unknown system                          
     11.43031902     -6.48421414  301      2.49263237      1.00000000
     -6.484  0.0000E+00  0.0000E+00
     -6.424  0.0000E+00  0.0000E+00
     -6.365  0.0000E+00  0.0000E+00
     -6.305  0.0000E+00  0.0000E+00
     -6.245  0.0000E+00  0.0000E+00
     -6.186  0.0000E+00  0.0000E+00
     -6.126  0.0000E+00  0.0000E+00
     -6.066  0.0000E+00  0.0000E+00
     -6.006  0.0000E+00  0.0000E+00
     -5.947  0.0000E+00  0.0000E+00
     -5.887  0.0000E+00  0.0000E+00
     -5.827  0.0000E+00  0.0000E+00
     -5.768  0.0000E+00  0.0000E+00
     -5.708  0.7459E-09  0.4454E-10
     -5.648  0.9904E-01  0.5914E-02
     -5.588  0.5369E+00  0.3798E-01
     -5.529  0.9583E+00  0.9520E-01
     -5.469  0.1349E+01  0.1758E+00
     -5.409  0.1385E+01  0.2585E+00
     -5.350  0.1261E+01  0.3338E+00
     -5.290  0.1915E+01  0.4481E+00
     -5.230  0.1501E+01  0.5378E+00
     -5.170  0.2558E+01  0.6905E+00
     -5.111  0.2372E+01  0.8322E+00
     -5.051  0.1436E+01  0.9181E+00
     -4.991  0.2594E+01  0.1073E+01
     -4.932  0.2003E+01  0.1193E+01
     -4.872  0.3429E+01  0.1397E+01
     -4.812  0.2806E+01  0.1565E+01
     -4.752  0.1873E+01  0.1677E+01
     -4.693  0.3377E+01  0.1879E+01
     -4.633  0.3309E+01  0.2076E+01
     -4.573  0.2722E+01  0.2239E+01
     -4.514  0.3271E+01  0.2434E+01
     -4.454  0.3813E+01  0.2662E+01
     -4.394  0.3899E+01  0.2895E+01
     -4.334  0.1996E+01  0.3014E+01
     -4.275  0.4745E+01  0.3297E+01
     -4.215  0.2361E+01  0.3438E+01
     -4.155  0.4512E+01  0.3708E+01
     -4.096  0.4052E+01  0.3950E+01
     -4.036  0.5568E+01  0.4282E+01
     -3.976  0.3249E+01  0.4476E+01
     -3.916  0.2602E+01  0.4632E+01
     -3.857  0.6019E+01  0.4991E+01
     -3.797  0.3867E+01  0.5222E+01
     -3.737  0.4720E+01  0.5504E+01
     -3.678  0.3773E+01  0.5729E+01
     -3.618  0.5514E+01  0.6058E+01
     -3.558  0.4497E+01  0.6327E+01
     -3.498  0.5308E+01  0.6644E+01
     -3.439  0.5587E+01  0.6977E+01
     -3.379  0.4695E+01  0.7258E+01
     -3.319  0.6915E+01  0.7671E+01
     -3.260  0.4695E+01  0.7951E+01
     -3.200  0.5066E+01  0.8254E+01
     -3.140  0.5560E+01  0.8586E+01
     -3.080  0.6947E+01  0.9001E+01
     -3.021  0.7301E+01  0.9437E+01
     -2.961  0.4383E+01  0.9698E+01
     -2.901  0.7328E+01  0.1014E+02
     -2.842  0.6062E+01  0.1050E+02
     -2.782  0.6780E+01  0.1090E+02
     -2.722  0.8284E+01  0.1140E+02
     -2.662  0.6772E+01  0.1180E+02
     -2.603  0.6561E+01  0.1219E+02
     -2.543  0.8704E+01  0.1271E+02
     -2.483  0.7229E+01  0.1315E+02
     -2.424  0.8570E+01  0.1366E+02
     -2.364  0.9458E+01  0.1422E+02
     -2.304  0.9801E+01  0.1481E+02
     -2.244  0.1065E+02  0.1544E+02
     -2.185  0.7803E+01  0.1591E+02
     -2.125  0.1132E+02  0.1658E+02
     -2.065  0.1253E+02  0.1733E+02
     -2.006  0.1279E+02  0.1810E+02
     -1.946  0.1370E+02  0.1891E+02
     -1.886  0.1163E+02  0.1961E+02
     -1.826  0.2266E+02  0.2096E+02
     -1.767  0.1692E+02  0.2197E+02
     -1.707  0.2411E+02  0.2341E+02
     -1.647  0.2785E+02  0.2508E+02
     -1.588  0.2885E+02  0.2680E+02
     -1.528  0.3118E+02  0.2866E+02
     -1.468  0.4434E+02  0.3131E+02
     -1.408  0.4037E+02  0.3372E+02
     -1.349  0.4619E+02  0.3648E+02
     -1.289  0.4647E+02  0.3925E+02
     -1.229  0.5124E+02  0.4231E+02
     -1.170  0.4878E+02  0.4523E+02
     -1.110  0.5932E+02  0.4877E+02
     -1.050  0.7799E+02  0.5343E+02
     -0.990  0.7925E+02  0.5816E+02
     -0.931  0.9188E+02  0.6365E+02
     -0.871  0.9882E+02  0.6955E+02
     -0.811  0.8956E+02  0.7490E+02
     -0.752  0.8061E+02  0.7971E+02
     -0.692  0.8419E+02  0.8474E+02
     -0.632  0.8848E+02  0.9002E+02
     -0.572  0.8633E+02  0.9518E+02
     -0.513  0.8201E+02  0.1001E+03
     -0.453  0.9612E+02  0.1058E+03
     -0.393  0.1085E+03  0.1123E+03
     -0.334  0.1231E+03  0.1196E+03
     -0.274  0.1247E+03  0.1271E+03
     -0.214  0.1363E+03  0.1352E+03
     -0.154  0.1367E+03  0.1434E+03
     -0.095  0.1654E+03  0.1533E+03
     -0.035  0.1673E+03  0.1633E+03
      0.025  0.1829E+03  0.1742E+03
      0.084  0.1990E+03  0.1861E+03
      0.144  0.1386E+03  0.1943E+03
      0.204  0.1146E+03  0.2012E+03
      0.264  0.1074E+03  0.2076E+03
      0.323  0.1089E+03  0.2141E+03
      0.383  0.1178E+03  0.2211E+03
      0.443  0.1467E+03  0.2299E+03
      0.502  0.1529E+03  0.2390E+03
      0.562  0.1619E+03  0.2487E+03
      0.622  0.1450E+03  0.2574E+03
      0.682  0.1349E+03  0.2654E+03
      0.741  0.1358E+03  0.2735E+03
      0.801  0.1297E+03  0.2813E+03
      0.861  0.1500E+03  0.2902E+03
      0.920  0.1765E+03  0.3008E+03
      0.980  0.2627E+03  0.3165E+03
      1.040  0.2005E+03  0.3284E+03
      1.100  0.1024E+03  0.3345E+03
      1.159  0.1297E+02  0.3353E+03
      1.219  0.1926E+02  0.3365E+03
      1.279  0.1390E+02  0.3373E+03
      1.338  0.1310E+02  0.3381E+03
      1.398  0.1614E+02  0.3390E+03
      1.458  0.1118E+02  0.3397E+03
      1.518  0.1654E+02  0.3407E+03
      1.577  0.1287E+02  0.3415E+03
      1.637  0.1021E+02  0.3421E+03
      1.697  0.1521E+02  0.3430E+03
      1.756  0.9301E+01  0.3435E+03
      1.816  0.1317E+02  0.3443E+03
      1.876  0.9473E+01  0.3449E+03
      1.936  0.1499E+02  0.3458E+03
      1.995  0.1021E+02  0.3464E+03
      2.055  0.8780E+01  0.3469E+03
      2.115  0.1152E+02  0.3476E+03
      2.174  0.1636E+02  0.3486E+03
      2.234  0.9403E+01  0.3492E+03
      2.294  0.1115E+02  0.3498E+03
      2.354  0.6341E+01  0.3502E+03
      2.413  0.1276E+02  0.3510E+03
      2.473  0.1287E+02  0.3517E+03
      2.533  0.1423E+02  0.3526E+03
      2.592  0.5183E+01  0.3529E+03
      2.652  0.9767E+01  0.3535E+03
      2.712  0.7146E+01  0.3539E+03
      2.772  0.1630E+02  0.3549E+03
      2.831  0.1219E+02  0.3556E+03
      2.891  0.6872E+01  0.3560E+03
      2.951  0.1122E+02  0.3567E+03
      3.010  0.7606E+01  0.3571E+03
      3.070  0.5569E+01  0.3575E+03
      3.130  0.1260E+02  0.3582E+03
      3.190  0.1240E+02  0.3590E+03
      3.249  0.1269E+02  0.3597E+03
      3.309  0.6086E+01  0.3601E+03
      3.369  0.7796E+01  0.3605E+03
      3.428  0.8556E+01  0.3611E+03
      3.488  0.8090E+01  0.3615E+03
      3.548  0.1193E+02  0.3623E+03
      3.608  0.1106E+02  0.3629E+03
      3.667  0.6027E+01  0.3633E+03
      3.727  0.1169E+02  0.3640E+03
      3.787  0.6985E+01  0.3644E+03
      3.846  0.6798E+01  0.3648E+03
      3.906  0.6825E+01  0.3652E+03
      3.966  0.1240E+02  0.3659E+03
      4.026  0.9246E+01  0.3665E+03
      4.085  0.9499E+01  0.3671E+03
      4.145  0.8478E+01  0.3676E+03
      4.205  0.7640E+01  0.3680E+03
      4.265  0.8841E+01  0.3686E+03
      4.324  0.5089E+01  0.3689E+03
      4.384  0.1035E+02  0.3695E+03
      4.444  0.9531E+01  0.3700E+03
      4.503  0.9501E+01  0.3706E+03
      4.563  0.9200E+01  0.3712E+03
      4.623  0.4935E+01  0.3715E+03
      4.683  0.9233E+01  0.3720E+03
      4.742  0.6370E+01  0.3724E+03
      4.802  0.6420E+01  0.3728E+03
      4.862  0.7857E+01  0.3732E+03
      4.921  0.7323E+01  0.3737E+03
      4.981  0.1113E+02  0.3743E+03
      5.041  0.3346E+01  0.3745E+03
      5.101  0.9163E+01  0.3751E+03
      5.160  0.6381E+01  0.3755E+03
      5.220  0.5178E+01  0.3758E+03
      5.280  0.5867E+01  0.3761E+03
      5.339  0.6440E+01  0.3765E+03
      5.399  0.7524E+01  0.3770E+03
      5.459  0.4644E+01  0.3772E+03
      5.519  0.8547E+01  0.3777E+03
      5.578  0.7076E+01  0.3782E+03
      5.638  0.9720E+01  0.3788E+03
      5.698  0.8791E+01  0.3793E+03
      5.757  0.1113E+02  0.3799E+03
      5.817  0.8470E+01  0.3804E+03
      5.877  0.7445E+01  0.3809E+03
      5.937  0.1304E+02  0.3817E+03
      5.996  0.9981E+01  0.3823E+03
      6.056  0.1033E+02  0.3829E+03
      6.116  0.1039E+02  0.3835E+03
      6.175  0.1233E+02  0.3842E+03
      6.235  0.6839E+01  0.3847E+03
      6.295  0.1037E+02  0.3853E+03
      6.355  0.1216E+02  0.3860E+03
      6.414  0.6311E+01  0.3864E+03
      6.474  0.1162E+02  0.3871E+03
      6.534  0.9988E+01  0.3877E+03
      6.593  0.1419E+02  0.3885E+03
      6.653  0.8653E+01  0.3890E+03
      6.713  0.6254E+01  0.3894E+03
      6.773  0.6082E+01  0.3898E+03
      6.832  0.1678E+02  0.3908E+03
      6.892  0.7924E+01  0.3912E+03
      6.952  0.9977E+01  0.3918E+03
      7.011  0.9746E+01  0.3924E+03
      7.071  0.6262E+01  0.3928E+03
      7.131  0.1200E+02  0.3935E+03
      7.191  0.8451E+01  0.3940E+03
      7.250  0.1140E+02  0.3947E+03
      7.310  0.7821E+01  0.3952E+03
      7.370  0.1120E+02  0.3958E+03
      7.429  0.8065E+01  0.3963E+03
      7.489  0.8734E+01  0.3968E+03
      7.549  0.6903E+01  0.3972E+03
      7.609  0.9949E+01  0.3978E+03
      7.668  0.8555E+01  0.3983E+03
      7.728  0.8304E+01  0.3988E+03
      7.788  0.9185E+01  0.3994E+03
      7.847  0.1050E+02  0.4000E+03
      7.907  0.8918E+01  0.4006E+03
      7.967  0.7284E+01  0.4010E+03
      8.027  0.7064E+01  0.4014E+03
      8.086  0.9857E+01  0.4020E+03
      8.146  0.5815E+01  0.4023E+03
      8.206  0.9762E+01  0.4029E+03
      8.265  0.7816E+01  0.4034E+03
      8.325  0.8974E+01  0.4039E+03
      8.385  0.8264E+01  0.4044E+03
      8.445  0.5848E+01  0.4048E+03
      8.504  0.9803E+01  0.4054E+03
      8.564  0.1004E+02  0.4060E+03
      8.624  0.6420E+01  0.4063E+03
      8.683  0.6705E+01  0.4067E+03
      8.743  0.1507E+02  0.4076E+03
      8.803  0.1031E+02  0.4083E+03
      8.863  0.8267E+01  0.4088E+03
      8.922  0.1305E+02  0.4095E+03
      8.982  0.9115E+01  0.4101E+03
      9.042  0.1138E+02  0.4108E+03
      9.101  0.9526E+01  0.4113E+03
      9.161  0.1391E+02  0.4122E+03
      9.221  0.7539E+01  0.4126E+03
      9.281  0.1449E+02  0.4135E+03
      9.340  0.1085E+02  0.4141E+03
      9.400  0.1251E+02  0.4149E+03
      9.460  0.1057E+02  0.4155E+03
      9.519  0.1249E+02  0.4162E+03
      9.579  0.9809E+01  0.4168E+03
      9.639  0.1250E+02  0.4176E+03
      9.699  0.1165E+02  0.4183E+03
      9.758  0.1002E+02  0.4189E+03
      9.818  0.1411E+02  0.4197E+03
      9.878  0.7617E+01  0.4202E+03
      9.937  0.8307E+01  0.4207E+03
      9.997  0.1119E+02  0.4213E+03
     10.057  0.7894E+01  0.4218E+03
     10.117  0.8659E+01  0.4223E+03
     10.176  0.6840E+01  0.4227E+03
     10.236  0.6608E+01  0.4231E+03
     10.296  0.4841E+01  0.4234E+03
     10.355  0.4329E+01  0.4237E+03
     10.415  0.2307E+01  0.4238E+03
     10.475  0.3779E+00  0.4238E+03
     10.535  0.8208E+00  0.4239E+03
     10.594  0.7295E+00  0.4239E+03
     10.654  0.1288E+01  0.4240E+03
     10.714  0.0000E+00  0.4240E+03
     10.773  0.0000E+00  0.4240E+03
     10.833  0.0000E+00  0.4240E+03
     10.893  0.0000E+00  0.4240E+03
     10.953  0.0000E+00  0.4240E+03
     11.012  0.0000E+00  0.4240E+03
     11.072  0.0000E+00  0.4240E+03
     11.132  0.0000E+00  0.4240E+03
     11.191  0.0000E+00  0.4240E+03
     11.251  0.0000E+00  0.4240E+03
     11.311  0.0000E+00  0.4240E+03
     11.371  0.0000E+00  0.4240E+03
     11.430  0.0000E+00  0.4240E+03
