   32   32    1    1
  0.1391645E+02  0.7636473E-09  0.7636473E-09  0.7636473E-09  0.5000000E-15
  1.000000000000000E-004
  CAR 
 unknown system                          
  352  196  212
 
  0.0000000E+00  0.0000000E+00  0.0000000E+00  0.5787037E-03
   1       -5.6699
   2       -3.1782
   3       -3.1753
   4       -3.1753
   5       -3.1753
   6       -3.1753
   7       -3.1725
   8       -1.7502
   9       -1.7502
  10       -1.7502
  11       -1.7502
  12       -1.5234
  13       -1.5234
  14       -1.5234
  15       -1.4600
  16       -1.4578
  17       -1.4578
  18       -1.4568
  19       -1.4567
  20       -1.4567
  21       -1.4567
  22       -1.4567
  23       -1.4565
  24       -1.4555
  25       -1.4555
  26       -1.4533
  27       -1.1675
  28       -1.1675
  29       -1.1675
  30       -0.9218
  31       -0.9203
  32       -0.9203
  33       -0.9203
  34       -0.9203
  35       -0.9189
  36       -0.6416
  37       -0.6403
  38       -0.6403
  39       -0.6403
  40       -0.6403
  41       -0.6390
  42       -0.4687
  43       -0.4673
  44       -0.4673
  45       -0.4655
  46       -0.4655
  47       -0.4654
  48       -0.4654
  49       -0.4653
  50       -0.4653
  51       -0.4653
  52       -0.4653
  53       -0.4652
  54       -0.4652
  55       -0.4651
  56       -0.4651
  57       -0.4650
  58       -0.4650
  59       -0.4650
  60       -0.4649
  61       -0.4649
  62       -0.4649
  63       -0.4630
  64       -0.4630
  65       -0.4618
  66       -0.2993
  67       -0.2974
  68       -0.2974
  69       -0.2972
  70       -0.2970
  71       -0.2970
  72       -0.2970
  73       -0.2970
  74       -0.2969
  75       -0.2966
  76       -0.2966
  77       -0.2948
  78       -0.1117
  79       -0.1116
  80       -0.1116
  81       -0.1116
  82       -0.1116
  83       -0.1116
  84       -0.1116
  85       -0.1116
  86       -0.0927
  87       -0.0927
  88       -0.0926
  89        0.2054
  90        0.2067
  91        0.2067
  92        0.2067
  93        0.2067
  94        0.2079
  95        0.3039
  96        0.3043
  97        0.3049
  98        0.3049
  99        0.3053
 100        0.3053
 101        0.3053
 102        0.3053
 103        0.3056
 104        0.3056
 105        0.3063
 106        0.3066
 107        0.4223
 108        0.4223
 109        0.4236
 110        0.4236
 111        0.4238
 112        0.4238
 113        0.4238
 114        0.4238
 115        0.4239
 116        0.4239
 117        0.4252
 118        0.4252
 119        0.5230
 120        0.5238
 121        0.5238
 122        0.5238
 123        0.5238
 124        0.5246
 125        0.5449
 126        0.5449
 127        0.5459
 128        0.5461
 129        0.5463
 130        0.5463
 131        0.5463
 132        0.5463
 133        0.5464
 134        0.5467
 135        0.5478
 136        0.5478
 137        0.5485
 138        0.5488
 139        0.7596
 140        0.7603
 141        0.7603
 142        0.7603
 143        0.7603
 144        0.7609
 145        0.9757
 146        0.9757
 147        0.9757
 148        0.9870
 149        0.9870
 150        0.9870
 151        0.9870
 152        0.9870
 153        0.9870
 154        0.9870
 155        0.9870
 156        1.0948
 157        1.0952
 158        1.0952
 159        1.0952
 160        1.0952
 161        1.0952
 162        1.0957
 163        1.0957
 164        1.0957
 165        1.0957
 166        1.0957
 167        1.0961
 168        1.9576
 169        1.9577
 170        1.9577
 171        1.9577
 172        2.1145
 173        2.1149
 174        2.1149
 175        2.1156
 176        2.1159
 177        2.1159
 178        2.1159
 179        2.1159
 180        2.1161
 181        2.1169
 182        2.1169
 183        2.1173
 184        4.1300
 185        4.1300
 186        4.1300
 187        5.4982
 188        5.4982
 189        5.4982
 190        5.4982
 191        8.1411
 192        8.1411
 193        8.1444
 194        8.1444
 195        8.1447
 196        8.1447
 197        8.1447
 198        8.1447
 199        8.1450
 200        8.1450
 201        8.1483
 202        8.1483
 203        8.5374
 204        8.5374
 205        8.5374
 206        9.9011
 207        9.9013
 208        9.9014
 209        9.9014
 210        9.9014
 211        9.9017
 212       10.0739
 
  0.8333333E-01  0.0000000E+00  0.0000000E+00  0.1157407E-02
   1       -5.6511
   2       -3.5321
   3       -3.1598
   4       -3.1598
   5       -3.1598
   6       -3.1598
   7       -2.8182
   8       -1.7465
   9       -1.7465
  10       -1.7465
  11       -1.7465
  12       -1.6489
  13       -1.6489
  14       -1.6489
  15       -1.6489
  16       -1.5239
  17       -1.5152
  18       -1.5152
  19       -1.4643
  20       -1.4643
  21       -1.4643
  22       -1.4643
  23       -1.2832
  24       -1.2832
  25       -1.2832
  26       -1.2831
  27       -1.1631
  28       -1.1629
  29       -1.1629
  30       -0.9344
  31       -0.9342
  32       -0.9142
  33       -0.9142
  34       -0.9142
  35       -0.9142
  36       -0.7103
  37       -0.6384
  38       -0.6384
  39       -0.6384
  40       -0.6383
  41       -0.5800
  42       -0.5800
  43       -0.5700
  44       -0.4795
  45       -0.4792
  46       -0.4792
  47       -0.4792
  48       -0.4719
  49       -0.4719
  50       -0.4719
  51       -0.4719
  52       -0.4646
  53       -0.4644
  54       -0.4644
  55       -0.4644
  56       -0.4549
  57       -0.4548
  58       -0.4548
  59       -0.4547
  60       -0.4455
  61       -0.4455
  62       -0.4455
  63       -0.4453
  64       -0.3515
  65       -0.3515
  66       -0.3515
  67       -0.3515
  68       -0.3397
  69       -0.3397
  70       -0.2935
  71       -0.2935
  72       -0.2935
  73       -0.2935
  74       -0.2533
  75       -0.2532
  76       -0.2532
  77       -0.2532
  78       -0.1145
  79       -0.1145
  80       -0.1145
  81       -0.1145
  82       -0.1074
  83       -0.1074
  84       -0.1074
  85       -0.1073
  86       -0.0974
  87       -0.0887
  88       -0.0887
  89        0.1827
  90        0.1827
  91        0.1827
  92        0.1827
  93        0.2108
  94        0.2361
  95        0.2866
  96        0.2866
  97        0.2866
  98        0.2866
  99        0.3040
 100        0.3040
 101        0.3040
 102        0.3040
 103        0.3248
 104        0.3248
 105        0.3249
 106        0.3249
 107        0.3491
 108        0.3491
 109        0.4237
 110        0.4237
 111        0.4237
 112        0.4237
 113        0.4447
 114        0.4447
 115        0.4447
 116        0.4447
 117        0.5009
 118        0.5009
 119        0.5110
 120        0.5110
 121        0.5110
 122        0.5110
 123        0.5239
 124        0.5240
 125        0.5240
 126        0.5240
 127        0.5351
 128        0.5352
 129        0.5442
 130        0.5502
 131        0.5653
 132        0.5653
 133        0.5653
 134        0.5654
 135        0.5890
 136        0.5890
 137        0.5890
 138        0.5890
 139        0.7324
 140        0.7652
 141        0.7652
 142        0.7652
 143        0.7652
 144        0.7882
 145        0.9459
 146        0.9459
 147        0.9459
 148        0.9459
 149        0.9702
 150        0.9702
 151        0.9739
 152        0.9823
 153        0.9823
 154        0.9823
 155        0.9823
 156        1.0679
 157        1.0679
 158        1.0885
 159        1.0885
 160        1.0885
 161        1.0885
 162        1.0885
 163        1.0885
 164        1.0949
 165        1.0952
 166        1.0957
 167        1.0960
 168        1.8778
 169        1.8778
 170        1.8778
 171        1.8778
 172        1.9695
 173        1.9695
 174        1.9695
 175        1.9695
 176        2.1156
 177        2.1156
 178        2.1156
 179        2.1156
 180        2.3985
 181        2.3985
 182        2.3985
 183        2.3985
 184        3.9824
 185        4.1746
 186        4.1746
 187        5.5612
 188        5.5612
 189        5.5612
 190        5.5613
 191        7.6334
 192        7.6334
 193        7.8337
 194        7.8337
 195        7.8338
 196        7.8338
 197        8.1695
 198        8.1695
 199        8.1695
 200        8.1695
 201        8.5456
 202        8.5456
 203        8.6764
 204        8.6764
 205        8.7240
 206        9.7107
 207        9.7107
 208        9.9768
 209        9.9768
 210        9.9768
 211        9.9768
 212       10.3017
 
  0.1666667E+00  0.0000000E+00  0.0000000E+00  0.1157407E-02
   1       -5.5948
   2       -3.8764
   3       -3.1134
   4       -3.1134
   5       -3.1134
   6       -3.1134
   7       -2.4781
   8       -1.8535
   9       -1.8534
  10       -1.8534
  11       -1.8534
  12       -1.7356
  13       -1.7356
  14       -1.7356
  15       -1.7356
  16       -1.5265
  17       -1.4911
  18       -1.4911
  19       -1.4856
  20       -1.4856
  21       -1.4856
  22       -1.4856
  23       -1.1499
  24       -1.1488
  25       -1.1488
  26       -1.1318
  27       -1.1318
  28       -1.1318
  29       -1.1318
  30       -0.9738
  31       -0.9737
  32       -0.8962
  33       -0.8962
  34       -0.8962
  35       -0.8962
  36       -0.7787
  37       -0.6844
  38       -0.6844
  39       -0.6325
  40       -0.6325
  41       -0.6325
  42       -0.6325
  43       -0.5006
  44       -0.4961
  45       -0.4960
  46       -0.4960
  47       -0.4960
  48       -0.4921
  49       -0.4921
  50       -0.4921
  51       -0.4921
  52       -0.4626
  53       -0.4625
  54       -0.4625
  55       -0.4625
  56       -0.4479
  57       -0.4479
  58       -0.4479
  59       -0.4477
  60       -0.4147
  61       -0.4147
  62       -0.4147
  63       -0.4147
  64       -0.3879
  65       -0.3879
  66       -0.3879
  67       -0.3878
  68       -0.2834
  69       -0.2834
  70       -0.2834
  71       -0.2834
  72       -0.2187
  73       -0.2187
  74       -0.2187
  75       -0.2187
  76       -0.2044
  77       -0.2044
  78       -0.1230
  79       -0.1230
  80       -0.1230
  81       -0.1230
  82       -0.1117
  83       -0.0946
  84       -0.0946
  85       -0.0946
  86       -0.0946
  87       -0.0770
  88       -0.0770
  89        0.1302
  90        0.1302
  91        0.1302
  92        0.1302
  93        0.2358
  94        0.2428
  95        0.2429
  96        0.2429
  97        0.2429
  98        0.2781
  99        0.2781
 100        0.3161
 101        0.3213
 102        0.3213
 103        0.3213
 104        0.3218
 105        0.3576
 106        0.3576
 107        0.3576
 108        0.3576
 109        0.4236
 110        0.4236
 111        0.4236
 112        0.4236
 113        0.4828
 114        0.4828
 115        0.4831
 116        0.4831
 117        0.4842
 118        0.4843
 119        0.4845
 120        0.4845
 121        0.5242
 122        0.5242
 123        0.5242
 124        0.5242
 125        0.5313
 126        0.5556
 127        0.5670
 128        0.5671
 129        0.5796
 130        0.5796
 131        0.6103
 132        0.6103
 133        0.6103
 134        0.6103
 135        0.6386
 136        0.6386
 137        0.6386
 138        0.6386
 139        0.7051
 140        0.7839
 141        0.7839
 142        0.7839
 143        0.7839
 144        0.8157
 145        0.8348
 146        0.8348
 147        0.8348
 148        0.8348
 149        0.9535
 150        0.9535
 151        0.9683
 152        0.9684
 153        0.9684
 154        0.9684
 155        0.9685
 156        0.9908
 157        0.9908
 158        1.0673
 159        1.0673
 160        1.0673
 161        1.0673
 162        1.0688
 163        1.0688
 164        1.0949
 165        1.0952
 166        1.0957
 167        1.0960
 168        1.6760
 169        1.6760
 170        1.6760
 171        1.6760
 172        1.9976
 173        1.9976
 174        1.9977
 175        1.9977
 176        2.1145
 177        2.1145
 178        2.1145
 179        2.1145
 180        2.7328
 181        2.7328
 182        2.7328
 183        2.7328
 184        3.6006
 185        4.3037
 186        4.3037
 187        5.7457
 188        5.7457
 189        5.7457
 190        5.7457
 191        7.1436
 192        7.1436
 193        7.2142
 194        7.2142
 195        7.2142
 196        7.2142
 197        8.2434
 198        8.2434
 199        8.2434
 200        8.2434
 201        8.5702
 202        8.5702
 203        9.2236
 204        9.2273
 205        9.2273
 206        9.4855
 207        9.4855
 208       10.0328
 209       10.0341
 210       10.0381
 211       10.0508
 212       10.0621
 
  0.2500000E+00  0.0000000E+00  0.0000000E+00  0.1157407E-02
   1       -5.5011
   2       -4.2002
   3       -3.0368
   4       -3.0368
   5       -3.0368
   6       -3.0368
   7       -2.1771
   8       -2.0625
   9       -2.0625
  10       -2.0625
  11       -2.0625
  12       -1.7178
  13       -1.7178
  14       -1.7178
  15       -1.7178
  16       -1.5337
  17       -1.5168
  18       -1.5168
  19       -1.5168
  20       -1.5168
  21       -1.4519
  22       -1.4518
  23       -1.1281
  24       -1.1253
  25       -1.1253
  26       -1.0332
  27       -1.0332
  28       -1.0031
  29       -1.0031
  30       -1.0031
  31       -1.0031
  32       -0.8671
  33       -0.8671
  34       -0.8671
  35       -0.8671
  36       -0.8445
  37       -0.7782
  38       -0.7782
  39       -0.6230
  40       -0.6230
  41       -0.6230
  42       -0.6230
  43       -0.5245
  44       -0.5245
  45       -0.5245
  46       -0.5244
  47       -0.5152
  48       -0.5151
  49       -0.5151
  50       -0.5151
  51       -0.4829
  52       -0.4829
  53       -0.4829
  54       -0.4829
  55       -0.4597
  56       -0.4596
  57       -0.4596
  58       -0.4596
  59       -0.4444
  60       -0.4443
  61       -0.4443
  62       -0.4443
  63       -0.4330
  64       -0.2962
  65       -0.2962
  66       -0.2962
  67       -0.2962
  68       -0.2674
  69       -0.2674
  70       -0.2674
  71       -0.2674
  72       -0.1892
  73       -0.1891
  74       -0.1891
  75       -0.1891
  76       -0.1367
  77       -0.1367
  78       -0.1367
  79       -0.1366
  80       -0.1350
  81       -0.0736
  82       -0.0736
  83       -0.0736
  84       -0.0736
  85       -0.0599
  86       -0.0599
  87       -0.0574
  88       -0.0574
  89        0.0707
  90        0.0708
  91        0.0708
  92        0.0708
  93        0.1897
  94        0.1897
  95        0.1897
  96        0.1897
  97        0.2116
  98        0.2116
  99        0.2731
 100        0.3528
 101        0.3528
 102        0.3528
 103        0.3528
 104        0.3963
 105        0.3963
 106        0.3963
 107        0.3963
 108        0.4236
 109        0.4236
 110        0.4236
 111        0.4237
 112        0.4619
 113        0.4619
 114        0.4619
 115        0.4619
 116        0.4700
 117        0.5102
 118        0.5122
 119        0.5122
 120        0.5122
 121        0.5123
 122        0.5229
 123        0.5229
 124        0.5229
 125        0.5229
 126        0.5645
 127        0.6144
 128        0.6144
 129        0.6581
 130        0.6581
 131        0.6653
 132        0.6653
 133        0.6653
 134        0.6653
 135        0.6783
 136        0.6783
 137        0.6783
 138        0.6783
 139        0.6788
 140        0.6939
 141        0.6940
 142        0.6940
 143        0.6940
 144        0.8256
 145        0.8256
 146        0.8256
 147        0.8256
 148        0.8423
 149        0.8750
 150        0.8750
 151        0.9262
 152        0.9262
 153        0.9455
 154        0.9455
 155        0.9455
 156        0.9455
 157        0.9592
 158        1.0333
 159        1.0333
 160        1.0333
 161        1.0333
 162        1.0366
 163        1.0366
 164        1.0949
 165        1.0953
 166        1.0956
 167        1.0960
 168        1.5024
 169        1.5024
 170        1.5024
 171        1.5025
 172        2.0293
 173        2.0294
 174        2.0294
 175        2.0294
 176        2.1123
 177        2.1123
 178        2.1123
 179        2.1123
 180        3.0942
 181        3.1229
 182        3.1229
 183        3.1229
 184        3.1230
 185        4.5061
 186        4.5061
 187        6.0393
 188        6.0393
 189        6.0393
 190        6.0394
 191        6.5363
 192        6.5363
 193        6.5363
 194        6.5363
 195        6.6766
 196        6.6766
 197        8.3653
 198        8.3653
 199        8.3653
 200        8.3653
 201        8.6119
 202        8.6119
 203        9.2868
 204        9.2868
 205        9.3455
 206        9.3455
 207        9.3455
 208        9.3455
 209        9.7960
 210        9.7960
 211        9.9306
 212        9.9819
 
  0.3333333E+00  0.0000000E+00  0.0000000E+00  0.1157407E-02
   1       -5.3707
   2       -4.4979
   3       -2.9313
   4       -2.9313
   5       -2.9313
   6       -2.9313
   7       -2.2680
   8       -2.2680
   9       -2.2680
  10       -2.2680
  11       -1.9354
  12       -1.6936
  13       -1.6936
  14       -1.6936
  15       -1.6936
  16       -1.5535
  17       -1.5535
  18       -1.5535
  19       -1.5535
  20       -1.5507
  21       -1.3989
  22       -1.3989
  23       -1.1053
  24       -1.1053
  25       -1.0981
  26       -1.0923
  27       -1.0923
  28       -0.9065
  29       -0.8959
  30       -0.8959
  31       -0.8959
  32       -0.8959
  33       -0.8615
  34       -0.8615
  35       -0.8289
  36       -0.8289
  37       -0.8289
  38       -0.8289
  39       -0.6101
  40       -0.6101
  41       -0.6101
  42       -0.6100
  43       -0.5668
  44       -0.5668
  45       -0.5668
  46       -0.5668
  47       -0.5512
  48       -0.5512
  49       -0.5512
  50       -0.5512
  51       -0.5355
  52       -0.5354
  53       -0.5354
  54       -0.5354
  55       -0.4561
  56       -0.4559
  57       -0.4559
  58       -0.4559
  59       -0.4436
  60       -0.4436
  61       -0.4436
  62       -0.4434
  63       -0.3690
  64       -0.2472
  65       -0.2472
  66       -0.2472
  67       -0.2472
  68       -0.1752
  69       -0.1752
  70       -0.1752
  71       -0.1752
  72       -0.1671
  73       -0.1596
  74       -0.1595
  75       -0.1595
  76       -0.1595
  77       -0.1547
  78       -0.1547
  79       -0.1547
  80       -0.1546
  81       -0.0448
  82       -0.0448
  83       -0.0448
  84       -0.0447
  85       -0.0302
  86       -0.0302
  87        0.0129
  88        0.0129
  89        0.0129
  90        0.0129
  91        0.0929
  92        0.0929
  93        0.1350
  94        0.1350
  95        0.1350
  96        0.1350
  97        0.1504
  98        0.1504
  99        0.3165
 100        0.3922
 101        0.3922
 102        0.3922
 103        0.3922
 104        0.4243
 105        0.4243
 106        0.4243
 107        0.4243
 108        0.4342
 109        0.4342
 110        0.4342
 111        0.4342
 112        0.4467
 113        0.4467
 114        0.4467
 115        0.4467
 116        0.4816
 117        0.4994
 118        0.4994
 119        0.4994
 120        0.4994
 121        0.5165
 122        0.5167
 123        0.5167
 124        0.5167
 125        0.5184
 126        0.5184
 127        0.5185
 128        0.5186
 129        0.5766
 130        0.6539
 131        0.6708
 132        0.6709
 133        0.7160
 134        0.7225
 135        0.7225
 136        0.7225
 137        0.7225
 138        0.7333
 139        0.7333
 140        0.7351
 141        0.7351
 142        0.7536
 143        0.7536
 144        0.7536
 145        0.7536
 146        0.8675
 147        0.8889
 148        0.8889
 149        0.8945
 150        0.8945
 151        0.8945
 152        0.8946
 153        0.9142
 154        0.9142
 155        0.9142
 156        0.9142
 157        0.9466
 158        0.9886
 159        0.9886
 160        0.9886
 161        0.9886
 162        0.9930
 163        0.9930
 164        1.0949
 165        1.0953
 166        1.0956
 167        1.0960
 168        1.3504
 169        1.3504
 170        1.3504
 171        1.3504
 172        2.0568
 173        2.0568
 174        2.0568
 175        2.0568
 176        2.1085
 177        2.1085
 178        2.1085
 179        2.1085
 180        2.5443
 181        3.5700
 182        3.5700
 183        3.5701
 184        3.5701
 185        4.7688
 186        4.7688
 187        5.8666
 188        5.8666
 189        5.8666
 190        5.8666
 191        6.2340
 192        6.2340
 193        6.4271
 194        6.4271
 195        6.4271
 196        6.4271
 197        8.5333
 198        8.5333
 199        8.5333
 200        8.5333
 201        8.6617
 202        8.6617
 203        8.6617
 204        8.6617
 205        8.6714
 206        8.6714
 207        9.1155
 208        9.1155
 209        9.6190
 210        9.6190
 211        9.6190
 212        9.6190
 
  0.4166667E+00  0.0000000E+00  0.0000000E+00  0.1157407E-02
   1       -5.2040
   2       -4.7660
   3       -2.7986
   4       -2.7986
   5       -2.7986
   6       -2.7986
   7       -2.4629
   8       -2.4629
   9       -2.4629
  10       -2.4629
  11       -1.7623
  12       -1.6638
  13       -1.6638
  14       -1.6638
  15       -1.6638
  16       -1.5920
  17       -1.5920
  18       -1.5920
  19       -1.5920
  20       -1.5857
  21       -1.3345
  22       -1.3345
  23       -1.1834
  24       -1.1834
  25       -1.0603
  26       -1.0496
  27       -1.0496
  28       -0.9637
  29       -0.9344
  30       -0.9344
  31       -0.8113
  32       -0.8113
  33       -0.8113
  34       -0.8113
  35       -0.7873
  36       -0.7873
  37       -0.7872
  38       -0.7872
  39       -0.6143
  40       -0.6140
  41       -0.6140
  42       -0.6140
  43       -0.6122
  44       -0.6122
  45       -0.6122
  46       -0.6119
  47       -0.5942
  48       -0.5942
  49       -0.5942
  50       -0.5942
  51       -0.5561
  52       -0.5560
  53       -0.5560
  54       -0.5560
  55       -0.4522
  56       -0.4519
  57       -0.4519
  58       -0.4519
  59       -0.4451
  60       -0.4450
  61       -0.4450
  62       -0.4447
  63       -0.3093
  64       -0.2240
  65       -0.2240
  66       -0.2240
  67       -0.2240
  68       -0.2075
  69       -0.1762
  70       -0.1762
  71       -0.1762
  72       -0.1762
  73       -0.1260
  74       -0.1260
  75       -0.1260
  76       -0.1259
  77       -0.0400
  78       -0.0400
  79       -0.0400
  80       -0.0400
  81       -0.0296
  82       -0.0296
  83       -0.0296
  84       -0.0296
  85       -0.0086
  86       -0.0086
  87       -0.0086
  88       -0.0086
  89        0.0045
  90        0.0045
  91        0.0825
  92        0.0825
  93        0.0825
  94        0.0825
  95        0.0951
  96        0.0951
  97        0.2519
  98        0.2519
  99        0.3147
 100        0.3147
 101        0.3147
 102        0.3147
 103        0.3618
 104        0.4261
 105        0.4261
 106        0.4261
 107        0.4261
 108        0.4333
 109        0.4334
 110        0.4334
 111        0.4334
 112        0.4363
 113        0.4364
 114        0.4364
 115        0.4364
 116        0.4465
 117        0.4667
 118        0.4667
 119        0.4667
 120        0.4667
 121        0.5008
 122        0.5008
 123        0.5008
 124        0.5008
 125        0.5085
 126        0.5085
 127        0.5085
 128        0.5085
 129        0.5771
 130        0.5771
 131        0.5919
 132        0.6309
 133        0.7306
 134        0.7307
 135        0.7779
 136        0.7779
 137        0.7779
 138        0.7779
 139        0.8087
 140        0.8087
 141        0.8153
 142        0.8153
 143        0.8153
 144        0.8153
 145        0.8426
 146        0.8426
 147        0.8751
 148        0.8751
 149        0.8751
 150        0.8751
 151        0.8910
 152        0.9309
 153        0.9355
 154        0.9355
 155        0.9355
 156        0.9355
 157        0.9394
 158        0.9394
 159        0.9859
 160        0.9859
 161        0.9859
 162        0.9859
 163        1.0619
 164        1.0949
 165        1.0954
 166        1.0955
 167        1.0960
 168        1.2150
 169        1.2150
 170        1.2150
 171        1.2150
 172        2.0006
 173        2.0776
 174        2.0777
 175        2.0777
 176        2.0777
 177        2.1022
 178        2.1022
 179        2.1023
 180        2.1024
 181        4.0724
 182        4.0724
 183        4.0724
 184        4.0724
 185        5.0804
 186        5.0804
 187        5.2265
 188        5.2265
 189        5.2265
 190        5.2265
 191        5.8183
 192        5.8183
 193        6.8942
 194        6.8942
 195        6.8942
 196        6.8942
 197        8.0203
 198        8.0203
 199        8.0203
 200        8.0203
 201        8.7452
 202        8.7452
 203        8.7452
 204        8.7452
 205        8.7499
 206        8.7499
 207        8.9702
 208        8.9702
 209        9.2904
 210        9.2904
 211        9.2904
 212        9.2904
 
  0.5000000E+00  0.0000000E+00  0.0000000E+00  0.5787037E-03
   1       -5.0033
   2       -5.0007
   3       -2.6444
   4       -2.6420
   5       -2.6420
   6       -2.6418
   7       -2.6409
   8       -2.6407
   9       -2.6407
  10       -2.6383
  11       -1.6514
  12       -1.6507
  13       -1.6307
  14       -1.6307
  15       -1.6298
  16       -1.6296
  17       -1.6292
  18       -1.6291
  19       -1.6282
  20       -1.6282
  21       -1.2626
  22       -1.2619
  23       -1.2608
  24       -1.2601
  25       -1.0160
  26       -1.0144
  27       -0.9978
  28       -0.9978
  29       -0.9962
  30       -0.9962
  31       -0.7672
  32       -0.7672
  33       -0.7670
  34       -0.7669
  35       -0.7668
  36       -0.7666
  37       -0.7664
  38       -0.7664
  39       -0.6438
  40       -0.6429
  41       -0.6429
  42       -0.6429
  43       -0.6428
  44       -0.6428
  45       -0.6428
  46       -0.6419
  47       -0.5771
  48       -0.5766
  49       -0.5766
  50       -0.5761
  51       -0.5757
  52       -0.5752
  53       -0.5752
  54       -0.5748
  55       -0.4497
  56       -0.4485
  57       -0.4485
  58       -0.4482
  59       -0.4478
  60       -0.4476
  61       -0.4476
  62       -0.4464
  63       -0.2554
  64       -0.2549
  65       -0.2004
  66       -0.2002
  67       -0.2002
  68       -0.1999
  69       -0.1998
  70       -0.1995
  71       -0.1995
  72       -0.1993
  73       -0.0870
  74       -0.0870
  75       -0.0870
  76       -0.0865
  77       -0.0862
  78       -0.0858
  79       -0.0857
  80       -0.0857
  81        0.0329
  82        0.0332
  83        0.0332
  84        0.0340
  85        0.0344
  86        0.0351
  87        0.0351
  88        0.0354
  89        0.0457
  90        0.0457
  91        0.0471
  92        0.0471
  93        0.1350
  94        0.1354
  95        0.1354
  96        0.1354
  97        0.1359
  98        0.1359
  99        0.1359
 100        0.1364
 101        0.4056
 102        0.4063
 103        0.4143
 104        0.4143
 105        0.4150
 106        0.4150
 107        0.4295
 108        0.4295
 109        0.4296
 110        0.4298
 111        0.4299
 112        0.4300
 113        0.4302
 114        0.4302
 115        0.4703
 116        0.4708
 117        0.4708
 118        0.4709
 119        0.4715
 120        0.4715
 121        0.4715
 122        0.4720
 123        0.4909
 124        0.4912
 125        0.4914
 126        0.4914
 127        0.4918
 128        0.4918
 129        0.4921
 130        0.4923
 131        0.6095
 132        0.6107
 133        0.7890
 134        0.7890
 135        0.7891
 136        0.7891
 137        0.8288
 138        0.8290
 139        0.8290
 140        0.8290
 141        0.8296
 142        0.8296
 143        0.8296
 144        0.8299
 145        0.8761
 146        0.8761
 147        0.8766
 148        0.8767
 149        0.8771
 150        0.8771
 151        0.8771
 152        0.8771
 153        0.8775
 154        0.8775
 155        0.8780
 156        0.8780
 157        0.9122
 158        0.9123
 159        1.0930
 160        1.0934
 161        1.0934
 162        1.0936
 163        1.0936
 164        1.0938
 165        1.0938
 166        1.0943
 167        1.0949
 168        1.0954
 169        1.0954
 170        1.0960
 171        1.4967
 172        1.4981
 173        2.0910
 174        2.0916
 175        2.0920
 176        2.0920
 177        2.0928
 178        2.0928
 179        2.0933
 180        2.0939
 181        4.6245
 182        4.6245
 183        4.6245
 184        4.6259
 185        4.6265
 186        4.6279
 187        4.6279
 188        4.6279
 189        5.4309
 190        5.4309
 191        5.4336
 192        5.4336
 193        7.4268
 194        7.4268
 195        7.4271
 196        7.4283
 197        7.4288
 198        7.4300
 199        7.4303
 200        7.4303
 201        8.8486
 202        8.8490
 203        8.8490
 204        8.8493
 205        8.9963
 206        8.9963
 207        8.9982
 208        8.9982
 209        8.9985
 210        8.9986
 211        9.0004
 212        9.0004
 
  0.0000000E+00  0.8333333E-01  0.0000000E+00  0.2314815E-02
   1       -5.6511
   2       -3.5321
   3       -3.1620
   4       -3.1598
   5       -3.1598
   6       -3.1576
   7       -2.8182
   8       -1.7466
   9       -1.7465
  10       -1.7465
  11       -1.7465
  12       -1.6506
  13       -1.6489
  14       -1.6489
  15       -1.6472
  16       -1.5239
  17       -1.5153
  18       -1.5152
  19       -1.4655
  20       -1.4645
  21       -1.4641
  22       -1.4630
  23       -1.2846
  24       -1.2832
  25       -1.2832
  26       -1.2817
  27       -1.1631
  28       -1.1629
  29       -1.1629
  30       -0.9343
  31       -0.9342
  32       -0.9152
  33       -0.9142
  34       -0.9142
  35       -0.9132
  36       -0.7103
  37       -0.6394
  38       -0.6383
  39       -0.6383
  40       -0.6373
  41       -0.5801
  42       -0.5800
  43       -0.5700
  44       -0.4803
  45       -0.4792
  46       -0.4792
  47       -0.4783
  48       -0.4728
  49       -0.4719
  50       -0.4719
  51       -0.4710
  52       -0.4657
  53       -0.4644
  54       -0.4644
  55       -0.4631
  56       -0.4559
  57       -0.4549
  58       -0.4548