 vasp.4.6.28 25Jul05 complex 
 executed on             LinuxIFC date 2017.01.11  08:07:24
 running on    4 nodes
 distr:  one band on    1 nodes,    4 groups


--------------------------------------------------------------------------------------------------------


 INCAR:
 POTCAR:   PAW_PBE Cu 05Jan2001                   
 POTCAR:   PAW_PBE Cu 05Jan2001                   
   VRHFIN =Cu: d10 p1                                                           
   LEXCH  = PE                                                                  
   EATOM  =  1390.9800 eV,  102.2341 Ry                                         
                                                                                
   TITEL  = PAW_PBE Cu 05Jan2001                                                
   LULTRA =        F    use ultrasoft PP ?                                      
   IUNSCR =        1    unscreen: 0-lin 1-nonlin 2-no                           
   RPACOR =    2.000    partial core radius                                     
   POMASS =   63.546; ZVAL   =   11.000    mass and valenz                      
   RCORE  =    2.300    outmost cutoff radius                                   
   RWIGS  =    2.480; RWIGS  =    1.312    wigner-seitz radius (au A)           
   ENMAX  =  273.214; ENMIN  =  204.910 eV                                      
   RCLOC  =    1.712    cutoff for local pot                                    
   LCOR   =        T    correct aug charges                                     
   LPAW   =        T    paw PP                                                  
   EAUG   =  516.456                                                            
   DEXC   =    -.008                                                            
   RMAX   =    2.789    core radius for proj-oper                               
   RAUG   =    1.300    factor for augmentation sphere                          
   RDEP   =    2.302    radius for radial grids                                 
   QCUT   =   -4.481; QGAM   =    8.962    optimization parameters              
                                                                                
   Description                                                                  
     l     E      TYP  RCUT    TYP  RCUT                                        
     2   .000     23  2.300                                                     
     2   .000     23  2.300                                                     
     0   .000     23  2.300                                                     
     0   .000     23  2.300                                                     
     1  -.200     23  2.300                                                     
     1   .000     23  2.300                                                     
     3   .000      7   .000                                                     
  local pseudopotential read in
  partial core-charges read in
  atomic valenz-charges read in
  non local Contribution for L=           2  read in
    real space projection operators read in
  non local Contribution for L=           2  read in
    real space projection operators read in
  non local Contribution for L=           0  read in
    real space projection operators read in
  non local Contribution for L=           0  read in
    real space projection operators read in
  non local Contribution for L=           1  read in
    real space projection operators read in
  non local Contribution for L=           1  read in
    real space projection operators read in
    PAW grid and wavefunctions read in
 
   number of l-projection  operators is LMAX  =           6
   number of lm-projection operators is LMMAX =          18
 

 ----------------------------------------------------------------------------- 
|                                                                             |
|  ADVICE TO THIS USER RUNNING 'VASP/VAMP'   (HEAR YOUR MASTER'S VOICE ...):  |
|                                                                             |
|      You have a (more or less) 'large supercell' and for larger cells       |
|      it might be more efficient to use real space projection operators      |
|      So try LREAL= Auto  in the INCAR   file.                               |
|      Mind: If you want to do an extremely accurate calculations keep the    |
|      reciprocal projection scheme          (i.e. LREAL=.FALSE.)             |
|                                                                             |
 ----------------------------------------------------------------------------- 

 PAW_PBE Cu 05Jan2001                   :
 energy of atom  1       EATOM=-1390.9800
 kinetic energy error for atom=    0.0006 (will be added to EATOM!!)
 
 EXHCAR: internal setup
 exchange correlation table for  LEXCH =        8
   RHO(1)=    0.500       N(1)  =     2000
   RHO(2)=  100.500       N(2)  =     4000
 
 POSCAR: Cu                                      
  positions in direct lattice
  No initial velocities read in
 


--------------------------------------------------------------------------------------------------------


 ion  position               nearest neighbor table
   1  0.001  0.000  0.000-   9 2.69  11 2.69  17 2.69  21 2.69  25 2.70  27 2.70  29 2.70  31 2.70
                            10 2.71  18 2.71  12 2.71  22 2.71
   2  0.500  0.000  0.000-   9 2.70  10 2.70  11 2.70  12 2.70  17 2.70  18 2.70  21 2.70  22 2.70
                            26 2.70  28 2.70  30 2.70  32 2.70
   3  0.000  0.500  0.000-   9 2.70  10 2.70  11 2.70  12 2.70  19 2.70  20 2.70  23 2.70  24 2.70
                            25 2.70  27 2.70  29 2.70  31 2.70
   4  0.500  0.500  0.000-   9 2.70  10 2.70  11 2.70  12 2.70  19 2.70  20 2.70  23 2.70  24 2.70
                            26 2.70  28 2.70  30 2.70  32 2.70
   5  0.000  0.000  0.500-  13 2.70  14 2.70  15 2.70  16 2.70  17 2.70  18 2.70  21 2.70  22 2.70
                            25 2.70  27 2.70  29 2.70  31 2.70
   6  0.500  0.000  0.500-  13 2.70  14 2.70  15 2.70  16 2.70  17 2.70  18 2.70  21 2.70  22 2.70
                            26 2.70  28 2.70  30 2.70  32 2.70
   7  0.000  0.500  0.500-  13 2.70  14 2.70  15 2.70  16 2.70  19 2.70  20 2.70  23 2.70  24 2.70
                            25 2.70  27 2.70  29 2.70  31 2.70
   8  0.500  0.500  0.500-  13 2.70  14 2.70  15 2.70  16 2.70  19 2.70  20 2.70  23 2.70  24 2.70
                            26 2.70  28 2.70  30 2.70  32 2.70
   9  0.250  0.250  0.000-   1 2.69   2 2.70   3 2.70   4 2.70  17 2.70  19 2.70  21 2.70  23 2.70
                            25 2.70  26 2.70  29 2.70  30 2.70
  10  0.750  0.250  0.000-   2 2.70   3 2.70   4 2.70  18 2.70  20 2.70  22 2.70  24 2.70  25 2.70
                            26 2.70  29 2.70  30 2.70   1 2.71
  11  0.250  0.750  0.000-   1 2.69   2 2.70   3 2.70   4 2.70  17 2.70  19 2.70  21 2.70  23 2.70
                            27 2.70  28 2.70  31 2.70  32 2.70
  12  0.750  0.750  0.000-   2 2.70   3 2.70   4 2.70  18 2.70  20 2.70  22 2.70  24 2.70  27 2.70
                            28 2.70  31 2.70  32 2.70   1 2.71
  13  0.250  0.250  0.500-   5 2.70   6 2.70   7 2.70   8 2.70  17 2.70  19 2.70  21 2.70  23 2.70
                            25 2.70  26 2.70  29 2.70  30 2.70
  14  0.750  0.250  0.500-   5 2.70   6 2.70   7 2.70   8 2.70  18 2.70  20 2.70  22 2.70  24 2.70
                            25 2.70  26 2.70  29 2.70  30 2.70
  15  0.250  0.750  0.500-   5 2.70   6 2.70   7 2.70   8 2.70  17 2.70  19 2.70  21 2.70  23 2.70
                            27 2.70  28 2.70  31 2.70  32 2.70
  16  0.750  0.750  0.500-   5 2.70   6 2.70   7 2.70   8 2.70  18 2.70  20 2.70  22 2.70  24 2.70
                            27 2.70  28 2.70  31 2.70  32 2.70
  17  0.250  0.000  0.250-   1 2.69   2 2.70   5 2.70   6 2.70   9 2.70  11 2.70  13 2.70  15 2.70
                            25 2.70  26 2.70  27 2.70  28 2.70
  18  0.750  0.000  0.250-   2 2.70   5 2.70   6 2.70  10 2.70  12 2.70  14 2.70  16 2.70  25 2.70
                            26 2.70  27 2.70  28 2.70   1 2.71
  19  0.250  0.500  0.250-   3 2.70   4 2.70   7 2.70   8 2.70   9 2.70  11 2.70  13 2.70  15 2.70
                            25 2.70  26 2.70  27 2.70  28 2.70
  20  0.750  0.500  0.250-   3 2.70   4 2.70   7 2.70   8 2.70  10 2.70  12 2.70  14 2.70  16 2.70
                            25 2.70  26 2.70  27 2.70  28 2.70
  21  0.250  0.000  0.750-   1 2.69   2 2.70   5 2.70   6 2.70   9 2.70  11 2.70  13 2.70  15 2.70
                            29 2.70  30 2.70  31 2.70  32 2.70
  22  0.750  0.000  0.750-   2 2.70   5 2.70   6 2.70  10 2.70  12 2.70  14 2.70  16 2.70  29 2.70
                            30 2.70  31 2.70  32 2.70   1 2.71
  23  0.250  0.500  0.750-   3 2.70   4 2.70   7 2.70   8 2.70   9 2.70  11 2.70  13 2.70  15 2.70
                            29 2.70  30 2.70  31 2.70  32 2.70
  24  0.750  0.500  0.750-   3 2.70   4 2.70   7 2.70   8 2.70  10 2.70  12 2.70  14 2.70  16 2.70
                            29 2.70  30 2.70  31 2.70  32 2.70
  25  0.000  0.250  0.250-   3 2.70   5 2.70   7 2.70   9 2.70  10 2.70  13 2.70  14 2.70  17 2.70
                            18 2.70  19 2.70  20 2.70   1 2.70
  26  0.500  0.250  0.250-   2 2.70   4 2.70   6 2.70   8 2.70   9 2.70  10 2.70  13 2.70  14 2.70
                            17 2.70  18 2.70  19 2.70  20 2.70
  27  0.000  0.750  0.250-   3 2.70   5 2.70   7 2.70  11 2.70  12 2.70  15 2.70  16 2.70  17 2.70
                            18 2.70  19 2.70  20 2.70   1 2.70
  28  0.500  0.750  0.250-   2 2.70   4 2.70   6 2.70   8 2.70  11 2.70  12 2.70  15 2.70  16 2.70
                            17 2.70  18 2.70  19 2.70  20 2.70
  29  0.000  0.250  0.750-   3 2.70   5 2.70   7 2.70   9 2.70  10 2.70  13 2.70  14 2.70  21 2.70
                            22 2.70  23 2.70  24 2.70   1 2.70
  30  0.500  0.250  0.750-   2 2.70   4 2.70   6 2.70   8 2.70   9 2.70  10 2.70  13 2.70  14 2.70
                            21 2.70  22 2.70  23 2.70  24 2.70
  31  0.000  0.750  0.750-   3 2.70   5 2.70   7 2.70  11 2.70  12 2.70  15 2.70  16 2.70  21 2.70
                            22 2.70  23 2.70  24 2.70   1 2.70
  32  0.500  0.750  0.750-   2 2.70   4 2.70   6 2.70   8 2.70  11 2.70  12 2.70  15 2.70  16 2.70
                            21 2.70  22 2.70  23 2.70  24 2.70
 
  LATTYP: Found a simple cubic cell.
 ALAT       =     7.6364732046
  
  Lattice vectors:
  
 A1 = (   7.6364732046,   0.0000000000,   0.0000000000)
 A2 = (   0.0000000000,   7.6364732046,   0.0000000000)
 A3 = (   0.0000000000,   0.0000000000,   7.6364732046)
 Subroutine PRICEL returns:
 Original cell was already a primitive cell.
 

Analysis of symmetry for initial positions (statically):

 Routine SETGRP: Setting up the symmetry group for a 
 simple cubic supercell.


 Subroutine GETGRP returns: Found  8 space group operations
 (whereof  8 operations were pure point group operations)
 out of a pool of 48 trial point group operations.


The static configuration has the point symmetry C_4v.

Analysis of symmetry for dynamics (positions and initial velocities):

 Subroutine DYNSYM returns: Found  8 space group operations
 (whereof  8 operations were pure point group operations)
 out of a pool of  8 trial space group operations
 (whereof  8 operations were pure point group operations)
 and found also     1 'primitive' translations


The dynamic configuration has the point symmetry C_4v.
 
 
 KPOINTS: Automatic mesh                          

Automatic generation of k-mesh.
 
 Subroutine IBZKPT returns following result:
 ===========================================
 
 Found    196 irreducible k-points:
 
 Following reciprocal coordinates:
            Coordinates               Weight
  0.000000  0.000000  0.000000      1.000000
  0.083333  0.000000  0.000000      2.000000
  0.166667  0.000000  0.000000      2.000000
  0.250000  0.000000  0.000000      2.000000
  0.333333  0.000000  0.000000      2.000000
  0.416667  0.000000  0.000000      2.000000
  0.500000  0.000000  0.000000      1.000000
  0.000000  0.083333  0.000000      4.000000
  0.083333  0.083333  0.000000      8.000000
  0.166667  0.083333  0.000000      8.000000
  0.250000  0.083333  0.000000      8.000000
  0.333333  0.083333  0.000000      8.000000
  0.416667  0.083333  0.000000      8.000000
  0.500000  0.083333  0.000000      4.000000
  0.000000  0.166667  0.000000      4.000000
  0.083333  0.166667  0.000000      8.000000
  0.166667  0.166667  0.000000      8.000000
  0.250000  0.166667  0.000000      8.000000
  0.333333  0.166667  0.000000      8.000000
  0.416667  0.166667  0.000000      8.000000
  0.500000  0.166667  0.000000      4.000000
  0.000000  0.250000  0.000000      4.000000
  0.083333  0.250000  0.000000      8.000000
  0.166667  0.250000  0.000000      8.000000
  0.250000  0.250000  0.000000      8.000000
  0.333333  0.250000  0.000000      8.000000
  0.416667  0.250000  0.000000      8.000000
  0.500000  0.250000  0.000000      4.000000
  0.000000  0.333333  0.000000      4.000000
  0.083333  0.333333  0.000000      8.000000
  0.166667  0.333333  0.000000      8.000000
  0.250000  0.333333  0.000000      8.000000
  0.333333  0.333333  0.000000      8.000000
  0.416667  0.333333  0.000000      8.000000
  0.500000  0.333333  0.000000      4.000000
  0.000000  0.416667  0.000000      4.000000
  0.083333  0.416667  0.000000      8.000000
  0.166667  0.416667  0.000000      8.000000
  0.250000  0.416667  0.000000      8.000000
  0.333333  0.416667  0.000000      8.000000
  0.416667  0.416667  0.000000      8.000000
  0.500000  0.416667  0.000000      4.000000
  0.000000  0.500000  0.000000      2.000000
  0.083333  0.500000  0.000000      4.000000
  0.166667  0.500000  0.000000      4.000000
  0.250000  0.500000  0.000000      4.000000
  0.333333  0.500000  0.000000      4.000000
  0.416667  0.500000  0.000000      4.000000
  0.500000  0.500000  0.000000      2.000000
  0.000000  0.083333  0.083333      4.000000
  0.083333  0.083333  0.083333      8.000000
  0.166667  0.083333  0.083333      8.000000
  0.250000  0.083333  0.083333      8.000000
  0.333333  0.083333  0.083333      8.000000
  0.416667  0.083333  0.083333      8.000000
  0.500000  0.083333  0.083333      4.000000
  0.000000  0.166667  0.083333      8.000000
  0.083333  0.166667  0.083333     16.000000
  0.166667  0.166667  0.083333     16.000000
  0.250000  0.166667  0.083333     16.000000
  0.333333  0.166667  0.083333     16.000000
  0.416667  0.166667  0.083333     16.000000
  0.500000  0.166667  0.083333      8.000000
  0.000000  0.250000  0.083333      8.000000
  0.083333  0.250000  0.083333     16.000000
  0.166667  0.250000  0.083333     16.000000
  0.250000  0.250000  0.083333     16.000000
  0.333333  0.250000  0.083333     16.000000
  0.416667  0.250000  0.083333     16.000000
  0.500000  0.250000  0.083333      8.000000
  0.000000  0.333333  0.083333      8.000000
  0.083333  0.333333  0.083333     16.000000
  0.166667  0.333333  0.083333     16.000000
  0.250000  0.333333  0.083333     16.000000
  0.333333  0.333333  0.083333     16.000000
  0.416667  0.333333  0.083333     16.000000
  0.500000  0.333333  0.083333      8.000000
  0.000000  0.416667  0.083333      8.000000
  0.083333  0.416667  0.083333     16.000000
  0.166667  0.416667  0.083333     16.000000
  0.250000  0.416667  0.083333     16.000000
  0.333333  0.416667  0.083333     16.000000
  0.416667  0.416667  0.083333     16.000000
  0.500000  0.416667  0.083333      8.000000
  0.000000  0.500000  0.083333      4.000000
  0.083333  0.500000  0.083333      8.000000
  0.166667  0.500000  0.083333      8.000000
  0.250000  0.500000  0.083333      8.000000
  0.333333  0.500000  0.083333      8.000000
  0.416667  0.500000  0.083333      8.000000
  0.500000  0.500000  0.083333      4.000000
  0.000000  0.166667  0.166667      4.000000
  0.083333  0.166667  0.166667      8.000000
  0.166667  0.166667  0.166667      8.000000
  0.250000  0.166667  0.166667      8.000000
  0.333333  0.166667  0.166667      8.000000
  0.416667  0.166667  0.166667      8.000000
  0.500000  0.166667  0.166667      4.000000
  0.000000  0.250000  0.166667      8.000000
  0.083333  0.250000  0.166667     16.000000
  0.166667  0.250000  0.166667     16.000000
  0.250000  0.250000  0.166667     16.000000
  0.333333  0.250000  0.166667     16.000000
  0.416667  0.250000  0.166667     16.000000
  0.500000  0.250000  0.166667      8.000000
  0.000000  0.333333  0.166667      8.000000
  0.083333  0.333333  0.166667     16.000000
  0.166667  0.333333  0.166667     16.000000
  0.250000  0.333333  0.166667     16.000000
  0.333333  0.333333  0.166667     16.000000
  0.416667  0.333333  0.166667     16.000000
  0.500000  0.333333  0.166667      8.000000
  0.000000  0.416667  0.166667      8.000000
  0.083333  0.416667  0.166667     16.000000
  0.166667  0.416667  0.166667     16.000000
  0.250000  0.416667  0.166667     16.000000
  0.333333  0.416667  0.166667     16.000000
  0.416667  0.416667  0.166667     16.000000
  0.500000  0.416667  0.166667      8.000000
  0.000000  0.500000  0.166667      4.000000
  0.083333  0.500000  0.166667      8.000000
  0.166667  0.500000  0.166667      8.000000
  0.250000  0.500000  0.166667      8.000000
  0.333333  0.500000  0.166667      8.000000
  0.416667  0.500000  0.166667      8.000000
  0.500000  0.500000  0.166667      4.000000
  0.000000  0.250000  0.250000      4.000000
  0.083333  0.250000  0.250000      8.000000
  0.166667  0.250000  0.250000      8.000000
  0.250000  0.250000  0.250000      8.000000
  0.333333  0.250000  0.250000      8.000000
  0.416667  0.250000  0.250000      8.000000
  0.500000  0.250000  0.250000      4.000000
  0.000000  0.333333  0.250000      8.000000
  0.083333  0.333333  0.250000     16.000000
  0.166667  0.333333  0.250000     16.000000
  0.250000  0.333333  0.250000     16.000000
  0.333333  0.333333  0.250000     16.000000
  0.416667  0.333333  0.250000     16.000000
  0.500000  0.333333  0.250000      8.000000
  0.000000  0.416667  0.250000      8.000000
  0.083333  0.416667  0.250000     16.000000
  0.166667  0.416667  0.250000     16.000000
  0.250000  0.416667  0.250000     16.000000
  0.333333  0.416667  0.250000     16.000000
  0.416667  0.416667  0.250000     16.000000
  0.500000  0.416667  0.250000      8.000000
  0.000000  0.500000  0.250000      4.000000
  0.083333  0.500000  0.250000      8.000000
  0.166667  0.500000  0.250000      8.000000
  0.250000  0.500000  0.250000      8.000000
  0.333333  0.500000  0.250000      8.000000
  0.416667  0.500000  0.250000      8.000000
  0.500000  0.500000  0.250000      4.000000
  0.000000  0.333333  0.333333      4.000000
  0.083333  0.333333  0.333333      8.000000
  0.166667  0.333333  0.333333      8.000000
  0.250000  0.333333  0.333333      8.000000
  0.333333  0.333333  0.333333      8.000000
  0.416667  0.333333  0.333333      8.000000
  0.500000  0.333333  0.333333      4.000000
  0.000000  0.416667  0.333333      8.000000
  0.083333  0.416667  0.333333     16.000000
  0.166667  0.416667  0.333333     16.000000
  0.250000  0.416667  0.333333     16.000000
  0.333333  0.416667  0.333333     16.000000
  0.416667  0.416667  0.333333     16.000000
  0.500000  0.416667  0.333333      8.000000
  0.000000  0.500000  0.333333      4.000000
  0.083333  0.500000  0.333333      8.000000
  0.166667  0.500000  0.333333      8.000000
  0.250000  0.500000  0.333333      8.000000
  0.333333  0.500000  0.333333      8.000000
  0.416667  0.500000  0.333333      8.000000
  0.500000  0.500000  0.333333      4.000000
  0.000000  0.416667  0.416667      4.000000
  0.083333  0.416667  0.416667      8.000000
  0.166667  0.416667  0.416667      8.000000
  0.250000  0.416667  0.416667      8.000000
  0.333333  0.416667  0.416667      8.000000
  0.416667  0.416667  0.416667      8.000000
  0.500000  0.416667  0.416667      4.000000
  0.000000  0.500000  0.416667      4.000000
  0.083333  0.500000  0.416667      8.000000
  0.166667  0.500000  0.416667      8.000000
  0.250000  0.500000  0.416667      8.000000
  0.333333  0.500000  0.416667      8.000000
  0.416667  0.500000  0.416667      8.000000
  0.500000  0.500000  0.416667      4.000000
  0.000000  0.500000  0.500000      1.000000
  0.083333  0.500000  0.500000      2.000000
  0.166667  0.500000  0.500000      2.000000
  0.250000  0.500000  0.500000      2.000000
  0.333333  0.500000  0.500000      2.000000
  0.416667  0.500000  0.500000      2.000000
  0.500000  0.500000  0.500000      1.000000
 
 Following cartesian coordinates:
            Coordinates               Weight
  0.000000  0.000000  0.000000      1.000000
  0.010913  0.000000  0.000000      2.000000
  0.021825  0.000000  0.000000      2.000000
  0.032738  0.000000  0.000000      2.000000
  0.043650  0.000000  0.000000      2.000000
  0.054563  0.000000  0.000000      2.000000
  0.065475  0.000000  0.000000      1.000000
  0.000000  0.010913  0.000000      4.000000
  0.010913  0.010913  0.000000      8.000000
  0.021825  0.010913  0.000000      8.000000
  0.032738  0.010913  0.000000      8.000000
  0.043650  0.010913  0.000000      8.000000
  0.054563  0.010913  0.000000      8.000000
  0.065475  0.010913  0.000000      4.000000
  0.000000  0.021825  0.000000      4.000000
  0.010913  0.021825  0.000000      8.000000
  0.021825  0.021825  0.000000      8.000000
  0.032738  0.021825  0.000000      8.000000
  0.043650  0.021825  0.000000      8.000000
  0.054563  0.021825  0.000000      8.000000
  0.065475  0.021825  0.000000      4.000000
  0.000000  0.032738  0.000000      4.000000
  0.010913  0.032738  0.000000      8.000000
  0.021825  0.032738  0.000000      8.000000
  0.032738  0.032738  0.000000      8.000000
  0.043650  0.032738  0.000000      8.000000
  0.054563  0.032738  0.000000      8.000000
  0.065475  0.032738  0.000000      4.000000
  0.000000  0.043650  0.000000      4.000000
  0.010913  0.043650  0.000000      8.000000
  0.021825  0.043650  0.000000      8.000000
  0.032738  0.043650  0.000000      8.000000
  0.043650  0.043650  0.000000      8.000000
  0.054563  0.043650  0.000000      8.000000
  0.065475  0.043650  0.000000      4.000000
  0.000000  0.054563  0.000000      4.000000
  0.010913  0.054563  0.000000      8.000000
  0.021825  0.054563  0.000000      8.000000
  0.032738  0.054563  0.000000      8.000000
  0.043650  0.054563  0.000000      8.000000
  0.054563  0.054563  0.000000      8.000000
  0.065475  0.054563  0.000000      4.000000
  0.000000  0.065475  0.000000      2.000000
  0.010913  0.065475  0.000000      4.000000
  0.021825  0.065475  0.000000      4.000000
  0.032738  0.065475  0.000000      4.000000
  0.043650  0.065475  0.000000      4.000000
  0.054563  0.065475  0.000000      4.000000
  0.065475  0.065475  0.000000      2.000000
  0.000000  0.010913  0.010913      4.000000
  0.010913  0.010913  0.010913      8.000000
  0.021825  0.010913  0.010913      8.000000
  0.032738  0.010913  0.010913      8.000000
  0.043650  0.010913  0.010913      8.000000
  0.054563  0.010913  0.010913      8.000000
  0.065475  0.010913  0.010913      4.000000
  0.000000  0.021825  0.010913      8.000000
  0.010913  0.021825  0.010913     16.000000
  0.021825  0.021825  0.010913     16.000000
  0.032738  0.021825  0.010913     16.000000
  0.043650  0.021825  0.010913     16.000000
  0.054563  0.021825  0.010913     16.000000
  0.065475  0.021825  0.010913      8.000000
  0.000000  0.032738  0.010913      8.000000
  0.010913  0.032738  0.010913     16.000000
  0.021825  0.032738  0.010913     16.000000
  0.032738  0.032738  0.010913     16.000000
  0.043650  0.032738  0.010913     16.000000
  0.054563  0.032738  0.010913     16.000000
  0.065475  0.032738  0.010913      8.000000
  0.000000  0.043650  0.010913      8.000000
  0.010913  0.043650  0.010913     16.000000
  0.021825  0.043650  0.010913     16.000000
  0.032738  0.043650  0.010913     16.000000
  0.043650  0.043650  0.010913     16.000000
  0.054563  0.043650  0.010913     16.000000
  0.065475  0.043650  0.010913      8.000000
  0.000000  0.054563  0.010913      8.000000
  0.010913  0.054563  0.010913     16.000000
  0.021825  0.054563  0.010913     16.000000
  0.032738  0.054563  0.010913     16.000000
  0.043650  0.054563  0.010913     16.000000
  0.054563  0.054563  0.010913     16.000000
  0.065475  0.054563  0.010913      8.000000
  0.000000  0.065475  0.010913      4.000000
  0.010913  0.065475  0.010913      8.000000
  0.021825  0.065475  0.010913      8.000000
  0.032738  0.065475  0.010913      8.000000
  0.043650  0.065475  0.010913      8.000000
  0.054563  0.065475  0.010913      8.000000
  0.065475  0.065475  0.010913      4.000000
  0.000000  0.021825  0.021825      4.000000
  0.010913  0.021825  0.021825      8.000000
  0.021825  0.021825  0.021825      8.000000
  0.032738  0.021825  0.021825      8.000000
  0.043650  0.021825  0.021825      8.000000
  0.054563  0.021825  0.021825      8.000000
  0.065475  0.021825  0.021825      4.000000
  0.000000  0.032738  0.021825      8.000000
  0.010913  0.032738  0.021825     16.000000
  0.021825  0.032738  0.021825     16.000000
  0.032738  0.032738  0.021825     16.000000
  0.043650  0.032738  0.021825     16.000000
  0.054563  0.032738  0.021825     16.000000
  0.065475  0.032738  0.021825      8.000000
  0.000000  0.043650  0.021825      8.000000
  0.010913  0.043650  0.021825     16.000000
  0.021825  0.043650  0.021825     16.000000
  0.032738  0.043650  0.021825     16.000000
  0.043650  0.043650  0.021825     16.000000
  0.054563  0.043650  0.021825     16.000000
  0.065475  0.043650  0.021825      8.000000
  0.000000  0.054563  0.021825      8.000000
  0.010913  0.054563  0.021825     16.000000
  0.021825  0.054563  0.021825     16.000000
  0.032738  0.054563  0.021825     16.000000
  0.043650  0.054563  0.021825     16.000000
  0.054563  0.054563  0.021825     16.000000
  0.065475  0.054563  0.021825      8.000000
  0.000000  0.065475  0.021825      4.000000
  0.010913  0.065475  0.021825      8.000000
  0.021825  0.065475  0.021825      8.000000
  0.032738  0.065475  0.021825      8.000000
  0.043650  0.065475  0.021825      8.000000
  0.054563  0.065475  0.021825      8.000000
  0.065475  0.065475  0.021825      4.000000
  0.000000  0.032738  0.032738      4.000000
  0.010913  0.032738  0.032738      8.000000
  0.021825  0.032738  0.032738      8.000000
  0.032738  0.032738  0.032738      8.000000
  0.043650  0.032738  0.032738      8.000000
  0.054563  0.032738  0.032738      8.000000
  0.065475  0.032738  0.032738      4.000000
  0.000000  0.043650  0.032738      8.000000
  0.010913  0.043650  0.032738     16.000000
  0.021825  0.043650  0.032738     16.000000
  0.032738  0.043650  0.032738     16.000000
  0.043650  0.043650  0.032738     16.000000
  0.054563  0.043650  0.032738     16.000000
  0.065475  0.043650  0.032738      8.000000
  0.000000  0.054563  0.032738      8.000000
  0.010913  0.054563  0.032738     16.000000
  0.021825  0.054563  0.032738     16.000000
  0.032738  0.054563  0.032738     16.000000
  0.043650  0.054563  0.032738     16.000000
  0.054563  0.054563  0.032738     16.000000
  0.065475  0.054563  0.032738      8.000000
  0.000000  0.065475  0.032738      4.000000
  0.010913  0.065475  0.032738      8.000000
  0.021825  0.065475  0.032738      8.000000
  0.032738  0.065475  0.032738      8.000000
  0.043650  0.065475  0.032738      8.000000
  0.054563  0.065475  0.032738      8.000000
  0.065475  0.065475  0.032738      4.000000
  0.000000  0.043650  0.043650      4.000000
  0.010913  0.043650  0.043650      8.000000
  0.021825  0.043650  0.043650      8.000000
  0.032738  0.043650  0.043650      8.000000
  0.043650  0.043650  0.043650      8.000000
  0.054563  0.043650  0.043650      8.000000
  0.065475  0.043650  0.043650      4.000000
  0.000000  0.054563  0.043650      8.000000
  0.010913  0.054563  0.043650     16.000000
  0.021825  0.054563  0.043650     16.000000
  0.032738  0.054563  0.043650     16.000000
  0.043650  0.054563  0.043650     16.000000
  0.054563  0.054563  0.043650     16.000000
  0.065475  0.054563  0.043650      8.000000
  0.000000  0.065475  0.043650      4.000000
  0.010913  0.065475  0.043650      8.000000
  0.021825  0.065475  0.043650      8.000000
  0.032738  0.065475  0.043650      8.000000
  0.043650  0.065475  0.043650      8.000000
  0.054563  0.065475  0.043650      8.000000
  0.065475  0.065475  0.043650      4.000000
  0.000000  0.054563  0.054563      4.000000
  0.010913  0.054563  0.054563      8.000000
  0.021825  0.054563  0.054563      8.000000
  0.032738  0.054563  0.054563      8.000000
  0.043650  0.054563  0.054563      8.000000
  0.054563  0.054563  0.054563      8.000000
  0.065475  0.054563  0.054563      4.000000
  0.000000  0.065475  0.054563      4.000000
  0.010913  0.065475  0.054563      8.000000
  0.021825  0.065475  0.054563      8.000000
  0.032738  0.065475  0.054563      8.000000
  0.043650  0.065475  0.054563      8.000000
  0.054563  0.065475  0.054563      8.000000
  0.065475  0.065475  0.054563      4.000000
  0.000000  0.065475  0.065475      1.000000
  0.010913  0.065475  0.065475      2.000000
  0.021825  0.065475  0.065475      2.000000
  0.032738  0.065475  0.065475      2.000000
  0.043650  0.065475  0.065475      2.000000
  0.054563  0.065475  0.065475      2.000000
  0.065475  0.065475  0.065475      1.000000
 


--------------------------------------------------------------------------------------------------------




 Dimension of arrays:
   k-Points           NKPTS =    196   number of bands    NBANDS=    212
   number of dos      NEDOS =    301   number of ions     NIONS =     32
   non local maximal  LDIM  =      6   non local SUM 2l+1 LMDIM =     18
   total plane-waves  NPLWV = 343000
   max r-space proj   IRMAX =      1   max aug-charges    IRDMAX= 216433
   dimension x,y,z NGX =    70 NGY =   70 NGZ =   70
   dimension x,y,z NGXF=   140 NGYF=  140 NGZF=  140
   support grid    NGXF=   280 NGYF=  280 NGZF=  280
   ions per type =              32
 NGX,Y,Z   is equivalent  to a cutoff of  15.24, 15.24, 15.24 a.u.
 NGXF,Y,Z  is equivalent  to a cutoff of  30.48, 30.48, 30.48 a.u.


 I would recommend the setting:
   dimension x,y,z NGX =    68 NGY =   68 NGZ =   68
 SYSTEM =  unknown system                          
 POSCAR =  Cu                                      

 Startparameter for this run:
   NWRITE =      2    write-flag & timer
   PREC   = accura    medium, high low
   ISTART =      0    job   : 0-new  1-cont  2-samecut
   ICHARG =      2    charge: 1-file 2-atom 10-const
   ISPIN  =      1    spin polarized calculation?
   LNONCOLLINEAR =      F non collinear calculations
   LSORBIT =      F    spin-orbit coupling
   INIWAV =      1    electr: 0-lowe 1-rand  2-diag
   LASPH  =      F    aspherical Exc in radial PAW
   METAGGA=      F    non-selfconsistent MetaGGA calc.

 Electronic Relaxation 1
   ENCUT  =  750.0 eV  55.12 Ry    7.42 a.u.  17.05 17.05 17.05*2*pi/ulx,y,z
   ENINI  =  750.0     initial cutoff
   ENAUG  =  516.5 eV  augmentation charge cutoff
   NELM   =     60;   NELMIN=  2; NELMDL=  0     # of ELM steps 
   EDIFF  = 0.1E-07   stopping-criterion for ELM
   LREAL  =      F    real-space projection
   LCOMPAT=      F    compatible to vasp.4.4
   LREAL_COMPAT= F    compatible to vasp.4.5.1-3
   GGA_COMPAT  = T    GGA compatible to vasp.4.4-vasp.4.6
   LMAXPAW     = -100 max onsite density
   LMAXMIX     =    2 max onsite mixed and CHGCAR
   VOSKOWN=      0    Vosko Wilk Nusair interpolation
   ROPT   =    0.00000
 Ionic relaxation
   EDIFFG = 0.1E-06   stopping-criterion for IOM
   NSW    =      0    number of steps for IOM
   NBLOCK =      1;   KBLOCK =      1    inner block; outer block 
   IBRION =     -1    ionic relax: 0-MD 1-quasi-New 2-CG
   NFREE  =      0    steps in history (QN), initial steepest desc. (CG)
   ISIF   =      2    stress and relaxation
   IWAVPR =     10    prediction:  0-non 1-charg 2-wave 3-comb
   ISYM   =      2    0-nonsym 1-usesym 2-fastsym
   LCORR  =      T    Harris-Foulkes like correction to forces

   POTIM  =   0.50    time-step for ionic-motion
   TEIN   =    0.0    initial temperature
   TEBEG  =    0.0;   TEEND  =   0.0 temperature during run
   SMASS  =  -3.00    Nose mass-parameter (am)
   estimated Nose-frequenzy (Omega)   =  0.10E-29 period in steps =****** mass=  -0.133E-26a.u.
   NPACO  =    256;   APACO  = 16.0  distance and # of slots for P.C.
   PSTRESS=    0.0 pullay stress

  Mass of Ions in am
   POMASS =  63.55
  Ionic Valenz
   ZVAL   =  11.00
  Atomic Wigner-Seitz radii
   RWIGS  =  -1.00
   NELECT =     352.0000    total number of electrons
   NUPDOWN=      -1.0000    fix difference up-down

 DOS related values:
   EMIN   =  10.00;   EMAX   =-10.00  energy-range for DOS
   ISMEAR =     0;   SIGMA  =   0.01  broadening in eV -4-tet -1-fermi 0-gaus

 Electronic relaxation 2 (details)
   IALGO  =     38    algorithm
   LDIAG  =      T    sub-space diagonalisation
   IMIX   =      4    mixing-type and parameters
     AMIX     =   0.40;   BMIX     =  1.00
     AMIX_MAG =   1.60;   BMIX_MAG =  1.00
     AMIN     =   0.10
     WC   =   100.;   INIMIX=   1;  MIXPRE=   1

 Intra band minimization:
   WEIMIN = 0.0000     energy-eigenvalue tresh-hold
   EBREAK =  0.12E-10  absolut break condition
   DEPER  =   0.30     relativ break condition  

   TIME   =   0.10     timestep for ELM

  volume/ion in A,a.u.               =      13.92        93.91
  Fermi-wavevector in a.u.,eV,Ry     =   1.513664 31.173389  2.291179

 Second variation
   LSECVAR=     F    do a second variation
 
 Write flags
   LWAVE  =      F    write WAVECAR
   LCHARG =      F    write CHGCAR
   LVTOT  =      F    write LOCPOT, local potential
   LELF   =      F    write electronic localiz. function (ELF)
   LORBIT =      0    0 simple, 1 ext, 2 COOP (PROOUT)


 Dipole corrections
   IDIPOL =      0    1-x, 2-y, 3-z
   LDIPOL =      F    correct potential



--------------------------------------------------------------------------------------------------------


 Static calculation
 charge density will be updated during run
 non-spin polarized calculation
 Variant of blocked Davidson
 Davidson routine will perform the subspace rotation
 performe sub-space diagonalisation
    after iterative eigenvector-optimisation
 modified Broyden-mixing scheme, WC =      100.0
 initial mixing is a Kerker type mixing with AMIX =  0.4000 and BMIX =      1.0000
 Hartree-type preconditioning will be used
 using additional bands           36
 reciprocal scheme for non local part
 use partial core corrections
 calculate Harris-corrections to forces 
   (improved forces if not selfconsistent)
 use gradient corrections 
 use of overlap-Matrix (Vanderbilt PP)
 Gauss-broadening in eV      SIGMA  =   0.01


--------------------------------------------------------------------------------------------------------


  energy-cutoff  :      750.00
  volume of cell :      445.33
      direct lattice vectors                 reciprocal lattice vectors
     7.636473205  0.000000000  0.000000000     0.130950502  0.000000000  0.000000000
     0.000000000  7.636473205  0.000000000     0.000000000  0.130950502  0.000000000
     0.000000000  0.000000000  7.636473205     0.000000000  0.000000000  0.130950502

  length of vectors
     7.636473205  7.636473205  7.636473205     0.130950502  0.130950502  0.130950502


 
 k-points in units of 2pi/SCALE and weight: Automatic mesh                          
   0.00000000  0.00000000  0.00000000       0.001
   0.01091254  0.00000000  0.00000000       0.001
   0.02182508  0.00000000  0.00000000       0.001
   0.03273763  0.00000000  0.00000000       0.001
   0.04365017  0.00000000  0.00000000       0.001
   0.05456271  0.00000000  0.00000000       0.001
   0.06547525  0.00000000  0.00000000       0.001
   0.00000000  0.01091254  0.00000000       0.002
   0.01091254  0.01091254  0.00000000       0.005
   0.02182508  0.01091254  0.00000000       0.005
   0.03273763  0.01091254  0.00000000       0.005
   0.04365017  0.01091254  0.00000000       0.005
   0.05456271  0.01091254  0.00000000       0.005
   0.06547525  0.01091254  0.00000000       0.002
   0.00000000  0.02182508  0.00000000       0.002
   0.01091254  0.02182508  0.00000000       0.005
   0.02182508  0.02182508  0.00000000       0.005
   0.03273763  0.02182508  0.00000000       0.005
   0.04365017  0.02182508  0.00000000       0.005
   0.05456271  0.02182508  0.00000000       0.005
   0.06547525  0.02182508  0.00000000       0.002
   0.00000000  0.03273763  0.00000000       0.002
   0.01091254  0.03273763  0.00000000       0.005
   0.02182508  0.03273763  0.00000000       0.005
   0.03273763  0.03273763  0.00000000       0.005
   0.04365017  0.03273763  0.00000000       0.005
   0.05456271  0.03273763  0.00000000       0.005
   0.06547525  0.03273763  0.00000000       0.002
   0.00000000  0.04365017  0.00000000       0.002
   0.01091254  0.04365017  0.00000000       0.005
   0.02182508  0.04365017  0.00000000       0.005
   0.03273763  0.04365017  0.00000000       0.005
   0.04365017  0.04365017  0.00000000       0.005
   0.05456271  0.04365017  0.00000000       0.005
   0.06547525  0.04365017  0.00000000       0.002
   0.00000000  0.05456271  0.00000000       0.002
   0.01091254  0.05456271  0.00000000       0.005
   0.02182508  0.05456271  0.00000000       0.005
   0.03273763  0.05456271  0.00000000       0.005
   0.04365017  0.05456271  0.00000000       0.005
   0.05456271  0.05456271  0.00000000       0.005
   0.06547525  0.05456271  0.00000000       0.002
   0.00000000  0.06547525  0.00000000       0.001
   0.01091254  0.06547525  0.00000000       0.002
   0.02182508  0.06547525  0.00000000       0.002
   0.03273763  0.06547525  0.00000000       0.002
   0.04365017  0.06547525  0.00000000       0.002
   0.05456271  0.06547525  0.00000000       0.002
   0.06547525  0.06547525  0.00000000       0.001
   0.00000000  0.01091254  0.01091254       0.002
   0.01091254  0.01091254  0.01091254       0.005
   0.02182508  0.01091254  0.01091254       0.005
   0.03273763  0.01091254  0.01091254       0.005
   0.04365017  0.01091254  0.01091254       0.005
   0.05456271  0.01091254  0.01091254       0.005
   0.06547525  0.01091254  0.01091254       0.002
   0.00000000  0.02182508  0.01091254       0.005
   0.01091254  0.02182508  0.01091254       0.009
   0.02182508  0.02182508  0.01091254       0.009
   0.03273763  0.02182508  0.01091254       0.009
   0.04365017  0.02182508  0.01091254       0.009
   0.05456271  0.02182508  0.01091254       0.009
   0.06547525  0.02182508  0.01091254       0.005
   0.00000000  0.03273763  0.01091254       0.005
   0.01091254  0.03273763  0.01091254       0.009
   0.02182508  0.03273763  0.01091254       0.009
   0.03273763  0.03273763  0.01091254       0.009
   0.04365017  0.03273763  0.01091254       0.009
   0.05456271  0.03273763  0.01091254       0.009
   0.06547525  0.03273763  0.01091254       0.005
   0.00000000  0.04365017  0.01091254       0.005
   0.01091254  0.04365017  0.01091254       0.009
   0.02182508  0.04365017  0.01091254       0.009
   0.03273763  0.04365017  0.01091254       0.009
   0.04365017  0.04365017  0.01091254       0.009
   0.05456271  0.04365017  0.01091254       0.009
   0.06547525  0.04365017  0.01091254       0.005
   0.00000000  0.05456271  0.01091254       0.005
   0.01091254  0.05456271  0.01091254       0.009
   0.02182508  0.05456271  0.01091254       0.009
   0.03273763  0.05456271  0.01091254       0.009
   0.04365017  0.05456271  0.01091254       0.009
   0.05456271  0.05456271  0.01091254       0.009
   0.06547525  0.05456271  0.01091254       0.005
   0.00000000  0.06547525  0.01091254       0.002
   0.01091254  0.06547525  0.01091254       0.005
   0.02182508  0.06547525  0.01091254       0.005
   0.03273763  0.06547525  0.01091254       0.005
   0.04365017  0.06547525  0.01091254       0.005
   0.05456271  0.06547525  0.01091254       0.005
   0.06547525  0.06547525  0.01091254       0.002
   0.00000000  0.02182508  0.02182508       0.002
   0.01091254  0.02182508  0.02182508       0.005
   0.02182508  0.02182508  0.02182508       0.005
   0.03273763  0.02182508  0.02182508       0.005
   0.04365017  0.02182508  0.02182508       0.005
   0.05456271  0.02182508  0.02182508       0.005
   0.06547525  0.02182508  0.02182508       0.002
   0.00000000  0.03273763  0.02182508       0.005
   0.01091254  0.03273763  0.02182508       0.009
   0.02182508  0.03273763  0.02182508       0.009
   0.03273763  0.03273763  0.02182508       0.009
   0.04365017  0.03273763  0.02182508       0.009
   0.05456271  0.03273763  0.02182508       0.009
   0.06547525  0.03273763  0.02182508       0.005
   0.00000000  0.04365017  0.02182508       0.005
   0.01091254  0.04365017  0.02182508       0.009
   0.02182508  0.04365017  0.02182508       0.009
   0.03273763  0.04365017  0.02182508       0.009
   0.04365017  0.04365017  0.02182508       0.009
   0.05456271  0.04365017  0.02182508       0.009
   0.06547525  0.04365017  0.02182508       0.005
   0.00000000  0.05456271  0.02182508       0.005
   0.01091254  0.05456271  0.02182508       0.009
   0.02182508  0.05456271  0.02182508       0.009
   0.03273763  0.05456271  0.02182508       0.009
   0.04365017  0.05456271  0.02182508       0.009
   0.05456271  0.05456271  0.02182508       0.009
   0.06547525  0.05456271  0.02182508       0.005
   0.00000000  0.06547525  0.02182508       0.002
   0.01091254  0.06547525  0.02182508       0.005
   0.02182508  0.06547525  0.02182508       0.005
   0.03273763  0.06547525  0.02182508       0.005
   0.04365017  0.06547525  0.02182508       0.005
   0.05456271  0.06547525  0.02182508       0.005
   0.06547525  0.06547525  0.02182508       0.002
   0.00000000  0.03273763  0.03273763       0.002
   0.01091254  0.03273763  0.03273763       0.005
   0.02182508  0.03273763  0.03273763       0.005
   0.03273763  0.03273763  0.03273763       0.005
   0.04365017  0.03273763  0.03273763       0.005
   0.05456271  0.03273763  0.03273763       0.005
   0.06547525  0.03273763  0.03273763       0.002
   0.00000000  0.04365017  0.03273763       0.005
   0.01091254  0.04365017  0.03273763       0.009
   0.02182508  0.04365017  0.03273763       0.009
   0.03273763  0.04365017  0.03273763       0.009
   0.04365017  0.04365017  0.03273763       0.009
   0.05456271  0.04365017  0.03273763       0.009
   0.06547525  0.04365017  0.03273763       0.005
   0.00000000  0.05456271  0.03273763       0.005
   0.01091254  0.05456271  0.03273763       0.009
   0.02182508  0.05456271  0.03273763       0.009
   0.03273763  0.05456271  0.03273763       0.009
   0.04365017  0.05456271  0.03273763       0.009
   0.05456271  0.05456271  0.03273763       0.009
   0.06547525  0.05456271  0.03273763       0.005
   0.00000000  0.06547525  0.03273763       0.002
   0.01091254  0.06547525  0.03273763       0.005
   0.02182508  0.06547525  0.03273763       0.005
   0.03273763  0.06547525  0.03273763       0.005
   0.04365017  0.06547525  0.03273763       0.005
   0.05456271  0.06547525  0.03273763       0.005
   0.06547525  0.06547525  0.03273763       0.002
   0.00000000  0.04365017  0.04365017       0.002
   0.01091254  0.04365017  0.04365017       0.005
   0.02182508  0.04365017  0.04365017       0.005
   0.03273763  0.04365017  0.04365017       0.005
   0.04365017  0.04365017  0.04365017       0.005
   0.05456271  0.04365017  0.04365017       0.005
   0.06547525  0.04365017  0.04365017       0.002
   0.00000000  0.05456271  0.04365017       0.005
   0.01091254  0.05456271  0.04365017       0.009
   0.02182508  0.05456271  0.04365017       0.009
   0.03273763  0.05456271  0.04365017       0.009
   0.04365017  0.05456271  0.04365017       0.009
   0.05456271  0.05456271  0.04365017       0.009
   0.06547525  0.05456271  0.04365017       0.005
   0.00000000  0.06547525  0.04365017       0.002
   0.01091254  0.06547525  0.04365017       0.005
   0.02182508  0.06547525  0.04365017       0.005
   0.03273763  0.06547525  0.04365017       0.005
   0.04365017  0.06547525  0.04365017       0.005
   0.05456271  0.06547525  0.04365017       0.005
   0.06547525  0.06547525  0.04365017       0.002
   0.00000000  0.05456271  0.05456271       0.002
   0.01091254  0.05456271  0.05456271       0.005
   0.02182508  0.05456271  0.05456271       0.005
   0.03273763  0.05456271  0.05456271       0.005
   0.04365017  0.05456271  0.05456271       0.005
   0.05456271  0.05456271  0.05456271       0.005
   0.06547525  0.05456271  0.05456271       0.002
   0.00000000  0.06547525  0.05456271       0.002
   0.01091254  0.06547525  0.05456271       0.005
   0.02182508  0.06547525  0.05456271       0.005
   0.03273763  0.06547525  0.05456271       0.005
   0.04365017  0.06547525  0.05456271       0.005
   0.05456271  0.06547525  0.05456271       0.005
   0.06547525  0.06547525  0.05456271       0.002
   0.00000000  0.06547525  0.06547525       0.001
   0.01091254  0.06547525  0.06547525       0.001
   0.02182508  0.06547525  0.06547525       0.001
   0.03273763  0.06547525  0.06547525       0.001
   0.04365017  0.06547525  0.06547525       0.001
   0.05456271  0.06547525  0.06547525       0.001
   0.06547525  0.06547525  0.06547525       0.001
 
 k-points in reciprocal lattice and weights: Automatic mesh                          
   0.00000000  0.00000000  0.00000000       0.001
   0.08333333  0.00000000  0.00000000       0.001
   0.16666667  0.00000000  0.00000000       0.001
   0.25000000  0.00000000  0.00000000       0.001
   0.33333333  0.00000000  0.00000000       0.001
   0.41666667  0.00000000  0.00000000       0.001
   0.50000000  0.00000000  0.00000000       0.001
   0.00000000  0.08333333  0.00000000       0.002
   0.08333333  0.08333333  0.00000000       0.005
   0.16666667  0.08333333  0.00000000       0.005
   0.25000000  0.08333333  0.00000000       0.005
   0.33333333  0.08333333  0.00000000       0.005
   0.41666667  0.08333333  0.00000000       0.005
   0.50000000  0.08333333  0.00000000       0.002
   0.00000000  0.16666667  0.00000000       0.002
   0.08333333  0.16666667  0.00000000       0.005
   0.16666667  0.16666667  0.00000000       0.005
   0.25000000  0.16666667  0.00000000       0.005
   0.33333333  0.16666667  0.00000000       0.005
   0.41666667  0.16666667  0.00000000       0.005
   0.50000000  0.16666667  0.00000000       0.002
   0.00000000  0.25000000  0.00000000       0.002
   0.08333333  0.25000000  0.00000000       0.005
   0.16666667  0.25000000  0.00000000       0.005
   0.25000000  0.25000000  0.00000000       0.005
   0.33333333  0.25000000  0.00000000       0.005
   0.41666667  0.25000000  0.00000000       0.005
   0.50000000  0.25000000  0.00000000       0.002
   0.00000000  0.33333333  0.00000000       0.002
   0.08333333  0.33333333  0.00000000       0.005
   0.16666667  0.33333333  0.00000000       0.005
   0.25000000  0.33333333  0.00000000       0.005
   0.33333333  0.33333333  0.00000000       0.005
   0.41666667  0.33333333  0.00000000       0.005
   0.50000000  0.33333333  0.00000000       0.002
   0.00000000  0.41666667  0.00000000       0.002
   0.08333333  0.41666667  0.00000000       0.005
   0.16666667  0.41666667  0.00000000       0.005
   0.25000000  0.41666667  0.00000000       0.005
   0.33333333  0.41666667  0.00000000       0.005
   0.41666667  0.41666667  0.00000000       0.005
   0.50000000  0.41666667  0.00000000       0.002
   0.00000000  0.50000000  0.00000000       0.001
   0.08333333  0.50000000  0.00000000       0.002
   0.16666667  0.50000000  0.00000000       0.002
   0.25000000  0.50000000  0.00000000       0.002
   0.33333333  0.50000000  0.00000000       0.002
   0.41666667  0.50000000  0.00000000       0.002
   0.50000000  0.50000000  0.00000000       0.001
   0.00000000  0.08333333  0.08333333       0.002
   0.08333333  0.08333333  0.08333333       0.005
   0.16666667  0.08333333  0.08333333       0.005
   0.25000000  0.08333333  0.08333333       0.005
   0.33333333  0.08333333  0.08333333       0.005
   0.41666667  0.08333333  0.08333333       0.005
   0.50000000  0.08333333  0.08333333       0.002
   0.00000000  0.16666667  0.08333333       0.005
   0.08333333  0.16666667  0.08333333       0.009
   0.16666667  0.16666667  0.08333333       0.009
   0.25000000  0.16666667  0.08333333       0.009
   0.33333333  0.16666667  0.08333333       0.009
   0.41666667  0.16666667  0.08333333       0.009
   0.50000000  0.16666667  0.08333333       0.005
   0.00000000  0.25000000  0.08333333       0.005
   0.08333333  0.25000000  0.08333333       0.009
   0.16666667  0.25000000  0.08333333       0.009
   0.25000000  0.25000000  0.08333333       0.009
   0.33333333  0.25000000  0.08333333       0.009
   0.41666667  0.25000000  0.08333333       0.009
   0.50000000  0.25000000  0.08333333       0.005
   0.00000000  0.33333333  0.08333333       0.005
   0.08333333  0.33333333  0.08333333       0.009
   0.16666667  0.33333333  0.08333333       0.009
   0.25000000  0.33333333  0.08333333       0.009
   0.33333333  0.33333333  0.08333333       0.009
   0.41666667  0.33333333  0.08333333       0.009
   0.50000000  0.33333333  0.08333333       0.005
   0.00000000  0.41666667  0.08333333       0.005
   0.08333333  0.41666667  0.08333333       0.009
   0.16666667  0.41666667  0.08333333       0.009
   0.25000000  0.41666667  0.08333333       0.009
   0.33333333  0.41666667  0.08333333       0.009
   0.41666667  0.41666667  0.08333333       0.009
   0.50000000  0.41666667  0.08333333       0.005
   0.00000000  0.50000000  0.08333333       0.002
   0.08333333  0.50000000  0.08333333       0.005
   0.16666667  0.50000000  0.08333333       0.005
   0.25000000  0.50000000  0.08333333       0.005
   0.33333333  0.50000000  0.08333333       0.005
   0.41666667  0.50000000  0.08333333       0.005
   0.50000000  0.50000000  0.08333333       0.002
   0.00000000  0.16666667  0.16666667       0.002
   0.08333333  0.16666667  0.16666667       0.005
   0.16666667  0.16666667  0.16666667       0.005
   0.25000000  0.16666667  0.16666667       0.005
   0.33333333  0.16666667  0.16666667       0.005
   0.41666667  0.16666667  0.16666667       0.005
   0.50000000  0.16666667  0.16666667       0.002
   0.00000000  0.25000000  0.16666667       0.005
   0.08333333  0.25000000  0.16666667       0.009
   0.16666667  0.25000000  0.16666667       0.009
   0.25000000  0.25000000  0.16666667       0.009
   0.33333333  0.25000000  0.16666667       0.009
   0.41666667  0.25000000  0.16666667       0.009
   0.50000000  0.25000000  0.16666667       0.005
   0.00000000  0.33333333  0.16666667       0.005
   0.08333333  0.33333333  0.16666667       0.009
   0.16666667  0.33333333  0.16666667       0.009
   0.25000000  0.33333333  0.16666667       0.009
   0.33333333  0.33333333  0.16666667       0.009
   0.41666667  0.33333333  0.16666667       0.009
   0.50000000  0.33333333  0.16666667       0.005
   0.00000000  0.41666667  0.16666667       0.005
   0.08333333  0.41666667  0.16666667       0.009
   0.16666667  0.41666667  0.16666667       0.009
   0.25000000  0.41666667  0.16666667       0.009
   0.33333333  0.41666667  0.16666667       0.009
   0.41666667  0.41666667  0.16666667       0.009
   0.50000000  0.41666667  0.16666667       0.005
   0.00000000  0.50000000  0.16666667       0.002
   0.08333333  0.50000000  0.16666667       0.005
   0.16666667  0.50000000  0.16666667       0.005
   0.25000000  0.50000000  0.16666667       0.005
   0.33333333  0.50000000  0.16666667       0.005
   0.41666667  0.50000000  0.16666667       0.005
   0.50000000  0.50000000  0.16666667       0.002
   0.00000000  0.25000000  0.25000000       0.002
   0.08333333  0.25000000  0.25000000       0.005
   0.16666667  0.25000000  0.25000000       0.005
   0.25000000  0.25000000  0.25000000       0.005
   0.33333333  0.25000000  0.25000000       0.005
   0.41666667  0.25000000  0.25000000       0.005
   0.50000000  0.25000000  0.25000000       0.002
   0.00000000  0.33333333  0.25000000       0.005
   0.08333333  0.33333333  0.25000000       0.009
   0.16666667  0.33333333  0.25000000       0.009
   0.25000000  0.33333333  0.25000000       0.009
   0.33333333  0.33333333  0.25000000       0.009
   0.41666667  0.33333333  0.25000000       0.009
   0.50000000  0.33333333  0.25000000       0.005
   0.00000000  0.41666667  0.25000000       0.005
   0.08333333  0.41666667  0.25000000       0.009
   0.16666667  0.41666667  0.25000000       0.009
   0.25000000  0.41666667  0.25000000       0.009
   0.33333333  0.41666667  0.25000000       0.009
   0.41666667  0.41666667  0.25000000       0.009
   0.50000000  0.41666667  0.25000000       0.005
   0.00000000  0.50000000  0.25000000       0.002
   0.08333333  0.50000000  0.25000000       0.005
   0.16666667  0.50000000  0.25000000       0.005
   0.25000000  0.50000000  0.25000000       0.005
   0.33333333  0.50000000  0.25000000       0.005
   0.41666667  0.50000000  0.25000000       0.005
   0.50000000  0.50000000  0.25000000       0.002
   0.00000000  0.33333333  0.33333333       0.002
   0.08333333  0.33333333  0.33333333       0.005
   0.16666667  0.33333333  0.33333333       0.005
   0.25000000  0.33333333  0.33333333       0.005
   0.33333333  0.33333333  0.33333333       0.005
   0.41666667  0.33333333  0.33333333       0.005
   0.50000000  0.33333333  0.33333333       0.002
   0.00000000  0.41666667  0.33333333       0.005
   0.08333333  0.41666667  0.33333333       0.009
   0.16666667  0.41666667  0.33333333       0.009
   0.25000000  0.41666667  0.33333333       0.009
   0.33333333  0.41666667  0.33333333       0.009
   0.41666667  0.41666667  0.33333333       0.009
   0.50000000  0.41666667  0.33333333       0.005
   0.00000000  0.50000000  0.33333333       0.002
   0.08333333  0.50000000  0.33333333       0.005
   0.16666667  0.50000000  0.33333333       0.005
   0.25000000  0.50000000  0.33333333       0.005
   0.33333333  0.50000000  0.33333333       0.005
   0.41666667  0.50000000  0.33333333       0.005
   0.50000000  0.50000000  0.33333333       0.002
   0.00000000  0.41666667  0.41666667       0.002
   0.08333333  0.41666667  0.41666667       0.005
   0.16666667  0.41666667  0.41666667       0.005
   0.25000000  0.41666667  0.41666667       0.005
   0.33333333  0.41666667  0.41666667       0.005
   0.41666667  0.41666667  0.41666667       0.005
   0.50000000  0.41666667  0.41666667       0.002
   0.00000000  0.50000000  0.41666667       0.002
   0.08333333  0.50000000  0.41666667       0.005
   0.16666667  0.50000000  0.41666667       0.005
   0.25000000  0.50000000  0.41666667       0.005
   0.33333333  0.50000000  0.41666667       0.005
   0.41666667  0.50000000  0.41666667       0.005
   0.50000000  0.50000000  0.41666667       0.002
   0.00000000  0.50000000  0.50000000       0.001
   0.08333333  0.50000000  0.50000000       0.001
   0.16666667  0.50000000  0.50000000       0.001
   0.25000000  0.50000000  0.50000000       0.001
   0.33333333  0.50000000  0.50000000       0.001
   0.41666667  0.50000000  0.50000000       0.001
   0.50000000  0.50000000  0.50000000       0.001
 
 position of ions in fractional coordinates (direct lattice) 
   0.00130951  0.00000000  0.00000000
   0.50000000  0.00000000  0.00000000
   0.00000000  0.50000000  0.00000000
   0.50000000  0.50000000  0.00000000
   0.00000000  0.00000000  0.50000000
   0.50000000  0.00000000  0.50000000
   0.00000000  0.50000000  0.50000000
   0.50000000  0.50000000  0.50000000
   0.25000000  0.25000000  0.00000000
   0.75000000  0.25000000  0.00000000
   0.25000000  0.75000000  0.00000000
   0.75000000  0.75000000  0.00000000
   0.25000000  0.25000000  0.50000000
   0.75000000  0.25000000  0.50000000
   0.25000000  0.75000000  0.50000000
   0.75000000  0.75000000  0.50000000
   0.25000000  0.00000000  0.25000000
   0.75000000  0.00000000  0.25000000
   0.25000000  0.50000000  0.25000000
   0.75000000  0.50000000  0.25000000
   0.25000000  0.00000000  0.75000000
   0.75000000  0.00000000  0.75000000
   0.25000000  0.50000000  0.75000000
   0.75000000  0.50000000  0.75000000
   0.00000000  0.25000000  0.25000000
   0.50000000  0.25000000  0.25000000
   0.00000000  0.75000000  0.25000000
   0.50000000  0.75000000  0.25000000
   0.00000000  0.25000000  0.75000000
   0.50000000  0.25000000  0.75000000
   0.00000000  0.75000000  0.75000000
   0.50000000  0.75000000  0.75000000
 
 position of ions in cartesian coordinates  (Angst):
   0.01000000  0.00000000  0.00000000
   3.81823660  0.00000000  0.00000000
   0.00000000  3.81823660  0.00000000
   3.81823660  3.81823660  0.00000000
   0.00000000  0.00000000  3.81823660
   3.81823660  0.00000000  3.81823660
   0.00000000  3.81823660  3.81823660
   3.81823660  3.81823660  3.81823660
   1.90911830  1.90911830  0.00000000
   5.72735490  1.90911830  0.00000000
   1.90911830  5.72735490  0.00000000
   5.72735490  5.72735490  0.00000000
   1.90911830  1.90911830  3.81823660
   5.72735490  1.90911830  3.81823660
   1.90911830  5.72735490  3.81823660
   5.72735490  5.72735490  3.81823660
   1.90911830  0.00000000  1.90911830
   5.72735490  0.00000000  1.90911830
   1.90911830  3.81823660  1.90911830
   5.72735490  3.81823660  1.90911830
   1.90911830  0.00000000  5.72735490
   5.72735490  0.00000000  5.72735490
   1.90911830  3.81823660  5.72735490
   5.72735490  3.81823660  5.72735490
   0.00000000  1.90911830  1.90911830
   3.81823660  1.90911830  1.90911830
   0.00000000  5.72735490  1.90911830
   3.81823660  5.72735490  1.90911830
   0.00000000  1.90911830  5.72735490
   3.81823660  1.90911830  5.72735490
   0.00000000  5.72735490  5.72735490
   3.81823660  5.72735490  5.72735490
 


--------------------------------------------------------------------------------------------------------


 k-point  1 :  0.00000.00000.0000  plane waves:  20719
 k-point  2 :  0.08330.00000.0000  plane waves:  20686
 k-point  3 :  0.16670.00000.0000  plane waves:  20746
 k-point  4 :  0.25000.00000.0000  plane waves:  20782
 k-point  5 :  0.33330.00000.0000  plane waves:  20746
 k-point  6 :  0.41670.00000.0000  plane waves:  20746
 k-point  7 :  0.50000.00000.0000  plane waves:  20762
 k-point  8 :  0.00000.08330.0000  plane waves:  20686
 k-point  9 :  0.08330.08330.0000  plane waves:  20704
 k-point 10 :  0.16670.08330.0000  plane waves:  20741
 k-point 11 :  0.25000.08330.0000  plane waves:  20757
 k-point 12 :  0.33330.08330.0000  plane waves:  20742
 k-point 13 :  0.41670.08330.0000  plane waves:  20742
 k-point 14 :  0.50000.08330.0000  plane waves:  20760
 k-point 15 :  0.00000.16670.0000  plane waves:  20746
 k-point 16 :  0.08330.16670.0000  plane waves:  20741
 k-point 17 :  0.16670.16670.0000  plane waves:  20744
 k-point 18 :  0.25000.16670.0000  plane waves:  20769
 k-point 19 :  0.33330.16670.0000  plane waves:  20738
 k-point 20 :  0.41670.16670.0000  plane waves:  20762
 k-point 21 :  0.50000.16670.0000  plane waves:  20752
 k-point 22 :  0.00000.25000.0000  plane waves:  20782
 k-point 23 :  0.08330.25000.0000  plane waves:  20757
 k-point 24 :  0.16670.25000.0000  plane waves:  20769
 k-point 25 :  0.25000.25000.0000  plane waves:  20764
 k-point 26 :  0.33330.25000.0000  plane waves:  20758
 k-point 27 :  0.41670.25000.0000  plane waves:  20784
 k-point 28 :  0.50000.25000.0000  plane waves:  20740
 k-point 29 :  0.00000.33330.0000  plane waves:  20746
 k-point 30 :  0.08330.33330.0000  plane waves:  20742
 k-point 31 :  0.16670.33330.0000  plane waves:  20738
 k-point 32 :  0.25000.33330.0000  plane waves:  20758
 k-point 33 :  0.33330.33330.0000  plane waves:  20770
 k-point 34 :  0.41670.33330.0000  plane waves:  20780
 k-point 35 :  0.50000.33330.0000  plane waves:  20790
 k-point 36 :  0.00000.41670.0000  plane waves:  20746
 k-point 37 :  0.08330.41670.0000  plane waves:  20742
 k-point 38 :  0.16670.41670.0000  plane waves:  20762
 k-point 39 :  0.25000.41670.0000  plane waves:  20784
 k-point 40 :  0.33330.41670.0000  plane waves:  20780
 k-point 41 :  0.41670.41670.0000  plane waves:  20796
 k-point 42 :  0.50000.41670.0000  plane waves:  20822
 k-point 43 :  0.00000.50000.0000  plane waves:  20762
 k-point 44 :  0.08330.50000.0000  plane waves:  20760
 k-point 45 :  0.16670.50000.0000  plane waves:  20752
 k-point 46 :  0.25000.50000.0000  plane waves:  20740
 k-point 47 :  0.33330.50000.0000  plane waves:  20790
 k-point 48 :  0.41670.50000.0000  plane waves:  20822
 k-point 49 :  0.50000.50000.0000  plane waves:  20808
 k-point 50 :  0.00000.08330.0833  plane waves:  20704
 k-point 51 :  0.08330.08330.0833  plane waves:  20725
 k-point 52 :  0.16670.08330.0833  plane waves:  20723
 k-point 53 :  0.25000.08330.0833  plane waves:  20755
 k-point 54 :  0.33330.08330.0833  plane waves:  20748
 k-point 55 :  0.41670.08330.0833  plane waves:  20765
 k-point 56 :  0.50000.08330.0833  plane waves:  20774
 k-point 57 :  0.00000.16670.0833  plane waves:  20741
 k-point 58 :  0.08330.16670.0833  plane waves:  20723
 k-point 59 :  0.16670.16670.0833  plane waves:  20756
 k-point 60 :  0.25000.16670.0833  plane waves:  20780
 k-point 61 :  0.33330.16670.0833  plane waves:  20758
 k-point 62 :  0.41670.16670.0833  plane waves:  20768
 k-point 63 :  0.50000.16670.0833  plane waves:  20766
 k-point 64 :  0.00000.25000.0833  plane waves:  20757
 k-point 65 :  0.08330.25000.0833  plane waves:  20755
 k-point 66 :  0.16670.25000.0833  plane waves:  20780
 k-point 67 :  0.25000.25000.0833  plane waves:  20767
 k-point 68 :  0.33330.25000.0833  plane waves:  20765
 k-point 69 :  0.41670.25000.0833  plane waves:  20778
 k-point 70 :  0.50000.25000.0833  plane waves:  20774
 k-point 71 :  0.00000.33330.0833  plane waves:  20742
 k-point 72 :  0.08330.33330.0833  plane waves:  20748
 k-point 73 :  0.16670.33330.0833  plane waves:  20758
 k-point 74 :  0.25000.33330.0833  plane waves:  20765
 k-point 75 :  0.33330.33330.0833  plane waves:  20791
 k-point 76 :  0.41670.33330.0833  plane waves:  20770
 k-point 77 :  0.50000.33330.0833  plane waves:  20786
 k-point 78 :  0.00000.41670.0833  plane waves:  20742
 k-point 79 :  0.08330.41670.0833  plane waves:  20765
 k-point 80 :  0.16670.41670.0833  plane waves:  20768
 k-point 81 :  0.25000.41670.0833  plane waves:  20778
 k-point 82 :  0.33330.41670.0833  plane waves:  20770
 k-point 83 :  0.41670.41670.0833  plane waves:  20804
 k-point 84 :  0.50000.41670.0833  plane waves:  20816
 k-point 85 :  0.00000.50000.0833  plane waves:  20760
 k-point 86 :  0.08330.50000.0833  plane waves:  20774
 k-point 87 :  0.16670.50000.0833  plane waves:  20766
 k-point 88 :  0.25000.50000.0833  plane waves:  20774
 k-point 89 :  0.33330.50000.0833  plane waves:  20786
 k-point 90 :  0.41670.50000.0833  plane waves:  20816
 k-point 91 :  0.50000.50000.0833  plane waves:  20808
 k-point 92 :  0.00000.16670.1667  plane waves:  20744
 k-point 93 :  0.08330.16670.1667  plane waves:  20756
 k-point 94 :  0.16670.16670.1667  plane waves:  20768
 k-point 95 :  0.25000.16670.1667  plane waves:  20767
 k-point 96 :  0.33330.16670.1667  plane waves:  20759
 k-point 97 :  0.41670.16670.1667  plane waves:  20785
 k-point 98 :  0.50000.16670.1667  plane waves:  20758
 k-point 99 :  0.00000.25000.1667  plane waves:  20769
 k-point ** :  0.08330.25000.1667  plane waves:  20780
 k-point ** :  0.16670.25000.1667  plane waves:  20767
 k-point ** :  0.25000.25000.1667  plane waves:  20778
 k-point ** :  0.33330.25000.1667  plane waves:  20763
 k-point ** :  0.41670.25000.1667  plane waves:  20782
 k-point ** :  0.50000.25000.1667  plane waves:  20778
 k-point ** :  0.00000.33330.1667  plane waves:  20738
 k-point ** :  0.08330.33330.1667  plane waves:  20758
 k-point ** :  0.16670.33330.1667  plane waves:  20759
 k-point ** :  0.25000.33330.1667  plane waves:  20763
 k-point ** :  0.33330.33330.1667  plane waves:  20793
 k-point ** :  0.41670.33330.1667  plane waves:  20775
 k-point ** :  0.50000.33330.1667  plane waves:  20792
 k-point ** :  0.00000.41670.1667  plane waves:  20762
 k-point ** :  0.08330.41670.1667  plane waves:  20768
 k-point ** :  0.16670.41670.1667  plane waves:  20785
 k-point ** :  0.25000.41670.1667  plane waves:  20782
 k-point ** :  0.33330.41670.1667  plane waves:  20775
 k-point ** :  0.41670.41670.1667  plane waves:  20775
 k-point ** :  0.50000.41670.1667  plane waves:  20752
 k-point ** :  0.00000.50000.1667  plane waves:  20752
 k-point ** :  0.08330.50000.1667  plane waves:  20766
 k-point ** :  0.16670.50000.1667  plane waves:  20758
 k-point ** :  0.25000.50000.1667  plane waves:  20778
 k-point ** :  0.33330.50000.1667  plane waves:  20792
 k-point ** :  0.41670.50000.1667  plane waves:  20752
 k-point ** :  0.50000.50000.1667  plane waves:  20784
 k-point ** :  0.00000.25000.2500  plane waves:  20764
 k-point ** :  0.08330.25000.2500  plane waves:  20767
 k-point ** :  0.16670.25000.2500  plane waves:  20778
 k-point ** :  0.25000.25000.2500  plane waves:  20795
 k-point ** :  0.33330.25000.2500  plane waves:  20784
 k-point ** :  0.41670.25000.2500  plane waves:  20765
 k-point ** :  0.50000.25000.2500  plane waves:  20772
 k-point ** :  0.00000.33330.2500  plane waves:  20758
 k-point ** :  0.08330.33330.2500  plane waves:  20765
 k-point ** :  0.16670.33330.2500  plane waves:  20763
 k-point ** :  0.25000.33330.2500  plane waves:  20784
 k-point ** :  0.33330.33330.2500  plane waves:  20763
 k-point ** :  0.41670.33330.2500  plane waves:  20777
 k-point ** :  0.50000.33330.2500  plane waves:  20784
 k-point ** :  0.00000.41670.2500  plane waves:  20784
 k-point ** :  0.08330.41670.2500  plane waves:  20778
 k-point ** :  0.16670.41670.2500  plane waves:  20782
 k-point ** :  0.25000.41670.2500  plane waves:  20765
 k-point ** :  0.33330.41670.2500  plane waves:  20777
 k-point ** :  0.41670.41670.2500  plane waves:  20787
 k-point ** :  0.50000.41670.2500  plane waves:  20782
 k-point ** :  0.00000.50000.2500  plane waves:  20740
 k-point ** :  0.08330.50000.2500  plane waves:  20774
 k-point ** :  0.16670.50000.2500  plane waves:  20778
 k-point ** :  0.25000.50000.2500  plane waves:  20772
 k-point ** :  0.33330.50000.2500  plane waves:  20784
 k-point ** :  0.41670.50000.2500  plane waves:  20782
 k-point ** :  0.50000.50000.2500  plane waves:  20816
 k-point ** :  0.00000.33330.3333  plane waves:  20770
 k-point ** :  0.08330.33330.3333  plane waves:  20791
 k-point ** :  0.16670.33330.3333  plane waves:  20793
 k-point ** :  0.25000.33330.3333  plane waves:  20763
 k-point ** :  0.33330.33330.3333  plane waves:  20780
 k-point ** :  0.41670.33330.3333  plane waves:  20784
 k-point ** :  0.50000.33330.3333  plane waves:  20752
 k-point ** :  0.00000.41670.3333  plane waves:  20780
 k-point ** :  0.08330.41670.3333  plane waves:  20770
 k-point ** :  0.16670.41670.3333  plane waves:  20775
 k-point ** :  0.25000.41670.3333  plane waves:  20777
 k-point ** :  0.33330.41670.3333  plane waves:  20784
 k-point ** :  0.41670.41670.3333  plane waves:  20772
 k-point ** :  0.50000.41670.3333  plane waves:  20788
 k-point ** :  0.00000.50000.3333  plane waves:  20790
 k-point ** :  0.08330.50000.3333  plane waves:  20786
 k-point ** :  0.16670.50000.3333  plane waves:  20792
 k-point ** :  0.25000.50000.3333  plane waves:  20784
 k-point ** :  0.33330.50000.3333  plane waves:  20752
 k-point ** :  0.41670.50000.3333  plane waves:  20788
 k-point ** :  0.50000.50000.3333  plane waves:  20760
 k-point ** :  0.00000.41670.4167  plane waves:  20796
 k-point ** :  0.08330.41670.4167  plane waves:  20804
 k-point ** :  0.16670.41670.4167  plane waves:  20775
 k-point ** :  0.25000.41670.4167  plane waves:  20787
 k-point ** :  0.33330.41670.4167  plane waves:  20772
 k-point ** :  0.41670.41670.4167  plane waves:  20783
 k-point ** :  0.50000.41670.4167  plane waves:  20772
 k-point ** :  0.00000.50000.4167  plane waves:  20822
 k-point ** :  0.08330.50000.4167  plane waves:  20816
 k-point ** :  0.16670.50000.4167  plane waves:  20752
 k-point ** :  0.25000.50000.4167  plane waves:  20782
 k-point ** :  0.33330.50000.4167  plane waves:  20788
 k-point ** :  0.41670.50000.4167  plane waves:  20772
 k-point ** :  0.50000.50000.4167  plane waves:  20748
 k-point ** :  0.00000.50000.5000  plane waves:  20808
 k-point ** :  0.08330.50000.5000  plane waves:  20808
 k-point ** :  0.16670.50000.5000  plane waves:  20784
 k-point ** :  0.25000.50000.5000  plane waves:  20816
 k-point ** :  0.33330.50000.5000  plane waves:  20760
 k-point ** :  0.41670.50000.5000  plane waves:  20748
 k-point ** :  0.50000.50000.5000  plane waves:  20840

 maximum and minimum number of plane-waves per node :  20840 20686

 maximum number of plane-waves:  20840
 maximal index in each direction: 
   IXMAX= 17   IYMAX= 17   IZMAX= 17
   IXMIN=-17   IYMIN=-17   IZMIN=-17

 NGX is ok and might be reduce to  70
 NGY is ok and might be reduce to  70
 NGZ is ok and might be reduce to  70

 parallel 3dFFT wavefunction:
    minimum data exchange during FFTs selected (reduces bandwidth)
 parallel 3dFFT charge:
    minimum data exchange during FFTs selected (reduces bandwidth)

 For storing wavefunctions ******* MBYTES are necessary
 For predicting wavefunctions  152.23 MBYTES are necessary
Broyden mixing: mesh for mixing (old mesh)
   NGX = 35   NGY = 35   NGZ = 35
  (NGX  =140   NGY  =140   NGZ  =140)
 gives a total of  42875 points
 initial charge density was supplied:
 charge density of overlapping atoms calculated
 number of electron  352.0000000 magnetization 
 keeping initial charge density in first step


--------------------------------------------------------------------------------------------------------


 Maximum index for augmentation-charges        52562 (set IRDMAX)


--------------------------------------------------------------------------------------------------------


 First call to EWALD:  gamma=   0.232
 Maximum number of real-space cells 3x 3x 3
 Maximum number of reciprocal cells 3x 3x 3

    FEWALD:  VPU time    0.00: CPU time    0.00


----------------------------------------- Iteration    1(   1)  ---------------------------------------


    POTLOK:  VPU time    1.28: CPU time    1.92
    SETDIJ:  VPU time    1.14: CPU time    3.01
    EDDAV :  VPU time 1275.65: CPU time 1371.58
    DOS   :  VPU time   -0.00: CPU time   -0.12
    ------------------------------------------
      LOOP:  VPU time 1279.64: CPU time 1378.30

 eigenvalue-minimisations  : 83104
 total energy-change (2. order) : 0.3750457E+04  (-0.1903213E+05)
 number of electron  352.0000000 magnetization 
 augmentation part   352.0000000 magnetization 

 Free energy of the ion-electron system (eV)
  ---------------------------------------------------
  alpha Z        PSCENC =      2937.81789222
  Ewald energy   TEWEN  =    -33475.30839066
  -1/2 Hartree   DENC   =    -11458.29083701
  -V(xc)+E(xc)   XCENC  =      1391.34930474
  PAW double counting   =     34625.67335558   -39234.46421604
  entropy T*S    EENTRO =        -0.00016633
  eigenvalues    EBANDS =      4452.33926497
  atomic energy  EATOM  =     44511.34040493
  ---------------------------------------------------
  free energy    TOTEN  =      3750.45661238 eV

  energy without entropy =     3750.45677872  energy(sigma->0) =     3750.45669555


--------------------------------------------------------------------------------------------------------




----------------------------------------- Iteration    1(   2)  ---------------------------------------


    EDDAV :  VPU time 1266.72: CPU time 1446.62
    DOS   :  VPU time   -0.00: CPU time   -0.12
    ------------------------------------------
      LOOP:  VPU time 1266.98: CPU time 1447.25

 eigenvalue-minimisations  : 83104
 total energy-change (2. order) :-0.3363949E+04  (-0.3247654E+04)
 number of electron  352.0000000 magnetization 
 augmentation part   352.0000000 magnetization 

 Free energy of the ion-electron system (eV)
  ---------------------------------------------------
  alpha Z        PSCENC =      2937.81789222
  Ewald energy   TEWEN  =    -33475.30839066
  -1/2 Hartree   DENC   =    -11458.29083701
  -V(xc)+E(xc)   XCENC  =      1391.34930474
  PAW double counting   =     34625.67335558   -39234.46421604
  entropy T*S    EENTRO =        -0.00046431
  eigenvalues    EBANDS =      1088.39077536
  atomic energy  EATOM  =     44511.34040493
  ---------------------------------------------------
  free energy    TOTEN  =       386.50782479 eV

  energy without entropy =      386.50828910  energy(sigma->0) =      386.50805694


--------------------------------------------------------------------------------------------------------




----------------------------------------- Iteration    1(   3)  ---------------------------------------


    EDDAV :  VPU time 1475.60: CPU time 1823.95
    DOS   :  VPU time   -0.00: CPU time   -0.31
    ------------------------------------------
      LOOP:  VPU time 1476.16: CPU time 1824.97

 eigenvalue-minimisations  : 83104
 total energy-change (2. order) :-0.4972322E+03  (-0.4548481E+03)
 number of electron  352.0000000 magnetization 
 augmentation part   352.0000000 magnetization 

 Free energy of the ion-electron system (eV)
  ---------------------------------------------------
  alpha Z        PSCENC =      2937.81789222
  Ewald energy   TEWEN  =    -33475.30839066
  -1/2 Hartree   DENC   =    -11458.29083701
  -V(xc)+E(xc)   XCENC  =      1391.34930474
  PAW double counting   =     34625.67335558   -39234.46421604
  entropy T*S    EENTRO =        -0.00048455
  eigenvalues    EBANDS =       591.15856894
  atomic energy  EATOM  =     44511.34040493
  ---------------------------------------------------
  free energy    TOTEN  =      -110.72440186 eV

  energy without entropy =     -110.72391731  energy(sigma->0) =     -110.72415959


--------------------------------------------------------------------------------------------------------




----------------------------------------- Iteration    1(   4)  ---------------------------------------


    EDDAV :  VPU time 6378.68: CPU time11726.24
    DOS   :  VPU time    0.00: CPU time   -0.01
    ------------------------------------------
      LOOP:  VPU time 6379.60: CPU time11728.81

 eigenvalue-minimisations  : 87624
 total energy-change (2. order) :-0.3025313E+02  (-0.2921532E+02)
 number of electron  352.0000000 magnetization 
 augmentation part   352.0000000 magnetization 

 Free energy of the ion-electron system (eV)
  ---------------------------------------------------
  alpha Z        PSCENC =      2937.81789222
  Ewald energy   TEWEN  =    -33475.30839066
  -1/2 Hartree   DENC   =    -11458.29083701
  -V(xc)+E(xc)   XCENC  =      1391.34930474
  PAW double counting   =     34625.67335558   -39234.46421604
  entropy T*S    EENTRO =        -0.00123585
  eigenvalues    EBANDS =       560.90618851
  atomic energy  EATOM  =     44511.34040493
  ---------------------------------------------------
  free energy    TOTEN  =      -140.97753360 eV

  energy without entropy =     -140.97629775  energy(sigma->0) =     -140.97691567


--------------------------------------------------------------------------------------------------------




----------------------------------------- Iteration    1(   5)  ---------------------------------------


    EDDAV :  VPU time 1769.94: CPU time 1795.23
    DOS   :  VPU time    0.00: CPU time   -0.00
    CHARGE:  VPU time  102.90: CPU time  112.25
    MIXING:  VPU time    0.15: CPU time    0.24
    ------------------------------------------
      LOOP:  VPU time 1873.26: CPU time 1908.08

 eigenvalue-minimisations  : 88868
 total energy-change (2. order) :-0.3409117E+00  (-0.3394311E+00)
 number of electron  352.0000007 magnetization 
 augmentation part   215.1053558 magnetization 

 Broyden mixing:
  rms(total) = 0.37886E+01    rms(broyden)= 0.37886E+01
  rms(prec ) = 0.55391E+01
  weight for this iteration     100.00

 Free energy of the ion-electron system (eV)
  ---------------------------------------------------
  alpha Z        PSCENC =      2937.81789222
  Ewald energy   TEWEN  =    -33475.30839066
  -1/2 Hartree   DENC   =    -11458.29083701
  -V(xc)+E(xc)   XCENC  =      1391.34930474
  PAW double counting   =     34625.67335558   -39234.46421604
  entropy T*S    EENTRO =        -0.00128022
  eigenvalues    EBANDS =       560.56532116
  atomic energy  EATOM  =     44511.34040493
  ---------------------------------------------------
  free energy    TOTEN  =      -141.31844532 eV

  energy without entropy =     -141.31716509  energy(sigma->0) =     -141.31780521


--------------------------------------------------------------------------------------------------------




----------------------------------------- Iteration    1(   6)  ---------------------------------------


    POTLOK:  VPU time    1.61: CPU time    5.56
    SETDIJ:  VPU time    0.82: CPU time    0.91
    EDDAV :  VPU time 1765.17: CPU time 1765.34
    DOS   :  VPU time    0.00: CPU time   -0.00
    CHARGE:  VPU time   87.92: CPU time   87.92
    MIXING:  VPU time    0.03: CPU time    0.04
    ------------------------------------------
      LOOP:  VPU time 1855.78: CPU time 1860.01

 eigenvalue-minimisations  : 88668
 total energy-change (2. order) : 0.1213232E+02  (-0.3030399E+02)
 number of electron  352.0000008 magnetization 
 augmentation part   241.1769111 magnetization 

 Broyden mixing:
  rms(total) = 0.21456E+01    rms(broyden)= 0.21456E+01
  rms(prec ) = 0.29546E+01
  weight for this iteration     100.00

 eigenvalues of (default mixing * dielectric matrix)
  average eigenvalue GAMMA=   0.6389
  0.6389

 Free energy of the ion-electron system (eV)
  ---------------------------------------------------
  alpha Z        PSCENC =      2937.81789222
  Ewald energy   TEWEN  =    -33475.30839066
  -1/2 Hartree   DENC   =    -10641.86915148
  -V(xc)+E(xc)   XCENC  =      1350.78180916
  PAW double counting   =     33526.68230752   -37866.24348045
  entropy T*S    EENTRO =        -0.00063141
  eigenvalues    EBANDS =      -472.38689000
  atomic energy  EATOM  =     44511.34040493
  ---------------------------------------------------
  free energy    TOTEN  =      -129.18613017 eV

  energy without entropy =     -129.18549876  energy(sigma->0) =     -129.18581447


--------------------------------------------------------------------------------------------------------




----------------------------------------- Iteration    1(   7)  ---------------------------------------


    POTLOK:  VPU time    0.62: CPU time    0.62
    SETDIJ:  VPU time    0.79: CPU time    0.79
    EDDAV :  VPU time 1926.01: CPU time 2247.05
    DOS   :  VPU time    0.00: CPU time   -0.02
    CHARGE:  VPU time  130.20: CPU time  519.86
    MIXING:  VPU time    1.88: CPU time    2.97
    ------------------------------------------
      LOOP:  VPU time 2059.78: CPU time 2773.38

 eigenvalue-minimisations  : 92616
 total energy-change (2. order) : 0.1304055E+02  (-0.5845145E+01)
 number of electron  352.0000008 magnetization 
 augmentation part   231.2987681 magnetization 

 Broyden mixing:
  rms(total) = 0.20475E+00    rms(broyden)= 0.20475E+00
  rms(prec ) = 0.30212E+00
  weight for this iteration     100.00

 eigenvalues of (default mixing * dielectric matrix)
  average eigenvalue GAMMA=   1.2461
  1.8620  0.6301

 Free energy of the ion-electron system (eV)
  ---------------------------------------------------
  alpha Z        PSCENC =      2937.81789222
  Ewald energy   TEWEN  =    -33475.30839066
  -1/2 Hartree   DENC   =    -10904.43634280
  -V(xc)+E(xc)   XCENC  =      1364.41932475
  PAW double counting   =     34164.71463678   -38697.17394414
  entropy T*S    EENTRO =        -0.00094010
  eigenvalues    EBANDS =       -17.51822539
  atomic energy  EATOM  =     44511.34040493
[...]
     68      -0.0550      2.00000
     69      -0.0543      2.00000
     70      -0.0536      2.00000
     71      -0.0536      2.00000
     72      -0.0536      2.00000
     73      -0.0535      2.00000
     74      -0.0535      2.00000
     75      -0.0535      2.00000
     76      -0.0535      2.00000
     77      -0.0534      2.00000
     78      -0.0534      2.00000
     79      -0.0534      2.00000
     80      -0.0534      2.00000
     81      -0.0533      2.00000
     82      -0.0533      2.00000
     83      -0.0532      2.00000
     84      -0.0526      2.00000
     85      -0.0519      2.00000
     86      -0.0517      2.00000
     87      -0.0512      2.00000
     88      -0.0512      2.00000
     89       0.0310      2.00000
     90       0.0310      2.00000
     91       0.0313      2.00000
     92       0.0314      2.00000
     93       0.0317      2.00000
     94       0.0317      2.00000
     95       0.0318      2.00000
     96       0.0318      2.00000
     97       0.0320      2.00000
     98       0.0320      2.00000
     99       0.0321      2.00000
    100       0.0322      2.00000
    101       0.0325      2.00000
    102       0.0326      2.00000
    103       0.0328      2.00000
    104       0.0328      2.00000
    105       0.4085      2.00000
    106       0.4092      2.00000
    107       0.4092      2.00000
    108       0.4104      2.00000
    109       0.4105      2.00000
    110       0.4105      2.00000
    111       0.4105      2.00000
    112       0.4107      2.00000
    113       0.4108      2.00000
    114       0.4108      2.00000
    115       0.4108      2.00000
    116       0.4108      2.00000
    117       0.4109      2.00000
    118       0.4109      2.00000
    119       0.4109      2.00000
    120       0.4109      2.00000
    121       0.4110      2.00000
    122       0.4112      2.00000
    123       0.4112      2.00000
    124       0.4112      2.00000
    125       0.4113      2.00000
    126       0.4125      2.00000
    127       0.4125      2.00000
    128       0.4132      2.00000
    129       0.6130      2.00000
    130       0.6139      2.00000
    131       0.6139      2.00000
    132       0.6139      2.00000
    133       0.6144      2.00000
    134       0.6144      2.00000
    135       0.6146      2.00000
    136       0.6146      2.00000
    137       0.6147      2.00000
    138       0.6147      2.00000
    139       0.6149      2.00000
    140       0.6149      2.00000
    141       0.6154      2.00000
    142       0.6154      2.00000
    143       0.6154      2.00000
    144       0.6163      2.00000
    145       1.0174      2.00000
    146       1.0174      2.00000
    147       1.0175      2.00000
    148       1.0175      2.00000
    149       1.0176      2.00000
    150       1.0176      2.00000
    151       1.0176      2.00000
    152       1.0177      2.00000
    153       1.0177      2.00000
    154       1.0178      2.00000
    155       1.0178      2.00000
    156       1.0178      2.00000
    157       1.0179      2.00000
    158       1.0179      2.00000
    159       1.0179      2.00000
    160       1.0180      2.00000
    161       1.0180      2.00000
    162       1.0181      2.00000
    163       1.0181      2.00000
    164       1.0181      2.00000
    165       1.0181      2.00000
    166       1.0182      2.00000
    167       1.0183      2.00000
    168       1.0183      2.00000
    169       3.3030      0.00000
    170       3.3051      0.00000
    171       3.3051      0.00000
    172       3.3076      0.00000
    173       3.3079      0.00000
    174       3.3081      0.00000
    175       3.3081      0.00000
    176       3.3081      0.00000
    177       3.3082      0.00000
    178       3.3082      0.00000
    179       3.3082      0.00000
    180       3.3082      0.00000
    181       3.3084      0.00000
    182       3.3084      0.00000
    183       3.3084      0.00000
    184       3.3084      0.00000
    185       3.3084      0.00000
    186       3.3085      0.00000
    187       3.3085      0.00000
    188       3.3087      0.00000
    189       3.3090      0.00000
    190       3.3114      0.00000
    191       3.3114      0.00000
    192       3.3136      0.00000
    193       8.4276      0.00000
    194       8.4281      0.00000
    195       8.4300      0.00000
    196       8.4327      0.00000
    197       8.4329      0.00000
    198       8.4329      0.00000
    199       8.4330      0.00000
    200       8.4332      0.00000
    201       8.4332      0.00000
    202       8.4333      0.00000
    203       8.4333      0.00000
    204       8.4334      0.00000
    205       8.4334      0.00000
    206       8.4335      0.00000
    207       8.4336      0.00000
    208       8.4338      0.00000
    209       8.4339      0.00000
    210       8.4343      0.00000
    211       8.4356      0.00000
    212       8.4362      0.00000


--------------------------------------------------------------------------------------------------------


 soft charge-density along one line, spin component           1
         0         1         2         3         4         5         6         7         8         9
 total charge-density along one line
 
 pseudopotential strength for first ion, spin component:           1
 -7.120   0.000  -0.000   0.000   0.000   0.051  -0.000   0.000
  0.000  -7.120  -0.000  -0.000  -0.000  -0.000   0.051   0.000
 -0.000  -0.000  -7.105  -0.000  -0.000   0.000   0.000   0.044
  0.000  -0.000  -0.000  -7.120   0.000  -0.000   0.000   0.000
  0.000  -0.000  -0.000   0.000  -7.105  -0.000   0.000   0.000
  0.051  -0.000   0.000  -0.000  -0.000   1.545   0.000  -0.000
 -0.000   0.051   0.000   0.000   0.000   0.000   1.545  -0.000
  0.000   0.000   0.044   0.000   0.000  -0.000  -0.000   1.549
 -0.000   0.000   0.000   0.051  -0.000   0.000   0.000  -0.000
 -0.000   0.000   0.000  -0.000   0.044   0.000  -0.000  -0.000
 -0.000  -0.000   0.000  -0.000  -0.000  -0.000  -0.000  -0.000
  0.000   0.000  -0.000   0.000   0.000  -0.000  -0.000   0.000
 -0.000  -0.000   0.000  -0.000   0.000   0.000   0.000   0.000
 -0.000  -0.000  -0.000  -0.000  -0.000  -0.000   0.000   0.000
 -0.000  -0.000   0.000  -0.000  -0.000  -0.000  -0.000  -0.000
  0.000   0.000  -0.000   0.000   0.000  -0.000  -0.000   0.000
  0.000   0.000  -0.000   0.000   0.000  -0.000  -0.000   0.000
  0.000   0.000  -0.000   0.000   0.000  -0.000  -0.000   0.000
 total augmentation occupancy for first ion, spin component:           1
  1.895   0.000  -0.003  -0.000  -0.001  -0.037  -0.000   0.001   0.000   0.000   0.006   0.000   0.001   0.000  -0.000  -0.000
  0.000   1.898  -0.001  -0.001  -0.003  -0.000  -0.040   0.001   0.000   0.001   0.004  -0.000   0.000   0.000  -0.000  -0.000
 -0.003  -0.001   1.916  -0.000  -0.003   0.001   0.001  -0.075   0.001   0.002   0.014   0.002  -0.000  -0.000  -0.000  -0.000
 -0.000  -0.001  -0.000   1.901   0.001   0.000   0.000   0.001  -0.043   0.000   0.003  -0.000   0.000   0.001  -0.000  -0.000
 -0.001  -0.003  -0.003   0.001   1.904   0.000   0.001   0.002   0.000  -0.069   0.008   0.001   0.000   0.000   0.000   0.000
 -0.037  -0.000   0.001   0.000   0.000   0.050   0.000   0.001  -0.000  -0.000  -0.001   0.000   0.001  -0.000   0.000  -0.000
 -0.000  -0.040   0.001   0.000   0.001   0.000   0.052  -0.001  -0.000   0.000  -0.000   0.001   0.000  -0.000   0.000   0.000
  0.001   0.001  -0.075   0.001   0.002   0.001  -0.001   0.050  -0.001  -0.001  -0.007   0.000   0.000   0.000  -0.000   0.000
  0.000   0.000   0.001  -0.043   0.000  -0.000  -0.000  -0.001   0.054  -0.001   0.001   0.001  -0.000   0.001   0.000   0.000
  0.000   0.001   0.002   0.000  -0.069  -0.000   0.000  -0.001  -0.001   0.048  -0.004   0.000  -0.000  -0.000   0.000   0.000
  0.006   0.004   0.014   0.003   0.008  -0.001  -0.000  -0.007   0.001  -0.004   1.097  -0.281   0.000  -0.000   0.003   0.000
  0.000  -0.000   0.002  -0.000   0.001   0.000   0.001   0.000   0.001   0.000  -0.281   0.107   0.000  -0.000  -0.001  -0.000
  0.001   0.000  -0.000   0.000   0.000   0.001   0.000   0.000  -0.000  -0.000   0.000   0.000   0.141  -0.000   0.001  -0.009
  0.000   0.000  -0.000   0.001   0.000  -0.000  -0.000   0.000   0.001  -0.000  -0.000  -0.000  -0.000   0.144  -0.002  -0.000
 -0.000  -0.000  -0.000  -0.000   0.000   0.000   0.000  -0.000   0.000   0.000   0.003  -0.001   0.001  -0.002   0.143  -0.000
 -0.000  -0.000  -0.000  -0.000   0.000  -0.000   0.000   0.000   0.000   0.000   0.000  -0.000  -0.009  -0.000  -0.000   0.001
 -0.000  -0.000  -0.000  -0.000   0.000   0.000   0.000  -0.000  -0.000   0.000   0.000   0.000  -0.000  -0.010  -0.000   0.000
  0.000  -0.000   0.000   0.000  -0.000  -0.000  -0.000   0.000  -0.000  -0.000  -0.000   0.000  -0.000  -0.000  -0.009   0.000


------------------------ aborting loop because EDIFF is reached ----------------------------------------




--------------------------------------------------------------------------------------------------------


    CHARGE:  VPU time   81.26: CPU time   81.24
    FORLOC:  VPU time    0.13: CPU time    0.14
    FORNL :  VPU time  705.41: CPU time  705.21
    STRESS:  VPU time 1038.12: CPU time 1038.06
    FORCOR:  VPU time    0.62: CPU time    0.63
    FORHAR:  VPU time    0.20: CPU time    0.20
    MIXING:  VPU time    0.07: CPU time    0.14


--------------------------------------------------------------------------------------------------------



  FREE ENERGIE OF THE ION-ELECTRON SYSTEM (eV)
  ---------------------------------------------------
  free  energy   TOTEN  =      -115.952625 eV

  energy  without entropy=     -115.951652  energy(sigma->0) =     -115.952138
 

  FORCE on cell =-STRESS in cart. coord.  units (eV/reduce length):
  Direction    X        Y        Z        XY       YZ       ZX
  --------------------------------------------------------------------------------------
  Alpha Z   2937.82   2937.82   2937.82
  Ewald   -11158.51 -11158.47 -11158.47      0.00     -0.00     -0.00
  Hartree   3600.00   3600.04   3600.04     -0.00     -0.00     -0.00
  E(xc)    -1996.54  -1996.54  -1996.54     -0.00      0.00     -0.00
  Local     3505.85   3505.77   3505.77     -0.00     -0.00     -0.00
  n-local  -1215.35  -1218.74  -1211.95      1.43      0.83      0.23
  augment   1801.10   1801.10   1801.10     -0.00     -0.00     -0.00
  Kinetic   2487.19   2483.47   2490.92      0.47     -0.92     -2.31
  -------------------------------------------------------------------------------------
  Total      -38.44    -38.44    -38.44     -0.00      0.00      0.00
  in kB     -138.30   -138.30   -138.30     -0.00      0.00      0.00
  external pressure =     -138.30 kB  Pullay stress =        0.00 kB


 VOLUME and BASIS-vectors are now :
 -----------------------------------------------------------------------------
  energy-cutoff  :      750.00
  volume of cell :      445.33
      direct lattice vectors                 reciprocal lattice vectors
     7.636473205  0.000000000  0.000000000     0.130950502  0.000000000  0.000000000
     0.000000000  7.636473205  0.000000000     0.000000000  0.130950502  0.000000000
     0.000000000  0.000000000  7.636473205     0.000000000  0.000000000  0.130950502

  length of vectors
     7.636473205  7.636473205  7.636473205     0.130950502  0.130950502  0.130950502


 FORCES acting on ions
    electron-ion (+dipol)            ewald-force                    non-local-force                 convergence-correction
 -----------------------------------------------------------------------------------------------
   0.510E+01 -.777E-13 0.100E-05   -.508E+01 0.391E-13 -.107E-13   -.533E-01 -.190E-19 -.257E-19   0.759E-05 0.279E-12 0.604E-12
   -.132E+01 -.436E-13 -.100E-05   0.134E+01 -.284E-13 -.227E-12   -.153E-01 0.252E-20 -.266E-21   -.437E-05 0.281E-12 0.589E-12
   0.421E+00 0.781E-12 -.300E-11   -.425E+00 -.604E-13 -.117E-12   0.351E-02 0.171E-20 -.131E-21   -.905E-05 -.164E-12 0.564E-12
   -.340E+00 -.487E-11 0.328E-12   0.333E+00 -.568E-13 -.171E-12   0.653E-02 -.144E-19 0.139E-20   0.958E-05 -.183E-12 0.529E-12
   0.421E+00 -.773E-13 0.343E-09   -.425E+00 -.533E-13 -.146E-12   0.351E-02 -.260E-20 0.209E-20   -.836E-05 0.264E-12 -.151E-12
   -.340E+00 -.599E-13 0.337E-09   0.333E+00 -.568E-13 -.142E-12   0.653E-02 -.170E-20 0.116E-19   0.947E-05 0.256E-12 -.180E-12
   0.177E+00 0.783E-12 0.135E-10   -.175E+00 -.284E-13 -.195E-12   -.148E-02 -.661E-21 0.336E-20   -.189E-04 -.147E-12 -.148E-12
   -.163E+00 -.467E-11 0.755E-11   0.164E+00 -.284E-13 -.256E-12   -.107E-02 -.285E-20 0.252E-20   0.201E-04 -.157E-12 -.172E-12
   -.649E+00 -.124E+01 -.303E-10   0.644E+00 0.124E+01 -.188E-12   0.842E-02 0.664E-02 -.734E-20   0.257E-05 -.107E-04 0.590E-12
   -.654E+00 0.123E+01 -.323E-10   0.648E+00 -.123E+01 -.188E-12   0.849E-02 -.667E-02 -.841E-20   -.470E-05 0.434E-05 0.554E-12
   -.649E+00 0.124E+01 -.305E-10   0.644E+00 -.124E+01 -.171E-12   0.842E-02 -.664E-02 0.541E-20   0.257E-05 0.107E-04 0.582E-12
   -.654E+00 -.123E+01 -.322E-10   0.648E+00 0.123E+01 -.114E-12   0.849E-02 0.667E-02 0.569E-20   -.470E-05 -.434E-05 0.553E-12
   -.174E-01 -.102E+00 0.752E-10   0.195E-01 0.102E+00 -.121E-12   -.187E-02 0.433E-03 -.261E-20   0.195E-05 -.609E-05 -.114E-12
   -.195E-01 0.102E+00 0.760E-10   0.217E-01 -.102E+00 -.121E-12   -.186E-02 -.451E-03 0.248E-20   -.264E-05 0.419E-05 -.129E-12
   -.174E-01 0.102E+00 0.753E-10   0.195E-01 -.102E+00 -.199E-12   -.187E-02 -.433E-03 -.446E-21   0.195E-05 0.609E-05 -.188E-12
   -.195E-01 -.102E+00 0.797E-10   0.217E-01 0.102E+00 -.199E-12   -.186E-02 0.451E-03 0.294E-20   -.264E-05 -.419E-05 -.236E-12
   -.649E+00 -.583E-13 -.124E+01   0.644E+00 -.391E-13 0.124E+01   0.842E-02 -.109E-20 0.664E-02   0.245E-05 0.251E-12 -.107E-04
   -.654E+00 -.688E-13 0.123E+01   0.648E+00 -.391E-13 -.123E+01   0.849E-02 -.461E-20 -.667E-02   -.481E-05 0.226E-12 0.426E-05
   -.174E-01 0.766E-12 -.102E+00   0.195E-01 -.639E-13 0.102E+00   -.187E-02 -.144E-20 0.433E-03   0.198E-05 -.166E-12 -.600E-05
   -.195E-01 -.204E-11 0.102E+00   0.217E-01 -.639E-13 -.102E+00   -.186E-02 0.226E-20 -.451E-03   -.261E-05 -.110E-12 0.410E-05
   -.649E+00 -.788E-13 0.124E+01   0.644E+00 -.568E-13 -.124E+01   0.842E-02 -.432E-20 -.664E-02   0.245E-05 0.280E-12 0.107E-04
   -.654E+00 -.586E-13 -.123E+01   0.648E+00 -.568E-13 0.123E+01   0.849E-02 0.315E-20 0.667E-02   -.481E-05 0.277E-12 -.426E-05
   -.174E-01 0.774E-12 0.102E+00   0.195E-01 -.284E-13 -.102E+00   -.187E-02 0.402E-20 -.433E-03   0.198E-05 -.196E-12 0.600E-05
   -.195E-01 0.212E-12 -.102E+00   0.217E-01 -.284E-13 0.102E+00   -.186E-02 0.110E-20 0.451E-03   -.261E-05 -.162E-12 -.410E-05
   0.799E+00 0.332E-02 0.332E-02   -.801E+00 -.330E-02 -.330E-02   0.204E-02 -.230E-04 -.230E-04   -.766E-05 -.139E-05 -.139E-05
   -.447E+00 -.963E-03 -.963E-03   0.450E+00 0.988E-03 0.988E-03   -.247E-02 -.192E-04 -.192E-04   0.895E-05 -.280E-05 -.280E-05
   0.799E+00 -.332E-02 0.332E-02   -.801E+00 0.330E-02 -.330E-02   0.204E-02 0.230E-04 -.230E-04   -.766E-05 0.139E-05 -.139E-05
   -.447E+00 0.963E-03 -.963E-03   0.450E+00 -.988E-03 0.988E-03   -.247E-02 0.192E-04 -.192E-04   0.895E-05 0.280E-05 -.280E-05
   0.799E+00 0.332E-02 -.332E-02   -.801E+00 -.330E-02 0.330E-02   0.204E-02 -.230E-04 0.230E-04   -.766E-05 -.139E-05 0.139E-05
   -.447E+00 -.963E-03 0.963E-03   0.450E+00 0.988E-03 -.988E-03   -.247E-02 -.192E-04 0.192E-04   0.895E-05 -.280E-05 0.280E-05
   0.799E+00 -.332E-02 -.332E-02   -.801E+00 0.330E-02 0.330E-02   0.204E-02 0.230E-04 0.230E-04   -.766E-05 0.139E-05 0.139E-05
   -.447E+00 0.963E-03 0.963E-03   0.450E+00 -.988E-03 -.988E-03   -.247E-02 0.192E-04 0.192E-04   0.895E-05 0.280E-05 0.280E-05
 -----------------------------------------------------------------------------------------------
   -.227E-05 -.519E-10 -.258E-08   -.877E-13 0.288E-12 0.153E-12   0.102E-04 -.712E-19 0.359E-18   -.357E-06 0.524E-12 -.891E-12
 
 
 POSITION                                       TOTAL-FORCE (eV/Angst)
 -----------------------------------------------------------------------------------
      0.01000      0.00000      0.00000        -0.031231      0.000000      0.000000
      3.81824      0.00000      0.00000         0.000839      0.000000     -0.000000
      0.00000      3.81824      0.00000        -0.000417     -0.000000     -0.000000
      3.81824      3.81824      0.00000        -0.000346      0.000000      0.000000
      0.00000      0.00000      3.81824        -0.000417     -0.000000     -0.000000
      3.81824      0.00000      3.81824        -0.000346      0.000000     -0.000000
      0.00000      3.81824      3.81824        -0.000134      0.000000     -0.000000
      3.81824      3.81824      3.81824         0.000019      0.000000     -0.000000
      1.90912      1.90912      0.00000         0.003467      0.003707      0.000000
      5.72735      1.90912      0.00000         0.003313     -0.003506      0.000000
      1.90912      5.72735      0.00000         0.003467     -0.003707      0.000000
      5.72735      5.72735      0.00000         0.003313      0.003506     -0.000000
      1.90912      1.90912      3.81824         0.000309      0.000026      0.000000
      5.72735      1.90912      3.81824         0.000310     -0.000023     -0.000000
      1.90912      5.72735      3.81824         0.000309     -0.000026      0.000000
      5.72735      5.72735      3.81824         0.000310      0.000023     -0.000000
      1.90912      0.00000      1.90912         0.003467     -0.000000      0.003707
      5.72735      0.00000      1.90912         0.003313      0.000000     -0.003506
      1.90912      3.81824      1.90912         0.000309     -0.000000      0.000026
      5.72735      3.81824      1.90912         0.000310     -0.000000     -0.000023
      1.90912      0.00000      5.72735         0.003467      0.000000     -0.003707
      5.72735      0.00000      5.72735         0.003313     -0.000000      0.003506
      1.90912      3.81824      5.72735         0.000309     -0.000000     -0.000026
      5.72735      3.81824      5.72735         0.000310     -0.000000      0.000023
      0.00000      1.90912      1.90912         0.000011     -0.000003     -0.000003
      3.81824      1.90912      1.90912         0.000598      0.000003      0.000003
      0.00000      5.72735      1.90912         0.000011      0.000003     -0.000003
      3.81824      5.72735      1.90912         0.000598     -0.000003      0.000003
      0.00000      1.90912      5.72735         0.000011     -0.000003      0.000003
      3.81824      1.90912      5.72735         0.000598      0.000003     -0.000003
      0.00000      5.72735      5.72735         0.000011      0.000003      0.000003
      3.81824      5.72735      5.72735         0.000598     -0.000003     -0.000003
 -----------------------------------------------------------------------------------
    total drift:                                0.000008     -0.000000     -0.000000


--------------------------------------------------------------------------------------------------------



 mean value of Nose-termostat <S>:     1.000 mean value of <T> :     0.000
 mean temperature <T/S>/<1/S>  :     0.000

     LOOP+:  VPU time79867.36: CPU time********
  
  
 General timing and accounting informations for this job:
 ========================================================
  
                  Total CPU time used (sec):    80803.395
                            User time (sec):    52563.453
                          System time (sec):    28239.942
                         Elapsed time (sec):   149947.312
  
                   Maximum memory used (kb):    16704988.
                   Average memory used (kb):           0.
  
                          Minor page faults:     10474409
                          Major page faults:       859298
                 Voluntary context switches:      1119463
