<?xml version="1.0" encoding="ISO-8859-1"?>
<modeling>
 <generator>
  <i name="program" type="string">vasp</i>
  <i name="version" type="string">4.6.28 </i>
  <i name="subversion" type="string">25Jul05 complex  parallel</i>
  <i name="platform" type="string">LinuxIFC</i>
  <i name="date" type="string">2017 01 11</i>
  <i name="time" type="string">08:07:24</i>
 </generator>
 <incar>
  <i type="string" name="PREC">accurate</i>
  <i type="int" name="IALGO">    38</i>
  <i type="logical" name="ADDGRID"> T  </i>
  <i name="EDIFF">      0.00000001</i>
  <i type="int" name="IBRION">    -1</i>
  <i name="ENCUT">    750.00000000</i>
  <i type="logical" name="LREAL"> F  </i>
  <i type="int" name="ISMEAR">     0</i>
  <i name="SIGMA">      0.01000000</i>
  <i type="logical" name="LWAVE"> F  </i>
  <i type="logical" name="LCHARG"> F  </i>
 </incar>
 <kpoints>
  <generation param="Gamma">
   <v type="int" name="divisions">      12      12      12</v>
   <v name="usershift">      0.00000000      0.00000000      0.00000000</v>
   <v name="genvec1">      0.08333333      0.00000000      0.00000000</v>
   <v name="genvec2">      0.00000000      0.08333333      0.00000000</v>
   <v name="genvec3">      0.00000000      0.00000000      0.08333333</v>
   <v name="shift">      0.00000000      0.00000000      0.00000000</v>
  </generation>
  <varray name="kpointlist" >
   <v>       0.00000000      0.00000000      0.00000000</v>
   <v>       0.08333333      0.00000000      0.00000000</v>
   <v>       0.16666667      0.00000000      0.00000000</v>
   <v>       0.25000000      0.00000000      0.00000000</v>
   <v>       0.33333333      0.00000000      0.00000000</v>
   <v>       0.41666667      0.00000000      0.00000000</v>
   <v>       0.50000000      0.00000000      0.00000000</v>
   <v>       0.00000000      0.08333333      0.00000000</v>
   <v>       0.08333333      0.08333333      0.00000000</v>
   <v>       0.16666667      0.08333333      0.00000000</v>
   <v>       0.25000000      0.08333333      0.00000000</v>
   <v>       0.33333333      0.08333333      0.00000000</v>
   <v>       0.41666667      0.08333333      0.00000000</v>
   <v>       0.50000000      0.08333333      0.00000000</v>
   <v>       0.00000000      0.16666667      0.00000000</v>
   <v>       0.08333333      0.16666667      0.00000000</v>
   <v>       0.16666667      0.16666667      0.00000000</v>
   <v>       0.25000000      0.16666667      0.00000000</v>
   <v>       0.33333333      0.16666667      0.00000000</v>
   <v>       0.41666667      0.16666667      0.00000000</v>
   <v>       0.50000000      0.16666667      0.00000000</v>
   <v>       0.00000000      0.25000000      0.00000000</v>
   <v>       0.08333333      0.25000000      0.00000000</v>
   <v>       0.16666667      0.25000000      0.00000000</v>
   <v>       0.25000000      0.25000000      0.00000000</v>
   <v>       0.33333333      0.25000000      0.00000000</v>
   <v>       0.41666667      0.25000000      0.00000000</v>
   <v>       0.50000000      0.25000000      0.00000000</v>
   <v>       0.00000000      0.33333333      0.00000000</v>
   <v>       0.08333333      0.33333333      0.00000000</v>
   <v>       0.16666667      0.33333333      0.00000000</v>
   <v>       0.25000000      0.33333333      0.00000000</v>
   <v>       0.33333333      0.33333333      0.00000000</v>
   <v>       0.41666667      0.33333333      0.00000000</v>
   <v>       0.50000000      0.33333333      0.00000000</v>
   <v>       0.00000000      0.41666667      0.00000000</v>
   <v>       0.08333333      0.41666667      0.00000000</v>
   <v>       0.16666667      0.41666667      0.00000000</v>
   <v>       0.25000000      0.41666667      0.00000000</v>
   <v>       0.33333333      0.41666667      0.00000000</v>
   <v>       0.41666667      0.41666667      0.00000000</v>
   <v>       0.50000000      0.41666667      0.00000000</v>
   <v>       0.00000000      0.50000000      0.00000000</v>
   <v>       0.08333333      0.50000000      0.00000000</v>
   <v>       0.16666667      0.50000000      0.00000000</v>
   <v>       0.25000000      0.50000000      0.00000000</v>
   <v>       0.33333333      0.50000000      0.00000000</v>
   <v>       0.41666667      0.50000000      0.00000000</v>
   <v>       0.50000000      0.50000000      0.00000000</v>
   <v>       0.00000000      0.08333333      0.08333333</v>
   <v>       0.08333333      0.08333333      0.08333333</v>
   <v>       0.16666667      0.08333333      0.08333333</v>
   <v>       0.25000000      0.08333333      0.08333333</v>
   <v>       0.33333333      0.08333333      0.08333333</v>
   <v>       0.41666667      0.08333333      0.08333333</v>
   <v>       0.50000000      0.08333333      0.08333333</v>
   <v>       0.00000000      0.16666667      0.08333333</v>
   <v>       0.08333333      0.16666667      0.08333333</v>
   <v>       0.16666667      0.16666667      0.08333333</v>
   <v>       0.25000000      0.16666667      0.08333333</v>
   <v>       0.33333333      0.16666667      0.08333333</v>
   <v>       0.41666667      0.16666667      0.08333333</v>
   <v>       0.50000000      0.16666667      0.08333333</v>
   <v>       0.00000000      0.25000000      0.08333333</v>
   <v>       0.08333333      0.25000000      0.08333333</v>
   <v>       0.16666667      0.25000000      0.08333333</v>
   <v>       0.25000000      0.25000000      0.08333333</v>
   <v>       0.33333333      0.25000000      0.08333333</v>
   <v>       0.41666667      0.25000000      0.08333333</v>
   <v>       0.50000000      0.25000000      0.08333333</v>
   <v>       0.00000000      0.33333333      0.08333333</v>
   <v>       0.08333333      0.33333333      0.08333333</v>
   <v>       0.16666667      0.33333333      0.08333333</v>
   <v>       0.25000000      0.33333333      0.08333333</v>
   <v>       0.33333333      0.33333333      0.08333333</v>
   <v>       0.41666667      0.33333333      0.08333333</v>
   <v>       0.50000000      0.33333333      0.08333333</v>
   <v>       0.00000000      0.41666667      0.08333333</v>
   <v>       0.08333333      0.41666667      0.08333333</v>
   <v>       0.16666667      0.41666667      0.08333333</v>
   <v>       0.25000000      0.41666667      0.08333333</v>
   <v>       0.33333333      0.41666667      0.08333333</v>
   <v>       0.41666667      0.41666667      0.08333333</v>
   <v>       0.50000000      0.41666667      0.08333333</v>
   <v>       0.00000000      0.50000000      0.08333333</v>
   <v>       0.08333333      0.50000000      0.08333333</v>
   <v>       0.16666667      0.50000000      0.08333333</v>
   <v>       0.25000000      0.50000000      0.08333333</v>
   <v>       0.33333333      0.50000000      0.08333333</v>
   <v>       0.41666667      0.50000000      0.08333333</v>
   <v>       0.50000000      0.50000000      0.08333333</v>
   <v>       0.00000000      0.16666667      0.16666667</v>
   <v>       0.08333333      0.16666667      0.16666667</v>
   <v>       0.16666667      0.16666667      0.16666667</v>
   <v>       0.25000000      0.16666667      0.16666667</v>
   <v>       0.33333333      0.16666667      0.16666667</v>
   <v>       0.41666667      0.16666667      0.16666667</v>
   <v>       0.50000000      0.16666667      0.16666667</v>
   <v>       0.00000000      0.25000000      0.16666667</v>
   <v>       0.08333333      0.25000000      0.16666667</v>
   <v>       0.16666667      0.25000000      0.16666667</v>
   <v>       0.25000000      0.25000000      0.16666667</v>
   <v>       0.33333333      0.25000000      0.16666667</v>
   <v>       0.41666667      0.25000000      0.16666667</v>
   <v>       0.50000000      0.25000000      0.16666667</v>
   <v>       0.00000000      0.33333333      0.16666667</v>
   <v>       0.08333333      0.33333333      0.16666667</v>
   <v>       0.16666667      0.33333333      0.16666667</v>
   <v>       0.25000000      0.33333333      0.16666667</v>
   <v>       0.33333333      0.33333333      0.16666667</v>
   <v>       0.41666667      0.33333333      0.16666667</v>
   <v>       0.50000000      0.33333333      0.16666667</v>
   <v>       0.00000000      0.41666667      0.16666667</v>
   <v>       0.08333333      0.41666667      0.16666667</v>
   <v>       0.16666667      0.41666667      0.16666667</v>
   <v>       0.25000000      0.41666667      0.16666667</v>
   <v>       0.33333333      0.41666667      0.16666667</v>
   <v>       0.41666667      0.41666667      0.16666667</v>
   <v>       0.50000000      0.41666667      0.16666667</v>
   <v>       0.00000000      0.50000000      0.16666667</v>
   <v>       0.08333333      0.50000000      0.16666667</v>
   <v>       0.16666667      0.50000000      0.16666667</v>
   <v>       0.25000000      0.50000000      0.16666667</v>
   <v>       0.33333333      0.50000000      0.16666667</v>
   <v>       0.41666667      0.50000000      0.16666667</v>
   <v>       0.50000000      0.50000000      0.16666667</v>
   <v>       0.00000000      0.25000000      0.25000000</v>
   <v>       0.08333333      0.25000000      0.25000000</v>
   <v>       0.16666667      0.25000000      0.25000000</v>
   <v>       0.25000000      0.25000000      0.25000000</v>
   <v>       0.33333333      0.25000000      0.25000000</v>
   <v>       0.41666667      0.25000000      0.25000000</v>
   <v>       0.50000000      0.25000000      0.25000000</v>
   <v>       0.00000000      0.33333333      0.25000000</v>
   <v>       0.08333333      0.33333333      0.25000000</v>
   <v>       0.16666667      0.33333333      0.25000000</v>
   <v>       0.25000000      0.33333333      0.25000000</v>
   <v>       0.33333333      0.33333333      0.25000000</v>
   <v>       0.41666667      0.33333333      0.25000000</v>
   <v>       0.50000000      0.33333333      0.25000000</v>
   <v>       0.00000000      0.41666667      0.25000000</v>
   <v>       0.08333333      0.41666667      0.25000000</v>
   <v>       0.16666667      0.41666667      0.25000000</v>
   <v>       0.25000000      0.41666667      0.25000000</v>
   <v>       0.33333333      0.41666667      0.25000000</v>
   <v>       0.41666667      0.41666667      0.25000000</v>
   <v>       0.50000000      0.41666667      0.25000000</v>
   <v>       0.00000000      0.50000000      0.25000000</v>
   <v>       0.08333333      0.50000000      0.25000000</v>
   <v>       0.16666667      0.50000000      0.25000000</v>
   <v>       0.25000000      0.50000000      0.25000000</v>
   <v>       0.33333333      0.50000000      0.25000000</v>
   <v>       0.41666667      0.50000000      0.25000000</v>
   <v>       0.50000000      0.50000000      0.25000000</v>
   <v>       0.00000000      0.33333333      0.33333333</v>
   <v>       0.08333333      0.33333333      0.33333333</v>
   <v>       0.16666667      0.33333333      0.33333333</v>
   <v>       0.25000000      0.33333333      0.33333333</v>
   <v>       0.33333333      0.33333333      0.33333333</v>
   <v>       0.41666667      0.33333333      0.33333333</v>
   <v>       0.50000000      0.33333333      0.33333333</v>
   <v>       0.00000000      0.41666667      0.33333333</v>
   <v>       0.08333333      0.41666667      0.33333333</v>
   <v>       0.16666667      0.41666667      0.33333333</v>
   <v>       0.25000000      0.41666667      0.33333333</v>
   <v>       0.33333333      0.41666667      0.33333333</v>
   <v>       0.41666667      0.41666667      0.33333333</v>
   <v>       0.50000000      0.41666667      0.33333333</v>
   <v>       0.00000000      0.50000000      0.33333333</v>
   <v>       0.08333333      0.50000000      0.33333333</v>
   <v>       0.16666667      0.50000000      0.33333333</v>
   <v>       0.25000000      0.50000000      0.33333333</v>
   <v>       0.33333333      0.50000000      0.33333333</v>
   <v>       0.41666667      0.50000000      0.33333333</v>
   <v>       0.50000000      0.50000000      0.33333333</v>
   <v>       0.00000000      0.41666667      0.41666667</v>
   <v>       0.08333333      0.41666667      0.41666667</v>
   <v>       0.16666667      0.41666667      0.41666667</v>
   <v>       0.25000000      0.41666667      0.41666667</v>
   <v>       0.33333333      0.41666667      0.41666667</v>
   <v>       0.41666667      0.41666667      0.41666667</v>
   <v>       0.50000000      0.41666667      0.41666667</v>
   <v>       0.00000000      0.50000000      0.41666667</v>
   <v>       0.08333333      0.50000000      0.41666667</v>
   <v>       0.16666667      0.50000000      0.41666667</v>
   <v>       0.25000000      0.50000000      0.41666667</v>
   <v>       0.33333333      0.50000000      0.41666667</v>
   <v>       0.41666667      0.50000000      0.41666667</v>
   <v>       0.50000000      0.50000000      0.41666667</v>
   <v>       0.00000000      0.50000000      0.50000000</v>
   <v>       0.08333333      0.50000000      0.50000000</v>
   <v>       0.16666667      0.50000000      0.50000000</v>
   <v>       0.25000000      0.50000000      0.50000000</v>
   <v>       0.33333333      0.50000000      0.50000000</v>
   <v>       0.41666667      0.50000000      0.50000000</v>
   <v>       0.50000000      0.50000000      0.50000000</v>
  </varray>
  <varray name="weights" >
   <v>       0.00057870</v>
   <v>       0.00115741</v>
   <v>       0.00115741</v>
   <v>       0.00115741</v>
   <v>       0.00115741</v>
   <v>       0.00115741</v>
   <v>       0.00057870</v>
   <v>       0.00231481</v>
   <v>       0.00462963</v>
   <v>       0.00462963</v>
   <v>       0.00462963</v>
   <v>       0.00462963</v>
   <v>       0.00462963</v>
   <v>       0.00231481</v>
   <v>       0.00231481</v>
   <v>       0.00462963</v>
   <v>       0.00462963</v>
   <v>       0.00462963</v>
   <v>       0.00462963</v>
   <v>       0.00462963</v>
   <v>       0.00231481</v>
   <v>       0.00231481</v>
   <v>       0.00462963</v>
   <v>       0.00462963</v>
   <v>       0.00462963</v>
   <v>       0.00462963</v>
   <v>       0.00462963</v>
   <v>       0.00231481</v>
   <v>       0.00231481</v>
   <v>       0.00462963</v>
   <v>       0.00462963</v>
   <v>       0.00462963</v>
   <v>       0.00462963</v>
   <v>       0.00462963</v>
   <v>       0.00231481</v>
   <v>       0.00231481</v>
   <v>       0.00462963</v>
   <v>       0.00462963</v>
   <v>       0.00462963</v>
   <v>       0.00462963</v>
   <v>       0.00462963</v>
   <v>       0.00231481</v>
   <v>       0.00115741</v>
   <v>       0.00231481</v>
   <v>       0.00231481</v>
   <v>       0.00231481</v>
   <v>       0.00231481</v>
   <v>       0.00231481</v>
   <v>       0.00115741</v>
   <v>       0.00231481</v>
   <v>       0.00462963</v>
   <v>       0.00462963</v>
   <v>       0.00462963</v>
   <v>       0.00462963</v>
   <v>       0.00462963</v>
   <v>       0.00231481</v>
   <v>       0.00462963</v>
   <v>       0.00925926</v>
   <v>       0.00925926</v>
   <v>       0.00925926</v>
   <v>       0.00925926</v>
   <v>       0.00925926</v>
   <v>       0.00462963</v>
   <v>       0.00462963</v>
   <v>       0.00925926</v>
   <v>       0.00925926</v>
   <v>       0.00925926</v>
   <v>       0.00925926</v>
   <v>       0.00925926</v>
   <v>       0.00462963</v>
   <v>       0.00462963</v>
   <v>       0.00925926</v>
   <v>       0.00925926</v>
   <v>       0.00925926</v>
   <v>       0.00925926</v>
   <v>       0.00925926</v>
   <v>       0.00462963</v>
   <v>       0.00462963</v>
   <v>       0.00925926</v>
   <v>       0.00925926</v>
   <v>       0.00925926</v>
   <v>       0.00925926</v>
   <v>       0.00925926</v>
   <v>       0.00462963</v>
   <v>       0.00231481</v>
   <v>       0.00462963</v>
   <v>       0.00462963</v>
   <v>       0.00462963</v>
   <v>       0.00462963</v>
   <v>       0.00462963</v>
   <v>       0.00231481</v>
   <v>       0.00231481</v>
   <v>       0.00462963</v>
   <v>       0.00462963</v>
   <v>       0.00462963</v>
   <v>       0.00462963</v>
   <v>       0.00462963</v>
   <v>       0.00231481</v>
   <v>       0.00462963</v>
   <v>       0.00925926</v>
   <v>       0.00925926</v>
   <v>       0.00925926</v>
   <v>       0.00925926</v>
   <v>       0.00925926</v>
   <v>       0.00462963</v>
   <v>       0.00462963</v>
   <v>       0.00925926</v>
   <v>       0.00925926</v>
   <v>       0.00925926</v>
   <v>       0.00925926</v>
   <v>       0.00925926</v>
   <v>       0.00462963</v>
   <v>       0.00462963</v>
   <v>       0.00925926</v>
   <v>       0.00925926</v>
   <v>       0.00925926</v>
   <v>       0.00925926</v>
   <v>       0.00925926</v>
   <v>       0.00462963</v>
   <v>       0.00231481</v>
   <v>       0.00462963</v>
   <v>       0.00462963</v>
   <v>       0.00462963</v>
   <v>       0.00462963</v>
   <v>       0.00462963</v>
   <v>       0.00231481</v>
   <v>       0.00231481</v>
   <v>       0.00462963</v>
   <v>       0.00462963</v>
   <v>       0.00462963</v>
   <v>       0.00462963</v>
   <v>       0.00462963</v>
   <v>       0.00231481</v>
   <v>       0.00462963</v>
   <v>       0.00925926</v>
   <v>       0.00925926</v>
   <v>       0.00925926</v>
   <v>       0.00925926</v>
   <v>       0.00925926</v>
   <v>       0.00462963</v>
   <v>       0.00462963</v>
   <v>       0.00925926</v>
   <v>       0.00925926</v>
   <v>       0.00925926</v>
   <v>       0.00925926</v>
   <v>       0.00925926</v>
   <v>       0.00462963</v>
   <v>       0.00231481</v>
   <v>       0.00462963</v>
   <v>       0.00462963</v>
   <v>       0.00462963</v>
   <v>       0.00462963</v>
   <v>       0.00462963</v>
   <v>       0.00231481</v>
   <v>       0.00231481</v>
   <v>       0.00462963</v>
   <v>       0.00462963</v>
   <v>       0.00462963</v>
   <v>       0.00462963</v>
   <v>       0.00462963</v>
   <v>       0.00231481</v>
   <v>       0.00462963</v>
   <v>       0.00925926</v>
   <v>       0.00925926</v>
   <v>       0.00925926</v>
   <v>       0.00925926</v>
   <v>       0.00925926</v>
   <v>       0.00462963</v>
   <v>       0.00231481</v>
   <v>       0.00462963</v>
   <v>       0.00462963</v>
   <v>       0.00462963</v>
   <v>       0.00462963</v>
   <v>       0.00462963</v>
   <v>       0.00231481</v>
   <v>       0.00231481</v>
   <v>       0.00462963</v>
   <v>       0.00462963</v>
   <v>       0.00462963</v>
   <v>       0.00462963</v>
   <v>       0.00462963</v>
   <v>       0.00231481</v>
   <v>       0.00231481</v>
   <v>       0.00462963</v>
   <v>       0.00462963</v>
   <v>       0.00462963</v>
   <v>       0.00462963</v>
   <v>       0.00462963</v>
   <v>       0.00231481</v>
   <v>       0.00057870</v>
   <v>       0.00115741</v>
   <v>       0.00115741</v>
   <v>       0.00115741</v>
   <v>       0.00115741</v>
   <v>       0.00115741</v>
   <v>       0.00057870</v>
  </varray>
 </kpoints>
 <parameters>
  <separator name="general" >
   <i type="string" name="SYSTEM">unknown system</i>
   <i type="logical" name="LCOMPAT"> F  </i>
  </separator>
  <separator name="electronic" >
   <i type="string" name="PREC">accura</i>
   <i name="ENMAX">    750.00000000</i>
   <i name="ENAUG">    516.45600000</i>
   <i name="EDIFF">      0.00000001</i>
   <i type="int" name="IALGO">    38</i>
   <i type="int" name="IWAVPR">    10</i>
   <i type="int" name="NBANDS">   211</i>
   <i name="NELECT">    352.00000000</i>
   <separator name="electronic smearing" >
    <i type="int" name="ISMEAR">     0</i>
    <i name="SIGMA">      0.01000000</i>
   </separator>
   <separator name="electronic projectors" >
    <i type="logical" name="LREAL"> F  </i>
    <v name="ROPT">      0.00000000</v>
    <i type="int" name="LMAXPAW">  -100</i>
    <i type="int" name="LMAXMIX">     2</i>
   </separator>
   <separator name="electronic startup" >
    <i type="int" name="ISTART">     0</i>
    <i type="int" name="ICHARG">     2</i>
    <i type="int" name="INIWAV">     1</i>
   </separator>
   <separator name="electronic spin" >
    <i type="int" name="ISPIN">     1</i>
    <i type="logical" name="LNONCOLLINEAR"> F  </i>
    <v name="MAGMOM">      1.00000000      1.00000000      1.00000000      1.00000000      1.00000000      1.00000000      1.00000000      1.00000000      1.00000000      1.00000000      1.00000000      1.00000000      1.00000000      1.00000000      1.00000000      1.00000000      1.00000000      1.00000000      1.00000000      1.00000000
      1.00000000      1.00000000      1.00000000      1.00000000      1.00000000      1.00000000      1.00000000      1.00000000      1.00000000      1.00000000      1.00000000      1.00000000</v>
    <i name="NUPDOWN">     -1.00000000</i>
    <i type="logical" name="LSORBIT"> F  </i>
    <v name="SAXIS">      0.00000000      0.00000000      1.00000000</v>
    <i type="logical" name="LSPIRAL"> F  </i>
    <v name="QSPIRAL">      0.00000000      0.00000000      0.00000000</v>
    <i type="logical" name="LZEROZ"> F  </i>
   </separator>
   <separator name="electronic exchange-correlation" >
    <i type="string" name="GGA">--</i>
    <i type="int" name="VOSKOWN">     0</i>
    <i type="logical" name="LASPH"> F  </i>
    <i type="logical" name="LMETAGGA"> F  </i>
    <i type="string" name="GGA2">--</i>
   </separator>
   <separator name="electronic convergence" >
    <i type="int" name="NELM">    60</i>
    <i type="int" name="NELMDL">     0</i>
    <i type="int" name="NELMIN">     2</i>
    <i name="ENINI">    750.00000000</i>
    <separator name="electronic convergence detail" >
     <i type="logical" name="LDIAG"> T  </i>
     <i name="WEIMIN">      0.00000000</i>
     <i name="EBREAK">      0.00000000</i>
     <i name="DEPER">      0.30000000</i>
     <i type="int" name="NRMM">     4</i>
     <i name="TIME">      0.10000000</i>
    </separator>
   </separator>
   <separator name="electronic mixer" >
    <i name="AMIX">      0.40000000</i>
    <i name="BMIX">      1.00000000</i>
    <i name="AMIN">      0.10000000</i>
    <i name="AMIX_MAG">      1.60000000</i>
    <i name="BMIX_MAG">      1.00000000</i>
    <separator name="electronic mixer details" >
     <i type="int" name="IMIX">     4</i>
     <i type="int" name="MAXMIX">   -45</i>
     <i name="WC">    100.00000000</i>
     <i type="int" name="INIMIX">     1</i>
     <i type="int" name="MIXPRE">     1</i>
     <i type="int" name="MREMOVE">     5</i>
    </separator>
   </separator>
   <separator name="electronic dipolcorrection" >
    <i type="int" name="IDIPOL">     0</i>
    <i type="logical" name="LDIPOL"> F  </i>
    <v name="DIPOL">   -100.00000000</v>
    <i name="EFIELD">      0.00000000</i>
   </separator>
  </separator>
  <separator name="grids" >
   <i type="int" name="NGX">    70</i>
   <i type="int" name="NGY">    70</i>
   <i type="int" name="NGZ">    70</i>
   <i type="int" name="NGXF">   140</i>
   <i type="int" name="NGYF">   140</i>
   <i type="int" name="NGZF">   140</i>
   <i type="logical" name="ADDGRID"> T  </i>
  </separator>
  <separator name="ionic" >
   <i type="int" name="NSW">     0</i>
   <i type="int" name="IBRION">    -1</i>
   <i type="int" name="ISIF">     2</i>
   <i name="PSTRESS">      0.00000000</i>
   <i name="EDIFFG">      0.00000010</i>
   <i type="int" name="NFREE">     0</i>
   <i name="POTIM">      0.50000000</i>
   <i name="SMASS">     -3.00000000</i>
  </separator>
  <separator name="ionic md" >
   <i name="TEBEG">      0.00010000</i>
   <i name="TEEND">      0.00010000</i>
   <i type="int" name="NBLOCK">     1</i>
   <i type="int" name="KBLOCK">     1</i>
   <i type="int" name="NPACO">   256</i>
   <i name="APACO">     16.00000000</i>
  </separator>
  <separator name="symmetry" >
   <i type="int" name="ISYM">     2</i>
   <i name="SYMPREC">      0.00001000</i>
  </separator>
  <separator name="dos" >
   <i type="logical" name="LORBIT"> F  </i>
   <v name="RWIGS">     -1.00000000</v>
   <i type="int" name="NEDOS">   301</i>
   <i name="EMIN">     10.00000000</i>
   <i name="EMAX">    -10.00000000</i>
  </separator>
  <separator name="writing" >
   <i type="int" name="NWRITE">     2</i>
   <i type="logical" name="LWAVE"> F  </i>
   <i type="logical" name="LCHARG"> F  </i>
   <i type="logical" name="LPARD"> F  </i>
   <i type="logical" name="LVTOT"> F  </i>
   <i type="logical" name="LELF"> F  </i>
   <i type="logical" name="LOPTICS"> F  </i>
   <i name="STM">      0.00000000</i>
  </separator>
  <separator name="performance" >
   <i type="int" name="NPAR">     4</i>
   <i type="int" name="NSIM">     4</i>
   <i type="int" name="NBLK">   256</i>
   <i type="logical" name="LPLANE"> T  </i>
   <i type="logical" name="LCRITICAL_MEM"> F  </i>
   <i type="logical" name="LSCALAPACK"> F  </i>
   <i type="logical" name="LSCALU"> F  </i>
   <i type="logical" name="LASYNC"> F  </i>
  </separator>
  <separator name="miscellaneous" >
   <i type="int" name="IDIOT">     3</i>
   <i type="logical" name="LMUSIC"> F  </i>
   <v name="POMASS">     63.54600000</v>
   <i type="logical" name="LCORR"> T  </i>
  </separator>
  <i type="logical" name="LREAL_COMPAT"> F  </i>
  <i type="logical" name="GGA_COMPAT"> T  </i>
  <i type="logical" name="LBERRY"> F  </i>
  <i type="int" name="ICORELEVEL">     0</i>
  <i type="logical" name="LDAU"> F  </i>
  <i type="int" name="I_CONSTRAINED_M">     0</i>
 </parameters>
 <atominfo>
  <atoms>      32</atoms>
  <types>       1</types>
  <array name="atoms" >
   <dimension dim="1">ion</dimension>
   <field type="string">element</field>
   <field type="int">atomtype</field>
   <set>
    <rc><c>Cu</c><c>   1</c></rc>
    <rc><c>Cu</c><c>   1</c></rc>
    <rc><c>Cu</c><c>   1</c></rc>
    <rc><c>Cu</c><c>   1</c></rc>
    <rc><c>Cu</c><c>   1</c></rc>
    <rc><c>Cu</c><c>   1</c></rc>
    <rc><c>Cu</c><c>   1</c></rc>
    <rc><c>Cu</c><c>   1</c></rc>
    <rc><c>Cu</c><c>   1</c></rc>
    <rc><c>Cu</c><c>   1</c></rc>
    <rc><c>Cu</c><c>   1</c></rc>
    <rc><c>Cu</c><c>   1</c></rc>
    <rc><c>Cu</c><c>   1</c></rc>
    <rc><c>Cu</c><c>   1</c></rc>
    <rc><c>Cu</c><c>   1</c></rc>
    <rc><c>Cu</c><c>   1</c></rc>
    <rc><c>Cu</c><c>   1</c></rc>
    <rc><c>Cu</c><c>   1</c></rc>
    <rc><c>Cu</c><c>   1</c></rc>
    <rc><c>Cu</c><c>   1</c></rc>
    <rc><c>Cu</c><c>   1</c></rc>
    <rc><c>Cu</c><c>   1</c></rc>
    <rc><c>Cu</c><c>   1</c></rc>
    <rc><c>Cu</c><c>   1</c></rc>
    <rc><c>Cu</c><c>   1</c></rc>
    <rc><c>Cu</c><c>   1</c></rc>
    <rc><c>Cu</c><c>   1</c></rc>
    <rc><c>Cu</c><c>   1</c></rc>
    <rc><c>Cu</c><c>   1</c></rc>
    <rc><c>Cu</c><c>   1</c></rc>
    <rc><c>Cu</c><c>   1</c></rc>
    <rc><c>Cu</c><c>   1</c></rc>
   </set>
  </array>
  <array name="atomtypes" >
   <dimension dim="1">type</dimension>
   <field type="int">atomspertype</field>
   <field type="string">element</field>
   <field>mass</field>
   <field>valence</field>
   <field type="string">pseudopotential</field>
   <set>
    <rc><c>  32</c><c>Cu</c><c>     63.54600000</c><c>     11.00000000</c><c> PAW_PBE Cu 05Jan2001                   </c></rc>
   </set>
  </array>
 </atominfo>
 <structure name="initialpos" >
  <crystal>
   <varray name="basis" >
    <v>       7.63647320      0.00000000      0.00000000</v>
    <v>       0.00000000      7.63647320      0.00000000</v>
    <v>       0.00000000      0.00000000      7.63647320</v>
   </varray>
   <i name="volume">    445.32645614</i>
   <varray name="rec_basis" >
    <v>       0.13095050      0.00000000      0.00000000</v>
    <v>       0.00000000      0.13095050      0.00000000</v>
    <v>       0.00000000      0.00000000      0.13095050</v>
   </varray>
  </crystal>
  <varray name="positions" >
   <v>       0.00130951      0.00000000      0.00000000</v>
   <v>       0.50000000      0.00000000      0.00000000</v>
   <v>       0.00000000      0.50000000      0.00000000</v>
   <v>       0.50000000      0.50000000      0.00000000</v>
   <v>       0.00000000      0.00000000      0.50000000</v>
   <v>       0.50000000      0.00000000      0.50000000</v>
   <v>       0.00000000      0.50000000      0.50000000</v>
   <v>       0.50000000      0.50000000      0.50000000</v>
   <v>       0.25000000      0.25000000      0.00000000</v>
   <v>       0.75000000      0.25000000      0.00000000</v>
   <v>       0.25000000      0.75000000      0.00000000</v>
   <v>       0.75000000      0.75000000      0.00000000</v>
   <v>       0.25000000      0.25000000      0.50000000</v>
   <v>       0.75000000      0.25000000      0.50000000</v>
   <v>       0.25000000      0.75000000      0.50000000</v>
   <v>       0.75000000      0.75000000      0.50000000</v>
   <v>       0.25000000      0.00000000      0.25000000</v>
   <v>       0.75000000      0.00000000      0.25000000</v>
   <v>       0.25000000      0.50000000      0.25000000</v>
   <v>       0.75000000      0.50000000      0.25000000</v>
   <v>       0.25000000      0.00000000      0.75000000</v>
   <v>       0.75000000      0.00000000      0.75000000</v>
   <v>       0.25000000      0.50000000      0.75000000</v>
   <v>       0.75000000      0.50000000      0.75000000</v>
   <v>       0.00000000      0.25000000      0.25000000</v>
   <v>       0.50000000      0.25000000      0.25000000</v>
   <v>       0.00000000      0.75000000      0.25000000</v>
   <v>       0.50000000      0.75000000      0.25000000</v>
   <v>       0.00000000      0.25000000      0.75000000</v>
   <v>       0.50000000      0.25000000      0.75000000</v>
   <v>       0.00000000      0.75000000      0.75000000</v>
   <v>       0.50000000      0.75000000      0.75000000</v>
  </varray>
 </structure>
 <calculation>
  <scstep>
   <time name="dav"> 1275.65 1371.58</time>
   <time name="total"> 1279.64 1378.30</time>
   <energy>
    <i name="alphaZ">   2937.81789222</i>
    <i name="ewald"> -33475.30839066</i>
    <i name="hartreedc"> -11458.29083701</i>
    <i name="XCdc">   1391.34930474</i>
    <i name="pawpsdc">  34625.67335558</i>
    <i name="pawaedc"> -39234.46421604</i>
    <i name="eentropy">     -0.00016633</i>
    <i name="bandstr">   4452.33926497</i>
    <i name="atom">  44511.34040493</i>
    <i name="e_fr_energy">   3750.45661238</i>
    <i name="e_wo_entrp">   3750.45677872</i>
    <i name="e_0_energy">   3750.45669555</i>
   </energy>
  </scstep>
  <scstep>
   <time name="dav"> 1266.72 1446.62</time>
   <time name="total"> 1266.98 1447.25</time>
   <energy>
    <i name="e_fr_energy">    386.50782479</i>
    <i name="e_wo_entrp">    386.50828910</i>
    <i name="e_0_energy">    386.50805694</i>
   </energy>
  </scstep>
  <scstep>
   <time name="dav"> 1475.60 1823.95</time>
   <time name="total"> 1476.16 1824.97</time>
   <energy>
    <i name="e_fr_energy">   -110.72440186</i>
    <i name="e_wo_entrp">   -110.72391731</i>
    <i name="e_0_energy">   -110.72415959</i>
   </energy>
  </scstep>
  <scstep>
   <time name="dav"> 6378.6811726.24</time>
   <time name="total"> 6379.6011728.81</time>
   <energy>
    <i name="e_fr_energy">   -140.97753360</i>
    <i name="e_wo_entrp">   -140.97629775</i>
    <i name="e_0_energy">   -140.97691567</i>
   </energy>
  </scstep>
  <scstep>
   <time name="dav"> 1769.94 1795.23</time>
   <time name="total"> 1873.26 1908.08</time>
   <energy>
    <i name="e_fr_energy">   -141.31844532</i>
    <i name="e_wo_entrp">   -141.31716509</i>
    <i name="e_0_energy">   -141.31780521</i>
   </energy>
  </scstep>
  <scstep>
   <time name="dav"> 1765.17 1765.34</time>
   <time name="total"> 1855.78 1860.01</time>
   <energy>
    <i name="e_fr_energy">   -129.18613017</i>
    <i name="e_wo_entrp">   -129.18549876</i>
    <i name="e_0_energy">   -129.18581447</i>
   </energy>
  </scstep>
  <scstep>
   <time name="dav"> 1926.01 2247.05</time>
   <time name="total"> 2059.78 2773.38</time>
   <energy>
    <i name="e_fr_energy">   -116.14558442</i>
    <i name="e_wo_entrp">   -116.14464432</i>
    <i name="e_0_energy">   -116.14511437</i>
   </energy>
  </scstep>
  <scstep>
   <time name="dav"> 4760.02 8762.43</time>
   <time name="total"> 5078.5311383.70</time>
   <energy>
    <i name="e_fr_energy">   -116.07867533</i>
    <i name="e_wo_entrp">   -116.07766623</i>
    <i name="e_0_energy">   -116.07817078</i>
   </energy>
  </scstep>
  <scstep>
   <time name="dav"> 8377.7617137.06</time>
   <time name="total"> 8514.1217456.58</time>
   <energy>
    <i name="e_fr_energy">   -115.95195414</i>
    <i name="e_wo_entrp">   -115.95100305</i>
    <i name="e_0_energy">   -115.95147859</i>
   </energy>
  </scstep>
  <scstep>
   <time name="dav"> 2068.80 3018.55</time>
   <time name="total"> 2274.95 3908.35</time>
   <energy>
    <i name="e_fr_energy">   -115.95365894</i>
    <i name="e_wo_entrp">   -115.95271677</i>
    <i name="e_0_energy">   -115.95318785</i>
   </energy>
  </scstep>
  <scstep>
   <time name="dav"> 1852.72 2512.62</time>
   <time name="total"> 1955.95 3260.19</time>
   <energy>
    <i name="e_fr_energy">   -115.95261398</i>
    <i name="e_wo_entrp">   -115.95164196</i>
    <i name="e_0_energy">   -115.95212797</i>
   </energy>
  </scstep>
  <scstep>
   <time name="dav"> 3026.25 5690.21</time>
   <time name="total"> 3858.91 8003.07</time>
   <energy>
    <i name="e_fr_energy">   -115.95263155</i>
    <i name="e_wo_entrp">   -115.95165814</i>
    <i name="e_0_energy">   -115.95214485</i>
   </energy>
  </scstep>
  <scstep>
   <time name="dav">10086.7521722.27</time>
   <time name="total">10496.9024345.36</time>
   <energy>
    <i name="e_fr_energy">   -115.95262693</i>
    <i name="e_wo_entrp">   -115.95165376</i>
    <i name="e_0_energy">   -115.95214034</i>
   </energy>
  </scstep>
  <scstep>
   <time name="dav">17940.7741727.95</time>
   <time name="total">18200.1642257.17</time>
   <energy>
    <i name="e_fr_energy">   -115.95262469</i>
    <i name="e_wo_entrp">   -115.95165197</i>
    <i name="e_0_energy">   -115.95213833</i>
   </energy>
  </scstep>
  <scstep>
   <time name="dav"> 1413.13 1653.37</time>
   <time name="total"> 1508.65 1813.17</time>
   <energy>
    <i name="e_fr_energy">   -115.95262420</i>
    <i name="e_wo_entrp">   -115.95165157</i>
    <i name="e_0_energy">   -115.95213788</i>
   </energy>
  </scstep>
  <scstep>
   <time name="dav"> 1860.33 1859.84</time>
   <time name="total"> 1981.60 1981.07</time>
   <energy>
    <i name="e_fr_energy">   -115.95262380</i>
    <i name="e_wo_entrp">   -115.95165123</i>
    <i name="e_0_energy">   -115.95213751</i>
   </energy>
  </scstep>
  <scstep>
   <time name="dav"> 1774.11 1773.76</time>
   <time name="total"> 1874.62 1874.27</time>
   <energy>
    <i name="e_fr_energy">   -115.95262463</i>
    <i name="e_wo_entrp">   -115.95165201</i>
    <i name="e_0_energy">   -115.95213832</i>
   </energy>
  </scstep>
  <scstep>
   <time name="dav"> 1165.42 1165.11</time>
   <time name="total"> 1283.65 1283.31</time>
   <energy>
    <i name="e_fr_energy">   -115.95262475</i>
    <i name="e_wo_entrp">   -115.95165212</i>
    <i name="e_0_energy">   -115.95213843</i>
   </energy>
  </scstep>
  <scstep>
   <time name="dav"> 1125.44 1125.16</time>
   <time name="total"> 1219.25 1218.96</time>
   <energy>
    <i name="e_fr_energy">   -115.95262482</i>
    <i name="e_wo_entrp">   -115.95165220</i>
    <i name="e_0_energy">   -115.95213851</i>
   </energy>
  </scstep>
  <scstep>
   <time name="dav"> 1132.85 1132.58</time>
   <time name="total"> 1240.25 1239.95</time>
   <energy>
    <i name="e_fr_energy">   -115.95262477</i>
    <i name="e_wo_entrp">   -115.95165215</i>
    <i name="e_0_energy">   -115.95213846</i>
   </energy>
  </scstep>
  <scstep>
   <time name="dav"> 1050.96 1050.66</time>
   <time name="total"> 1176.17 1175.84</time>
   <energy>
    <i name="e_fr_energy">   -115.95262475</i>
    <i name="e_wo_entrp">   -115.95165214</i>
    <i name="e_0_energy">   -115.95213844</i>
   </energy>
  </scstep>
  <scstep>
   <time name="dav"> 1184.37 1184.06</time>
   <time name="total"> 1186.44 1186.13</time>
   <energy>
    <i name="alphaZ">   2937.81789222</i>
    <i name="ewald"> -33475.30839066</i>
    <i name="hartreedc"> -10800.07024251</i>
    <i name="XCdc">   1359.90466709</i>
    <i name="pawpsdc">  34510.70788467</i>
    <i name="pawaedc"> -39124.13780755</i>
    <i name="eentropy">     -0.00097262</i>
    <i name="bandstr">    -36.20606031</i>
    <i name="atom">  44511.34040493</i>
    <i name="e_fr_energy">   -115.95262475</i>
    <i name="e_wo_entrp">   -115.95165213</i>
    <i name="e_0_energy">   -115.95213844</i>
   </energy>
  </scstep>
  <structure>
   <crystal>
    <varray name="basis" >
     <v>       7.63647320      0.00000000      0.00000000</v>
     <v>       0.00000000      7.63647320      0.00000000</v>
     <v>       0.00000000      0.00000000      7.63647320</v>
    </varray>
    <i name="volume">    445.32645614</i>
    <varray name="rec_basis" >
     <v>       0.13095050      0.00000000      0.00000000</v>
     <v>       0.00000000      0.13095050      0.00000000</v>
     <v>       0.00000000      0.00000000      0.13095050</v>
    </varray>
   </crystal>
   <varray name="positions" >
    <v>       0.00130951      0.00000000      0.00000000</v>
    <v>       0.50000000      0.00000000      0.00000000</v>
    <v>       0.00000000      0.50000000      0.00000000</v>
    <v>       0.50000000      0.50000000      0.00000000</v>
    <v>       0.00000000      0.00000000      0.50000000</v>
    <v>       0.50000000      0.00000000      0.50000000</v>
    <v>       0.00000000      0.50000000      0.50000000</v>
    <v>       0.50000000      0.50000000      0.50000000</v>
    <v>       0.25000000      0.25000000      0.00000000</v>
    <v>       0.75000000      0.25000000      0.00000000</v>
    <v>       0.25000000      0.75000000      0.00000000</v>
    <v>       0.75000000      0.75000000      0.00000000</v>
    <v>       0.25000000      0.25000000      0.50000000</v>
    <v>       0.75000000      0.25000000      0.50000000</v>
    <v>       0.25000000      0.75000000      0.50000000</v>
    <v>       0.75000000      0.75000000      0.50000000</v>
    <v>       0.25000000      0.00000000      0.25000000</v>
    <v>       0.75000000      0.00000000      0.25000000</v>
    <v>       0.25000000      0.50000000      0.25000000</v>
    <v>       0.75000000      0.50000000      0.25000000</v>
    <v>       0.25000000      0.00000000      0.75000000</v>
    <v>       0.75000000      0.00000000      0.75000000</v>
    <v>       0.25000000      0.50000000      0.75000000</v>
    <v>       0.75000000      0.50000000      0.75000000</v>
    <v>       0.00000000      0.25000000      0.25000000</v>
    <v>       0.50000000      0.25000000      0.25000000</v>
    <v>       0.00000000      0.75000000      0.25000000</v>
    <v>       0.50000000      0.75000000      0.25000000</v>
    <v>       0.00000000      0.25000000      0.75000000</v>
    <v>       0.50000000      0.25000000      0.75000000</v>
    <v>       0.00000000      0.75000000      0.75000000</v>
    <v>       0.50000000      0.75000000      0.75000000</v>
   </varray>
  </structure>
  <varray name="forces" >
   <v>      -0.03123078      0.00000000      0.00000000</v>
   <v>       0.00083917      0.00000000     -0.00000000</v>
   <v>      -0.00041738     -0.00000000     -0.00000000</v>
   <v>      -0.00034614      0.00000000      0.00000000</v>
   <v>      -0.00041738     -0.00000000     -0.00000000</v>
   <v>      -0.00034614      0.00000000     -0.00000000</v>
   <v>      -0.00013438      0.00000000     -0.00000000</v>
   <v>       0.00001858      0.00000000     -0.00000000</v>
   <v>       0.00346745      0.00370701      0.00000000</v>
   <v>       0.00331305     -0.00350646      0.00000000</v>
   <v>       0.00346745     -0.00370701      0.00000000</v>
   <v>       0.00331305      0.00350646     -0.00000000</v>
   <v>       0.00030923      0.00002615      0.00000000</v>
   <v>       0.00030952     -0.00002280     -0.00000000</v>
   <v>       0.00030923     -0.00002615      0.00000000</v>
   <v>       0.00030952      0.00002280     -0.00000000</v>
   <v>       0.00346745     -0.00000000      0.00370701</v>
   <v>       0.00331305      0.00000000     -0.00350646</v>
   <v>       0.00030923     -0.00000000      0.00002615</v>
   <v>       0.00030952     -0.00000000     -0.00002280</v>
   <v>       0.00346745      0.00000000     -0.00370701</v>
   <v>       0.00331305     -0.00000000      0.00350646</v>
   <v>       0.00030923     -0.00000000     -0.00002615</v>
   <v>       0.00030952     -0.00000000      0.00002280</v>
   <v>       0.00001139     -0.00000260     -0.00000260</v>
   <v>       0.00059797      0.00000325      0.00000325</v>
   <v>       0.00001139      0.00000260     -0.00000260</v>
   <v>       0.00059797     -0.00000325      0.00000325</v>
   <v>       0.00001139     -0.00000260      0.00000260</v>
   <v>       0.00059797      0.00000325     -0.00000325</v>
   <v>       0.00001139      0.00000260      0.00000260</v>
   <v>       0.00059797     -0.00000325     -0.00000325</v>
  </varray>
  <varray name="stress" >
   <v>    -138.30168807     -0.00000000      0.00000000</v>
   <v>      -0.00000000   -138.30194008      0.00000000</v>
   <v>       0.00000000      0.00000000   -138.30194008</v>
  </varray>
  <energy>
   <i name="e_fr_energy">   -115.95262475</i>
   <i name="e_wo_entrp">   -115.95213844</i>
   <i name="e_0_energy">     -0.00097262</i>
  </energy>
  <eigenvalues>
   <array>
    <dimension dim="1">band</dimension>
    <dimension dim="2">kpoint</dimension>
    <dimension dim="3">spin</dimension>
    <field>eigene</field>
    <field>occ</field>
    <set>
     <set comment="spin 1">
      <set comment="kpoint 1">
       <r>  -5.6699  1.0000</r>
       <r>  -3.1782  1.0000</r>
       <r>  -3.1753  1.0000</r>
       <r>  -3.1753  1.0000</r>
       <r>  -3.1753  1.0000</r>
       <r>  -3.1753  1.0000</r>
       <r>  -3.1725  1.0000</r>
       <r>  -1.7502  1.0000</r>
       <r>  -1.7502  1.0000</r>
       <r>  -1.7502  1.0000</r>
       <r>  -1.7502  1.0000</r>
       <r>  -1.5234  1.0000</r>
       <r>  -1.5234  1.0000</r>
       <r>  -1.5234  1.0000</r>
       <r>  -1.4600  1.0000</r>
       <r>  -1.4578  1.0000</r>
       <r>  -1.4578  1.0000</r>
       <r>  -1.4568  1.0000</r>
       <r>  -1.4567  1.0000</r>
       <r>  -1.4567  1.0000</r>
       <r>  -1.4567  1.0000</r>
       <r>  -1.4567  1.0000</r>
       <r>  -1.4565  1.0000</r>
       <r>  -1.4555  1.0000</r>
       <r>  -1.4555  1.0000</r>
       <r>  -1.4533  1.0000</r>
       <r>  -1.1675  1.0000</r>
       <r>  -1.1675  1.0000</r>
       <r>  -1.1675  1.0000</r>
       <r>  -0.9218  1.0000</r>
       <r>  -0.9203  1.0000</r>
       <r>  -0.9203  1.0000</r>
       <r>  -0.9203  1.0000</r>
       <r>  -0.9203  1.0000</r>
       <r>  -0.9189  1.0000</r>
       <r>  -0.6416  1.0000</r>
       <r>  -0.6403  1.0000</r>
       <r>  -0.6403  1.0000</r>
       <r>  -0.6403  1.0000</r>
       <r>  -0.6403  1.0000</r>
       <r>  -0.6390  1.0000</r>
       <r>  -0.4687  1.0000</r>
       <r>  -0.4673  1.0000</r>
       <r>  -0.4673  1.0000</r>
       <r>  -0.4655  1.0000</r>
       <r>  -0.4655  1.0000</r>
       <r>  -0.4654  1.0000</r>
       <r>  -0.4654  1.0000</r>
       <r>  -0.4653  1.0000</r>
       <r>  -0.4653  1.0000</r>
       <r>  -0.4653  1.0000</r>
       <r>  -0.4653  1.0000</r>
       <r>  -0.4652  1.0000</r>
       <r>  -0.4652  1.0000</r>
       <r>  -0.4651  1.0000</r>
       <r>  -0.4651  1.0000</r>
       <r>  -0.4650  1.0000</r>
       <r>  -0.4650  1.0000</r>
       <r>  -0.4650  1.0000</r>
       <r>  -0.4649  1.0000</r>
       <r>  -0.4649  1.0000</r>
       <r>  -0.4649  1.0000</r>
       <r>  -0.4630  1.0000</r>
       <r>  -0.4630  1.0000</r>
       <r>  -0.4618  1.0000</r>
       <r>  -0.2993  1.0000</r>
       <r>  -0.2974  1.0000</r>
       <r>  -0.2974  1.0000</r>
       <r>  -0.2972  1.0000</r>
       <r>  -0.2970  1.0000</r>
       <r>  -0.2970  1.0000</r>
       <r>  -0.2970  1.0000</r>
       <r>  -0.2970  1.0000</r>
       <r>  -0.2969  1.0000</r>
       <r>  -0.2966  1.0000</r>
       <r>  -0.2966  1.0000</r>
       <r>  -0.2948  1.0000</r>
       <r>  -0.1117  1.0000</r>
       <r>  -0.1116  1.0000</r>
       <r>  -0.1116  1.0000</r>
       <r>  -0.1116  1.0000</r>
       <r>  -0.1116  1.0000</r>
       <r>  -0.1116  1.0000</r>
       <r>  -0.1116  1.0000</r>
       <r>  -0.1116  1.0000</r>
       <r>  -0.0927  1.0000</r>
       <r>  -0.0927  1.0000</r>
       <r>  -0.0926  1.0000</r>
       <r>   0.2054  1.0000</r>
       <r>   0.2067  1.0000</r>
       <r>   0.2067  1.0000</r>
       <r>   0.2067  1.0000</r>
       <r>   0.2067  1.0000</r>
       <r>   0.2079  1.0000</r>
       <r>   0.3039  1.0000</r>
       <r>   0.3043  1.0000</r>
       <r>   0.3049  1.0000</r>
       <r>   0.3049  1.0000</r>
       <r>   0.3053  1.0000</r>
       <r>   0.3053  1.0000</r>
       <r>   0.3053  1.0000</r>
       <r>   0.3053  1.0000</r>
       <r>   0.3056  1.0000</r>
       <r>   0.3056  1.0000</r>
       <r>   0.3063  1.0000</r>
       <r>   0.3066  1.0000</r>
       <r>   0.4223  1.0000</r>
       <r>   0.4223  1.0000</r>
       <r>   0.4236  1.0000</r>
       <r>   0.4236  1.0000</r>
       <r>   0.4238  1.0000</r>
       <r>   0.4238  1.0000</r>
       <r>   0.4238  1.0000</r>
       <r>   0.4238  1.0000</r>
       <r>   0.4239  1.0000</r>
       <r>   0.4239  1.0000</r>
       <r>   0.4252  1.0000</r>
       <r>   0.4252  1.0000</r>
       <r>   0.5230  1.0000</r>
       <r>   0.5238  1.0000</r>
       <r>   0.5238  1.0000</r>
       <r>   0.5238  1.0000</r>
       <r>   0.5238  1.0000</r>
       <r>   0.5246  1.0000</r>
       <r>   0.5449  1.0000</r>
       <r>   0.5449  1.0000</r>
       <r>   0.5459  1.0000</r>
       <r>   0.5461  1.0000</r>
       <r>   0.5463  1.0000</r>
       <r>   0.5463  1.0000</r>
       <r>   0.5463  1.0000</r>
       <r>   0.5463  1.0000</r>
       <r>   0.5464  1.0000</r>
       <r>   0.5467  1.0000</r>
       <r>   0.5478  1.0000</r>
       <r>   0.5478  1.0000</r>
       <r>   0.5485  1.0000</r>
       <r>   0.5488  1.0000</r>
       <r>   0.7596  1.0000</r>
       <r>   0.7603  1.0000</r>
       <r>   0.7603  1.0000</r>
       <r>   0.7603  1.0000</r>
       <r>   0.7603  1.0000</r>
       <r>   0.7609  1.0000</r>
       <r>   0.9757  1.0000</r>
       <r>   0.9757  1.0000</r>
       <r>   0.9757  1.0000</r>
       <r>   0.9870  1.0000</r>
       <r>   0.9870  1.0000</r>
       <r>   0.9870  1.0000</r>
       <r>   0.9870  1.0000</r>
       <r>   0.9870  1.0000</r>
       <r>   0.9870  1.0000</r>
       <r>   0.9870  1.0000</r>
       <r>   0.9870  1.0000</r>
       <r>   1.0948  1.0000</r>
       <r>   1.0952  1.0000</r>
       <r>   1.0952  1.0000</r>
       <r>   1.0952  1.0000</r>
       <r>   1.0952  1.0000</r>
       <r>   1.0952  1.0000</r>
       <r>   1.0957  1.0000</r>
       <r>   1.0957  1.0000</r>
       <r>   1.0957  1.0000</r>
       <r>   1.0957  1.0000</r>
       <r>   1.0957  1.0000</r>
       <r>   1.0961  1.0000</r>
       <r>   1.9576  1.0000</r>
       <r>   1.9577  1.0000</r>
       <r>   1.9577  1.0000</r>
       <r>   1.9577  1.0000</r>
       <r>   2.1145  1.0000</r>
       <r>   2.1149  1.0000</r>
       <r>   2.1149  1.0000</r>
       <r>   2.1156  1.0000</r>
       <r>   2.1159  1.0000</r>
       <r>   2.1159  1.0000</r>
       <r>   2.1159  1.0000</r>
       <r>   2.1159  1.0000</r>
       <r>   2.1161  1.0000</r>
       <r>   2.1169  1.0000</r>
       <r>   2.1169  1.0000</r>
       <r>   2.1173  1.0000</r>
       <r>   4.1300  0.0000</r>
       <r>   4.1300  0.0000</r>
       <r>   4.1300  0.0000</r>
       <r>   5.4982  0.0000</r>
       <r>   5.4982  0.0000</r>
       <r>   5.4982  0.0000</r>
       <r>   5.4982  0.0000</r>
       <r>   8.1411  0.0000</r>
       <r>   8.1411  0.0000</r>
       <r>   8.1444  0.0000</r>
       <r>   8.1444  0.0000</r>
       <r>   8.1447  0.0000</r>
       <r>   8.1447  0.0000</r>
       <r>   8.1447  0.0000</r>
       <r>   8.1447  0.0000</r>
       <r>   8.1450  0.0000</r>
       <r>   8.1450  0.0000</r>
       <r>   8.1483  0.0000</r>
       <r>   8.1483  0.0000</r>
       <r>   8.5374  0.0000</r>
       <r>   8.5374  0.0000</r>
       <r>   8.5374  0.0000</r>
       <r>   9.9011  0.0000</r>
       <r>   9.9013  0.0000</r>
       <r>   9.9014  0.0000</r>
       <r>   9.9014  0.0000</r>
       <r>   9.9014  0.0000</r>
       <r>   9.9017  0.0000</r>
       <r>  10.0739  0.0000</r>
      </set>
      <set comment="kpoint 2">
       <r>  -5.6511  1.0000</r>
       <r>  -3.5321  1.0000</r>
       <r>  -3.1598  1.0000</r>
       <r>  -3.1598  1.0000</r>
       <r>  -3.1598  1.0000</r>
       <r>  -3.1598  1.0000</r>
       <r>  -2.8182  1.0000</r>
       <r>  -1.7465  1.0000</r>
       <r>  -1.7465  1.0000</r>
       <r>  -1.7465  1.0000</r>
       <r>  -1.7465  1.0000</r>
       <r>  -1.6489  1.0000</r>
       <r>  -1.6489  1.0000</r>
       <r>  -1.6489  1.0000</r>
       <r>  -1.6489  1.0000</r>
       <r>  -1.5239  1.0000</r>
       <r>  -1.5152  1.0000</r>
       <r>  -1.5152  1.0000</r>
       <r>  -1.4643  1.0000</r>
       <r>  -1.4643  1.0000</r>
       <r>  -1.4643  1.0000</r>
       <r>  -1.4643  1.0000</r>
       <r>  -1.2832  1.0000</r>
       <r>  -1.2832  1.0000</r>
       <r>  -1.2832  1.0000</r>
       <r>  -1.2831  1.0000</r>
       <r>  -1.1631  1.0000</r>
       <r>  -1.1629  1.0000</r>
       <r>  -1.1629  1.0000</r>
       <r>  -0.9344  1.0000</r>
       <r>  -0.9342  1.0000</r>
       <r>  -0.9142  1.0000</r>
       <r>  -0.9142  1.0000</r>
       <r>  -0.9142  1.0000</r>
       <r>  -0.9142  1.0000</r>
       <r>  -0.7103  1.0000</r>
       <r>  -0.6384  1.0000</r>
       <r>  -0.6384  1.0000</r>
       <r>  -0.6384  1.0000</r>
       <r>  -0.6383  1.0000</r>
       <r>  -0.5800  1.0000</r>
       <r>  -0.5800  1.0000</r>
       <r>  -0.5700  1.0000</r>
       <r>  -0.4795  1.0000</r>
       <r>  -0.4792  1.0000</r>
       <r>  -0.4792  1.0000</r>
       <r>  -0.4792  1.0000</r>
       <r>  -0.4719  1.0000</r>
       <r>  -0.4719  1.0000</r>
       <r>  -0.4719  1.0000</r>
       <r>  -0.4719  1.0000</r>
       <r>  -0.4646  1.0000</r>
       <r>  -0.4644  1.0000</r>
       <r>  -0.4644  1.0000</r>
       <r>  -0.4644  1.0000</r>
       <r>  -0.4549  1.0000</r>
       <r>  -0.4548  1.0000</r>
       <r>  -0.4548  1.0000</r>
       <r>  -0.4547  1.0000</r>
       <r>  -0.4455  1.0000</r>
       <r>  -0.4455  1.0000</r>
       <r>  -0.4455  1.0000</r>
       <r>  -0.4453  1.0000</r>
       <r>  -0.3515  1.0000</r>
       <r>  -0.3515  1.0000</r>
       <r>  -0.3515  1.0000</r>
       <r>  -0.3515  1.0000</r>
       <r>  -0.3397  1.0000</r>
       <r>  -0.3397  1.0000</r>
       <r>  -0.2935  1.0000</r>
       <r>  -0.2935  1.0000</r>
       <r>  -0.2935  1.0000</r>
       <r>  -0.2935  1.0000</r>
       <r>  -0.2533  1.0000</r>
       <r>  -0.2532  1.0000</r>
       <r>  -0.2532  1.0000</r>
       <r>  -0.2532  1.0000</r>
       <r>  -0.1145  1.0000</r>
       <r>  -0.1145  1.0000</r>
       <r>  -0.1145  1.0000</r>
       <r>  -0.1145  1.0000</r>
       <r>  -0.1074  1.0000</r>
       <r>  -0.1074  1.0000</r>
       <r>  -0.1074  1.0000</r>
       <r>  -0.1073  1.0000</r>
       <r>  -0.0974  1.0000</r>
       <r>  -0.0887  1.0000</r>
       <r>  -0.0887  1.0000</r>
       <r>   0.1827  1.0000</r>
       <r>   0.1827  1.0000</r>
       <r>   0.1827  1.0000</r>
       <r>   0.1827  1.0000</r>
       <r>   0.2108  1.0000</r>
       <r>   0.2361  1.0000</r>
       <r>   0.2866  1.0000</r>
       <r>   0.2866  1.0000</r>
       <r>   0.2866  1.0000</r>
       <r>   0.2866  1.0000</r>
       <r>   0.3040  1.0000</r>
       <r>   0.3040  1.0000</r>
       <r>   0.3040  1.0000</r>
       <r>   0.3040  1.0000</r>
       <r>   0.3248  1.0000</r>
       <r>   0.3248  1.0000</r>
       <r>   0.3249  1.0000</r>
       <r>   0.3249  1.0000</r>
       <r>   0.3491  1.0000</r>
       <r>   0.3491  1.0000</r>
       <r>   0.4237  1.0000</r>
       <r>   0.4237  1.0000</r>
       <r>   0.4237  1.0000</r>
       <r>   0.4237  1.0000</r>
       <r>   0.4447  1.0000</r>
       <r>   0.4447  1.0000</r>
       <r>   0.4447  1.0000</r>
       <r>   0.4447  1.0000</r>
       <r>   0.5009  1.0000</r>
       <r>   0.5009  1.0000</r>
       <r>   0.5110  1.0000</r>
       <r>   0.5110  1.0000</r>
       <r>   0.5110  1.0000</r>
       <r>   0.5110  1.0000</r>
       <r>   0.5239  1.0000</r>
       <r>   0.5240  1.0000</r>
       <r>   0.5240  1.0000</r>
       <r>   0.5240  1.0000</r>
       <r>   0.5351  1.0000</r>
       <r>   0.5352  1.0000</r>
       <r>   0.5442  1.0000</r>
       <r>   0.5502  1.0000</r>
       <r>   0.5653  1.0000</r>
       <r>   0.5653  1.0000</r>
       <r>   0.5653  1.0000</r>
       <r>   0.5654  1.0000</r>
       <r>   0.5890  1.0000</r>
       <r>   0.5890  1.0000</r>
       <r>   0.5890  1.0000</r>
       <r>   0.5890  1.0000</r>
       <r>   0.7324  1.0000</r>
       <r>   0.7652  1.0000</r>
       <r>   0.7652  1.0000</r>
       <r>   0.7652  1.0000</r>
       <r>   0.7652  1.0000</r>
       <r>   0.7882  1.0000</r>
       <r>   0.9459  1.0000</r>
       <r>   0.9459  1.0000</r>
       <r>   0.9459  1.0000</r>
       <r>   0.9459  1.0000</r>
       <r>   0.9702  1.0000</r>
       <r>   0.9702  1.0000</r>
       <r>   0.9739  1.0000</r>
       <r>   0.9823  1.0000</r>
       <r>   0.9823  1.0000</r>
       <r>   0.9823  1.0000</r>
       <r>   0.9823  1.0000</r>
       <r>   1.0679  1.0000</r>
       <r>   1.0679  1.0000</r>
       <r>   1.0885  1.0000</r>
       <r>   1.0885  1.0000</r>
       <r>   1.0885  1.0000</r>
       <r>   1.0885  1.0000</r>
       <r>   1.0885  1.0000</r>
       <r>   1.0885  1.0000</r>
       <r>   1.0949  1.0000</r>
       <r>   1.0952  1.0000</r>
       <r>   1.0957  1.0000</r>
       <r>   1.0960  1.0000</r>
       <r>   1.8778  1.0000</r>
       <r>   1.8778  1.0000</r>
       <r>   1.8778  1.0000</r>
       <r>   1.8778  1.0000</r>
       <r>   1.9695  1.0000</r>
       <r>   1.9695  1.0000</r>
       <r>   1.9695  1.0000</r>
       <r>   1.9695  1.0000</r>
       <r>   2.1156  1.0000</r>
       <r>   2.1156  1.0000</r>
       <r>   2.1156  1.0000</r>
       <r>   2.1156  1.0000</r>
       <r>   2.3985  1.0000</r>
       <r>   2.3985  1.0000</r>
       <r>   2.3985  1.0000</r>
       <r>   2.3985  1.0000</r>
       <r>   3.9824  0.0000</r>
       <r>   4.1746  0.0000</r>
       <r>   4.1746  0.0000</r>
       <r>   5.5612  0.0000</r>
       <r>   5.5612  0.0000</r>
       <r>   5.5612  0.0000</r>
       <r>   5.5613  0.0000</r>
       <r>   7.6334  0.0000</r>
       <r>   7.6334  0.0000</r>
       <r>   7.8337  0.0000</r>
       <r>   7.8337  0.0000</r>
       <r>   7.8338  0.0000</r>
       <r>   7.8338  0.0000</r>
       <r>   8.1695  0.0000</r>
       <r>   8.1695  0.0000</r>
       <r>   8.1695  0.0000</r>
       <r>   8.1695  0.0000</r>
       <r>   8.5456  0.0000</r>
       <r>   8.5456  0.0000</r>
       <r>   8.6764  0.0000</r>
       <r>   8.6764  0.0000</r>
       <r>   8.7240  0.0000</r>
       <r>   9.7107  0.0000</r>
       <r>   9.7107  0.0000</r>
       <r>   9.9768  0.0000</r>
       <r>   9.9768  0.0000</r>
       <r>   9.9768  0.0000</r>
       <r>   9.9768  0.0000</r>
       <r>  10.3017  0.0000</r>
      </set>
      <set comment="kpoint 3">
       <r>  -5.5948  1.0000</r>
       <r>  -3.8764  1.0000</r>
       <r>  -3.1134  1.0000</r>
       <r>  -3.1134  1.0000</r>
       <r>  -3.1134  1.0000</r>
       <r>  -3.1134  1.0000</r>
       <r>  -2.4781  1.0000</r>
       <r>  -1.8535  1.0000</r>
       <r>  -1.8534  1.0000</r>
       <r>  -1.8534  1.0000</r>
       <r>  -1.8534  1.0000</r>
       <r>  -1.7356  1.0000</r>
       <r>  -1.7356  1.0000</r>
       <r>  -1.7356  1.0000</r>
       <r>  -1.7356  1.0000</r>
       <r>  -1.5265  1.0000</r>
       <r>  -1.4911  1.0000</r>
       <r>  -1.4911  1.0000</r>
       <r>  -1.4856  1.0000</r>
       <r>  -1.4856  1.0000</r>
       <r>  -1.4856  1.0000</r>
       <r>  -1.4856  1.0000</r>
       <r>  -1.1499  1.0000</r>
       <r>  -1.1488  1.0000</r>
       <r>  -1.1488  1.0000</r>
       <r>  -1.1318  1.0000</r>
       <r>  -1.1318  1.0000</r>
       <r>  -1.1318  1.0000</r>
       <r>  -1.1318  1.0000</r>
       <r>  -0.9738  1.0000</r>
       <r>  -0.9737  1.0000</r>
       <r>  -0.8962  1.0000</r>
       <r>  -0.8962  1.0000</r>
       <r>  -0.8962  1.0000</r>
       <r>  -0.8962  1.0000</r>
       <r>  -0.7787  1.0000</r>
       <r>  -0.6844  1.0000</r>
       <r>  -0.6844  1.0000</r>
       <r>  -0.6325  1.0000</r>
       <r>  -0.6325  1.0000</r>
       <r>  -0.6325  1.0000</r>
       <r>  -0.6325  1.0000</r>
       <r>  -0.5006  1.0000</r>
       <r>  -0.4961  1.0000</r>
       <r>  -0.4960  1.0000</r>
       <r>  -0.4960  1.0000</r>
       <r>  -0.4960  1.0000</r>
       <r>  -0.4921  1.0000</r>
       <r>  -0.4921  1.0000</r>
       <r>  -0.4921  1.0000</r>
       <r>  -0.4921  1.0000</r>
       <r>  -0.4626  1.0000</r>
       <r>  -0.4625  1.0000</r>
       <r>  -0.4625  1.0000</r>
       <r>  -0.4625  1.0000</r>
       <r>  -0.4479  1.0000</r>
       <r>  -0.4479  1.0000</r>
       <r>  -0.4479  1.0000</r>
       <r>  -0.4477  1.0000</r>
       <r>  -0.4147  1.0000</r>
       <r>  -0.4147  1.0000</r>
       <r>  -0.4147  1.0000</r>
       <r>  -0.4147  1.0000</r>
       <r>  -0.3879  1.0000</r>
       <r>  -0.3879  1.0000</r>
       <r>  -0.3879  1.0000</r>
       <r>  -0.3878  1.0000</r>
       <r>  -0.2834  1.0000</r>
       <r>  -0.2834  1.0000</r>
       <r>  -0.2834  1.0000</r>
       <r>  -0.2834  1.0000</r>
       <r>  -0.2187  1.0000</r>
       <r>  -0.2187  1.0000</r>
       <r>  -0.2187  1.0000</r>
       <r>  -0.2187  1.0000</r>
       <r>  -0.2044  1.0000</r>
       <r>  -0.2044  1.0000</r>
       <r>  -0.1230  1.0000</r>
       <r>  -0.1230  1.0000</r>
       <r>  -0.1230  1.0000</r>
       <r>  -0.1230  1.0000</r>
       <r>  -0.1117  1.0000</r>
       <r>  -0.0946  1.0000</r>
       <r>  -0.0946  1.0000</r>
       <r>  -0.0946  1.0000</r>
       <r>  -0.0946  1.0000</r>
       <r>  -0.0770  1.0000</r>
       <r>  -0.0770  1.0000</r>
       <r>   0.1302  1.0000</r>
       <r>   0.1302  1.0000</r>
       <r>   0.1302  1.0000</r>
       <r>   0.1302  1.0000</r>
       <r>   0.2358  1.0000</r>
       <r>   0.2428  1.0000</r>
       <r>   0.2429  1.0000</r>
       <r>   0.2429  1.0000</r>
       <r>   0.2429  1.0000</r>
       <r>   0.2781  1.0000</r>
       <r>   0.2781  1.0000</r>
       <r>   0.3161  1.0000</r>
       <r>   0.3213  1.0000</r>
       <r>   0.3213  1.0000</r>
       <r>   0.3213  1.0000</r>
       <r>   0.3218  1.0000</r>
       <r>   0.3576  1.0000</r>
       <r>   0.3576  1.0000</r>
       <r>   0.3576  1.0000</r>
       <r>   0.3576  1.0000</r>
       <r>   0.4236  1.0000</r>
       <r>   0.4236  1.0000</r>
       <r>   0.4236  1.0000</r>
       <r>   0.4236  1.0000</r>
       <r>   0.4828  1.0000</r>
       <r>   0.4828  1.0000</r>
       <r>   0.4831  1.0000</r>
       <r>   0.4831  1.0000</r>
       <r>   0.4842  1.0000</r>
       <r>   0.4843  1.0000</r>
       <r>   0.4845  1.0000</r>
       <r>   0.4845  1.0000</r>
       <r>   0.5242  1.0000</r>
       <r>   0.5242  1.0000</r>
       <r>   0.5242  1.0000</r>
       <r>   0.5242  1.0000</r>
       <r>   0.5313  1.0000</r>
       <r>   0.5556  1.0000</r>
       <r>   0.5670  1.0000</r>
       <r>   0.5671  1.0000</r>
       <r>   0.5796  1.0000</r>
       <r>   0.5796  1.0000</r>
       <r>   0.6103  1.0000</r>
       <r>   0.6103  1.0000</r>
       <r>   0.6103  1.0000</r>
       <r>   0.6103  1.0000</r>
       <r>   0.6386  1.0000</r>
       <r>   0.6386  1.0000</r>
       <r>   0.6386  1.0000</r>
       <r>   0.6386  1.0000</r>
       <r>   0.7051  1.0000</r>
       <r>   0.7839  1.0000</r>
       <r>   0.7839  1.0000</r>
       <r>   0.7839  1.0000</r>
       <r>   0.7839  1.0000</r>
       <r>   0.8157  1.0000</r>
       <r>   0.8348  1.0000</r>
       <r>   0.8348  1.0000</r>
       <r>   0.8348  1.0000</r>
       <r>   0.8348  1.0000</r>
       <r>   0.9535  1.0000</r>
       <r>   0.9535  1.0000</r>
       <r>   0.9683  1.0000</r>
       <r>   0.9684  1.0000</r>
       <r>   0.9684  1.0000</r>
       <r>   0.9684  1.0000</r>
       <r>   0.9685  1.0000</r>
       <r>   0.9908  1.0000</r>
       <r>   0.9908  1.0000</r>
       <r>   1.0673  1.0000</r>
       <r>   1.0673  1.0000</r>
       <r>   1.0673  1.0000</r>
       <r>   1.0673  1.0000</r>
       <r>   1.0688  1.0000</r>
       <r>   1.0688  1.0000</r>
       <r>   1.0949  1.0000</r>
       <r>   1.0952  1.0000</r>
       <r>   1.0957  1.0000</r>
       <r>   1.0960  1.0000</r>
       <r>   1.6760  1.0000</r>
       <r>   1.6760  1.0000</r>
       <r>   1.6760  1.0000</r>
       <r>   1.6760  1.0000</r>
       <r>   1.9976  1.0000</r>
       <r>   1.9976  1.0000</r>
       <r>   1.9977  1.0000</r>
       <r>   1.9977  1.0000</r>
       <r>   2.1145  1.0000</r>
       <r>   2.1145  1.0000</r>
       <r>   2.1145  1.0000</r>
       <r>   2.1145  1.0000</r>
       <r>   2.7328  0.0000</r>
       <r>   2.7328  0.0000</r>
       <r>   2.7328  0.0000</r>
       <r>   2.7328  0.0000</r>
       <r>   3.6006  0.0000</r>
       <r>   4.3037  0.0000</r>
       <r>   4.3037  0.0000</r>
       <r>   5.7457  0.0000</r>
       <r>   5.7457  0.0000</r>
       <r>   5.7457  0.0000</r>
       <r>   5.7457  0.0000</r>
       <r>   7.1436  0.0000</r>
       <r>   7.1436  0.0000</r>
       <r>   7.2142  0.0000</r>
       <r>   7.2142  0.0000</r>
       <r>   7.2142  0.0000</r>
       <r>   7.2142  0.0000</r>
       <r>   8.2434  0.0000</r>
       <r>   8.2434  0.0000</r>
       <r>   8.2434  0.0000</r>
       <r>   8.2434  0.0000</r>
       <r>   8.5702  0.0000</r>
       <r>   8.5702  0.0000</r>
       <r>   9.2236  0.0000</r>
       <r>   9.2273  0.0000</r>
       <r>   9.2273  0.0000</r>
       <r>   9.4855  0.0000</r>
       <r>   9.4855  0.0000</r>
       <r>  10.0328  0.0000</r>
       <r>  10.0341  0.0000</r>
       <r>  10.0381  0.0000</r>
       <r>  10.0508  0.0000</r>
       <r>  10.0621  0.0000</r>
      </set>
      <set comment="kpoint 4">
       <r>  -5.5011  1.0000</r>
       <r>  -4.2002  1.0000</r>
       <r>  -3.0368  1.0000</r>
       <r>  -3.0368  1.0000</r>
       <r>  -3.0368  1.0000</r>
       <r>  -3.0368  1.0000</r>
       <r>  -2.1771  1.0000</r>
       <r>  -2.0625  1.0000</r>
       <r>  -2.0625  1.0000</r>
       <r>  -2.0625  1.0000</r>
       <r>  -2.0625  1.0000</r>
       <r>  -1.7178  1.0000</r>
       <r>  -1.7178  1.0000</r>
       <r>  -1.7178  1.0000</r>
       <r>  -1.7178  1.0000</r>
       <r>  -1.5337  1.0000</r>
       <r>  -1.5168  1.0000</r>
       <r>  -1.5168  1.0000</r>
       <r>  -1.5168  1.0000</r>
       <r>  -1.5168  1.0000</r>
       <r>  -1.4519  1.0000</r>
       <r>  -1.4518  1.0000</r>
       <r>  -1.1281  1.0000</r>
       <r>  -1.1253  1.0000</r>
       <r>  -1.1253  1.0000</r>
       <r>  -1.0332  1.0000</r>
       <r>  -1.0332  1.0000</r>
       <r>  -1.0031  1.0000</r>
       <r>  -1.0031  1.0000</r>
       <r>  -1.0031  1.0000</r>
       <r>  -1.0031  1.0000</r>
       <r>  -0.8671  1.0000</r>
       <r>  -0.8671  1.0000</r>
       <r>  -0.8671  1.0000</r>
       <r>  -0.8671  1.0000</r>
       <r>  -0.8445  1.0000</r>
       <r>  -0.7782  1.0000</r>
       <r>  -0.7782  1.0000</r>
       <r>  -0.6230  1.0000</r>
       <r>  -0.6230  1.0000</r>
       <r>  -0.6230  1.0000</r>
       <r>  -0.6230  1.0000</r>
       <r>  -0.5245  1.0000</r>
       <r>  -0.5245  1.0000</r>
       <r>  -0.5245  1.0000</r>
       <r>  -0.5244  1.0000</r>
       <r>  -0.5152  1.0000</r>
       <r>  -0.5151  1.0000</r>
       <r>  -0.5151  1.0000</r>
       <r>  -0.5151  1.0000</r>
       <r>  -0.4829  1.0000</r>
       <r>  -0.4829  1.0000</r>
       <r>  -0.4829  1.0000</r>
       <r>  -0.4829  1.0000</r>
       <r>  -0.4597  1.0000</r>
       <r>  -0.4596  1.0000</r>
       <r>  -0.4596  1.0000</r>
       <r>  -0.4596  1.0000</r>
       <r>  -0.4444  1.0000</r>
       <r>  -0.4443  1.0000</r>
       <r>  -0.4443  1.0000</r>
       <r>  -0.4443  1.0000</r>
       <r>  -0.4330  1.0000</r>
       <r>  -0.2962  1.0000</r>
       <r>  -0.2962  1.0000</r>
       <r>  -0.2962  1.0000</r>
       <r>  -0.2962  1.0000</r>
       <r>  -0.2674  1.0000</r>
       <r>  -0.2674  1.0000</r>
       <r>  -0.2674  1.0000</r>
       <r>  -0.2674  1.0000</r>
       <r>  -0.1892  1.0000</r>
       <r>  -0.1891  1.0000</r>
       <r>  -0.1891  1.0000</r>
       <r>  -0.1891  1.0000</r>
       <r>  -0.1367  1.0000</r>
       <r>  -0.1367  1.0000</r>
       <r>  -0.1367  1.0000</r>
       <r>  -0.1366  1.0000</r>
       <r>  -0.1350  1.0000</r>
       <r>  -0.0736  1.0000</r>
       <r>  -0.0736  1.0000</r>
       <r>  -0.0736  1.0000</r>
       <r>  -0.0736  1.0000</r>
       <r>  -0.0599  1.0000</r>
       <r>  -0.0599  1.0000</r>
       <r>  -0.0574  1.0000</r>
       <r>  -0.0574  1.0000</r>
       <r>   0.0707  1.0000</r>
       <r>   0.0708  1.0000</r>
       <r>   0.0708  1.0000</r>
       <r>   0.0708  1.0000</r>
       <r>   0.1897  1.0000</r>
       <r>   0.1897  1.0000</r>
       <r>   0.1897  1.0000</r>
       <r>   0.1897  1.0000</r>
       <r>   0.2116  1.0000</r>
       <r>   0.2116  1.0000</r>
       <r>   0.2731  1.0000</r>
       <r>   0.3528  1.0000</r>
       <r>   0.3528  1.0000</r>
       <r>   0.3528  1.0000</r>
       <r>   0.3528  1.0000</r>
       <r>   0.3963  1.0000</r>
       <r>   0.3963  1.0000</r>
       <r>   0.3963  1.0000</r>
       <r>   0.3963  1.0000</r>
       <r>   0.4236  1.0000</r>
       <r>   0.4236  1.0000</r>
       <r>   0.4236  1.0000</r>
       <r>   0.4237  1.0000</r>
       <r>   0.4619  1.0000</r>
       <r>   0.4619  1.0000</r>
       <r>   0.4619  1.0000</r>
       <r>   0.4619  1.0000</r>
       <r>   0.4700  1.0000</r>
       <r>   0.5102  1.0000</r>
       <r>   0.5122  1.0000</r>
       <r>   0.5122  1.0000</r>
       <r>   0.5122  1.0000</r>
       <r>   0.5123  1.0000</r>
       <r>   0.5229  1.0000</r>
       <r>   0.5229  1.0000</r>
       <r>   0.5229  1.0000</r>
       <r>   0.5229  1.0000</r>
       <r>   0.5645  1.0000</r>
       <r>   0.6144  1.0000</r>
       <r>   0.6144  1.0000</r>
       <r>   0.6581  1.0000</r>
       <r>   0.6581  1.0000</r>
       <r>   0.6653  1.0000</r>
       <r>   0.6653  1.0000</r>
       <r>   0.6653  1.0000</r>
       <r>   0.6653  1.0000</r>
       <r>   0.6783  1.0000</r>
       <r>   0.6783  1.0000</r>
       <r>   0.6783  1.0000</r>
       <r>   0.6783  1.0000</r>
       <r>   0.6788  1.0000</r>
       <r>   0.6939  1.0000</r>
       <r>   0.6940  1.0000</r>
       <r>   0.6940  1.0000</r>
       <r>   0.6940  1.0000</r>
       <r>   0.8256  1.0000</r>
       <r>   0.8256  1.0000</r>
       <r>   0.8256  1.0000</r>
       <r>   0.8256  1.0000</r>
       <r>   0.8423  1.0000</r>
       <r>   0.8750  1.0000</r>
       <r>   0.8750  1.0000</r>
       <r>   0.9262  1.0000</r>
       <r>   0.9262  1.0000</r>
       <r>   0.9455  1.0000</r>
       <r>   0.9455  1.0000</r>
       <r>   0.9455  1.0000</r>
       <r>   0.9455  1.0000</r>
       <r>   0.9592  1.0000</r>
       <r>   1.0333  1.0000</r>
       <r>   1.0333  1.0000</r>
       <r>   1.0333  1.0000</r>
       <r>   1.0333  1.0000</r>
       <r>   1.0366  1.0000</r>
       <r>   1.0366  1.0000</r>
       <r>   1.0949  1.0000</r>
       <r>   1.0953  1.0000</r>
       <r>   1.0956  1.0000</r>
       <r>   1.0960  1.0000</r>
       <r>   1.5024  1.0000</r>
       <r>   1.5024  1.0000</r>
       <r>   1.5024  1.0000</r>
       <r>   1.5025  1.0000</r>
       <r>   2.0293  1.0000</r>
       <r>   2.0294  1.0000</r>
       <r>   2.0294  1.0000</r>
       <r>   2.0294  1.0000</r>
       <r>   2.1123  1.0000</r>
       <r>   2.1123  1.0000</r>
       <r>   2.1123  1.0000</r>
       <r>   2.1123  1.0000</r>
       <r>   3.0942  0.0000</r>
       <r>   3.1229  0.0000</r>
       <r>   3.1229  0.0000</r>
       <r>   3.1229  0.0000</r>
       <r>   3.1230  0.0000</r>
       <r>   4.5061  0.0000</r>
       <r>   4.5061  0.0000</r>
       <r>   6.0393  0.0000</r>
       <r>   6.0393  0.0000</r>
       <r>   6.0393  0.0000</r>
       <r>   6.0394  0.0000</r>
       <r>   6.5363  0.0000</r>
       <r>   6.5363  0.0000</r>
       <r>   6.5363  0.0000</r>
       <r>   6.5363  0.0000</r>
       <r>   6.6766  0.0000</r>
       <r>   6.6766  0.0000</r>
       <r>   8.3653  0.0000</r>
       <r>   8.3653  0.0000</r>
       <r>   8.3653  0.0000</r>
       <r>   8.3653  0.0000</r>
       <r>   8.6119  0.0000</r>
       <r>   8.6119  0.0000</r>
       <r>   9.2868  0.0000</r>
       <r>   9.2868  0.0000</r>
       <r>   9.3455  0.0000</r>
       <r>   9.3455  0.0000</r>
       <r>   9.3455  0.0000</r>
       <r>   9.3455  0.0000</r>
       <r>   9.7960  0.0000</r>
       <r>   9.7960  0.0000</r>
       <r>   9.9306  0.0000</r>
       <r>   9.9819  0.0000</r>
      </set>
      <set comment="kpoint 5">
       <r>  -5.3707  1.0000</r>
       <r>  -4.4979  1.0000</r>
       <r>  -2.9313  1.0000</r>
       <r>  -2.9313  1.0000</r>
       <r>  -2.9313  1.0000</r>
       <r>  -2.9313  1.0000</r>
       <r>  -2.2680  1.0000</r>
       <r>  -2.2680  1.0000</r>
       <r>  -2.2680  1.0000</r>
       <r>  -2.2680  1.0000</r>
       <r>  -1.9354  1.0000</r>
       <r>  -1.6936  1.0000</r>
       <r>  -1.6936  1.0000</r>
       <r>  -1.6936  1.0000</r>
       <r>  -1.6936  1.0000</r>
       <r>  -1.5535  1.0000</r>
       <r>  -1.5535  1.0000</r>
       <r>  -1.5535  1.0000</r>
       <r>  -1.5535  1.0000</r>
       <r>  -1.5507  1.0000</r>
       <r>  -1.3989  1.0000</r>
       <r>  -1.3989  1.0000</r>
       <r>  -1.1053  1.0000</r>
       <r>  -1.1053  1.0000</r>
       <r>  -1.0981  1.0000</r>
       <r>  -1.0923  1.0000</r>
       <r>  -1.0923  1.0000</r>
       <r>  -0.9065  1.0000</r>
       <r>  -0.8959  1.0000</r>
       <r>  -0.8959  1.0000</r>
       <r>  -0.8959  1.0000</r>
       <r>  -0.8959  1.0000</r>
       <r>  -0.8615  1.0000</r>
       <r>  -0.8615  1.0000</r>
       <r>  -0.8289  1.0000</r>
       <r>  -0.8289  1.0000</r>
       <r>  -0.8289  1.0000</r>
       <r>  -0.8289  1.0000</r>
       <r>  -0.6101  1.0000</r>
       <r>  -0.6101  1.0000</r>
       <r>  -0.6101  1.0000</r>
       <r>  -0.6100  1.0000</r>
       <r>  -0.5668  1.0000</r>
       <r>  -0.5668  1.0000</r>
       <r>  -0.5668  1.0000</r>
       <r>  -0.5668  1.0000</r>
       <r>  -0.5512  1.0000</r>
       <r>  -0.5512  1.0000</r>
       <r>  -0.5512  1.0000</r>
       <r>  -0.5512  1.0000</r>
       <r>  -0.5355  1.0000</r>
       <r>  -0.5354  1.0000</r>
       <r>  -0.5354  1.0000</r>
       <r>  -0.5354  1.0000</r>
       <r>  -0.4561  1.0000</r>
       <r>  -0.4559  1.0000</r>
       <r>  -0.4559  1.0000</r>
       <r>  -0.4559  1.0000</r>
       <r>  -0.4436  1.0000</r>
       <r>  -0.4436  1.0000</r>
       <r>  -0.4436  1.0000</r>
       <r>  -0.4434  1.0000</r>
       <r>  -0.3690  1.0000</r>
       <r>  -0.2472  1.0000</r>
       <r>  -0.2472  1.0000</r>
       <r>  -0.2472  1.0000</r>
       <r>  -0.2472  1.0000</r>
       <r>  -0.1752  1.0000</r>
       <r>  -0.1752  1.0000</r>
       <r>  -0.1752  1.0000</r>
       <r>  -0.1752  1.0000</r>
       <r>  -0.1671  1.0000</r>
       <r>  -0.1596  1.0000</r>
       <r>  -0.1595  1.0000</r>
       <r>  -0.1595  1.0000</r>
       <r>  -0.1595  1.0000</r>
       <r>  -0.1547  1.0000</r>
       <r>  -0.1547  1.0000</r>
       <r>  -0.1547  1.0000</r>
       <r>  -0.1546  1.0000</r>
       <r>  -0.0448  1.0000</r>
       <r>  -0.0448  1.0000</r>
       <r>  -0.0448  1.0000</r>
       <r>  -0.0447  1.0000</r>
       <r>  -0.0302  1.0000</r>
       <r>  -0.0302  1.0000</r>
       <r>   0.0129  1.0000</r>
       <r>   0.0129  1.0000</r>
       <r>   0.0129  1.0000</r>
       <r>   0.0129  1.0000</r>
       <r>   0.0929  1.0000</r>
       <r>   0.0929  1.0000</r>
       <r>   0.1350  1.0000</r>
       <r>   0.1350  1.0000</r>
       <r>   0.1350  1.0000</r>
       <r>   0.1350  1.0000</r>
       <r>   0.1504  1.0000</r>
       <r>   0.1504  1.0000</r>
       <r>   0.3165  1.0000</r>
       <r>   0.3922  1.0000</r>
       <r>   0.3922  1.0000</r>
       <r>   0.3922  1.0000</r>
       <r>   0.3922  1.0000</r>
       <r>   0.4243  1.0000</r>
       <r>   0.4243  1.0000</r>
       <r>   0.4243  1.0000</r>
       <r>   0.4243  1.0000</r>
       <r>   0.4342  1.0000</r>
       <r>   0.4342  1.0000</r>
       <r>   0.4342  1.0000</r>
       <r>   0.4342  1.0000</r>
       <r>   0.4467  1.0000</r>
       <r>   0.4467  1.0000</r>
       <r>   0.4467  1.0000</r>
       <r>   0.4467  1.0000</r>
       <r>   0.4816  1.0000</r>
       <r>   0.4994  1.0000</r>
       <r>   0.4994  1.0000</r>
       <r>   0.4994  1.0000</r>
       <r>   0.4994  1.0000</r>
       <r>   0.5165  1.0000</r>
       <r>   0.5167  1.0000</r>
       <r>   0.5167  1.0000</r>
       <r>   0.5167  1.0000</r>
       <r>   0.5184  1.0000</r>
       <r>   0.5184  1.0000</r>
       <r>   0.5185  1.0000</r>
       <r>   0.5186  1.0000</r>
       <r>   0.5766  1.0000</r>
       <r>   0.6539  1.0000</r>
       <r>   0.6708  1.0000</r>
       <r>   0.6709  1.0000</r>
       <r>   0.7160  1.0000</r>
       <r>   0.7225  1.0000</r>
       <r>   0.7225  1.0000</r>
       <r>   0.7225  1.0000</r>
       <r>   0.7225  1.0000</r>
       <r>   0.7333  1.0000</r>
       <r>   0.7333  1.0000</r>
       <r>   0.7351  1.0000</r>
       <r>   0.7351  1.0000</r>
       <r>   0.7536  1.0000</r>
       <r>   0.7536  1.0000</r>
       <r>   0.7536  1.0000</r>
       <r>   0.7536  1.0000</r>
       <r>   0.8675  1.0000</r>
       <r>   0.8889  1.0000</r>
       <r>   0.8889  1.0000</r>
       <r>   0.8945  1.0000</r>
       <r>   0.8945  1.0000</r>
       <r>   0.8945  1.0000</r>
       <r>   0.8946  1.0000</r>
       <r>   0.9142  1.0000</r>
       <r>   0.9142  1.0000</r>
       <r>   0.9142  1.0000</r>
       <r>   0.9142  1.0000</r>
       <r>   0.9466  1.0000</r>
       <r>   0.9886  1.0000</r>
       <r>   0.9886  1.0000</r>
       <r>   0.9886  1.0000</r>
       <r>   0.9886  1.0000</r>
       <r>   0.9930  1.0000</r>
       <r>   0.9930  1.0000</r>
       <r>   1.0949  1.0000</r>
       <r>   1.0953  1.0000</r>
       <r>   1.0956  1.0000</r>
       <r>   1.0960  1.0000</r>
       <r>   1.3504  1.0000</r>
       <r>   1.3504  1.0000</r>
       <r>   1.3504  1.0000</r>
       <r>   1.3504  1.0000</r>
       <r>   2.0568  1.0000</r>
       <r>   2.0568  1.0000</r>
       <r>   2.0568  1.0000</r>
       <r>   2.0568  1.0000</r>
       <r>   2.1085  1.0000</r>
       <r>   2.1085  1.0000</r>
       <r>   2.1085  1.0000</r>
       <r>   2.1085  1.0000</r>
       <r>   2.5443  0.0000</r>
       <r>   3.5700  0.0000</r>
       <r>   3.5700  0.0000</r>
       <r>   3.5701  0.0000</r>
       <r>   3.5701  0.0000</r>
       <r>   4.7688  0.0000</r>
       <r>   4.7688  0.0000</r>
       <r>   5.8666  0.0000</r>
       <r>   5.8666  0.0000</r>
       <r>   5.8666  0.0000</r>
       <r>   5.8666  0.0000</r>
       <r>   6.2340  0.0000</r>
       <r>   6.2340  0.0000</r>
       <r>   6.4271  0.0000</r>
       <r>   6.4271  0.0000</r>
       <r>   6.4271  0.0000</r>
       <r>   6.4271  0.0000</r>
       <r>   8.5333  0.0000</r>
       <r>   8.5333  0.0000</r>
       <r>   8.5333  0.0000</r>
       <r>   8.5333  0.0000</r>
       <r>   8.6617  0.0000</r>
       <r>   8.6617  0.0000</r>
       <r>   8.6617  0.0000</r>
       <r>   8.6617  0.0000</r>
       <r>   8.6714  0.0000</r>
       <r>   8.6714  0.0000</r>
       <r>   9.1155  0.0000</r>
       <r>   9.1155  0.0000</r>
       <r>   9.6190  0.0000</r>
       <r>   9.6190  0.0000</r>
       <r>   9.6190  0.0000</r>
       <r>   9.6190  0.0000</r>
      </set>
      <set comment="kpoint 6">
       <r>  -5.2040  1.0000</r>
       <r>  -4.7660  1.0000</r>
       <r>  -2.7986  1.0000</r>
       <r>  -2.7986  1.0000</r>
       <r>  -2.7986  1.0000</r>
       <r>  -2.7986  1.0000</r>
       <r>  -2.4629  1.0000</r>
       <r>  -2.4629  1.0000</r>
       <r>  -2.4629  1.0000</r>
       <r>  -2.4629  1.0000</r>
       <r>  -1.7623  1.0000</r>
       <r>  -1.6638  1.0000</r>
       <r>  -1.6638  1.0000</r>
       <r>  -1.6638  1.0000</r>
       <r>  -1.6638  1.0000</r>
       <r>  -1.5920  1.0000</r>
       <r>  -1.5920  1.0000</r>
       <r>  -1.5920  1.0000</r>
       <r>  -1.5920  1.0000</r>
       <r>  -1.5857  1.0000</r>
       <r>  -1.3345  1.0000</r>
       <r>  -1.3345  1.0000</r>
       <r>  -1.1834  1.0000</r>
       <r>  -1.1834  1.0000</r>
       <r>  -1.0603  1.0000</r>
       <r>  -1.0496  1.0000</r>
       <r>  -1.0496  1.0000</r>
       <r>  -0.9637  1.0000</r>
       <r>  -0.9344  1.0000</r>
       <r>  -0.9344  1.0000</r>
       <r>  -0.8113  1.0000</r>
       <r>  -0.8113  1.0000</r>
       <r>  -0.8113  1.0000</r>
       <r>  -0.8113  1.0000</r>
       <r>  -0.7873  1.0000</r>
       <r>  -0.7873  1.0000</r>
       <r>  -0.7872  1.0000</r>
       <r>  -0.7872  1.0000</r>
       <r>  -0.6143  1.0000</r>
       <r>  -0.6140  1.0000</r>
       <r>  -0.6140  1.0000</r>
       <r>  -0.6140  1.0000</r>
       <r>  -0.6122  1.0000</r>
       <r>  -0.6122  1.0000</r>
       <r>  -0.6122  1.0000</r>
       <r>  -0.6119  1.0000</r>
       <r>  -0.5942  1.0000</r>
       <r>  -0.5942  1.0000</r>
       <r>  -0.5942  1.0000</r>
       <r>  -0.5942  1.0000</r>
       <r>  -0.5561  1.0000</r>
       <r>  -0.5560  1.0000</r>
       <r>  -0.5560  1.0000</r>
       <r>  -0.5560  1.0000</r>
       <r>  -0.4522  1.0000</r>
       <r>  -0.4519  1.0000</r>
       <r>  -0.4519  1.0000</r>
       <r>  -0.4519  1.0000</r>
       <r>  -0.4451  1.0000</r>
       <r>  -0.4450  1.0000</r>
       <r>  -0.4450  1.0000</r>
       <r>  -0.4447  1.0000</r>
       <r>  -0.3093  1.0000</r>
       <r>  -0.2240  1.0000</r>
       <r>  -0.2240  1.0000</r>
       <r>  -0.2240  1.0000</r>
       <r>  -0.2240  1.0000</r>
       <r>  -0.2075  1.0000</r>
       <r>  -0.1762  1.0000</r>
       <r>  -0.1762  1.0000</r>
       <r>  -0.1762  1.0000</r>
       <r>  -0.1762  1.0000</r>
       <r>  -0.1260  1.0000</r>
       <r>  -0.1260  1.0000</r>
       <r>  -0.1260  1.0000</r>
       <r>  -0.1259  1.0000</r>
       <r>  -0.0400  1.0000</r>
       <r>  -0.0400  1.0000</r>
       <r>  -0.0400  1.0000</r>
       <r>  -0.0400  1.0000</r>
       <r>  -0.0296  1.0000</r>
       <r>  -0.0296  1.0000</r>
       <r>  -0.0296  1.0000</r>
       <r>  -0.0296  1.0000</r>
       <r>  -0.0086  1.0000</r>
       <r>  -0.0086  1.0000</r>
       <r>  -0.0086  1.0000</r>
       <r>  -0.0086  1.0000</r>
       <r>   0.0045  1.0000</r>
       <r>   0.0045  1.0000</r>
       <r>   0.0825  1.0000</r>
       <r>   0.0825  1.0000</r>
       <r>   0.0825  1.0000</r>
       <r>   0.0825  1.0000</r>
       <r>   0.0951  1.0000</r>
       <r>   0.0951  1.0000</r>
       <r>   0.2519  1.0000</r>
       <r>   0.2519  1.0000</r>
       <r>   0.3147  1.0000</r>
       <r>   0.3147  1.0000</r>
       <r>   0.3147  1.0000</r>
       <r>   0.3147  1.0000</r>
       <r>   0.3618  1.0000</r>
       <r>   0.4261  1.0000</r>
       <r>   0.4261  1.0000</r>
       <r>   0.4261  1.0000</r>
       <r>   0.4261  1.0000</r>
       <r>   0.4333  1.0000</r>
       <r>   0.4334  1.0000</r>
       <r>   0.4334  1.0000</r>
       <r>   0.4334  1.0000</r>
       <r>   0.4363  1.0000</r>
       <r>   0.4364  1.0000</r>
       <r>   0.4364  1.0000</r>
       <r>   0.4364  1.0000</r>
       <r>   0.4465  1.0000</r>
       <r>   0.4667  1.0000</r>
       <r>   0.4667  1.0000</r>
       <r>   0.4667  1.0000</r>
       <r>   0.4667  1.0000</r>
       <r>   0.5008  1.0000</r>
       <r>   0.5008  1.0000</r>
       <r>   0.5008  1.0000</r>
       <r>   0.5008  1.0000</r>
       <r>   0.5085  1.0000</r>
       <r>   0.5085  1.0000</r>
       <r>   0.5085  1.0000</r>
       <r>   0.5085  1.0000</r>
       <r>   0.5771  1.0000</r>
       <r>   0.5771  1.0000</r>
       <r>   0.5919  1.0000</r>
       <r>   0.6309  1.0000</r>
       <r>   0.7306  1.0000</r>
       <r>   0.7307  1.0000</r>
       <r>   0.7779  1.0000</r>
       <r>   0.7779  1.0000</r>
       <r>   0.7779  1.0000</r>
       <r>   0.7779  1.0000</r>
       <r>   0.8087  1.0000</r>
[...]
       <r>   0.0406  1.0000</r>
       <r>   0.0408  1.0000</r>
       <r>   0.0408  1.0000</r>
       <r>   0.0410  1.0000</r>
       <r>   0.0528  1.0000</r>
       <r>   0.0528  1.0000</r>
       <r>   0.0529  1.0000</r>
       <r>   0.0529  1.0000</r>
       <r>   0.2989  1.0000</r>
       <r>   0.2989  1.0000</r>
       <r>   0.2989  1.0000</r>
       <r>   0.2989  1.0000</r>
       <r>   0.3376  1.0000</r>
       <r>   0.3376  1.0000</r>
       <r>   0.3378  1.0000</r>
       <r>   0.3378  1.0000</r>
       <r>   0.3378  1.0000</r>
       <r>   0.3378  1.0000</r>
       <r>   0.3380  1.0000</r>
       <r>   0.3380  1.0000</r>
       <r>   0.5111  1.0000</r>
       <r>   0.5114  1.0000</r>
       <r>   0.5114  1.0000</r>
       <r>   0.5115  1.0000</r>
       <r>   0.5198  1.0000</r>
       <r>   0.5198  1.0000</r>
       <r>   0.5201  1.0000</r>
       <r>   0.5202  1.0000</r>
       <r>   0.5202  1.0000</r>
       <r>   0.5203  1.0000</r>
       <r>   0.5206  1.0000</r>
       <r>   0.5206  1.0000</r>
       <r>   0.5233  1.0000</r>
       <r>   0.5233  1.0000</r>
       <r>   0.5233  1.0000</r>
       <r>   0.5235  1.0000</r>
       <r>   0.6345  1.0000</r>
       <r>   0.6345  1.0000</r>
       <r>   0.6345  1.0000</r>
       <r>   0.6345  1.0000</r>
       <r>   0.6416  1.0000</r>
       <r>   0.6416  1.0000</r>
       <r>   0.6416  1.0000</r>
       <r>   0.6416  1.0000</r>
       <r>   0.7215  1.0000</r>
       <r>   0.7215  1.0000</r>
       <r>   0.7215  1.0000</r>
       <r>   0.7216  1.0000</r>
       <r>   0.9929  1.0000</r>
       <r>   0.9929  1.0000</r>
       <r>   0.9930  1.0000</r>
       <r>   0.9930  1.0000</r>
       <r>   0.9930  1.0000</r>
       <r>   0.9930  1.0000</r>
       <r>   0.9931  1.0000</r>
       <r>   0.9931  1.0000</r>
       <r>   0.9997  1.0000</r>
       <r>   0.9997  1.0000</r>
       <r>   0.9998  1.0000</r>
       <r>   0.9998  1.0000</r>
       <r>   1.0086  1.0000</r>
       <r>   1.0086  1.0000</r>
       <r>   1.0087  1.0000</r>
       <r>   1.0088  1.0000</r>
       <r>   1.0088  1.0000</r>
       <r>   1.0088  1.0000</r>
       <r>   1.0089  1.0000</r>
       <r>   1.0089  1.0000</r>
       <r>   1.0091  1.0000</r>
       <r>   1.0091  1.0000</r>
       <r>   1.0092  1.0000</r>
       <r>   1.0092  1.0000</r>
       <r>   2.3205  1.0000</r>
       <r>   2.3205  1.0000</r>
       <r>   2.3205  1.0000</r>
       <r>   2.3205  1.0000</r>
       <r>   2.9614  0.0000</r>
       <r>   2.9614  0.0000</r>
       <r>   2.9617  0.0000</r>
       <r>   2.9617  0.0000</r>
       <r>   2.9617  0.0000</r>
       <r>   2.9617  0.0000</r>
       <r>   2.9620  0.0000</r>
       <r>   2.9620  0.0000</r>
       <r>   3.7462  0.0000</r>
       <r>   3.7462  0.0000</r>
       <r>   3.7470  0.0000</r>
       <r>   3.7470  0.0000</r>
       <r>   3.7470  0.0000</r>
       <r>   3.7470  0.0000</r>
       <r>   3.7478  0.0000</r>
       <r>   3.7478  0.0000</r>
       <r>   4.4861  0.0000</r>
       <r>   4.4861  0.0000</r>
       <r>   4.4861  0.0000</r>
       <r>   4.4861  0.0000</r>
       <r>   7.3248  0.0000</r>
       <r>   7.3248  0.0000</r>
       <r>   7.3254  0.0000</r>
       <r>   7.3254  0.0000</r>
       <r>   7.3254  0.0000</r>
       <r>   7.3254  0.0000</r>
       <r>   7.3260  0.0000</r>
       <r>   7.3260  0.0000</r>
       <r>   8.0239  0.0000</r>
       <r>   8.0239  0.0000</r>
       <r>   8.0239  0.0000</r>
       <r>   8.0239  0.0000</r>
       <r>   8.9853  0.0000</r>
       <r>   8.9853  0.0000</r>
       <r>   8.9853  0.0000</r>
       <r>   8.9853  0.0000</r>
       <r>   9.7069  0.0000</r>
       <r>   9.7071  0.0000</r>
       <r>   9.7071  0.0000</r>
       <r>   9.7073  0.0000</r>
      </set>
      <set comment="kpoint 195">
       <r>  -3.9421  1.0000</r>
       <r>  -3.9421  1.0000</r>
       <r>  -3.9421  1.0000</r>
       <r>  -3.9421  1.0000</r>
       <r>  -3.5585  1.0000</r>
       <r>  -3.5585  1.0000</r>
       <r>  -3.5585  1.0000</r>
       <r>  -3.5584  1.0000</r>
       <r>  -1.2823  1.0000</r>
       <r>  -1.2822  1.0000</r>
       <r>  -1.2822  1.0000</r>
       <r>  -1.2822  1.0000</r>
       <r>  -1.2195  1.0000</r>
       <r>  -1.2195  1.0000</r>
       <r>  -1.2193  1.0000</r>
       <r>  -1.2192  1.0000</r>
       <r>  -1.2192  1.0000</r>
       <r>  -1.2192  1.0000</r>
       <r>  -1.2189  1.0000</r>
       <r>  -1.2189  1.0000</r>
       <r>  -1.1683  1.0000</r>
       <r>  -1.1683  1.0000</r>
       <r>  -1.1678  1.0000</r>
       <r>  -1.1678  1.0000</r>
       <r>  -1.1678  1.0000</r>
       <r>  -1.1677  1.0000</r>
       <r>  -1.1672  1.0000</r>
       <r>  -1.1672  1.0000</r>
       <r>  -1.1325  1.0000</r>
       <r>  -1.1325  1.0000</r>
       <r>  -1.1325  1.0000</r>
       <r>  -1.1325  1.0000</r>
       <r>  -0.7635  1.0000</r>
       <r>  -0.7631  1.0000</r>
       <r>  -0.7630  1.0000</r>
       <r>  -0.7630  1.0000</r>
       <r>  -0.7616  1.0000</r>
       <r>  -0.7616  1.0000</r>
       <r>  -0.7612  1.0000</r>
       <r>  -0.7612  1.0000</r>
       <r>  -0.7612  1.0000</r>
       <r>  -0.7609  1.0000</r>
       <r>  -0.7609  1.0000</r>
       <r>  -0.7608  1.0000</r>
       <r>  -0.6566  1.0000</r>
       <r>  -0.6566  1.0000</r>
       <r>  -0.6564  1.0000</r>
       <r>  -0.6563  1.0000</r>
       <r>  -0.6563  1.0000</r>
       <r>  -0.6563  1.0000</r>
       <r>  -0.6560  1.0000</r>
       <r>  -0.6560  1.0000</r>
       <r>  -0.6520  1.0000</r>
       <r>  -0.6520  1.0000</r>
       <r>  -0.6520  1.0000</r>
       <r>  -0.6519  1.0000</r>
       <r>  -0.2777  1.0000</r>
       <r>  -0.2774  1.0000</r>
       <r>  -0.2774  1.0000</r>
       <r>  -0.2774  1.0000</r>
       <r>  -0.2688  1.0000</r>
       <r>  -0.2688  1.0000</r>
       <r>  -0.2688  1.0000</r>
       <r>  -0.2685  1.0000</r>
       <r>  -0.0950  1.0000</r>
       <r>  -0.0950  1.0000</r>
       <r>  -0.0950  1.0000</r>
       <r>  -0.0949  1.0000</r>
       <r>  -0.0858  1.0000</r>
       <r>  -0.0858  1.0000</r>
       <r>  -0.0849  1.0000</r>
       <r>  -0.0849  1.0000</r>
       <r>  -0.0849  1.0000</r>
       <r>  -0.0849  1.0000</r>
       <r>  -0.0840  1.0000</r>
       <r>  -0.0840  1.0000</r>
       <r>  -0.0223  1.0000</r>
       <r>  -0.0223  1.0000</r>
       <r>  -0.0216  1.0000</r>
       <r>  -0.0215  1.0000</r>
       <r>  -0.0215  1.0000</r>
       <r>  -0.0215  1.0000</r>
       <r>  -0.0208  1.0000</r>
       <r>  -0.0208  1.0000</r>
       <r>  -0.0064  1.0000</r>
       <r>  -0.0064  1.0000</r>
       <r>  -0.0064  1.0000</r>
       <r>  -0.0064  1.0000</r>
       <r>   0.0254  1.0000</r>
       <r>   0.0254  1.0000</r>
       <r>   0.0254  1.0000</r>
       <r>   0.0254  1.0000</r>
       <r>   0.0296  1.0000</r>
       <r>   0.0296  1.0000</r>
       <r>   0.0296  1.0000</r>
       <r>   0.0296  1.0000</r>
       <r>   0.0360  1.0000</r>
       <r>   0.0360  1.0000</r>
       <r>   0.0360  1.0000</r>
       <r>   0.0360  1.0000</r>
       <r>   0.0400  1.0000</r>
       <r>   0.0400  1.0000</r>
       <r>   0.0401  1.0000</r>
       <r>   0.0401  1.0000</r>
       <r>   0.3540  1.0000</r>
       <r>   0.3540  1.0000</r>
       <r>   0.3540  1.0000</r>
       <r>   0.3540  1.0000</r>
       <r>   0.3705  1.0000</r>
       <r>   0.3705  1.0000</r>
       <r>   0.3707  1.0000</r>
       <r>   0.3708  1.0000</r>
       <r>   0.3708  1.0000</r>
       <r>   0.3708  1.0000</r>
       <r>   0.3711  1.0000</r>
       <r>   0.3711  1.0000</r>
       <r>   0.4599  1.0000</r>
       <r>   0.4599  1.0000</r>
       <r>   0.4603  1.0000</r>
       <r>   0.4603  1.0000</r>
       <r>   0.4603  1.0000</r>
       <r>   0.4603  1.0000</r>
       <r>   0.4607  1.0000</r>
       <r>   0.4607  1.0000</r>
       <r>   0.4679  1.0000</r>
       <r>   0.4679  1.0000</r>
       <r>   0.4679  1.0000</r>
       <r>   0.4679  1.0000</r>
       <r>   0.5618  1.0000</r>
       <r>   0.5618  1.0000</r>
       <r>   0.5618  1.0000</r>
       <r>   0.5618  1.0000</r>
       <r>   0.6147  1.0000</r>
       <r>   0.6147  1.0000</r>
       <r>   0.6147  1.0000</r>
       <r>   0.6147  1.0000</r>
       <r>   0.6258  1.0000</r>
       <r>   0.6258  1.0000</r>
       <r>   0.6258  1.0000</r>
       <r>   0.6259  1.0000</r>
       <r>   0.6683  1.0000</r>
       <r>   0.6684  1.0000</r>
       <r>   0.6684  1.0000</r>
       <r>   0.6684  1.0000</r>
       <r>   1.0082  1.0000</r>
       <r>   1.0082  1.0000</r>
       <r>   1.0082  1.0000</r>
       <r>   1.0082  1.0000</r>
       <r>   1.0082  1.0000</r>
       <r>   1.0082  1.0000</r>
       <r>   1.0083  1.0000</r>
       <r>   1.0083  1.0000</r>
       <r>   1.0118  1.0000</r>
       <r>   1.0118  1.0000</r>
       <r>   1.0118  1.0000</r>
       <r>   1.0118  1.0000</r>
       <r>   1.0170  1.0000</r>
       <r>   1.0170  1.0000</r>
       <r>   1.0170  1.0000</r>
       <r>   1.0171  1.0000</r>
       <r>   1.0188  1.0000</r>
       <r>   1.0188  1.0000</r>
       <r>   1.0189  1.0000</r>
       <r>   1.0189  1.0000</r>
       <r>   1.0189  1.0000</r>
       <r>   1.0189  1.0000</r>
       <r>   1.0190  1.0000</r>
       <r>   1.0190  1.0000</r>
       <r>   2.7865  0.0000</r>
       <r>   2.7865  0.0000</r>
       <r>   2.7865  0.0000</r>
       <r>   2.7865  0.0000</r>
       <r>   3.1211  0.0000</r>
       <r>   3.1211  0.0000</r>
       <r>   3.1216  0.0000</r>
       <r>   3.1216  0.0000</r>
       <r>   3.1216  0.0000</r>
       <r>   3.1216  0.0000</r>
       <r>   3.1220  0.0000</r>
       <r>   3.1220  0.0000</r>
       <r>   3.5176  0.0000</r>
       <r>   3.5176  0.0000</r>
       <r>   3.5182  0.0000</r>
       <r>   3.5182  0.0000</r>
       <r>   3.5182  0.0000</r>
       <r>   3.5182  0.0000</r>
       <r>   3.5189  0.0000</r>
       <r>   3.5189  0.0000</r>
       <r>   3.8783  0.0000</r>
       <r>   3.8783  0.0000</r>
       <r>   3.8783  0.0000</r>
       <r>   3.8784  0.0000</r>
       <r>   7.8559  0.0000</r>
       <r>   7.8559  0.0000</r>
       <r>   7.8564  0.0000</r>
       <r>   7.8564  0.0000</r>
       <r>   7.8564  0.0000</r>
       <r>   7.8564  0.0000</r>
       <r>   7.8568  0.0000</r>
       <r>   7.8568  0.0000</r>
       <r>   8.2102  0.0000</r>
       <r>   8.2102  0.0000</r>
       <r>   8.2102  0.0000</r>
       <r>   8.2102  0.0000</r>
       <r>   8.6921  0.0000</r>
       <r>   8.6921  0.0000</r>
       <r>   8.6921  0.0000</r>
       <r>   8.6921  0.0000</r>
       <r>   9.0512  0.0000</r>
       <r>   9.0514  0.0000</r>
       <r>   9.0514  0.0000</r>
       <r>   9.0515  0.0000</r>
      </set>
      <set comment="kpoint 196">
       <r>  -3.7679  1.0000</r>
       <r>  -3.7645  1.0000</r>
       <r>  -3.7645  1.0000</r>
       <r>  -3.7641  1.0000</r>
       <r>  -3.7639  1.0000</r>
       <r>  -3.7635  1.0000</r>
       <r>  -3.7635  1.0000</r>
       <r>  -3.7602  1.0000</r>
       <r>  -1.1949  1.0000</r>
       <r>  -1.1940  1.0000</r>
       <r>  -1.1940  1.0000</r>
       <r>  -1.1937  1.0000</r>
       <r>  -1.1934  1.0000</r>
       <r>  -1.1932  1.0000</r>
       <r>  -1.1924  1.0000</r>
       <r>  -1.1924  1.0000</r>
       <r>  -1.1924  1.0000</r>
       <r>  -1.1923  1.0000</r>
       <r>  -1.1923  1.0000</r>
       <r>  -1.1923  1.0000</r>
       <r>  -1.1922  1.0000</r>
       <r>  -1.1922  1.0000</r>
       <r>  -1.1922  1.0000</r>
       <r>  -1.1921  1.0000</r>
       <r>  -1.1921  1.0000</r>
       <r>  -1.1921  1.0000</r>
       <r>  -1.1914  1.0000</r>
       <r>  -1.1911  1.0000</r>
       <r>  -1.1908  1.0000</r>
       <r>  -1.1905  1.0000</r>
       <r>  -1.1905  1.0000</r>
       <r>  -1.1896  1.0000</r>
       <r>  -0.7136  1.0000</r>
       <r>  -0.7130  1.0000</r>
       <r>  -0.7119  1.0000</r>
       <r>  -0.7119  1.0000</r>
       <r>  -0.7116  1.0000</r>
       <r>  -0.7112  1.0000</r>
       <r>  -0.7112  1.0000</r>
       <r>  -0.7112  1.0000</r>
       <r>  -0.7111  1.0000</r>
       <r>  -0.7110  1.0000</r>
       <r>  -0.7110  1.0000</r>
       <r>  -0.7110  1.0000</r>
       <r>  -0.7109  1.0000</r>
       <r>  -0.7109  1.0000</r>
       <r>  -0.7109  1.0000</r>
       <r>  -0.7108  1.0000</r>
       <r>  -0.7107  1.0000</r>
       <r>  -0.7107  1.0000</r>
       <r>  -0.7107  1.0000</r>
       <r>  -0.7104  1.0000</r>
       <r>  -0.7101  1.0000</r>
       <r>  -0.7101  1.0000</r>
       <r>  -0.7090  1.0000</r>
       <r>  -0.7084  1.0000</r>
       <r>  -0.2726  1.0000</r>
       <r>  -0.2711  1.0000</r>
       <r>  -0.2711  1.0000</r>
       <r>  -0.2710  1.0000</r>
       <r>  -0.2710  1.0000</r>
       <r>  -0.2710  1.0000</r>
       <r>  -0.2710  1.0000</r>
       <r>  -0.2695  1.0000</r>
       <r>  -0.0557  1.0000</r>
       <r>  -0.0557  1.0000</r>
       <r>  -0.0551  1.0000</r>
       <r>  -0.0550  1.0000</r>
       <r>  -0.0543  1.0000</r>
       <r>  -0.0536  1.0000</r>
       <r>  -0.0536  1.0000</r>
       <r>  -0.0536  1.0000</r>
       <r>  -0.0535  1.0000</r>
       <r>  -0.0535  1.0000</r>
       <r>  -0.0535  1.0000</r>
       <r>  -0.0535  1.0000</r>
       <r>  -0.0534  1.0000</r>
       <r>  -0.0534  1.0000</r>
       <r>  -0.0534  1.0000</r>
       <r>  -0.0534  1.0000</r>
       <r>  -0.0533  1.0000</r>
       <r>  -0.0533  1.0000</r>
       <r>  -0.0532  1.0000</r>
       <r>  -0.0526  1.0000</r>
       <r>  -0.0519  1.0000</r>
       <r>  -0.0517  1.0000</r>
       <r>  -0.0512  1.0000</r>
       <r>  -0.0512  1.0000</r>
       <r>   0.0310  1.0000</r>
       <r>   0.0310  1.0000</r>
       <r>   0.0313  1.0000</r>
       <r>   0.0314  1.0000</r>
       <r>   0.0317  1.0000</r>
       <r>   0.0317  1.0000</r>
       <r>   0.0318  1.0000</r>
       <r>   0.0318  1.0000</r>
       <r>   0.0320  1.0000</r>
       <r>   0.0320  1.0000</r>
       <r>   0.0321  1.0000</r>
       <r>   0.0322  1.0000</r>
       <r>   0.0325  1.0000</r>
       <r>   0.0326  1.0000</r>
       <r>   0.0328  1.0000</r>
       <r>   0.0328  1.0000</r>
       <r>   0.4085  1.0000</r>
       <r>   0.4092  1.0000</r>
       <r>   0.4092  1.0000</r>
       <r>   0.4104  1.0000</r>
       <r>   0.4105  1.0000</r>
       <r>   0.4105  1.0000</r>
       <r>   0.4105  1.0000</r>
       <r>   0.4107  1.0000</r>
       <r>   0.4108  1.0000</r>
       <r>   0.4108  1.0000</r>
       <r>   0.4108  1.0000</r>
       <r>   0.4108  1.0000</r>
       <r>   0.4109  1.0000</r>
       <r>   0.4109  1.0000</r>
       <r>   0.4109  1.0000</r>
       <r>   0.4109  1.0000</r>
       <r>   0.4110  1.0000</r>
       <r>   0.4112  1.0000</r>
       <r>   0.4112  1.0000</r>
       <r>   0.4112  1.0000</r>
       <r>   0.4113  1.0000</r>
       <r>   0.4125  1.0000</r>
       <r>   0.4125  1.0000</r>
       <r>   0.4132  1.0000</r>
       <r>   0.6130  1.0000</r>
       <r>   0.6139  1.0000</r>
       <r>   0.6139  1.0000</r>
       <r>   0.6139  1.0000</r>
       <r>   0.6144  1.0000</r>
       <r>   0.6144  1.0000</r>
       <r>   0.6146  1.0000</r>
       <r>   0.6146  1.0000</r>
       <r>   0.6147  1.0000</r>
       <r>   0.6147  1.0000</r>
       <r>   0.6149  1.0000</r>
       <r>   0.6149  1.0000</r>
       <r>   0.6154  1.0000</r>
       <r>   0.6154  1.0000</r>
       <r>   0.6154  1.0000</r>
       <r>   0.6163  1.0000</r>
       <r>   1.0174  1.0000</r>
       <r>   1.0174  1.0000</r>
       <r>   1.0175  1.0000</r>
       <r>   1.0175  1.0000</r>
       <r>   1.0176  1.0000</r>
       <r>   1.0176  1.0000</r>
       <r>   1.0176  1.0000</r>
       <r>   1.0177  1.0000</r>
       <r>   1.0177  1.0000</r>
       <r>   1.0178  1.0000</r>
       <r>   1.0178  1.0000</r>
       <r>   1.0178  1.0000</r>
       <r>   1.0179  1.0000</r>
       <r>   1.0179  1.0000</r>
       <r>   1.0179  1.0000</r>
       <r>   1.0180  1.0000</r>
       <r>   1.0180  1.0000</r>
       <r>   1.0181  1.0000</r>
       <r>   1.0181  1.0000</r>
       <r>   1.0181  1.0000</r>
       <r>   1.0181  1.0000</r>
       <r>   1.0182  1.0000</r>
       <r>   1.0183  1.0000</r>
       <r>   1.0183  1.0000</r>
       <r>   3.3030  0.0000</r>
       <r>   3.3051  0.0000</r>
       <r>   3.3051  0.0000</r>
       <r>   3.3076  0.0000</r>
       <r>   3.3079  0.0000</r>
       <r>   3.3081  0.0000</r>
       <r>   3.3081  0.0000</r>
       <r>   3.3081  0.0000</r>
       <r>   3.3082  0.0000</r>
       <r>   3.3082  0.0000</r>
       <r>   3.3082  0.0000</r>
       <r>   3.3082  0.0000</r>
       <r>   3.3084  0.0000</r>
       <r>   3.3084  0.0000</r>
       <r>   3.3084  0.0000</r>
       <r>   3.3084  0.0000</r>
       <r>   3.3084  0.0000</r>
       <r>   3.3085  0.0000</r>
       <r>   3.3085  0.0000</r>
       <r>   3.3087  0.0000</r>
       <r>   3.3090  0.0000</r>
       <r>   3.3114  0.0000</r>
       <r>   3.3114  0.0000</r>
       <r>   3.3136  0.0000</r>
       <r>   8.4276  0.0000</r>
       <r>   8.4281  0.0000</r>
       <r>   8.4300  0.0000</r>
       <r>   8.4327  0.0000</r>
       <r>   8.4329  0.0000</r>
       <r>   8.4329  0.0000</r>
       <r>   8.4330  0.0000</r>
       <r>   8.4332  0.0000</r>
       <r>   8.4332  0.0000</r>
       <r>   8.4333  0.0000</r>
       <r>   8.4333  0.0000</r>
       <r>   8.4334  0.0000</r>
       <r>   8.4334  0.0000</r>
       <r>   8.4335  0.0000</r>
       <r>   8.4336  0.0000</r>
       <r>   8.4338  0.0000</r>
       <r>   8.4339  0.0000</r>
       <r>   8.4343  0.0000</r>
       <r>   8.4356  0.0000</r>
       <r>   8.4362  0.0000</r>
      </set>
     </set>
    </set>
   </array>
  </eigenvalues>
 </calculation>
 <structure name="finalpos" >
  <crystal>
   <varray name="basis" >
    <v>       7.63647320      0.00000000      0.00000000</v>
    <v>       0.00000000      7.63647320      0.00000000</v>
    <v>       0.00000000      0.00000000      7.63647320</v>
   </varray>
   <i name="volume">    445.32645614</i>
   <varray name="rec_basis" >
    <v>       0.13095050      0.00000000      0.00000000</v>
    <v>       0.00000000      0.13095050      0.00000000</v>
    <v>       0.00000000      0.00000000      0.13095050</v>
   </varray>
  </crystal>
  <varray name="positions" >
   <v>       0.00130951      0.00000000      0.00000000</v>
   <v>       0.50000000      0.00000000      0.00000000</v>
   <v>       0.00000000      0.50000000      0.00000000</v>
   <v>       0.50000000      0.50000000      0.00000000</v>
   <v>       0.00000000      0.00000000      0.50000000</v>
   <v>       0.50000000      0.00000000      0.50000000</v>
   <v>       0.00000000      0.50000000      0.50000000</v>
   <v>       0.50000000      0.50000000      0.50000000</v>
   <v>       0.25000000      0.25000000      0.00000000</v>
   <v>       0.75000000      0.25000000      0.00000000</v>
   <v>       0.25000000      0.75000000      0.00000000</v>
   <v>       0.75000000      0.75000000      0.00000000</v>
   <v>       0.25000000      0.25000000      0.50000000</v>
   <v>       0.75000000      0.25000000      0.50000000</v>
   <v>       0.25000000      0.75000000      0.50000000</v>
   <v>       0.75000000      0.75000000      0.50000000</v>
   <v>       0.25000000      0.00000000      0.25000000</v>
   <v>       0.75000000      0.00000000      0.25000000</v>
   <v>       0.25000000      0.50000000      0.25000000</v>
   <v>       0.75000000      0.50000000      0.25000000</v>
   <v>       0.25000000      0.00000000      0.75000000</v>
   <v>       0.75000000      0.00000000      0.75000000</v>
   <v>       0.25000000      0.50000000      0.75000000</v>
   <v>       0.75000000      0.50000000      0.75000000</v>
   <v>       0.00000000      0.25000000      0.25000000</v>
   <v>       0.50000000      0.25000000      0.25000000</v>
   <v>       0.00000000      0.75000000      0.25000000</v>
   <v>       0.50000000      0.75000000      0.25000000</v>
   <v>       0.00000000      0.25000000      0.75000000</v>
   <v>       0.50000000      0.25000000      0.75000000</v>
   <v>       0.00000000      0.75000000      0.75000000</v>
   <v>       0.50000000      0.75000000      0.75000000</v>
  </varray>
 </structure>
</modeling>
