32   
1    

1    
  0.0100000000000000   0.0000000000000000   0.0000000000000000
  -0.0297403100   -0.0000000000    0.0000000000
   0.0021324500   -0.0000000000   -0.0000000000
   0.0000469200    0.0000000000    0.0000000000
   0.0001247200   -0.0000000000    0.0000000000
   0.0000469200    0.0000000000   -0.0000000000
   0.0001247200    0.0000000000    0.0000000000
  -0.0015704100    0.0000000000    0.0000000000
  -0.0012265100   -0.0000000000   -0.0000000000
  -0.0018366400    0.0000182600   -0.0000182600
  -0.0003338100   -0.0000267600    0.0000267600
  -0.0018366400   -0.0000182600   -0.0000182600
  -0.0003338100    0.0000267600    0.0000267600
  -0.0018366400    0.0000182600    0.0000182600
  -0.0003338100   -0.0000267600   -0.0000267600
  -0.0018366400   -0.0000182600    0.0000182600
  -0.0003338100    0.0000267600   -0.0000267600
   0.0041861700    0.0000000000   -0.0047422800
   0.0042604300   -0.0000000000    0.0048969100
   0.0006032100    0.0000000000    0.0009731900
   0.0006360300    0.0000000000   -0.0010261100
   0.0041861700   -0.0000000000    0.0047422800
   0.0042604300    0.0000000000   -0.0048969100
   0.0006032100   -0.0000000000   -0.0009731900
   0.0006360300    0.0000000000    0.0010261100
   0.0041861700    0.0047422800    0.0000000000
   0.0042604300   -0.0048969100    0.0000000000
   0.0041861700   -0.0047422800   -0.0000000000
   0.0042604300    0.0048969100    0.0000000000
   0.0006032100   -0.0009731900   -0.0000000000
   0.0006360300    0.0010261100    0.0000000000
   0.0006032100    0.0009731900    0.0000000000
   0.0006360300   -0.0010261100    0.0000000000
