       N       E                     dE             d eps       ncg     rms          rms(c)
DAV:   1     0.758378835998E+01    0.75838E+01   -0.40934E+03  2688   0.565E+02
DAV:   2    -0.139911531289E+02   -0.21575E+02   -0.20383E+02  3696   0.895E+01
DAV:   3    -0.146469122851E+02   -0.65576E+00   -0.65362E+00  3432   0.119E+01
DAV:   4    -0.146506675057E+02   -0.37552E-02   -0.37550E-02  3400   0.116E+00
DAV:   5    -0.146507122033E+02   -0.44698E-04   -0.44698E-04  3464   0.126E-01    0.201E+00
DAV:   6    -0.145880356678E+02    0.62677E-01   -0.35522E-03  3152   0.300E-01    0.125E+00
DAV:   7    -0.145430629252E+02    0.44973E-01   -0.11855E-02  2776   0.504E-01    0.502E-02
DAV:   8    -0.145431009561E+02   -0.38031E-04   -0.11266E-04  3752   0.749E-02    0.140E-02
DAV:   9    -0.145431042250E+02   -0.32689E-05   -0.47705E-06  3456   0.911E-03    0.127E-03
DAV:  10    -0.145431039698E+02    0.25521E-06   -0.62402E-08  3744   0.201E-03    0.483E-04
DAV:  11    -0.145431039062E+02    0.63623E-07   -0.12274E-09  2328   0.218E-04    0.300E-05
DAV:  12    -0.145431039005E+02    0.57022E-08   -0.15433E-10  2224   0.776E-05
   1 F= -.14543104E+02 E0= -.14542998E+02  d E =-.212176E-03
