<?xml version="1.0" encoding="ISO-8859-1"?>
<modeling>
 <generator>
  <i name="program" type="string">vasp</i>
  <i name="version" type="string">4.6.28 </i>
  <i name="subversion" type="string">25Jul05 complex  parallel</i>
  <i name="platform" type="string">LinuxIFC</i>
  <i name="date" type="string">2016 10 19</i>
  <i name="time" type="string">17:44:43</i>
 </generator>
 <incar>
  <i type="string" name="PREC">accurate</i>
  <i type="int" name="IALGO">    38</i>
  <i name="EDIFF">      0.00000001</i>
  <i type="int" name="IBRION">    -1</i>
  <i name="ENCUT">    500.00000000</i>
  <i type="logical" name="LREAL"> F  </i>
  <i type="int" name="ISMEAR">     0</i>
  <i name="SIGMA">      0.01000000</i>
  <i type="logical" name="LWAVE"> F  </i>
  <i type="logical" name="LCHARG"> F  </i>
 </incar>
 <kpoints>
  <generation param="Auto">
   <i name="subdivisionlength">     50.00000000</i>
   <v type="int" name="divisions">      13      13      13</v>
   <v name="usershift">      0.00000000      0.00000000      0.00000000</v>
   <v name="genvec1">      0.07692308      0.00000000      0.00000000</v>
   <v name="genvec2">      0.00000000      0.07692308      0.00000000</v>
   <v name="genvec3">      0.00000000      0.00000000      0.07692308</v>
   <v name="shift">      0.00000000      0.00000000      0.00000000</v>
  </generation>
  <varray name="kpointlist" >
   <v>       0.00000000      0.00000000      0.00000000</v>
   <v>       0.07692308      0.00000000      0.00000000</v>
   <v>       0.15384615      0.00000000      0.00000000</v>
   <v>       0.23076923      0.00000000      0.00000000</v>
   <v>       0.30769231      0.00000000      0.00000000</v>
   <v>       0.38461538      0.00000000      0.00000000</v>
   <v>       0.46153846      0.00000000      0.00000000</v>
   <v>       0.07692308      0.07692308      0.00000000</v>
   <v>       0.15384615      0.07692308      0.00000000</v>
   <v>       0.23076923      0.07692308      0.00000000</v>
   <v>       0.30769231      0.07692308      0.00000000</v>
   <v>       0.38461538      0.07692308      0.00000000</v>
   <v>       0.46153846      0.07692308      0.00000000</v>
   <v>       0.15384615      0.15384615      0.00000000</v>
   <v>       0.23076923      0.15384615      0.00000000</v>
   <v>       0.30769231      0.15384615      0.00000000</v>
   <v>       0.38461538      0.15384615      0.00000000</v>
   <v>       0.46153846      0.15384615      0.00000000</v>
   <v>       0.23076923      0.23076923      0.00000000</v>
   <v>       0.30769231      0.23076923      0.00000000</v>
   <v>       0.38461538      0.23076923      0.00000000</v>
   <v>       0.46153846      0.23076923      0.00000000</v>
   <v>       0.30769231      0.30769231      0.00000000</v>
   <v>       0.38461538      0.30769231      0.00000000</v>
   <v>       0.46153846      0.30769231      0.00000000</v>
   <v>       0.38461538      0.38461538      0.00000000</v>
   <v>       0.46153846      0.38461538      0.00000000</v>
   <v>       0.46153846      0.46153846      0.00000000</v>
   <v>       0.07692308      0.07692308      0.07692308</v>
   <v>       0.15384615      0.07692308      0.07692308</v>
   <v>       0.23076923      0.07692308      0.07692308</v>
   <v>       0.30769231      0.07692308      0.07692308</v>
   <v>       0.38461538      0.07692308      0.07692308</v>
   <v>       0.46153846      0.07692308      0.07692308</v>
   <v>       0.15384615      0.15384615      0.07692308</v>
   <v>       0.23076923      0.15384615      0.07692308</v>
   <v>       0.30769231      0.15384615      0.07692308</v>
   <v>       0.38461538      0.15384615      0.07692308</v>
   <v>       0.46153846      0.15384615      0.07692308</v>
   <v>       0.23076923      0.23076923      0.07692308</v>
   <v>       0.30769231      0.23076923      0.07692308</v>
   <v>       0.38461538      0.23076923      0.07692308</v>
   <v>       0.46153846      0.23076923      0.07692308</v>
   <v>       0.30769231      0.30769231      0.07692308</v>
   <v>       0.38461538      0.30769231      0.07692308</v>
   <v>       0.46153846      0.30769231      0.07692308</v>
   <v>       0.38461538      0.38461538      0.07692308</v>
   <v>       0.46153846      0.38461538      0.07692308</v>
   <v>       0.46153846      0.46153846      0.07692308</v>
   <v>       0.15384615      0.15384615      0.15384615</v>
   <v>       0.23076923      0.15384615      0.15384615</v>
   <v>       0.30769231      0.15384615      0.15384615</v>
   <v>       0.38461538      0.15384615      0.15384615</v>
   <v>       0.46153846      0.15384615      0.15384615</v>
   <v>       0.23076923      0.23076923      0.15384615</v>
   <v>       0.30769231      0.23076923      0.15384615</v>
   <v>       0.38461538      0.23076923      0.15384615</v>
   <v>       0.46153846      0.23076923      0.15384615</v>
   <v>       0.30769231      0.30769231      0.15384615</v>
   <v>       0.38461538      0.30769231      0.15384615</v>
   <v>       0.46153846      0.30769231      0.15384615</v>
   <v>       0.38461538      0.38461538      0.15384615</v>
   <v>       0.46153846      0.38461538      0.15384615</v>
   <v>       0.46153846      0.46153846      0.15384615</v>
   <v>       0.23076923      0.23076923      0.23076923</v>
   <v>       0.30769231      0.23076923      0.23076923</v>
   <v>       0.38461538      0.23076923      0.23076923</v>
   <v>       0.46153846      0.23076923      0.23076923</v>
   <v>       0.30769231      0.30769231      0.23076923</v>
   <v>       0.38461538      0.30769231      0.23076923</v>
   <v>       0.46153846      0.30769231      0.23076923</v>
   <v>       0.38461538      0.38461538      0.23076923</v>
   <v>       0.46153846      0.38461538      0.23076923</v>
   <v>       0.46153846      0.46153846      0.23076923</v>
   <v>       0.30769231      0.30769231      0.30769231</v>
   <v>       0.38461538      0.30769231      0.30769231</v>
   <v>       0.46153846      0.30769231      0.30769231</v>
   <v>       0.38461538      0.38461538      0.30769231</v>
   <v>       0.46153846      0.38461538      0.30769231</v>
   <v>       0.46153846      0.46153846      0.30769231</v>
   <v>       0.38461538      0.38461538      0.38461538</v>
   <v>       0.46153846      0.38461538      0.38461538</v>
   <v>       0.46153846      0.46153846      0.38461538</v>
   <v>       0.46153846      0.46153846      0.46153846</v>
  </varray>
  <varray name="weights" >
   <v>       0.00045517</v>
   <v>       0.00273100</v>
   <v>       0.00273100</v>
   <v>       0.00273100</v>
   <v>       0.00273100</v>
   <v>       0.00273100</v>
   <v>       0.00273100</v>
   <v>       0.00546199</v>
   <v>       0.01092399</v>
   <v>       0.01092399</v>
   <v>       0.01092399</v>
   <v>       0.01092399</v>
   <v>       0.01092399</v>
   <v>       0.00546199</v>
   <v>       0.01092399</v>
   <v>       0.01092399</v>
   <v>       0.01092399</v>
   <v>       0.01092399</v>
   <v>       0.00546199</v>
   <v>       0.01092399</v>
   <v>       0.01092399</v>
   <v>       0.01092399</v>
   <v>       0.00546199</v>
   <v>       0.01092399</v>
   <v>       0.01092399</v>
   <v>       0.00546199</v>
   <v>       0.01092399</v>
   <v>       0.00546199</v>
   <v>       0.00364133</v>
   <v>       0.01092399</v>
   <v>       0.01092399</v>
   <v>       0.01092399</v>
   <v>       0.01092399</v>
   <v>       0.01092399</v>
   <v>       0.01092399</v>
   <v>       0.02184797</v>
   <v>       0.02184797</v>
   <v>       0.02184797</v>
   <v>       0.02184797</v>
   <v>       0.01092399</v>
   <v>       0.02184797</v>
   <v>       0.02184797</v>
   <v>       0.02184797</v>
   <v>       0.01092399</v>
   <v>       0.02184797</v>
   <v>       0.02184797</v>
   <v>       0.01092399</v>
   <v>       0.02184797</v>
   <v>       0.01092399</v>
   <v>       0.00364133</v>
   <v>       0.01092399</v>
   <v>       0.01092399</v>
   <v>       0.01092399</v>
   <v>       0.01092399</v>
   <v>       0.01092399</v>
   <v>       0.02184797</v>
   <v>       0.02184797</v>
   <v>       0.02184797</v>
   <v>       0.01092399</v>
   <v>       0.02184797</v>
   <v>       0.02184797</v>
   <v>       0.01092399</v>
   <v>       0.02184797</v>
   <v>       0.01092399</v>
   <v>       0.00364133</v>
   <v>       0.01092399</v>
   <v>       0.01092399</v>
   <v>       0.01092399</v>
   <v>       0.01092399</v>
   <v>       0.02184797</v>
   <v>       0.02184797</v>
   <v>       0.01092399</v>
   <v>       0.02184797</v>
   <v>       0.01092399</v>
   <v>       0.00364133</v>
   <v>       0.01092399</v>
   <v>       0.01092399</v>
   <v>       0.01092399</v>
   <v>       0.02184797</v>
   <v>       0.01092399</v>
   <v>       0.00364133</v>
   <v>       0.01092399</v>
   <v>       0.01092399</v>
   <v>       0.00364133</v>
  </varray>
 </kpoints>
 <parameters>
  <separator name="general" >
   <i type="string" name="SYSTEM">unknown system</i>
   <i type="logical" name="LCOMPAT"> F  </i>
  </separator>
  <separator name="electronic" >
   <i type="string" name="PREC">accura</i>
   <i name="ENMAX">    500.00000000</i>
   <i name="ENAUG">    291.05200000</i>
   <i name="EDIFF">      0.00000001</i>
   <i type="int" name="IALGO">    38</i>
   <i type="int" name="IWAVPR">    10</i>
   <i type="int" name="NBANDS">    10</i>
   <i name="NELECT">     12.00000000</i>
   <separator name="electronic smearing" >
    <i type="int" name="ISMEAR">     0</i>
    <i name="SIGMA">      0.01000000</i>
   </separator>
   <separator name="electronic projectors" >
    <i type="logical" name="LREAL"> F  </i>
    <v name="ROPT">      0.00000000</v>
    <i type="int" name="LMAXPAW">  -100</i>
    <i type="int" name="LMAXMIX">     2</i>
   </separator>
   <separator name="electronic startup" >
    <i type="int" name="ISTART">     0</i>
    <i type="int" name="ICHARG">     2</i>
    <i type="int" name="INIWAV">     1</i>
   </separator>
   <separator name="electronic spin" >
    <i type="int" name="ISPIN">     1</i>
    <i type="logical" name="LNONCOLLINEAR"> F  </i>
    <v name="MAGMOM">      1.00000000      1.00000000      1.00000000      1.00000000</v>
    <i name="NUPDOWN">     -1.00000000</i>
    <i type="logical" name="LSORBIT"> F  </i>
    <v name="SAXIS">      0.00000000      0.00000000      1.00000000</v>
    <i type="logical" name="LSPIRAL"> F  </i>
    <v name="QSPIRAL">      0.00000000      0.00000000      0.00000000</v>
    <i type="logical" name="LZEROZ"> F  </i>
   </separator>
   <separator name="electronic exchange-correlation" >
    <i type="string" name="GGA">--</i>
    <i type="int" name="VOSKOWN">     0</i>
    <i type="logical" name="LASPH"> F  </i>
    <i type="logical" name="LMETAGGA"> F  </i>
    <i type="string" name="GGA2">--</i>
   </separator>
   <separator name="electronic convergence" >
    <i type="int" name="NELM">    60</i>
    <i type="int" name="NELMDL">     0</i>
    <i type="int" name="NELMIN">     2</i>
    <i name="ENINI">    500.00000000</i>
    <separator name="electronic convergence detail" >
     <i type="logical" name="LDIAG"> T  </i>
     <i name="WEIMIN">      0.00000000</i>
     <i name="EBREAK">      0.00000000</i>
     <i name="DEPER">      0.30000000</i>
     <i type="int" name="NRMM">     4</i>
     <i name="TIME">      0.10000000</i>
    </separator>
   </separator>
   <separator name="electronic mixer" >
    <i name="AMIX">      0.40000000</i>
    <i name="BMIX">      1.00000000</i>
    <i name="AMIN">      0.10000000</i>
    <i name="AMIX_MAG">      1.60000000</i>
    <i name="BMIX_MAG">      1.00000000</i>
    <separator name="electronic mixer details" >
     <i type="int" name="IMIX">     4</i>
     <i type="int" name="MAXMIX">   -45</i>
     <i name="WC">    100.00000000</i>
     <i type="int" name="INIMIX">     1</i>
     <i type="int" name="MIXPRE">     1</i>
     <i type="int" name="MREMOVE">     5</i>
    </separator>
   </separator>
   <separator name="electronic dipolcorrection" >
    <i type="int" name="IDIPOL">     0</i>
    <i type="logical" name="LDIPOL"> F  </i>
    <v name="DIPOL">   -100.00000000</v>
    <i name="EFIELD">      0.00000000</i>
   </separator>
  </separator>
  <separator name="grids" >
   <i type="int" name="NGX">    28</i>
   <i type="int" name="NGY">    28</i>
   <i type="int" name="NGZ">    28</i>
   <i type="int" name="NGXF">    56</i>
   <i type="int" name="NGYF">    56</i>
   <i type="int" name="NGZF">    56</i>
   <i type="logical" name="ADDGRID"> F  </i>
  </separator>
  <separator name="ionic" >
   <i type="int" name="NSW">     0</i>
   <i type="int" name="IBRION">    -1</i>
   <i type="int" name="ISIF">     2</i>
   <i name="PSTRESS">      0.00000000</i>
   <i name="EDIFFG">      0.00000010</i>
   <i type="int" name="NFREE">     0</i>
   <i name="POTIM">      0.50000000</i>
   <i name="SMASS">     -3.00000000</i>
  </separator>
  <separator name="ionic md" >
   <i name="TEBEG">      0.00010000</i>
   <i name="TEEND">      0.00010000</i>
   <i type="int" name="NBLOCK">     1</i>
   <i type="int" name="KBLOCK">     1</i>
   <i type="int" name="NPACO">   256</i>
   <i name="APACO">     16.00000000</i>
  </separator>
  <separator name="symmetry" >
   <i type="int" name="ISYM">     2</i>
   <i name="SYMPREC">      0.00001000</i>
  </separator>
  <separator name="dos" >
   <i type="logical" name="LORBIT"> F  </i>
   <v name="RWIGS">     -1.00000000</v>
   <i type="int" name="NEDOS">   301</i>
   <i name="EMIN">     10.00000000</i>
   <i name="EMAX">    -10.00000000</i>
  </separator>
  <separator name="writing" >
   <i type="int" name="NWRITE">     2</i>
   <i type="logical" name="LWAVE"> F  </i>
   <i type="logical" name="LCHARG"> F  </i>
   <i type="logical" name="LPARD"> F  </i>
   <i type="logical" name="LVTOT"> F  </i>
   <i type="logical" name="LELF"> F  </i>
   <i type="logical" name="LOPTICS"> F  </i>
   <i name="STM">      0.00000000</i>
  </separator>
  <separator name="performance" >
   <i type="int" name="NPAR">     8</i>
   <i type="int" name="NSIM">     4</i>
   <i type="int" name="NBLK">   160</i>
   <i type="logical" name="LPLANE"> T  </i>
   <i type="logical" name="LCRITICAL_MEM"> F  </i>
   <i type="logical" name="LSCALAPACK"> F  </i>
   <i type="logical" name="LSCALU"> F  </i>
   <i type="logical" name="LASYNC"> F  </i>
  </separator>
  <separator name="miscellaneous" >
   <i type="int" name="IDIOT">     3</i>
   <i type="logical" name="LMUSIC"> F  </i>
   <v name="POMASS">     26.98200000</v>
   <i type="logical" name="LCORR"> T  </i>
  </separator>
  <i type="logical" name="LREAL_COMPAT"> F  </i>
  <i type="logical" name="GGA_COMPAT"> T  </i>
  <i type="logical" name="LBERRY"> F  </i>
  <i type="int" name="ICORELEVEL">     0</i>
  <i type="logical" name="LDAU"> F  </i>
  <i type="int" name="I_CONSTRAINED_M">     0</i>
 </parameters>
 <atominfo>
  <atoms>       4</atoms>
  <types>       1</types>
  <array name="atoms" >
   <dimension dim="1">ion</dimension>
   <field type="string">element</field>
   <field type="int">atomtype</field>
   <set>
    <rc><c>Al</c><c>   1</c></rc>
    <rc><c>Al</c><c>   1</c></rc>
    <rc><c>Al</c><c>   1</c></rc>
    <rc><c>Al</c><c>   1</c></rc>
   </set>
  </array>
  <array name="atomtypes" >
   <dimension dim="1">type</dimension>
   <field type="int">atomspertype</field>
   <field type="string">element</field>
   <field>mass</field>
   <field>valence</field>
   <field type="string">pseudopotential</field>
   <set>
    <rc><c>   4</c><c>Al</c><c>     26.98200000</c><c>      3.00000000</c><c> PAW_PBE Al 04Jan2001                   </c></rc>
   </set>
  </array>
 </atominfo>
 <structure name="initialpos" >
  <crystal>
   <varray name="basis" >
    <v>       3.83544105      0.00000000      0.00000000</v>
    <v>       0.00000000      3.83544105      0.00000000</v>
    <v>       0.00000000      0.00000000      3.83544105</v>
   </varray>
   <i name="volume">     56.42167003</i>
   <varray name="rec_basis" >
    <v>       0.26072621      0.00000000      0.00000000</v>
    <v>       0.00000000      0.26072621      0.00000000</v>
    <v>       0.00000000      0.00000000      0.26072621</v>
   </varray>
  </crystal>
  <varray name="positions" >
   <v>       0.50000000      0.50000000      0.00000000</v>
   <v>       0.50000000      0.00000000      0.50000000</v>
   <v>       0.00000000      0.50000000      0.50000000</v>
   <v>       0.00000000      0.00000000      0.00000000</v>
  </varray>
 </structure>
 <calculation>
  <scstep>
   <time name="dav">    0.69    0.69</time>
   <time name="total">    0.70    0.71</time>
   <energy>
    <i name="alphaZ">     -0.95248850</i>
    <i name="ewald">   -309.84147110</i>
    <i name="hartreedc">     -0.26291379</i>
    <i name="XCdc">   -103.79929549</i>
    <i name="pawpsdc">    142.21701965</i>
    <i name="pawaedc">    -14.39593217</i>
    <i name="eentropy">     -0.00010050</i>
    <i name="bandstr">     80.46532873</i>
    <i name="atom">    214.15364153</i>
    <i name="e_fr_energy">      7.58378836</i>
    <i name="e_wo_entrp">      7.58388886</i>
    <i name="e_0_energy">      7.58383861</i>
   </energy>
  </scstep>
  <scstep>
   <time name="dav">    0.88    0.88</time>
   <time name="total">    0.88    0.88</time>
   <energy>
    <i name="e_fr_energy">    -13.99115313</i>
    <i name="e_wo_entrp">    -13.99105810</i>
    <i name="e_0_energy">    -13.99110562</i>
   </energy>
  </scstep>
  <scstep>
   <time name="dav">    0.82    0.83</time>
   <time name="total">    0.83    0.83</time>
   <energy>
    <i name="e_fr_energy">    -14.64691229</i>
    <i name="e_wo_entrp">    -14.64671292</i>
    <i name="e_0_energy">    -14.64681260</i>
   </energy>
  </scstep>
  <scstep>
   <time name="dav">    0.82    0.82</time>
   <time name="total">    0.82    0.82</time>
   <energy>
    <i name="e_fr_energy">    -14.65066751</i>
    <i name="e_wo_entrp">    -14.65046683</i>
    <i name="e_0_energy">    -14.65056717</i>
   </energy>
  </scstep>
  <scstep>
   <time name="dav">    0.83    0.83</time>
   <time name="total">    0.86    0.86</time>
   <energy>
    <i name="e_fr_energy">    -14.65071220</i>
    <i name="e_wo_entrp">    -14.65051153</i>
    <i name="e_0_energy">    -14.65061187</i>
   </energy>
  </scstep>
  <scstep>
   <time name="dav">    0.78    0.78</time>
   <time name="total">    0.82    0.82</time>
   <energy>
    <i name="e_fr_energy">    -14.58803567</i>
    <i name="e_wo_entrp">    -14.58782403</i>
    <i name="e_0_energy">    -14.58792985</i>
   </energy>
  </scstep>
  <scstep>
   <time name="dav">    0.70    0.70</time>
   <time name="total">    0.74    0.74</time>
   <energy>
    <i name="e_fr_energy">    -14.54306293</i>
    <i name="e_wo_entrp">    -14.54284970</i>
    <i name="e_0_energy">    -14.54295631</i>
   </energy>
  </scstep>
  <scstep>
   <time name="dav">    0.89    0.89</time>
   <time name="total">    0.94    0.94</time>
   <energy>
    <i name="e_fr_energy">    -14.54310096</i>
    <i name="e_wo_entrp">    -14.54288824</i>
    <i name="e_0_energy">    -14.54299460</i>
   </energy>
  </scstep>
  <scstep>
   <time name="dav">    0.83    0.83</time>
   <time name="total">    0.88    0.88</time>
   <energy>
    <i name="e_fr_energy">    -14.54310423</i>
    <i name="e_wo_entrp">    -14.54289206</i>
    <i name="e_0_energy">    -14.54299814</i>
   </energy>
  </scstep>
  <scstep>
   <time name="dav">    0.89    0.89</time>
   <time name="total">    0.93    0.94</time>
   <energy>
    <i name="e_fr_energy">    -14.54310397</i>
    <i name="e_wo_entrp">    -14.54289178</i>
    <i name="e_0_energy">    -14.54299788</i>
   </energy>
  </scstep>
  <scstep>
   <time name="dav">    0.63    0.63</time>
   <time name="total">    0.67    0.67</time>
   <energy>
    <i name="e_fr_energy">    -14.54310391</i>
    <i name="e_wo_entrp">    -14.54289173</i>
    <i name="e_0_energy">    -14.54299782</i>
   </energy>
  </scstep>
  <scstep>
   <time name="dav">    0.62    0.62</time>
   <time name="total">    0.63    0.64</time>
   <energy>
    <i name="alphaZ">     -0.95248850</i>
    <i name="ewald">   -309.84147110</i>
    <i name="hartreedc">     -0.57527175</i>
    <i name="XCdc">   -103.22135463</i>
    <i name="pawpsdc">    145.13623702</i>
    <i name="pawaedc">    -17.49385088</i>
    <i name="eentropy">     -0.00021218</i>
    <i name="bandstr">     58.25166660</i>
    <i name="atom">    214.15364153</i>
    <i name="e_fr_energy">    -14.54310390</i>
    <i name="e_wo_entrp">    -14.54289172</i>
    <i name="e_0_energy">    -14.54299781</i>
   </energy>
  </scstep>
  <structure>
   <crystal>
    <varray name="basis" >
     <v>       3.83544105      0.00000000      0.00000000</v>
     <v>       0.00000000      3.83544105      0.00000000</v>
     <v>       0.00000000      0.00000000      3.83544105</v>
    </varray>
    <i name="volume">     56.42167003</i>
    <varray name="rec_basis" >
     <v>       0.26072621      0.00000000      0.00000000</v>
     <v>       0.00000000      0.26072621      0.00000000</v>
     <v>       0.00000000      0.00000000      0.26072621</v>
    </varray>
   </crystal>
   <varray name="positions" >
    <v>       0.50000000      0.50000000      0.00000000</v>
    <v>       0.50000000      0.00000000      0.50000000</v>
    <v>       0.00000000      0.50000000      0.50000000</v>
    <v>       0.00000000      0.00000000      0.00000000</v>
   </varray>
  </structure>
  <varray name="forces" >
   <v>      -0.00000000     -0.00000000      0.00000000</v>
   <v>      -0.00000000      0.00000000     -0.00000000</v>
   <v>       0.00000000      0.00000000     -0.00000000</v>
   <v>      -0.00000000      0.00000000      0.00000000</v>
  </varray>
  <varray name="stress" >
   <v>     172.21329113      0.00000000      0.00000000</v>
   <v>      -0.00000000    172.21329113      0.00000000</v>
   <v>      -0.00000000     -0.00000000    172.21329113</v>
  </varray>
  <energy>
   <i name="e_fr_energy">    -14.54310390</i>
   <i name="e_wo_entrp">    -14.54299781</i>
   <i name="e_0_energy">     -0.00021218</i>
  </energy>
  <eigenvalues>
   <array>
    <dimension dim="1">band</dimension>
    <dimension dim="2">kpoint</dimension>
    <dimension dim="3">spin</dimension>
    <field>eigene</field>
    <field>occ</field>
    <set>
     <set comment="spin 1">
      <set comment="kpoint 1">
       <r>  -2.5256  1.0000</r>
       <r>   6.4351  1.0000</r>
       <r>   6.4351  1.0000</r>
       <r>   6.4351  1.0000</r>
       <r>   8.0623  1.0000</r>
       <r>   8.0623  1.0000</r>
       <r>   8.0623  1.0000</r>
       <r>  15.0230  0.0000</r>
       <r>  15.0230  0.0000</r>
       <r>  15.0230  0.0000</r>
       <r>  16.1239  0.0000</r>
       <r>  16.1239  0.0000</r>
       <r>  16.1239  0.0000</r>
       <r>  16.1239  0.0000</r>
       <r>  16.1239  0.0000</r>
       <r>  16.1239  0.0000</r>
      </set>
      <set comment="kpoint 2">
       <r>  -2.4661  1.0000</r>
       <r>   5.6328  1.0000</r>
       <r>   6.4884  1.0000</r>
       <r>   6.4884  1.0000</r>
       <r>   8.1161  1.0000</r>
       <r>   8.1161  1.0000</r>
       <r>   8.9635  1.0000</r>
       <r>  14.1105  0.0000</r>
       <r>  14.1105  0.0000</r>
       <r>  15.0819  0.0000</r>
       <r>  15.7583  0.0000</r>
       <r>  15.7583  0.0000</r>
       <r>  16.1724  0.0000</r>
       <r>  16.1724  0.0000</r>
       <r>  17.1468  0.0000</r>
       <r>  17.1468  0.0000</r>
      </set>
      <set comment="kpoint 3">
       <r>  -2.2878  1.0000</r>
       <r>   4.4310  1.0000</r>
       <r>   6.6483  1.0000</r>
       <r>   6.6483  1.0000</r>
       <r>   8.2759  1.0000</r>
       <r>   8.2759  1.0000</r>
       <r>  10.4622  0.0000</r>
       <r>  12.9118  0.0000</r>
       <r>  12.9118  0.0000</r>
       <r>  14.9435  0.0000</r>
       <r>  14.9435  0.0000</r>
       <r>  15.2584  0.0000</r>
       <r>  16.3180  0.0000</r>
       <r>  16.3180  0.0000</r>
       <r>  18.6763  0.0000</r>
       <r>  18.6763  0.0000</r>
      </set>
      <set comment="kpoint 4">
       <r>  -1.9913  1.0000</r>
       <r>   3.2688  1.0000</r>
       <r>   6.9150  1.0000</r>
       <r>   6.9150  1.0000</r>
       <r>   8.5349  1.0000</r>
       <r>   8.5349  1.0000</r>
       <r>  11.7910  0.0000</r>
       <r>  11.7910  0.0000</r>
       <r>  12.1188  0.0000</r>
       <r>  14.0130  0.0000</r>
       <r>  14.0130  0.0000</r>
       <r>  15.5522  0.0000</r>
       <r>  16.5608  0.0000</r>
       <r>  16.5608  0.0000</r>
       <r>  20.3469  0.0000</r>
       <r>  20.3469  0.0000</r>
      </set>
      <set comment="kpoint 5">
       <r>  -1.5774  1.0000</r>
       <r>   2.1947  1.0000</r>
       <r>   7.2887  1.0000</r>
       <r>   7.2887  1.0000</r>
       <r>   8.8765  1.0000</r>
       <r>   8.8765  1.0000</r>
       <r>  10.7720  0.0000</r>
       <r>  10.7720  0.0000</r>
       <r>  13.1181  0.0000</r>
       <r>  13.1181  0.0000</r>
       <r>  13.8838  0.0000</r>
       <r>  15.9629  0.0000</r>
       <r>  16.9010  0.0000</r>
       <r>  16.9010  0.0000</r>
       <r>  19.7039  0.0000</r>
       <r>  20.0481  0.0000</r>
      </set>
      <set comment="kpoint 6">
       <r>  -1.0474  1.0000</r>
       <r>   1.2213  1.0000</r>
       <r>   7.7697  1.0000</r>
       <r>   7.7697  1.0000</r>
       <r>   9.2584  1.0000</r>
       <r>   9.2584  1.0000</r>
       <r>   9.8595  0.0000</r>
       <r>   9.8595  0.0000</r>
       <r>  12.3513  0.0000</r>
       <r>  12.3513  0.0000</r>
       <r>  15.7426  0.0000</r>
       <r>  16.4895  0.0000</r>
       <r>  17.3387  0.0000</r>
       <r>  17.3387  0.0000</r>
       <r>  18.7441  0.0000</r>
       <r>  19.2314  0.0000</r>
      </set>
      <set comment="kpoint 7">
       <r>  -0.4028  1.0000</r>
       <r>   0.3542  1.0000</r>
       <r>   8.3584  1.0000</r>
       <r>   8.3584  1.0000</r>
       <r>   9.0549  1.0000</r>
       <r>   9.0549  1.0000</r>
       <r>   9.5612  1.0000</r>
       <r>   9.5612  1.0000</r>
       <r>  11.8523  0.0000</r>
       <r>  11.8523  0.0000</r>
       <r>  17.1305  0.0000</r>
       <r>  17.6849  0.0000</r>
       <r>  17.8736  0.0000</r>
       <r>  17.8736  0.0000</r>
       <r>  17.8835  0.0000</r>
       <r>  18.5051  0.0000</r>
      </set>
      <set comment="kpoint 8">
       <r>  -2.4066  1.0000</r>
       <r>   5.6874  1.0000</r>
       <r>   5.6874  1.0000</r>
       <r>   6.5417  1.0000</r>
       <r>   8.1689  1.0000</r>
       <r>   9.0155  1.0000</r>
       <r>   9.0155  1.0000</r>
       <r>  13.3863  0.0000</r>
       <r>  14.1661  0.0000</r>
       <r>  14.1661  0.0000</r>
       <r>  15.8090  0.0000</r>
       <r>  15.8090  0.0000</r>
       <r>  16.2222  0.0000</r>
       <r>  17.1211  0.0000</r>
       <r>  17.1985  0.0000</r>
       <r>  17.1985  0.0000</r>
      </set>
      <set comment="kpoint 9">
       <r>  -2.2285  1.0000</r>
       <r>   4.4867  1.0000</r>
       <r>   5.8508  1.0000</r>
       <r>   6.7016  1.0000</r>
       <r>   8.3244  1.0000</r>
       <r>   9.1694  1.0000</r>
       <r>  10.5108  0.0000</r>
       <r>  12.2646  0.0000</r>
       <r>  12.9665  0.0000</r>
       <r>  14.3327  0.0000</r>
       <r>  14.9989  0.0000</r>
       <r>  15.6461  0.0000</r>
       <r>  15.9613  0.0000</r>
       <r>  17.3538  0.0000</r>
       <r>  18.2951  0.0000</r>
       <r>  18.7287  0.0000</r>
      </set>
      <set comment="kpoint 10">
       <r>  -1.9321  1.0000</r>
       <r>   3.3253  1.0000</r>
       <r>   6.1227  1.0000</r>
       <r>   6.9684  1.0000</r>
       <r>   8.5695  1.0000</r>
       <r>   9.4173  1.0000</r>
       <r>  11.1888  0.0000</r>
       <r>  11.8453  0.0000</r>
       <r>  12.1612  0.0000</r>
       <r>  14.0762  0.0000</r>
       <r>  14.6101  0.0000</r>
       <r>  14.7214  0.0000</r>
       <r>  16.2167  0.0000</r>
       <r>  17.6127  0.0000</r>
       <r>  19.5413  0.0000</r>
       <r>  19.8971  0.0000</r>
      </set>
      <set comment="kpoint 11">
       <r>  -1.5184  1.0000</r>
       <r>   2.2517  1.0000</r>
       <r>   6.5017  1.0000</r>
       <r>   7.3422  1.0000</r>
       <r>   8.8513  1.0000</r>
       <r>   9.7382  0.0000</r>
       <r>  10.2569  0.0000</r>
       <r>  10.8261  0.0000</r>
       <r>  13.1980  0.0000</r>
       <r>  13.8089  0.0000</r>
       <r>  13.9122  0.0000</r>
       <r>  14.9976  0.0000</r>
       <r>  16.5798  0.0000</r>
       <r>  17.9754  0.0000</r>
       <r>  18.5365  0.0000</r>
       <r>  19.6804  0.0000</r>
      </set>
      <set comment="kpoint 12">
       <r>  -0.9887  1.0000</r>
       <r>   1.2788  1.0000</r>
       <r>   6.9854  1.0000</r>
       <r>   7.8233  1.0000</r>
       <r>   8.8337  1.0000</r>
       <r>   9.7949  0.0000</r>
       <r>   9.9135  0.0000</r>
       <r>  10.0693  0.0000</r>
       <r>  12.4800  0.0000</r>
       <r>  12.9947  0.0000</r>
       <r>  15.4943  0.0000</r>
       <r>  15.7230  0.0000</r>
       <r>  17.0765  0.0000</r>
       <r>  17.6235  0.0000</r>
       <r>  18.4419  0.0000</r>
       <r>  18.8497  0.0000</r>
      </set>
      <set comment="kpoint 13">
       <r>  -0.3444  1.0000</r>
       <r>   0.4123  1.0000</r>
       <r>   7.5680  1.0000</r>
       <r>   8.2288  1.0000</r>
       <r>   8.4120  1.0000</r>
       <r>   9.1087  1.0000</r>
       <r>  10.0267  0.0000</r>
       <r>  10.2254  0.0000</r>
       <r>  12.1340  0.0000</r>
       <r>  12.3683  0.0000</r>
       <r>  16.0989  0.0000</r>
       <r>  16.8095  0.0000</r>
       <r>  17.2713  0.0000</r>
       <r>  18.0192  0.0000</r>
       <r>  18.0863  0.0000</r>
       <r>  19.0115  0.0000</r>
      </set>
      <set comment="kpoint 14">
       <r>  -2.0506  1.0000</r>
       <r>   4.6534  1.0000</r>
       <r>   4.6534  1.0000</r>
       <r>   6.8617  1.0000</r>
       <r>   8.4604  1.0000</r>
       <r>  10.6527  0.0000</r>
       <r>  10.6527  0.0000</r>
       <r>  11.2014  0.0000</r>
       <r>  13.1305  0.0000</r>
       <r>  13.1305  0.0000</r>
       <r>  15.1669  0.0000</r>
       <r>  15.1669  0.0000</r>
       <r>  16.5174  0.0000</r>
       <r>  17.9306  0.0000</r>
       <r>  18.8859  0.0000</r>
       <r>  18.8859  0.0000</r>
      </set>
      <set comment="kpoint 15">
       <r>  -1.7546  1.0000</r>
       <r>   3.4944  1.0000</r>
       <r>   4.9306  1.0000</r>
       <r>   7.1286  1.0000</r>
       <r>   8.6283  1.0000</r>
       <r>  10.2202  0.0000</r>
       <r>  10.8724  0.0000</r>
       <r>  12.0083  0.0000</r>
       <r>  12.2789  0.0000</r>
       <r>  13.4038  0.0000</r>
       <r>  14.2725  0.0000</r>
       <r>  15.4554  0.0000</r>
       <r>  16.0125  0.0000</r>
       <r>  18.3248  0.0000</r>
       <r>  19.0634  0.0000</r>
       <r>  19.1478  0.0000</r>
      </set>
      <set comment="kpoint 16">
       <r>  -1.3416  1.0000</r>
       <r>   2.4228  1.0000</r>
       <r>   5.3171  1.0000</r>
       <r>   7.5026  1.0000</r>
       <r>   8.5151  1.0000</r>
       <r>   9.7000  0.8223</r>
       <r>  10.9884  0.0000</r>
       <r>  11.1179  0.0000</r>
       <r>  13.4659  0.0000</r>
       <r>  13.7859  0.0000</r>
       <r>  13.9641  0.0000</r>
       <r>  15.1436  0.0000</r>
       <r>  15.8974  0.0000</r>
       <r>  17.3090  0.0000</r>
       <r>  18.8713  0.0000</r>
       <r>  19.5138  0.0000</r>
      </set>
      <set comment="kpoint 17">
       <r>  -0.8126  1.0000</r>
       <r>   1.4515  1.0000</r>
       <r>   5.8107  1.0000</r>
       <r>   7.8532  1.0000</r>
       <r>   7.9840  1.0000</r>
       <r>   9.9167  0.0000</r>
       <r>  10.0753  0.0000</r>
       <r>  11.2137  0.0000</r>
       <r>  12.9757  0.0000</r>
       <r>  14.2767  0.0000</r>
       <r>  14.3117  0.0000</r>
       <r>  15.5041  0.0000</r>
       <r>  16.3933  0.0000</r>
       <r>  16.6814  0.0000</r>
       <r>  18.0257  0.0000</r>
       <r>  19.9827  0.0000</r>
      </set>
      <set comment="kpoint 18">
       <r>  -0.1693  1.0000</r>
       <r>   0.5862  1.0000</r>
       <r>   6.4075  1.0000</r>
       <r>   7.0983  1.0000</r>
       <r>   8.5730  1.0000</r>
       <r>   9.2701  1.0000</r>
       <r>  10.3970  0.0000</r>
       <r>  10.9129  0.0000</r>
       <r>  13.0729  0.0000</r>
       <r>  13.5927  0.0000</r>
       <r>  14.8755  0.0000</r>
       <r>  15.5815  0.0000</r>
       <r>  16.4854  0.0000</r>
       <r>  17.2428  0.0000</r>
       <r>  18.2102  0.0000</r>
       <r>  20.1362  0.0000</r>
      </set>
      <set comment="kpoint 19">
       <r>  -1.4595  1.0000</r>
       <r>   3.7757  1.0000</r>
       <r>   3.7757  1.0000</r>
       <r>   7.3957  1.0000</r>
       <r>   8.4065  1.0000</r>
       <r>   9.6347  1.0000</r>
       <r>  12.2799  0.0000</r>
       <r>  12.2799  0.0000</r>
       <r>  12.4259  0.0000</r>
       <r>  12.4259  0.0000</r>
       <r>  14.6381  0.0000</r>
       <r>  14.6381  0.0000</r>
       <r>  17.0105  0.0000</r>
       <r>  17.2018  0.0000</r>
       <r>  18.6715  0.0000</r>
       <r>  18.8543  0.0000</r>
      </set>
      <set comment="kpoint 20">
       <r>  -1.0474  1.0000</r>
       <r>   2.7073  1.0000</r>
       <r>   4.1680  1.0000</r>
       <r>   7.6490  1.0000</r>
       <r>   7.7701  1.0000</r>
       <r>   9.7634  0.0000</r>
       <r>  11.2590  0.0000</r>
       <r>  12.4295  0.0000</r>
       <r>  12.6600  0.0000</r>
       <r>  13.8641  0.0000</r>
       <r>  14.0732  0.0000</r>
       <r>  15.3350  0.0000</r>
       <r>  16.1797  0.0000</r>
       <r>  16.6189  0.0000</r>
       <r>  17.9457  0.0000</r>
       <r>  19.8473  0.0000</r>
      </set>
      <set comment="kpoint 21">
       <r>  -0.5198  1.0000</r>
       <r>   1.7386  1.0000</r>
       <r>   4.6698  1.0000</r>
       <r>   6.7896  1.0000</r>
       <r>   8.2519  1.0000</r>
       <r>  10.1885  0.0000</r>
       <r>  10.3450  0.0000</r>
       <r>  12.0242  0.0000</r>
       <r>  13.1486  0.0000</r>
       <r>  14.0786  0.0000</r>
       <r>  14.8480  0.0000</r>
       <r>  15.2618  0.0000</r>
       <r>  15.8490  0.0000</r>
       <r>  16.6846  0.0000</r>
       <r>  17.0908  0.0000</r>
       <r>  21.5925  0.0000</r>
      </set>
      <set comment="kpoint 22">
       <r>   0.1219  1.0000</r>
       <r>   0.8756  1.0000</r>
       <r>   5.2781  1.0000</r>
       <r>   5.9883  1.0000</r>
       <r>   8.8415  1.0000</r>
       <r>   9.5392  1.0000</r>
       <r>  10.7475  0.0000</r>
       <r>  11.3866  0.0000</r>
       <r>  13.7454  0.0000</r>
       <r>  14.4500  0.0000</r>
       <r>  14.5005  0.0000</r>
       <r>  15.1177  0.0000</r>
       <r>  15.5756  0.0000</r>
       <r>  16.3033  0.0000</r>
       <r>  18.4758  0.0000</r>
       <r>  20.4350  0.0000</r>
      </set>
      <set comment="kpoint 23">
       <r>  -0.6368  1.0000</r>
       <r>   3.1042  1.0000</r>
       <r>   3.1042  1.0000</r>
       <r>   6.6845  1.0000</r>
       <r>   8.1449  1.0000</r>
       <r>  10.1004  0.0000</r>
       <r>  11.6378  0.0000</r>
       <r>  11.6378  0.0000</r>
       <r>  13.3430  0.0000</r>
       <r>  13.3430  0.0000</r>
       <r>  15.1545  0.0000</r>
       <r>  15.2964  0.0000</r>
       <r>  15.2964  0.0000</r>
       <r>  17.0290  0.0000</r>
       <r>  17.7027  0.0000</r>
       <r>  19.5428  0.0000</r>
      </set>
      <set comment="kpoint 24">
       <r>  -0.1110  1.0000</r>
       <r>   2.1393  1.0000</r>
       <r>   3.6122  1.0000</r>
       <r>   5.7740  1.0000</r>
       <r>   8.6273  1.0000</r>
       <r>  10.5790  0.0000</r>
       <r>  10.7229  0.0000</r>
       <r>  12.1249  0.0000</r>
       <r>  12.5990  0.0000</r>
       <r>  14.0061  0.0000</r>
       <r>  14.2356  0.0000</r>
       <r>  15.6358  0.0000</r>
       <r>  16.1666  0.0000</r>
       <r>  16.9680  0.0000</r>
       <r>  17.4369  0.0000</r>
       <r>  20.7790  0.0000</r>
      </set>
      <set comment="kpoint 25">
       <r>   0.5284  1.0000</r>
       <r>   1.2794  1.0000</r>
       <r>   4.2291  1.0000</r>
       <r>   4.9516  1.0000</r>
       <r>   9.2176  1.0000</r>
       <r>   9.9161  0.0000</r>
       <r>  11.1686  0.0000</r>
       <r>  11.8510  0.0000</r>
       <r>  12.7204  0.0000</r>
       <r>  13.4240  0.0000</r>
       <r>  14.6607  0.0000</r>
       <r>  15.3761  0.0000</r>
       <r>  16.1537  0.0000</r>
       <r>  16.7794  0.0000</r>
       <r>  18.8275  0.0000</r>
       <r>  20.7739  0.0000</r>
      </set>
      <set comment="kpoint 26">
       <r>   0.4125  1.0000</r>
       <r>   2.6523  1.0000</r>
       <r>   2.6523  1.0000</r>
       <r>   4.8419  1.0000</r>
       <r>   9.1105  1.0000</r>
       <r>  11.0793  0.0000</r>
       <r>  11.2088  0.0000</r>
       <r>  11.2088  0.0000</r>
       <r>  13.1646  0.0000</r>
       <r>  13.1646  0.0000</r>
       <r>  13.3166  0.0000</r>
       <r>  15.2983  0.0000</r>
       <r>  17.3954  0.0000</r>
       <r>  17.3954  0.0000</r>
       <r>  18.5955  0.0000</r>
       <r>  20.5897  0.0000</r>
      </set>
      <set comment="kpoint 27">
       <r>   1.0490  1.0000</r>
       <r>   1.7966  1.0000</r>
       <r>   3.2757  1.0000</r>
       <r>   4.0069  1.0000</r>
       <r>   9.7016  0.7594</r>
       <r>  10.4010  0.0000</r>
       <r>  11.6830  0.0000</r>
       <r>  11.8031  0.0000</r>
       <r>  12.3824  0.0000</r>
       <r>  12.5057  0.0000</r>
       <r>  13.7940  0.0000</r>
       <r>  14.5048  0.0000</r>
       <r>  17.9171  0.0000</r>
       <r>  18.4586  0.0000</r>
       <r>  19.2518  0.0000</r>
       <r>  21.0962  0.0000</r>
      </set>
      <set comment="kpoint 28">
       <r>   1.6820  1.0000</r>
       <r>   2.4252  1.0000</r>
       <r>   2.4252  1.0000</r>
       <r>   3.1631  1.0000</r>
       <r>  10.2937  0.0000</r>
       <r>  10.9942  0.0000</r>
       <r>  10.9942  0.0000</r>
       <r>  11.6957  0.0000</r>
       <r>  12.2947  0.0000</r>
       <r>  13.0008  0.0000</r>
       <r>  13.0008  0.0000</r>
       <r>  13.7096  0.0000</r>
       <r>  19.6798  0.0000</r>
       <r>  19.6798  0.0000</r>
       <r>  19.6904  0.0000</r>
       <r>  20.9877  0.0000</r>
      </set>
      <set comment="kpoint 29">
       <r>  -2.3472  1.0000</r>
       <r>   5.7419  1.0000</r>
       <r>   5.7419  1.0000</r>
       <r>   5.7419  1.0000</r>
       <r>   9.0661  1.0000</r>
       <r>   9.0661  1.0000</r>
       <r>   9.0661  1.0000</r>
       <r>  13.4425  0.0000</r>
       <r>  13.4425  0.0000</r>
       <r>  13.4425  0.0000</r>
       <r>  16.2707  0.0000</r>
       <r>  16.2707  0.0000</r>
       <r>  16.2707  0.0000</r>
       <r>  17.1766  0.0000</r>
       <r>  17.1766  0.0000</r>
       <r>  17.1766  0.0000</r>
      </set>
      <set comment="kpoint 30">
       <r>  -2.1691  1.0000</r>
       <r>   4.5423  1.0000</r>
       <r>   5.9051  1.0000</r>
       <r>   5.9051  1.0000</r>
       <r>   9.2137  1.0000</r>
       <r>   9.2137  1.0000</r>
       <r>  10.5560  0.0000</r>
       <r>  12.3241  0.0000</r>
       <r>  12.3241  0.0000</r>
       <r>  13.6123  0.0000</r>
       <r>  15.6988  0.0000</r>
       <r>  15.6988  0.0000</r>
       <r>  16.4164  0.0000</r>
       <r>  17.3432  0.0000</r>
       <r>  18.3493  0.0000</r>
       <r>  18.3493  0.0000</r>
      </set>
      <set comment="kpoint 31">
       <r>  -1.8729  1.0000</r>
       <r>   3.3817  1.0000</r>
       <r>   6.1764  1.0000</r>
       <r>   6.1764  1.0000</r>
       <r>   9.4378  1.0000</r>
       <r>   9.4378  1.0000</r>
       <r>  11.2617  0.0000</r>
       <r>  11.2617  0.0000</r>
       <r>  12.1912  0.0000</r>
       <r>  13.9032  0.0000</r>
       <r>  14.7793  0.0000</r>
       <r>  14.7793  0.0000</r>
       <r>  16.6593  0.0000</r>
       <r>  17.6211  0.0000</r>
       <r>  18.7253  0.0000</r>
       <r>  19.9502  0.0000</r>
      </set>
      <set comment="kpoint 32">
       <r>  -1.4594  1.0000</r>
       <r>   2.3088  1.0000</r>
       <r>   6.5540  1.0000</r>
       <r>   6.5540  1.0000</r>
       <r>   9.5973  1.0000</r>
       <r>   9.5973  1.0000</r>
       <r>  10.4404  0.0000</r>
       <r>  10.4404  0.0000</r>
       <r>  13.8271  0.0000</r>
       <r>  13.8760  0.0000</r>
       <r>  13.8760  0.0000</r>
       <r>  14.4077  0.0000</r>
       <r>  16.9997  0.0000</r>
       <r>  17.7283  0.0000</r>
       <r>  18.0112  0.0000</r>
       <r>  20.1499  0.0000</r>
      </set>
      <set comment="kpoint 33">
       <r>  -0.9300  1.0000</r>
       <r>   1.3364  1.0000</r>
       <r>   7.0330  1.0000</r>
       <r>   7.0330  1.0000</r>
       <r>   9.1104  1.0000</r>
       <r>   9.1104  1.0000</r>
       <r>  10.4258  0.0000</r>
       <r>  10.4258  0.0000</r>
       <r>  13.0864  0.0000</r>
       <r>  13.0864  0.0000</r>
       <r>  14.6744  0.0000</r>
       <r>  15.8938  0.0000</r>
       <r>  16.8222  0.0000</r>
       <r>  17.4376  0.0000</r>
       <r>  18.5184  0.0000</r>
       <r>  19.3321  0.0000</r>
      </set>
      <set comment="kpoint 34">
       <r>  -0.2860  1.0000</r>
       <r>   0.4703  1.0000</r>
       <r>   7.5835  1.0000</r>
       <r>   7.5835  1.0000</r>
       <r>   8.4029  1.0000</r>
       <r>   8.4029  1.0000</r>
       <r>  10.7113  0.0000</r>
       <r>  10.7113  0.0000</r>
       <r>  12.5475  0.0000</r>
       <r>  12.5475  0.0000</r>
       <r>  15.3018  0.0000</r>
       <r>  16.0131  0.0000</r>
       <r>  17.7533  0.0000</r>
       <r>  17.9729  0.0000</r>
       <r>  18.6050  0.0000</r>
       <r>  19.1696  0.0000</r>
      </set>
      <set comment="kpoint 35">
       <r>  -1.9913  1.0000</r>
       <r>   4.7088  1.0000</r>
       <r>   4.7088  1.0000</r>
       <r>   6.0675  1.0000</r>
       <r>   9.3299  1.0000</r>
       <r>  10.6796  0.0000</r>
       <r>  10.6796  0.0000</r>
       <r>  11.2793  0.0000</r>
       <r>  12.5107  0.0000</r>
       <r>  12.5107  0.0000</r>
       <r>  15.8576  0.0000</r>
       <r>  15.8576  0.0000</r>
       <r>  16.5660  0.0000</r>
       <r>  17.9889  0.0000</r>
       <r>  18.5117  0.0000</r>
       <r>  18.5117  0.0000</r>
      </set>
      <set comment="kpoint 36">
       <r>  -1.6956  1.0000</r>
       <r>   3.5507  1.0000</r>
       <r>   4.9856  1.0000</r>
       <r>   6.3366  1.0000</r>
       <r>   9.3761  1.0000</r>
       <r>  10.4170  0.0000</r>
       <r>  10.7658  0.0000</r>
       <r>  11.5688  0.0000</r>
       <r>  12.1834  0.0000</r>
       <r>  12.9212  0.0000</r>
       <r>  14.9558  0.0000</r>
       <r>  16.0654  0.0000</r>
       <r>  16.1246  0.0000</r>
       <r>  17.5833  0.0000</r>
       <r>  18.7824  0.0000</r>
       <r>  19.1186  0.0000</r>
      </set>
      <set comment="kpoint 37">
       <r>  -1.2827  1.0000</r>
       <r>   2.4797  1.0000</r>
       <r>   5.3713  1.0000</r>
       <r>   6.7075  1.0000</r>
       <r>   8.8463  1.0000</r>
       <r>  10.1972  0.0000</r>
       <r>  10.3138  0.0000</r>
       <r>  11.4339  0.0000</r>
       <r>  13.0033  0.0000</r>
       <r>  14.0899  0.0000</r>
       <r>  14.2164  0.0000</r>
       <r>  15.2013  0.0000</r>
       <r>  16.5095  0.0000</r>
       <r>  16.5800  0.0000</r>
       <r>  19.1609  0.0000</r>
       <r>  19.6196  0.0000</r>
      </set>
      <set comment="kpoint 38">
       <r>  -0.7540  1.0000</r>
       <r>   1.5089  1.0000</r>
       <r>   5.8629  1.0000</r>
       <r>   7.1479  1.0000</r>
       <r>   8.0661  1.0000</r>
       <r>   9.3452  1.0000</r>
       <r>  10.6821  0.0000</r>
       <r>  11.6537  0.0000</r>
       <r>  13.4204  0.0000</r>
       <r>  13.5423  0.0000</r>
       <r>  14.3780  0.0000</r>
       <r>  15.6710  0.0000</r>
       <r>  15.9172  0.0000</r>
       <r>  17.0698  0.0000</r>
       <r>  18.7771  0.0000</r>
       <r>  19.6475  0.0000</r>
      </set>
      <set comment="kpoint 39">
       <r>  -0.1110  1.0000</r>
       <r>   0.6441  1.0000</r>
       <r>   6.4528  1.0000</r>
       <r>   7.0959  1.0000</r>
       <r>   7.9223  1.0000</r>
       <r>   8.5619  1.0000</r>
       <r>  11.1678  0.0000</r>
       <r>  11.5964  0.0000</r>
       <r>  13.2608  0.0000</r>
       <r>  13.6837  0.0000</r>
       <r>  14.1530  0.0000</r>
       <r>  14.8615  0.0000</r>
       <r>  17.2161  0.0000</r>
       <r>  18.0000  0.0000</r>
       <r>  18.2412  0.0000</r>
       <r>  20.0464  0.0000</r>
      </set>
      <set comment="kpoint 40">
       <r>  -1.4005  1.0000</r>
       <r>   3.8317  1.0000</r>
       <r>   3.8317  1.0000</r>
       <r>   6.5987  1.0000</r>
       <r>   8.7484  1.0000</r>
       <r>  10.2434  0.0000</r>
       <r>  11.4979  0.0000</r>
       <r>  11.4979  0.0000</r>
       <r>  12.7146  0.0000</r>
       <r>  12.7146  0.0000</r>
       <r>  15.2654  0.0000</r>
       <r>  15.2654  0.0000</r>
       <r>  16.4885  0.0000</r>
       <r>  17.0592  0.0000</r>
       <r>  18.7299  0.0000</r>
       <r>  19.6214  0.0000</r>
      </set>
      <set comment="kpoint 41">
       <r>  -0.9887  1.0000</r>
       <r>   2.7640  1.0000</r>
       <r>   4.2236  1.0000</r>
       <r>   6.9299  1.0000</r>
       <r>   7.8720  1.0000</r>
       <r>  10.5337  0.0000</r>
       <r>  10.5352  0.0000</r>
       <r>  11.9386  0.0000</r>
       <r>  12.8491  0.0000</r>
       <r>  14.2730  0.0000</r>
       <r>  14.5234  0.0000</r>
       <r>  15.4795  0.0000</r>
       <r>  15.7769  0.0000</r>
       <r>  16.6715  0.0000</r>
       <r>  18.7126  0.0000</r>
       <r>  19.9020  0.0000</r>
      </set>
      <set comment="kpoint 42">
       <r>  -0.4613  1.0000</r>
       <r>   1.7959  1.0000</r>
       <r>   4.7244  1.0000</r>
       <r>   6.7825  1.0000</r>
       <r>   7.6113  1.0000</r>
       <r>   9.6358  1.0000</r>
       <r>  10.9867  0.0000</r>
       <r>  12.4450  0.0000</r>
       <r>  12.7006  0.0000</r>
       <r>  14.2628  0.0000</r>
       <r>  14.5674  0.0000</r>
       <r>  15.5399  0.0000</r>
       <r>  15.9059  0.0000</r>
       <r>  16.8195  0.0000</r>
       <r>  17.8581  0.0000</r>
       <r>  21.2113  0.0000</r>
      </set>
      <set comment="kpoint 43">
       <r>   0.1801  1.0000</r>
       <r>   0.9334  1.0000</r>
       <r>   5.3306  1.0000</r>
       <r>   6.0333  1.0000</r>
       <r>   8.1438  1.0000</r>
       <r>   8.8342  1.0000</r>
       <r>  11.5435  0.0000</r>
       <r>  12.1589  0.0000</r>
       <r>  13.0494  0.0000</r>
       <r>  13.7567  0.0000</r>
       <r>  14.5884  0.0000</r>
       <r>  15.1825  0.0000</r>
       <r>  16.3388  0.0000</r>
       <r>  17.0719  0.0000</r>
       <r>  18.5224  0.0000</r>
       <r>  20.4555  0.0000</r>
      </set>
      <set comment="kpoint 44">
       <r>  -0.5783  1.0000</r>
       <r>   3.1607  1.0000</r>
       <r>   3.1607  1.0000</r>
       <r>   6.6765  1.0000</r>
       <r>   7.5057  1.0000</r>
       <r>  10.9016  0.0000</r>
       <r>  10.9348  0.0000</r>
       <r>  10.9348  0.0000</r>
       <r>  14.0191  0.0000</r>
       <r>  14.0191  0.0000</r>
       <r>  14.4667  0.0000</r>
       <r>  15.4665  0.0000</r>
       <r>  15.4665  0.0000</r>
       <r>  17.7514  0.0000</r>
       <r>  17.7967  0.0000</r>
       <r>  19.5997  0.0000</r>
      </set>
      <set comment="kpoint 45">
       <r>  -0.0527  1.0000</r>
       <r>   2.1964  1.0000</r>
       <r>   3.6681  1.0000</r>
       <r>   5.8190  1.0000</r>
       <r>   7.9305  1.0000</r>
       <r>  10.0242  0.0000</r>
       <r>  11.3843  0.0000</r>
       <r>  11.4323  0.0000</r>
       <r>  13.3641  0.0000</r>
       <r>  13.5524  0.0000</r>
       <r>  14.7671  0.0000</r>
       <r>  15.7179  0.0000</r>
       <r>  16.9352  0.0000</r>
       <r>  17.0392  0.0000</r>
       <r>  17.4887  0.0000</r>
       <r>  20.8320  0.0000</r>
      </set>
      <set comment="kpoint 46">
       <r>   0.5864  1.0000</r>
       <r>   1.3370  1.0000</r>
       <r>   4.2841  1.0000</r>
       <r>   5.0043  1.0000</r>
       <r>   8.5158  1.0000</r>
       <r>   9.2162  1.0000</r>
       <r>  11.9688  0.0000</r>
       <r>  12.0339  0.0000</r>
       <r>  12.6401  0.0000</r>
       <r>  12.7408  0.0000</r>
       <r>  15.4325  0.0000</r>
       <r>  16.1469  0.0000</r>
       <r>  16.2159  0.0000</r>
       <r>  16.8350  0.0000</r>
       <r>  18.8768  0.0000</r>
       <r>  20.8141  0.0000</r>
      </set>
      <set comment="kpoint 47">
       <r>   0.4705  1.0000</r>
       <r>   2.7090  1.0000</r>
       <r>   2.7090  1.0000</r>
       <r>   4.8947  1.0000</r>
       <r>   8.4088  1.0000</r>
       <r>  10.5177  0.0000</r>
       <r>  10.5177  0.0000</r>
       <r>  11.8825  0.0000</r>
       <r>  12.6366  0.0000</r>
       <r>  13.9435  0.0000</r>
       <r>  13.9435  0.0000</r>
       <r>  16.0688  0.0000</r>
       <r>  17.4532  0.0000</r>
       <r>  17.4532  0.0000</r>
       <r>  18.6441  0.0000</r>
       <r>  20.6437  0.0000</r>
      </set>
      <set comment="kpoint 48">
       <r>   1.1067  1.0000</r>
       <r>   1.8538  1.0000</r>
       <r>   3.3319  1.0000</r>
       <r>   4.0621  1.0000</r>
       <r>   9.0030  1.0000</r>
       <r>   9.7070  0.4792</r>
       <r>  11.1178  0.0000</r>
       <r>  11.8244  0.0000</r>
       <r>  12.4801  0.0000</r>
       <r>  13.1713  0.0000</r>
       <r>  14.5718  0.0000</r>
       <r>  15.2787  0.0000</r>
       <r>  17.9705  0.0000</r>
       <r>  18.5094  0.0000</r>
       <r>  19.3014  0.0000</r>
       <r>  21.1417  0.0000</r>
      </set>
      <set comment="kpoint 49">
       <r>   1.7394  1.0000</r>
       <r>   2.4821  1.0000</r>
       <r>   2.4821  1.0000</r>
       <r>   3.2194  1.0000</r>
       <r>   9.6003  1.0000</r>
       <r>  10.3059  0.0000</r>
       <r>  10.3059  0.0000</r>
       <r>  11.0121  0.0000</r>
       <r>  13.0858  0.0000</r>
       <r>  13.7851  0.0000</r>
       <r>  13.7851  0.0000</r>
       <r>  14.4884  0.0000</r>
       <r>  19.7289  0.0000</r>
       <r>  19.7289  0.0000</r>
       <r>  19.7386  0.0000</r>
       <r>  21.0349  0.0000</r>
      </set>
      <set comment="kpoint 50">
       <r>  -1.8138  1.0000</r>
       <r>   4.8748  1.0000</r>
       <r>   4.8748  1.0000</r>
       <r>   4.8748  1.0000</r>
       <r>  10.6556  0.0000</r>
       <r>  10.6556  0.0000</r>
       <r>  10.6556  0.0000</r>
       <r>  11.6055  0.0000</r>
       <r>  11.6055  0.0000</r>
       <r>  11.6055  0.0000</r>
       <r>  16.7119  0.0000</r>
       <r>  16.7119  0.0000</r>
       <r>  16.7119  0.0000</r>
       <r>  17.5481  0.0000</r>
       <r>  18.1639  0.0000</r>
       <r>  18.1639  0.0000</r>
      </set>
      <set comment="kpoint 51">
       <r>  -1.5185  1.0000</r>
       <r>   3.7193  1.0000</r>
       <r>   5.1502  1.0000</r>
       <r>   5.1502  1.0000</r>
       <r>  10.0426  0.0000</r>
       <r>  10.0426  0.0000</r>
       <r>  11.3935  0.0000</r>
       <r>  11.3935  0.0000</r>
       <r>  11.4434  0.0000</r>
       <r>  12.7364  0.0000</r>
       <r>  16.2245  0.0000</r>
       <r>  16.2245  0.0000</r>
       <r>  16.4632  0.0000</r>
       <r>  16.9552  0.0000</r>
       <r>  18.4552  0.0000</r>
       <r>  19.2839  0.0000</r>
      </set>
      <set comment="kpoint 52">
       <r>  -1.1062  1.0000</r>
       <r>   2.6504  1.0000</r>
       <r>   5.5326  1.0000</r>
       <r>   5.5326  1.0000</r>
       <r>   9.1160  1.0000</r>
       <r>   9.1160  1.0000</r>
       <r>  11.6650  0.0000</r>
       <r>  11.6650  0.0000</r>
       <r>  11.9078  0.0000</r>
       <r>  14.4037  0.0000</r>
       <r>  15.3772  0.0000</r>
       <r>  15.3772  0.0000</r>
       <r>  15.4591  0.0000</r>
       <r>  17.2960  0.0000</r>
       <r>  18.8630  0.0000</r>
       <r>  20.4546  0.0000</r>
      </set>
      <set comment="kpoint 53">
       <r>  -0.5783  1.0000</r>
       <r>   1.6812  1.0000</r>
       <r>   6.0144  1.0000</r>
       <r>   6.0144  1.0000</r>
       <r>   8.2348  1.0000</r>
       <r>   8.2348  1.0000</r>
       <r>  12.0596  0.0000</r>
       <r>  12.0596  0.0000</r>
       <r>  12.4220  0.0000</r>
       <r>  14.5491  0.0000</r>
       <r>  14.5901  0.0000</r>
       <r>  14.5901  0.0000</r>
       <r>  16.2109  0.0000</r>
       <r>  17.7346  0.0000</r>
       <r>  19.3909  0.0000</r>
       <r>  19.6336  0.0000</r>
      </set>
      <set comment="kpoint 54">
       <r>   0.0637  1.0000</r>
       <r>   0.8178  1.0000</r>
       <r>   6.5484  1.0000</r>
       <r>   6.5484  1.0000</r>
       <r>   7.4961  1.0000</r>
       <r>   7.4961  1.0000</r>
       <r>  12.4262  0.0000</r>
       <r>  12.4262  0.0000</r>
       <r>  13.0298  0.0000</r>
       <r>  13.7386  0.0000</r>
       <r>  14.0244  0.0000</r>
       <r>  14.0244  0.0000</r>
       <r>  18.0746  0.0000</r>
       <r>  18.2709  0.0000</r>
       <r>  18.9044  0.0000</r>
       <r>  19.8262  0.0000</r>
      </set>
      <set comment="kpoint 55">
       <r>  -1.2238  1.0000</r>
       <r>   3.9995  1.0000</r>
       <r>   3.9995  1.0000</r>
       <r>   5.4222  1.0000</r>
       <r>   9.0257  1.0000</r>
       <r>  10.4128  0.0000</r>
       <r>  10.4128  0.0000</r>
       <r>  11.6028  0.0000</r>
       <r>  12.9306  0.0000</r>
       <r>  12.9306  0.0000</r>
       <r>  15.3744  0.0000</r>
       <r>  16.4922  0.0000</r>
       <r>  16.4922  0.0000</r>
       <r>  17.2052  0.0000</r>
       <r>  18.9048  0.0000</r>
       <r>  19.5586  0.0000</r>
      </set>
      <set comment="kpoint 56">
       <r>  -0.8126  1.0000</r>
       <r>   2.9341  1.0000</r>
       <r>   4.3897  1.0000</r>
       <r>   5.7943  1.0000</r>
       <r>   8.0437  1.0000</r>
       <r>   9.4185  1.0000</r>
       <r>  10.8235  0.0000</r>
       <r>  11.9557  0.0000</r>
       <r>  13.2307  0.0000</r>
       <r>  14.3668  0.0000</r>
       <r>  14.6279  0.0000</r>
       <r>  15.6862  0.0000</r>
       <r>  16.8294  0.0000</r>
       <r>  16.8782  0.0000</r>
       <r>  19.9414  0.0000</r>
       <r>  19.9855  0.0000</r>
      </set>
      <set comment="kpoint 57">
       <r>  -0.2860  1.0000</r>
       <r>   1.9677  1.0000</r>
       <r>   4.8870  1.0000</r>
       <r>   6.2197  1.0000</r>
       <r>   7.1981  1.0000</r>
       <r>   8.5115  1.0000</r>
       <r>  11.3270  0.0000</r>
       <r>  12.4109  0.0000</r>
       <r>  13.4539  0.0000</r>
       <r>  13.5091  0.0000</r>
       <r>  15.0296  0.0000</r>
       <r>  16.0792  0.0000</r>
       <r>  16.3504  0.0000</r>
       <r>  17.4444  0.0000</r>
       <r>  19.1506  0.0000</r>
       <r>  20.4305  0.0000</r>
      </set>
      <set comment="kpoint 58">
       <r>   0.3544  1.0000</r>
       <r>   1.1065  1.0000</r>
       <r>   5.4827  1.0000</r>
       <r>   6.1251  1.0000</r>
       <r>   7.0768  1.0000</r>
       <r>   7.7126  1.0000</r>
       <r>  11.9324  0.0000</r>
       <r>  12.6416  0.0000</r>
       <r>  12.9348  0.0000</r>
       <r>  13.4172  0.0000</r>
       <r>  14.9203  0.0000</r>
       <r>  15.3891  0.0000</r>
       <r>  17.6078  0.0000</r>
       <r>  18.3777  0.0000</r>
       <r>  18.6482  0.0000</r>
       <r>  20.4461  0.0000</r>
      </set>
      <set comment="kpoint 59">
       <r>  -0.4028  1.0000</r>
       <r>   3.3297  1.0000</r>
       <r>   3.3297  1.0000</r>
       <r>   6.1100  1.0000</r>
       <r>   7.0951  1.0000</r>
       <r>   9.8135  0.0000</r>
       <r>   9.8135  0.0000</r>
       <r>  12.3400  0.0000</r>
       <r>  13.3557  0.0000</r>
       <r>  14.8200  0.0000</r>
       <r>  14.8200  0.0000</r>
       <r>  16.2046  0.0000</r>
       <r>  16.2046  0.0000</r>
       <r>  17.8975  0.0000</r>
       <r>  19.1319  0.0000</r>
       <r>  19.7697  0.0000</r>
      </set>
      <set comment="kpoint 60">
       <r>   0.1220  1.0000</r>
       <r>   2.3674  1.0000</r>
       <r>   3.8355  1.0000</r>
       <r>   5.9104  1.0000</r>
       <r>   6.8615  1.0000</r>
       <r>   8.8977  1.0000</r>
       <r>  10.3120  0.0000</r>
       <r>  12.4402  0.0000</r>
       <r>  12.8211  0.0000</r>
       <r>  14.6227  0.0000</r>
       <r>  16.0274  0.0000</r>
       <r>  16.0325  0.0000</r>
       <r>  17.2993  0.0000</r>
       <r>  17.6447  0.0000</r>
       <r>  18.2921  0.0000</r>
       <r>  20.9900  0.0000</r>
      </set>
      <set comment="kpoint 61">
       <r>   0.7601  1.0000</r>
       <r>   1.5095  1.0000</r>
       <r>   4.4477  1.0000</r>
       <r>   5.1572  1.0000</r>
       <r>   7.3898  1.0000</r>
       <r>   8.0861  1.0000</r>
       <r>  10.9162  0.0000</r>
       <r>  11.6261  0.0000</r>
       <r>  13.3914  0.0000</r>
       <r>  14.0260  0.0000</r>
       <r>  16.4132  0.0000</r>
       <r>  16.7928  0.0000</r>
       <r>  17.0039  0.0000</r>
       <r>  17.5139  0.0000</r>
       <r>  19.0219  0.0000</r>
       <r>  20.9214  0.0000</r>
      </set>
      <set comment="kpoint 62">
       <r>   0.6444  1.0000</r>
       <r>   2.8789  1.0000</r>
       <r>   2.8789  1.0000</r>
       <r>   5.0479  1.0000</r>
       <r>   7.2812  1.0000</r>
       <r>   9.3930  1.0000</r>
       <r>   9.3930  1.0000</r>
       <r>  11.5226  0.0000</r>
       <r>  13.3186  0.0000</r>
       <r>  15.3196  0.0000</r>
       <r>  15.3196  0.0000</r>
       <r>  17.4481  0.0000</r>
       <r>  17.6340  0.0000</r>
       <r>  17.6340  0.0000</r>
       <r>  18.7900  0.0000</r>
       <r>  20.8045  0.0000</r>
      </set>
      <set comment="kpoint 63">
       <r>   1.2796  1.0000</r>
       <r>   2.0255  1.0000</r>
       <r>   3.4999  1.0000</r>
       <r>   4.2262  1.0000</r>
       <r>   7.8703  1.0000</r>
       <r>   8.5773  1.0000</r>
       <r>   9.9965  0.0000</r>
       <r>  10.7070  0.0000</r>
       <r>  13.9077  0.0000</r>
       <r>  14.5821  0.0000</r>
       <r>  15.9659  0.0000</r>
       <r>  16.6697  0.0000</r>
       <r>  18.1322  0.0000</r>
       <r>  18.6621  0.0000</r>
       <r>  19.4492  0.0000</r>
       <r>  21.2748  0.0000</r>
      </set>
      <set comment="kpoint 64">
       <r>   1.9112  1.0000</r>
       <r>   2.6524  1.0000</r>
       <r>   2.6524  1.0000</r>
       <r>   3.3876  1.0000</r>
       <r>   8.4696  1.0000</r>
       <r>   9.1797  1.0000</r>
       <r>   9.1797  1.0000</r>
       <r>   9.8904  0.0000</r>
       <r>  14.5086  0.0000</r>
       <r>  15.1971  0.0000</r>
       <r>  15.1971  0.0000</r>
       <r>  15.8929  0.0000</r>
       <r>  19.8757  0.0000</r>
       <r>  19.8757  0.0000</r>
       <r>  19.8832  0.0000</r>
       <r>  21.1756  0.0000</r>
      </set>
      <set comment="kpoint 65">
       <r>  -0.9300  1.0000</r>
       <r>   4.2779  1.0000</r>
       <r>   4.2779  1.0000</r>
       <r>   4.2779  1.0000</r>
       <r>   9.3309  1.0000</r>
       <r>   9.3309  1.0000</r>
       <r>   9.3309  1.0000</r>
       <r>  13.2062  0.0000</r>
       <r>  13.2062  0.0000</r>
       <r>  13.2062  0.0000</r>
       <r>  14.2843  0.0000</r>
       <r>  17.4489  0.0000</r>
       <r>  17.4489  0.0000</r>
       <r>  17.4489  0.0000</r>
       <r>  19.1950  0.0000</r>
       <r>  19.1950  0.0000</r>
      </set>
      <set comment="kpoint 66">
       <r>  -0.5198  1.0000</r>
       <r>   3.2167  1.0000</r>
       <r>   4.6643  1.0000</r>
       <r>   4.6643  1.0000</r>
       <r>   8.3220  1.0000</r>
       <r>   8.3220  1.0000</r>
       <r>   9.7275  0.0015</r>
       <r>  13.2738  0.0000</r>
       <r>  13.5657  0.0000</r>
       <r>  13.5657  0.0000</r>
       <r>  14.9341  0.0000</r>
       <r>  17.0951  0.0000</r>
       <r>  17.0951  0.0000</r>
       <r>  17.7903  0.0000</r>
       <r>  19.5994  0.0000</r>
       <r>  20.3362  0.0000</r>
      </set>
      <set comment="kpoint 67">
       <r>   0.0055  1.0000</r>
       <r>   2.2533  1.0000</r>
       <r>   5.1506  1.0000</r>
       <r>   5.1506  1.0000</r>
       <r>   7.4145  1.0000</r>
       <r>   7.4145  1.0000</r>
       <r>  10.2272  0.0000</r>
       <r>  12.3581  0.0000</r>
       <r>  13.9921  0.0000</r>
       <r>  13.9921  0.0000</r>
       <r>  16.3829  0.0000</r>
       <r>  16.3829  0.0000</r>
       <r>  16.7481  0.0000</r>
       <r>  18.2297  0.0000</r>
       <r>  20.1180  0.0000</r>
       <r>  20.1345  0.0000</r>
      </set>
      <set comment="kpoint 68">
       <r>   0.6443  1.0000</r>
       <r>   1.3945  1.0000</r>
       <r>   5.6861  1.0000</r>
       <r>   5.6861  1.0000</r>
       <r>   6.6671  1.0000</r>
       <r>   6.6671  1.0000</r>
       <r>  10.8325  0.0000</r>
       <r>  11.5434  0.0000</r>
       <r>  14.3868  0.0000</r>
       <r>  14.3868  0.0000</r>
       <r>  15.8187  0.0000</r>
       <r>  15.8187  0.0000</r>
       <r>  18.6051  0.0000</r>
       <r>  18.7673  0.0000</r>
       <r>  19.4026  0.0000</r>
       <r>  20.3590  0.0000</r>
      </set>
      <set comment="kpoint 69">
       <r>  -0.1110  1.0000</r>
       <r>   3.6103  1.0000</r>
       <r>   3.6103  1.0000</r>
       <r>   5.0396  1.0000</r>
       <r>   7.3118  1.0000</r>
       <r>   8.7097  1.0000</r>
       <r>   8.7097  1.0000</r>
       <r>  12.2601  0.0000</r>
       <r>  13.9594  0.0000</r>
       <r>  15.2762  0.0000</r>
       <r>  15.2762  0.0000</r>
       <r>  17.4776  0.0000</r>
       <r>  17.4776  0.0000</r>
       <r>  18.1413  0.0000</r>
       <r>  20.0506  0.0000</r>
       <r>  20.5239  0.0000</r>
      </set>
      <set comment="kpoint 70">
       <r>   0.4125  1.0000</r>
       <r>   2.6517  1.0000</r>
       <r>   4.1120  1.0000</r>
       <r>   5.4664  1.0000</r>
       <r>   6.4544  1.0000</r>
       <r>   7.7894  1.0000</r>
       <r>   9.2067  1.0000</r>
       <r>  11.3415  0.0000</r>
       <r>  14.4317  0.0000</r>
       <r>  15.5832  0.0000</r>
       <r>  16.8923  0.0000</r>
       <r>  16.9972  0.0000</r>
       <r>  17.9065  0.0000</r>
       <r>  18.0375  0.0000</r>
       <r>  19.7376  0.0000</r>
       <r>  21.1843  0.0000</r>
      </set>
      <set comment="kpoint 71">
       <r>   1.0490  1.0000</r>
       <r>   1.7964  1.0000</r>
       <r>   4.7131  1.0000</r>
       <r>   5.3617  1.0000</r>
       <r>   6.3391  1.0000</r>
       <r>   6.9812  1.0000</r>
       <r>   9.8120  0.0000</r>
       <r>  10.5243  0.0000</r>
       <r>  14.9685  0.0000</r>
       <r>  15.4779  0.0000</r>
       <r>  16.8192  0.0000</r>
       <r>  17.2981  0.0000</r>
       <r>  18.2283  0.0000</r>
       <r>  18.9806  0.0000</r>
       <r>  19.2456  0.0000</r>
       <r>  21.0165  0.0000</r>
      </set>
      <set comment="kpoint 72">
       <r>   0.9336  1.0000</r>
       <r>   3.1610  1.0000</r>
       <r>   3.1610  1.0000</r>
       <r>   5.2532  1.0000</r>
       <r>   6.2286  1.0000</r>
       <r>   8.2827  1.0000</r>
       <r>   8.2827  1.0000</r>
       <r>  10.4201  0.0000</r>
       <r>  14.9311  0.0000</r>
       <r>  16.7718  0.0000</r>
       <r>  16.7718  0.0000</r>
       <r>  17.9899  0.0000</r>
       <r>  17.9899  0.0000</r>
       <r>  18.9656  0.0000</r>
       <r>  19.0332  0.0000</r>
       <r>  21.0673  0.0000</r>
      </set>
      <set comment="kpoint 73">
       <r>   1.5671  1.0000</r>
       <r>   2.3107  1.0000</r>
       <r>   3.7777  1.0000</r>
       <r>   4.4927  1.0000</r>
       <r>   6.7620  1.0000</r>
       <r>   7.4641  1.0000</r>
       <r>   8.8875  1.0000</r>
       <r>   9.6009  1.0000</r>
       <r>  15.5074  0.0000</r>
       <r>  16.1476  0.0000</r>
       <r>  17.5070  0.0000</r>
       <r>  18.2114  0.0000</r>
       <r>  18.4095  0.0000</r>
       <r>  18.9174  0.0000</r>
       <r>  19.6909  0.0000</r>
       <r>  21.4787  0.0000</r>
      </set>
      <set comment="kpoint 74">
       <r>   2.1968  1.0000</r>
       <r>   2.9352  1.0000</r>
       <r>   2.9352  1.0000</r>
       <r>   3.6658  1.0000</r>
       <r>   7.3550  1.0000</r>
       <r>   8.0666  1.0000</r>
       <r>   8.0666  1.0000</r>
       <r>   8.7803  1.0000</r>
       <r>  16.1053  0.0000</r>
       <r>  16.7768  0.0000</r>
       <r>  16.7768  0.0000</r>
       <r>  17.4626  0.0000</r>
       <r>  20.1182  0.0000</r>
       <r>  20.1182  0.0000</r>
       <r>  20.1237  0.0000</r>
       <r>  21.4057  0.0000</r>
      </set>
      <set comment="kpoint 75">
       <r>   0.2964  1.0000</r>
       <r>   3.9999  1.0000</r>
       <r>   3.9999  1.0000</r>
       <r>   3.9999  1.0000</r>
       <r>   7.6871  1.0000</r>
       <r>   7.6871  1.0000</r>
       <r>   7.6871  1.0000</r>
       <r>  11.2430  0.0000</r>
       <r>  15.6873  0.0000</r>
       <r>  15.6873  0.0000</r>
       <r>  15.6873  0.0000</r>
       <r>  18.4830  0.0000</r>
       <r>  18.4830  0.0000</r>
       <r>  18.4830  0.0000</r>
       <r>  20.4382  0.0000</r>
       <r>  20.4382  0.0000</r>
      </set>
      <set comment="kpoint 76">
       <r>   0.8180  1.0000</r>
       <r>   3.0478  1.0000</r>
       <r>   4.4904  1.0000</r>
       <r>   4.4904  1.0000</r>
       <r>   6.7698  1.0000</r>
       <r>   6.7698  1.0000</r>
       <r>   8.1810  1.0000</r>
       <r>  10.3209  0.0000</r>
       <r>  16.1367  0.0000</r>
       <r>  16.1367  0.0000</r>
       <r>  17.4926  0.0000</r>
       <r>  18.2819  0.0000</r>
       <r>  18.2819  0.0000</r>
       <r>  18.9227  0.0000</r>
       <r>  20.8290  0.0000</r>
       <r>  20.9263  0.0000</r>
      </set>
      <set comment="kpoint 77">
       <r>   1.4522  1.0000</r>
       <r>   2.1966  1.0000</r>
       <r>   5.0321  1.0000</r>
       <r>   5.0321  1.0000</r>
       <r>   6.0137  1.0000</r>
       <r>   6.0137  1.0000</r>
       <r>   8.7866  1.0000</r>
       <r>   9.5009  1.0000</r>
       <r>  16.5570  0.0000</r>
       <r>  16.5570  0.0000</r>
       <r>  17.7852  0.0000</r>
       <r>  17.7852  0.0000</r>
       <r>  19.3309  0.0000</r>
       <r>  19.4606  0.0000</r>
       <r>  20.0965  0.0000</r>
       <r>  21.0366  0.0000</r>
      </set>
      <set comment="kpoint 78">
       <r>   1.3372  1.0000</r>
       <r>   3.5526  1.0000</r>
       <r>   3.5526  1.0000</r>
       <r>   4.9221  1.0000</r>
       <r>   5.9038  1.0000</r>
       <r>   7.2541  1.0000</r>
       <r>   7.2541  1.0000</r>
       <r>   9.3958  1.0000</r>
       <r>  16.6468  0.0000</r>
       <r>  17.8493  0.0000</r>
       <r>  17.8493  0.0000</r>
       <r>  18.8257  0.0000</r>
       <r>  18.8257  0.0000</r>
       <r>  19.3737  0.0000</r>
       <r>  20.4759  0.0000</r>
       <r>  21.4224  0.0000</r>
      </set>
      <set comment="kpoint 79">
       <r>   1.9682  1.0000</r>
       <r>   2.7083  1.0000</r>
       <r>   4.1581  1.0000</r>
       <r>   4.8139  1.0000</r>
       <r>   5.7904  1.0000</r>
       <r>   6.4398  1.0000</r>
       <r>   7.8581  1.0000</r>
       <r>   8.5734  1.0000</r>
       <r>  17.1968  0.0000</r>
       <r>  17.7288  0.0000</r>
       <r>  18.8500  0.0000</r>
       <r>  19.0535  0.0000</r>
       <r>  19.2798  0.0000</r>
       <r>  19.7752  0.0000</r>
       <r>  20.0108  0.0000</r>
       <r>  21.6764  0.0000</r>
      </set>
      <set comment="kpoint 80">
       <r>   2.5948  1.0000</r>
       <r>   3.3280  1.0000</r>
       <r>   3.3280  1.0000</r>
       <r>   4.0470  1.0000</r>
       <r>   6.3291  1.0000</r>
       <r>   7.0354  1.0000</r>
       <r>   7.0354  1.0000</r>
       <r>   7.7497  1.0000</r>
       <r>  17.7960  0.0000</r>
       <r>  18.4322  0.0000</r>
       <r>  18.4322  0.0000</r>
       <r>  19.1012  0.0000</r>
       <r>  20.4519  0.0000</r>
       <r>  20.4519  0.0000</r>
       <r>  20.4586  0.0000</r>
       <r>  21.7104  0.0000</r>
      </set>
      <set comment="kpoint 81">
       <r>   1.8538  1.0000</r>
       <r>   4.0463  1.0000</r>
       <r>   4.0463  1.0000</r>
       <r>   4.0463  1.0000</r>
       <r>   6.3311  1.0000</r>
       <r>   6.3311  1.0000</r>
       <r>   6.3311  1.0000</r>
       <r>   8.4674  1.0000</r>
       <r>  18.4298  0.0000</r>
       <r>  18.4298  0.0000</r>
       <r>  18.4298  0.0000</r>
       <r>  19.8114  0.0000</r>
       <r>  19.8114  0.0000</r>
       <r>  19.8114  0.0000</r>
       <r>  21.6844  0.0000</r>
       <r>  21.6844  0.0000</r>
      </set>
      <set comment="kpoint 82">
       <r>   2.4810  1.0000</r>
       <r>   3.2151  1.0000</r>
       <r>   4.5939  1.0000</r>
       <r>   4.5939  1.0000</r>
       <r>   5.5679  1.0000</r>
       <r>   5.5679  1.0000</r>
       <r>   6.9276  1.0000</r>
       <r>   7.6428  1.0000</r>
       <r>  18.8892  0.0000</r>
       <r>  18.8892  0.0000</r>
       <r>  19.7886  0.0000</r>
       <r>  19.7886  0.0000</r>
       <r>  20.2197  0.0000</r>
       <r>  20.3453  0.0000</r>
       <r>  20.9728  0.0000</r>
       <r>  21.7254  0.0000</r>
      </set>
      <set comment="kpoint 83">
       <r>   3.1023  1.0000</r>
       <r>   3.8233  1.0000</r>
       <r>   3.8233  1.0000</r>
       <r>   4.4843  1.0000</r>
       <r>   5.4552  1.0000</r>
       <r>   6.1097  1.0000</r>
       <r>   6.1097  1.0000</r>
       <r>   6.8181  1.0000</r>
       <r>  19.5284  0.0000</r>
       <r>  20.0625  0.0000</r>
       <r>  20.0625  0.0000</r>
       <r>  20.7034  0.0000</r>
       <r>  20.8651  0.0000</r>
       <r>  20.8651  0.0000</r>
       <r>  20.8840  0.0000</r>
       <r>  22.0081  0.0000</r>
      </set>
      <set comment="kpoint 84">
       <r>   3.7115  1.0000</r>
       <r>   4.3743  1.0000</r>
       <r>   4.3743  1.0000</r>
       <r>   4.3743  1.0000</r>
       <r>   5.3426  1.0000</r>
       <r>   5.3426  1.0000</r>
       <r>   5.3426  1.0000</r>
       <r>   5.9990  1.0000</r>
       <r>  21.1796  0.0000</r>
       <r>  21.1796  0.0000</r>
       <r>  21.1796  0.0000</r>
       <r>  21.3859  0.0000</r>
       <r>  21.3859  0.0000</r>
       <r>  21.3859  0.0000</r>
       <r>  21.8908  0.0000</r>
       <r>  21.8908  0.0000</r>
      </set>
     </set>
    </set>
   </array>
  </eigenvalues>
 </calculation>
 <structure name="finalpos" >
  <crystal>
   <varray name="basis" >
    <v>       3.83544105      0.00000000      0.00000000</v>
    <v>       0.00000000      3.83544105      0.00000000</v>
    <v>       0.00000000      0.00000000      3.83544105</v>
   </varray>
   <i name="volume">     56.42167003</i>
   <varray name="rec_basis" >
    <v>       0.26072621      0.00000000      0.00000000</v>
    <v>       0.00000000      0.26072621      0.00000000</v>
    <v>       0.00000000      0.00000000      0.26072621</v>
   </varray>
  </crystal>
  <varray name="positions" >
   <v>       0.50000000      0.50000000      0.00000000</v>
   <v>       0.50000000      0.00000000      0.50000000</v>
   <v>       0.00000000      0.50000000      0.50000000</v>
   <v>       0.00000000      0.00000000      0.00000000</v>
  </varray>
 </structure>
</modeling>
