32   
1    

1    
  0.0100000000000000   0.0000000000000000   0.0000000000000000
  -0.0349587300   -0.0000000000   -0.0000000000
   0.0050193000   -0.0000000000   -0.0000000000
   0.0009273500   -0.0000000000   -0.0000000000
   0.0000479800    0.0000000000   -0.0000000000
   0.0009273500   -0.0000000000    0.0000000000
   0.0000479800    0.0000000000   -0.0000000000
  -0.0015684700   -0.0000000000    0.0000000000
  -0.0000238800   -0.0000000000   -0.0000000000
  -0.0033856000   -0.0000087700    0.0000087700
  -0.0012027400    0.0000276100   -0.0000276100
  -0.0033856000    0.0000087700    0.0000087700
  -0.0012027400   -0.0000276100   -0.0000276100
  -0.0033856000   -0.0000087700   -0.0000087700
  -0.0012027400    0.0000276100    0.0000276100
  -0.0033856000    0.0000087700   -0.0000087700
  -0.0012027400   -0.0000276100    0.0000276100
   0.0047518600   -0.0000000000   -0.0054466000
   0.0049370600   -0.0000000000    0.0056609300
   0.0011740700   -0.0000000000    0.0011581200
   0.0011206400    0.0000000000   -0.0011661700
   0.0047518600   -0.0000000000    0.0054466000
   0.0049370600    0.0000000000   -0.0056609300
   0.0011740700   -0.0000000000   -0.0011581200
   0.0011206400   -0.0000000000    0.0011661700
   0.0047518600    0.0054466000    0.0000000000
   0.0049370600   -0.0056609300   -0.0000000000
   0.0047518600   -0.0054466000    0.0000000000
   0.0049370600    0.0056609300    0.0000000000
   0.0011740700   -0.0011581200   -0.0000000000
   0.0011206400    0.0011661700   -0.0000000000
   0.0011740700    0.0011581200    0.0000000000
   0.0011206400   -0.0011661700    0.0000000000
