<?xml version="1.0" encoding="ISO-8859-1"?>
<modeling>
 <generator>
  <i name="program" type="string">vasp</i>
  <i name="version" type="string">4.6.28 </i>
  <i name="subversion" type="string">25Jul05 complex  parallel</i>
  <i name="platform" type="string">LinuxIFC</i>
  <i name="date" type="string">2016 10 19</i>
  <i name="time" type="string">12:27:34</i>
 </generator>
 <incar>
  <i type="string" name="PREC">accurate</i>
  <i type="int" name="IALGO">    38</i>
  <i name="EDIFF">      0.00000001</i>
  <i type="int" name="IBRION">    -1</i>
  <i name="ENCUT">    500.00000000</i>
  <i type="logical" name="LREAL"> F  </i>
  <i type="int" name="ISMEAR">     0</i>
  <i name="SIGMA">      0.01000000</i>
  <i type="logical" name="LWAVE"> F  </i>
  <i type="logical" name="LCHARG"> F  </i>
 </incar>
 <kpoints>
  <generation param="Auto">
   <i name="subdivisionlength">     50.00000000</i>
   <v type="int" name="divisions">       6       6       6</v>
   <v name="usershift">      0.00000000      0.00000000      0.00000000</v>
   <v name="genvec1">      0.16666667      0.00000000      0.00000000</v>
   <v name="genvec2">      0.00000000      0.16666667      0.00000000</v>
   <v name="genvec3">      0.00000000      0.00000000      0.16666667</v>
   <v name="shift">      0.00000000      0.00000000      0.00000000</v>
  </generation>
  <varray name="kpointlist" >
   <v>       0.00000000      0.00000000      0.00000000</v>
   <v>       0.16666667      0.00000000      0.00000000</v>
   <v>       0.33333333      0.00000000      0.00000000</v>
   <v>       0.50000000      0.00000000      0.00000000</v>
   <v>       0.00000000      0.16666667      0.00000000</v>
   <v>       0.16666667      0.16666667      0.00000000</v>
   <v>       0.33333333      0.16666667      0.00000000</v>
   <v>       0.50000000      0.16666667      0.00000000</v>
   <v>       0.00000000      0.33333333      0.00000000</v>
   <v>       0.16666667      0.33333333      0.00000000</v>
   <v>       0.33333333      0.33333333      0.00000000</v>
   <v>       0.50000000      0.33333333      0.00000000</v>
   <v>       0.00000000      0.50000000      0.00000000</v>
   <v>       0.16666667      0.50000000      0.00000000</v>
   <v>       0.33333333      0.50000000      0.00000000</v>
   <v>       0.50000000      0.50000000      0.00000000</v>
   <v>       0.00000000      0.16666667      0.16666667</v>
   <v>       0.16666667      0.16666667      0.16666667</v>
   <v>       0.33333333      0.16666667      0.16666667</v>
   <v>       0.50000000      0.16666667      0.16666667</v>
   <v>       0.00000000      0.33333333      0.16666667</v>
   <v>       0.16666667      0.33333333      0.16666667</v>
   <v>       0.33333333      0.33333333      0.16666667</v>
   <v>       0.50000000      0.33333333      0.16666667</v>
   <v>       0.00000000      0.50000000      0.16666667</v>
   <v>       0.16666667      0.50000000      0.16666667</v>
   <v>       0.33333333      0.50000000      0.16666667</v>
   <v>       0.50000000      0.50000000      0.16666667</v>
   <v>       0.00000000      0.33333333      0.33333333</v>
   <v>       0.16666667      0.33333333      0.33333333</v>
   <v>       0.33333333      0.33333333      0.33333333</v>
   <v>       0.50000000      0.33333333      0.33333333</v>
   <v>       0.00000000      0.50000000      0.33333333</v>
   <v>       0.16666667      0.50000000      0.33333333</v>
   <v>       0.33333333      0.50000000      0.33333333</v>
   <v>       0.50000000      0.50000000      0.33333333</v>
   <v>       0.00000000      0.50000000      0.50000000</v>
   <v>       0.16666667      0.50000000      0.50000000</v>
   <v>       0.33333333      0.50000000      0.50000000</v>
   <v>       0.50000000      0.50000000      0.50000000</v>
  </varray>
  <varray name="weights" >
   <v>       0.00462963</v>
   <v>       0.00925926</v>
   <v>       0.00925926</v>
   <v>       0.00462963</v>
   <v>       0.01851852</v>
   <v>       0.03703704</v>
   <v>       0.03703704</v>
   <v>       0.01851852</v>
   <v>       0.01851852</v>
   <v>       0.03703704</v>
   <v>       0.03703704</v>
   <v>       0.01851852</v>
   <v>       0.00925926</v>
   <v>       0.01851852</v>
   <v>       0.01851852</v>
   <v>       0.00925926</v>
   <v>       0.01851852</v>
   <v>       0.03703704</v>
   <v>       0.03703704</v>
   <v>       0.01851852</v>
   <v>       0.03703704</v>
   <v>       0.07407407</v>
   <v>       0.07407407</v>
   <v>       0.03703704</v>
   <v>       0.01851852</v>
   <v>       0.03703704</v>
   <v>       0.03703704</v>
   <v>       0.01851852</v>
   <v>       0.01851852</v>
   <v>       0.03703704</v>
   <v>       0.03703704</v>
   <v>       0.01851852</v>
   <v>       0.01851852</v>
   <v>       0.03703704</v>
   <v>       0.03703704</v>
   <v>       0.01851852</v>
   <v>       0.00462963</v>
   <v>       0.00925926</v>
   <v>       0.00925926</v>
   <v>       0.00462963</v>
  </varray>
 </kpoints>
 <parameters>
  <separator name="general" >
   <i type="string" name="SYSTEM">unknown system</i>
   <i type="logical" name="LCOMPAT"> F  </i>
  </separator>
  <separator name="electronic" >
   <i type="string" name="PREC">accura</i>
   <i name="ENMAX">    500.00000000</i>
   <i name="ENAUG">    291.05200000</i>
   <i name="EDIFF">      0.00000001</i>
   <i type="int" name="IALGO">    38</i>
   <i type="int" name="IWAVPR">    10</i>
   <i type="int" name="NBANDS">    65</i>
   <i name="NELECT">     96.00000000</i>
   <separator name="electronic smearing" >
    <i type="int" name="ISMEAR">     0</i>
    <i name="SIGMA">      0.01000000</i>
   </separator>
   <separator name="electronic projectors" >
    <i type="logical" name="LREAL"> F  </i>
    <v name="ROPT">      0.00000000</v>
    <i type="int" name="LMAXPAW">  -100</i>
    <i type="int" name="LMAXMIX">     2</i>
   </separator>
   <separator name="electronic startup" >
    <i type="int" name="ISTART">     0</i>
    <i type="int" name="ICHARG">     2</i>
    <i type="int" name="INIWAV">     1</i>
   </separator>
   <separator name="electronic spin" >
    <i type="int" name="ISPIN">     1</i>
    <i type="logical" name="LNONCOLLINEAR"> F  </i>
    <v name="MAGMOM">      1.00000000      1.00000000      1.00000000      1.00000000      1.00000000      1.00000000      1.00000000      1.00000000      1.00000000      1.00000000      1.00000000      1.00000000      1.00000000      1.00000000      1.00000000      1.00000000      1.00000000      1.00000000      1.00000000      1.00000000
      1.00000000      1.00000000      1.00000000      1.00000000      1.00000000      1.00000000      1.00000000      1.00000000      1.00000000      1.00000000      1.00000000      1.00000000</v>
    <i name="NUPDOWN">     -1.00000000</i>
    <i type="logical" name="LSORBIT"> F  </i>
    <v name="SAXIS">      0.00000000      0.00000000      1.00000000</v>
    <i type="logical" name="LSPIRAL"> F  </i>
    <v name="QSPIRAL">      0.00000000      0.00000000      0.00000000</v>
    <i type="logical" name="LZEROZ"> F  </i>
   </separator>
   <separator name="electronic exchange-correlation" >
    <i type="string" name="GGA">--</i>
    <i type="int" name="VOSKOWN">     0</i>
    <i type="logical" name="LASPH"> F  </i>
    <i type="logical" name="LMETAGGA"> F  </i>
    <i type="string" name="GGA2">--</i>
   </separator>
   <separator name="electronic convergence" >
    <i type="int" name="NELM">    60</i>
    <i type="int" name="NELMDL">    -5</i>
    <i type="int" name="NELMIN">     2</i>
    <i name="ENINI">    500.00000000</i>
    <separator name="electronic convergence detail" >
     <i type="logical" name="LDIAG"> T  </i>
     <i name="WEIMIN">      0.00000000</i>
     <i name="EBREAK">      0.00000000</i>
     <i name="DEPER">      0.30000000</i>
     <i type="int" name="NRMM">     4</i>
     <i name="TIME">      0.10000000</i>
    </separator>
   </separator>
   <separator name="electronic mixer" >
    <i name="AMIX">      0.40000000</i>
    <i name="BMIX">      1.00000000</i>
    <i name="AMIN">      0.10000000</i>
    <i name="AMIX_MAG">      1.60000000</i>
    <i name="BMIX_MAG">      1.00000000</i>
    <separator name="electronic mixer details" >
     <i type="int" name="IMIX">     4</i>
     <i type="int" name="MAXMIX">   -45</i>
     <i name="WC">    100.00000000</i>
     <i type="int" name="INIMIX">     1</i>
     <i type="int" name="MIXPRE">     1</i>
     <i type="int" name="MREMOVE">     5</i>
    </separator>
   </separator>
   <separator name="electronic dipolcorrection" >
    <i type="int" name="IDIPOL">     0</i>
    <i type="logical" name="LDIPOL"> F  </i>
    <v name="DIPOL">   -100.00000000</v>
    <i name="EFIELD">      0.00000000</i>
   </separator>
  </separator>
  <separator name="grids" >
   <i type="int" name="NGX">    60</i>
   <i type="int" name="NGY">    60</i>
   <i type="int" name="NGZ">    60</i>
   <i type="int" name="NGXF">   120</i>
   <i type="int" name="NGYF">   120</i>
   <i type="int" name="NGZF">   120</i>
   <i type="logical" name="ADDGRID"> F  </i>
  </separator>
  <separator name="ionic" >
   <i type="int" name="NSW">     0</i>
   <i type="int" name="IBRION">    -1</i>
   <i type="int" name="ISIF">     2</i>
   <i name="PSTRESS">      0.00000000</i>
   <i name="EDIFFG">      0.00000010</i>
   <i type="int" name="NFREE">     0</i>
   <i name="POTIM">      0.50000000</i>
   <i name="SMASS">     -3.00000000</i>
  </separator>
  <separator name="ionic md" >
   <i name="TEBEG">      0.00010000</i>
   <i name="TEEND">      0.00010000</i>
   <i type="int" name="NBLOCK">     1</i>
   <i type="int" name="KBLOCK">     1</i>
   <i type="int" name="NPACO">   256</i>
   <i name="APACO">     16.00000000</i>
  </separator>
  <separator name="symmetry" >
   <i type="int" name="ISYM">     2</i>
   <i name="SYMPREC">      0.00001000</i>
  </separator>
  <separator name="dos" >
   <i type="logical" name="LORBIT"> F  </i>
   <v name="RWIGS">     -1.00000000</v>
   <i type="int" name="NEDOS">   301</i>
   <i name="EMIN">     10.00000000</i>
   <i name="EMAX">    -10.00000000</i>
  </separator>
  <separator name="writing" >
   <i type="int" name="NWRITE">     2</i>
   <i type="logical" name="LWAVE"> F  </i>
   <i type="logical" name="LCHARG"> F  </i>
   <i type="logical" name="LPARD"> F  </i>
   <i type="logical" name="LVTOT"> F  </i>
   <i type="logical" name="LELF"> F  </i>
   <i type="logical" name="LOPTICS"> F  </i>
   <i name="STM">      0.00000000</i>
  </separator>
  <separator name="performance" >
   <i type="int" name="NPAR">     8</i>
   <i type="int" name="NSIM">     4</i>
   <i type="int" name="NBLK">   256</i>
   <i type="logical" name="LPLANE"> T  </i>
   <i type="logical" name="LCRITICAL_MEM"> F  </i>
   <i type="logical" name="LSCALAPACK"> F  </i>
   <i type="logical" name="LSCALU"> F  </i>
   <i type="logical" name="LASYNC"> F  </i>
  </separator>
  <separator name="miscellaneous" >
   <i type="int" name="IDIOT">     3</i>
   <i type="logical" name="LMUSIC"> F  </i>
   <v name="POMASS">     26.98200000</v>
   <i type="logical" name="LCORR"> T  </i>
  </separator>
  <i type="logical" name="LREAL_COMPAT"> F  </i>
  <i type="logical" name="GGA_COMPAT"> T  </i>
  <i type="logical" name="LBERRY"> F  </i>
  <i type="int" name="ICORELEVEL">     0</i>
  <i type="logical" name="LDAU"> F  </i>
  <i type="int" name="I_CONSTRAINED_M">     0</i>
 </parameters>
 <atominfo>
  <atoms>      32</atoms>
  <types>       1</types>
  <array name="atoms" >
   <dimension dim="1">ion</dimension>
   <field type="string">element</field>
   <field type="int">atomtype</field>
   <set>
    <rc><c>Al</c><c>   1</c></rc>
    <rc><c>Al</c><c>   1</c></rc>
    <rc><c>Al</c><c>   1</c></rc>
    <rc><c>Al</c><c>   1</c></rc>
    <rc><c>Al</c><c>   1</c></rc>
    <rc><c>Al</c><c>   1</c></rc>
    <rc><c>Al</c><c>   1</c></rc>
    <rc><c>Al</c><c>   1</c></rc>
    <rc><c>Al</c><c>   1</c></rc>
    <rc><c>Al</c><c>   1</c></rc>
    <rc><c>Al</c><c>   1</c></rc>
    <rc><c>Al</c><c>   1</c></rc>
    <rc><c>Al</c><c>   1</c></rc>
    <rc><c>Al</c><c>   1</c></rc>
    <rc><c>Al</c><c>   1</c></rc>
    <rc><c>Al</c><c>   1</c></rc>
    <rc><c>Al</c><c>   1</c></rc>
    <rc><c>Al</c><c>   1</c></rc>
    <rc><c>Al</c><c>   1</c></rc>
    <rc><c>Al</c><c>   1</c></rc>
    <rc><c>Al</c><c>   1</c></rc>
    <rc><c>Al</c><c>   1</c></rc>
    <rc><c>Al</c><c>   1</c></rc>
    <rc><c>Al</c><c>   1</c></rc>
    <rc><c>Al</c><c>   1</c></rc>
    <rc><c>Al</c><c>   1</c></rc>
    <rc><c>Al</c><c>   1</c></rc>
    <rc><c>Al</c><c>   1</c></rc>
    <rc><c>Al</c><c>   1</c></rc>
    <rc><c>Al</c><c>   1</c></rc>
    <rc><c>Al</c><c>   1</c></rc>
    <rc><c>Al</c><c>   1</c></rc>
   </set>
  </array>
  <array name="atomtypes" >
   <dimension dim="1">type</dimension>
   <field type="int">atomspertype</field>
   <field type="string">element</field>
   <field>mass</field>
   <field>valence</field>
   <field type="string">pseudopotential</field>
   <set>
    <rc><c>  32</c><c>Al</c><c>     26.98200000</c><c>      3.00000000</c><c> PAW_PBE Al 04Jan2001                   </c></rc>
   </set>
  </array>
 </atominfo>
 <structure name="initialpos" >
  <crystal>
   <varray name="basis" >
    <v>       8.15514380      0.00000000      0.00000000</v>
    <v>       0.00000000      8.15514380      0.00000000</v>
    <v>       0.00000000      0.00000000      8.15514380</v>
   </varray>
   <i name="volume">    542.36901382</i>
   <varray name="rec_basis" >
    <v>       0.12262199      0.00000000      0.00000000</v>
    <v>       0.00000000      0.12262199      0.00000000</v>
    <v>       0.00000000      0.00000000      0.12262199</v>
   </varray>
  </crystal>
  <varray name="positions" >
   <v>       0.25122622      0.25000000      0.00000000</v>
   <v>       0.75000000      0.25000000      0.00000000</v>
   <v>       0.25000000      0.75000000      0.00000000</v>
   <v>       0.75000000      0.75000000      0.00000000</v>
   <v>       0.25000000      0.25000000      0.50000000</v>
   <v>       0.75000000      0.25000000      0.50000000</v>
   <v>       0.25000000      0.75000000      0.50000000</v>
   <v>       0.75000000      0.75000000      0.50000000</v>
   <v>       0.25000000      0.00000000      0.25000000</v>
   <v>       0.75000000      0.00000000      0.25000000</v>
   <v>       0.25000000      0.50000000      0.25000000</v>
   <v>       0.75000000      0.50000000      0.25000000</v>
   <v>       0.25000000      0.00000000      0.75000000</v>
   <v>       0.75000000      0.00000000      0.75000000</v>
   <v>       0.25000000      0.50000000      0.75000000</v>
   <v>       0.75000000      0.50000000      0.75000000</v>
   <v>       0.00000000      0.25000000      0.25000000</v>
   <v>       0.50000000      0.25000000      0.25000000</v>
   <v>       0.00000000      0.75000000      0.25000000</v>
   <v>       0.50000000      0.75000000      0.25000000</v>
   <v>       0.00000000      0.25000000      0.75000000</v>
   <v>       0.50000000      0.25000000      0.75000000</v>
   <v>       0.00000000      0.75000000      0.75000000</v>
   <v>       0.50000000      0.75000000      0.75000000</v>
   <v>       0.00000000      0.00000000      0.00000000</v>
   <v>       0.50000000      0.00000000      0.00000000</v>
   <v>       0.00000000      0.50000000      0.00000000</v>
   <v>       0.50000000      0.50000000      0.00000000</v>
   <v>       0.00000000      0.00000000      0.50000000</v>
   <v>       0.50000000      0.00000000      0.50000000</v>
   <v>       0.00000000      0.50000000      0.50000000</v>
   <v>       0.50000000      0.50000000      0.50000000</v>
  </varray>
 </structure>
 <calculation>
  <scstep>
   <time name="dav">   19.80   19.84</time>
   <time name="total">   19.95   19.99</time>
   <energy>
    <i name="alphaZ">     -6.34148228</i>
    <i name="ewald">  -2331.54056186</i>
    <i name="hartreedc">     -3.59059508</i>
    <i name="XCdc">   -841.21080022</i>
    <i name="pawpsdc">   1137.73615723</i>
    <i name="pawaedc">   -115.16745734</i>
    <i name="eentropy">     -0.00074799</i>
    <i name="bandstr">    560.62411268</i>
    <i name="atom">   1713.22913220</i>
    <i name="e_fr_energy">    113.73775734</i>
    <i name="e_wo_entrp">    113.73850533</i>
    <i name="e_0_energy">    113.73813133</i>
   </energy>
  </scstep>
  <scstep>
   <time name="dav">   22.25   22.29</time>
   <time name="total">   22.25   22.29</time>
   <energy>
    <i name="e_fr_energy">   -107.61559458</i>
    <i name="e_wo_entrp">   -107.61478179</i>
    <i name="e_0_energy">   -107.61518818</i>
   </energy>
  </scstep>
  <scstep>
   <time name="dav">   23.28   23.33</time>
   <time name="total">   23.29   23.34</time>
   <energy>
    <i name="e_fr_energy">   -120.13233835</i>
    <i name="e_wo_entrp">   -120.13110069</i>
    <i name="e_0_energy">   -120.13171952</i>
   </energy>
  </scstep>
  <scstep>
   <time name="dav">   22.21   22.24</time>
   <time name="total">   22.21   22.25</time>
   <energy>
    <i name="e_fr_energy">   -120.37254341</i>
    <i name="e_wo_entrp">   -120.37101946</i>
    <i name="e_0_energy">   -120.37178144</i>
   </energy>
  </scstep>
  <scstep>
   <time name="dav">   22.29   22.33</time>
   <time name="total">   23.61   23.65</time>
   <energy>
    <i name="e_fr_energy">   -120.37549585</i>
    <i name="e_wo_entrp">   -120.37396052</i>
    <i name="e_0_energy">   -120.37472819</i>
   </energy>
  </scstep>
  <scstep>
   <time name="dav">   21.79   21.83</time>
   <time name="total">   23.24   23.28</time>
   <energy>
    <i name="e_fr_energy">   -119.96004046</i>
    <i name="e_wo_entrp">   -119.95799767</i>
    <i name="e_0_energy">   -119.95901906</i>
   </energy>
  </scstep>
  <scstep>
   <time name="dav">   21.30   21.34</time>
   <time name="total">   22.78   22.82</time>
   <energy>
    <i name="e_fr_energy">   -119.65883247</i>
    <i name="e_wo_entrp">   -119.65610551</i>
    <i name="e_0_energy">   -119.65746899</i>
   </energy>
  </scstep>
  <scstep>
   <time name="dav">   22.33   22.37</time>
   <time name="total">   23.82   23.86</time>
   <energy>
    <i name="e_fr_energy">   -119.65890993</i>
    <i name="e_wo_entrp">   -119.65618060</i>
    <i name="e_0_energy">   -119.65754527</i>
   </energy>
  </scstep>
  <scstep>
   <time name="dav">   22.05   22.09</time>
   <time name="total">   23.52   23.56</time>
   <energy>
    <i name="e_fr_energy">   -119.65892509</i>
    <i name="e_wo_entrp">   -119.65618956</i>
    <i name="e_0_energy">   -119.65755733</i>
   </energy>
  </scstep>
  <scstep>
   <time name="dav">   22.23   22.27</time>
   <time name="total">   23.72   23.76</time>
   <energy>
    <i name="e_fr_energy">   -119.65892546</i>
    <i name="e_wo_entrp">   -119.65618925</i>
    <i name="e_0_energy">   -119.65755735</i>
   </energy>
  </scstep>
  <scstep>
   <time name="dav">   22.12   22.16</time>
   <time name="total">   23.58   23.62</time>
   <energy>
    <i name="e_fr_energy">   -119.65892259</i>
    <i name="e_wo_entrp">   -119.65618611</i>
    <i name="e_0_energy">   -119.65755435</i>
   </energy>
  </scstep>
  <scstep>
   <time name="dav">   17.66   17.69</time>
   <time name="total">   19.08   19.11</time>
   <energy>
    <i name="e_fr_energy">   -119.65892174</i>
    <i name="e_wo_entrp">   -119.65618522</i>
    <i name="e_0_energy">   -119.65755348</i>
   </energy>
  </scstep>
  <scstep>
   <time name="dav">   14.96   14.99</time>
   <time name="total">   16.42   16.45</time>
   <energy>
    <i name="e_fr_energy">   -119.65892148</i>
    <i name="e_wo_entrp">   -119.65618497</i>
    <i name="e_0_energy">   -119.65755323</i>
   </energy>
  </scstep>
  <scstep>
   <time name="dav">   14.89   14.92</time>
   <time name="total">   15.03   15.06</time>
   <energy>
    <i name="alphaZ">     -6.34148228</i>
    <i name="ewald">  -2331.54056186</i>
    <i name="hartreedc">     -3.18873777</i>
    <i name="XCdc">   -837.91265879</i>
    <i name="pawpsdc">   1138.77527715</i>
    <i name="pawaedc">   -116.47329155</i>
    <i name="eentropy">     -0.00273651</i>
    <i name="bandstr">    323.79613793</i>
    <i name="atom">   1713.22913220</i>
    <i name="e_fr_energy">   -119.65892147</i>
    <i name="e_wo_entrp">   -119.65618497</i>
    <i name="e_0_energy">   -119.65755322</i>
   </energy>
  </scstep>
  <structure>
   <crystal>
    <varray name="basis" >
     <v>       8.15514380      0.00000000      0.00000000</v>
     <v>       0.00000000      8.15514380      0.00000000</v>
     <v>       0.00000000      0.00000000      8.15514380</v>
    </varray>
    <i name="volume">    542.36901382</i>
    <varray name="rec_basis" >
     <v>       0.12262199      0.00000000      0.00000000</v>
     <v>       0.00000000      0.12262199      0.00000000</v>
     <v>       0.00000000      0.00000000      0.12262199</v>
    </varray>
   </crystal>
   <varray name="positions" >
    <v>       0.25122622      0.25000000      0.00000000</v>
    <v>       0.75000000      0.25000000      0.00000000</v>
    <v>       0.25000000      0.75000000      0.00000000</v>
    <v>       0.75000000      0.75000000      0.00000000</v>
    <v>       0.25000000      0.25000000      0.50000000</v>
    <v>       0.75000000      0.25000000      0.50000000</v>
    <v>       0.25000000      0.75000000      0.50000000</v>
    <v>       0.75000000      0.75000000      0.50000000</v>
    <v>       0.25000000      0.00000000      0.25000000</v>
    <v>       0.75000000      0.00000000      0.25000000</v>
    <v>       0.25000000      0.50000000      0.25000000</v>
    <v>       0.75000000      0.50000000      0.25000000</v>
    <v>       0.25000000      0.00000000      0.75000000</v>
    <v>       0.75000000      0.00000000      0.75000000</v>
    <v>       0.25000000      0.50000000      0.75000000</v>
    <v>       0.75000000      0.50000000      0.75000000</v>
    <v>       0.00000000      0.25000000      0.25000000</v>
    <v>       0.50000000      0.25000000      0.25000000</v>
    <v>       0.00000000      0.75000000      0.25000000</v>
    <v>       0.50000000      0.75000000      0.25000000</v>
    <v>       0.00000000      0.25000000      0.75000000</v>
    <v>       0.50000000      0.25000000      0.75000000</v>
    <v>       0.00000000      0.75000000      0.75000000</v>
    <v>       0.50000000      0.75000000      0.75000000</v>
    <v>       0.00000000      0.00000000      0.00000000</v>
    <v>       0.50000000      0.00000000      0.00000000</v>
    <v>       0.00000000      0.50000000      0.00000000</v>
    <v>       0.50000000      0.50000000      0.00000000</v>
    <v>       0.00000000      0.00000000      0.50000000</v>
    <v>       0.50000000      0.00000000      0.50000000</v>
    <v>       0.00000000      0.50000000      0.50000000</v>
    <v>       0.50000000      0.50000000      0.50000000</v>
   </varray>
  </structure>
  <varray name="forces" >
   <v>      -0.03495873     -0.00000000     -0.00000000</v>
   <v>       0.00501930     -0.00000000     -0.00000000</v>
   <v>       0.00092735     -0.00000000     -0.00000000</v>
   <v>       0.00004798      0.00000000     -0.00000000</v>
   <v>       0.00092735     -0.00000000      0.00000000</v>
   <v>       0.00004798      0.00000000     -0.00000000</v>
   <v>      -0.00156847     -0.00000000      0.00000000</v>
   <v>      -0.00002388     -0.00000000     -0.00000000</v>
   <v>      -0.00338560     -0.00000877      0.00000877</v>
   <v>      -0.00120274      0.00002761     -0.00002761</v>
   <v>      -0.00338560      0.00000877      0.00000877</v>
   <v>      -0.00120274     -0.00002761     -0.00002761</v>
   <v>      -0.00338560     -0.00000877     -0.00000877</v>
   <v>      -0.00120274      0.00002761      0.00002761</v>
   <v>      -0.00338560      0.00000877     -0.00000877</v>
   <v>      -0.00120274     -0.00002761      0.00002761</v>
   <v>       0.00475186     -0.00000000     -0.00544660</v>
   <v>       0.00493706     -0.00000000      0.00566093</v>
   <v>       0.00117407     -0.00000000      0.00115812</v>
   <v>       0.00112064      0.00000000     -0.00116617</v>
   <v>       0.00475186     -0.00000000      0.00544660</v>
   <v>       0.00493706      0.00000000     -0.00566093</v>
   <v>       0.00117407     -0.00000000     -0.00115812</v>
   <v>       0.00112064     -0.00000000      0.00116617</v>
   <v>       0.00475186      0.00544660      0.00000000</v>
   <v>       0.00493706     -0.00566093     -0.00000000</v>
   <v>       0.00475186     -0.00544660      0.00000000</v>
   <v>       0.00493706      0.00566093      0.00000000</v>
   <v>       0.00117407     -0.00115812     -0.00000000</v>
   <v>       0.00112064      0.00116617     -0.00000000</v>
   <v>       0.00117407      0.00115812      0.00000000</v>
   <v>       0.00112064     -0.00116617      0.00000000</v>
  </varray>
  <varray name="stress" >
   <v>     -20.21411884     -0.00000000      0.00000000</v>
   <v>       0.00000000    -20.22152150      0.00000000</v>
   <v>       0.00000000      0.00000000    -20.22152150</v>
  </varray>
  <energy>
   <i name="e_fr_energy">   -119.65892147</i>
   <i name="e_wo_entrp">   -119.65755322</i>
   <i name="e_0_energy">     -0.00273651</i>
  </energy>
  <eigenvalues>
   <array>
    <dimension dim="1">band</dimension>
    <dimension dim="2">kpoint</dimension>
    <dimension dim="3">spin</dimension>
    <field>eigene</field>
    <field>occ</field>
    <set>
     <set comment="spin 1">
      <set comment="kpoint 1">
       <r>  -3.2277  1.0000</r>
       <r>  -1.0219  1.0000</r>
       <r>  -1.0184  1.0000</r>
       <r>  -1.0184  1.0000</r>
       <r>  -1.0184  1.0000</r>
       <r>  -1.0184  1.0000</r>
       <r>  -1.0150  1.0000</r>
       <r>   1.1520  1.0000</r>
       <r>   1.1563  1.0000</r>
       <r>   1.1563  1.0000</r>
       <r>   1.1578  1.0000</r>
       <r>   1.1580  1.0000</r>
       <r>   1.1580  1.0000</r>
       <r>   1.1580  1.0000</r>
       <r>   1.1580  1.0000</r>
       <r>   1.1581  1.0000</r>
       <r>   1.1596  1.0000</r>
       <r>   1.1596  1.0000</r>
       <r>   1.1640  1.0000</r>
       <r>   3.2363  1.0000</r>
       <r>   3.2364  1.0000</r>
       <r>   3.2364  1.0000</r>
       <r>   3.2364  1.0000</r>
       <r>   3.3781  1.0000</r>
       <r>   3.3781  1.0000</r>
       <r>   3.3781  1.0000</r>
       <r>   3.3782  1.0000</r>
       <r>   4.8634  1.0000</r>
       <r>   4.8634  1.0000</r>
       <r>   4.8635  1.0000</r>
       <r>   6.1251  1.0000</r>
       <r>   6.1251  1.0000</r>
       <r>   6.1251  1.0000</r>
       <r>   6.9061  1.0000</r>
       <r>   6.9061  1.0000</r>
       <r>   6.9103  1.0000</r>
       <r>   6.9103  1.0000</r>
       <r>   6.9103  1.0000</r>
       <r>   6.9103  1.0000</r>
       <r>   6.9103  1.0000</r>
       <r>   6.9104  1.0000</r>
       <r>   6.9104  1.0000</r>
       <r>   6.9104  1.0000</r>
       <r>   6.9145  1.0000</r>
       <r>   6.9145  1.0000</r>
       <r>   7.9355  0.0000</r>
       <r>   7.9394  0.0000</r>
       <r>   7.9394  0.0000</r>
       <r>   7.9394  0.0000</r>
       <r>   7.9394  0.0000</r>
       <r>   7.9433  0.0000</r>
       <r>   8.6806  0.0000</r>
       <r>   8.6813  0.0000</r>
       <r>   8.6813  0.0000</r>
       <r>   8.6813  0.0000</r>
       <r>   8.6814  0.0000</r>
       <r>   8.6821  0.0000</r>
       <r>   8.9584  0.0000</r>
       <r>   8.9584  0.0000</r>
       <r>   8.9600  0.0000</r>
       <r>   8.9622  0.0000</r>
       <r>   8.9624  0.0000</r>
       <r>   8.9624  0.0000</r>
       <r>   8.9624  0.0000</r>
       <r>   8.9624  0.0000</r>
       <r>   8.9625  0.0000</r>
       <r>   8.9647  0.0000</r>
       <r>   8.9663  0.0000</r>
       <r>   8.9663  0.0000</r>
       <r>  10.3930  0.0000</r>
       <r>  10.3938  0.0000</r>
       <r>  10.3945  0.0000</r>
      </set>
      <set comment="kpoint 2">
       <r>  -3.1659  1.0000</r>
       <r>  -1.6899  1.0000</r>
       <r>  -0.9576  1.0000</r>
       <r>  -0.9575  1.0000</r>
       <r>  -0.9575  1.0000</r>
       <r>  -0.9575  1.0000</r>
       <r>  -0.2292  1.0000</r>
       <r>   0.4964  1.0000</r>
       <r>   0.4964  1.0000</r>
       <r>   0.4964  1.0000</r>
       <r>   0.4965  1.0000</r>
       <r>   1.2180  1.0000</r>
       <r>   1.2180  1.0000</r>
       <r>   1.2180  1.0000</r>
       <r>   1.2180  1.0000</r>
       <r>   1.9356  1.0000</r>
       <r>   1.9356  1.0000</r>
       <r>   1.9356  1.0000</r>
       <r>   1.9356  1.0000</r>
       <r>   2.6504  1.0000</r>
       <r>   2.6504  1.0000</r>
       <r>   2.6504  1.0000</r>
       <r>   2.6504  1.0000</r>
       <r>   3.9974  1.0000</r>
       <r>   4.0791  1.0000</r>
       <r>   4.0791  1.0000</r>
       <r>   4.0791  1.0000</r>
       <r>   4.0791  1.0000</r>
       <r>   4.9202  1.0000</r>
       <r>   4.9202  1.0000</r>
       <r>   6.0815  1.0000</r>
       <r>   6.0815  1.0000</r>
       <r>   6.0815  1.0000</r>
       <r>   6.0815  1.0000</r>
       <r>   6.1853  1.0000</r>
       <r>   6.1853  1.0000</r>
       <r>   6.2841  1.0000</r>
       <r>   6.2841  1.0000</r>
       <r>   6.9673  1.0000</r>
       <r>   6.9673  1.0000</r>
       <r>   6.9673  1.0000</r>
       <r>   6.9673  1.0000</r>
       <r>   7.0987  1.0000</r>
       <r>   7.5668  1.0000</r>
       <r>   7.5668  1.0000</r>
       <r>   7.6512  1.0000</r>
       <r>   7.6512  1.0000</r>
       <r>   8.1726  0.0000</r>
       <r>   8.1726  0.0000</r>
       <r>   8.1726  0.0000</r>
       <r>   8.1726  0.0000</r>
       <r>   8.2772  0.0000</r>
       <r>   8.2772  0.0000</r>
       <r>   8.2772  0.0000</r>
       <r>   8.2773  0.0000</r>
       <r>   8.3349  0.0000</r>
       <r>   8.3349  0.0000</r>
       <r>   8.3350  0.0000</r>
       <r>   8.3350  0.0000</r>
       <r>   9.1605  0.0000</r>
       <r>   9.1605  0.0000</r>
       <r>   9.3366  0.0000</r>
       <r>   9.3366  0.0000</r>
       <r>   9.3366  0.0000</r>
       <r>   9.3366  0.0000</r>
       <r>   9.7042  0.0000</r>
       <r>   9.7042  0.0000</r>
       <r>   9.7042  0.0000</r>
       <r>   9.7045  0.0000</r>
       <r>   9.7620  0.0000</r>
       <r>   9.7620  0.0000</r>
       <r>   9.7620  0.0000</r>
      </set>
      <set comment="kpoint 3">
       <r>  -2.9806  1.0000</r>
       <r>  -2.2416  1.0000</r>
       <r>  -0.7751  1.0000</r>
       <r>  -0.7750  1.0000</r>
       <r>  -0.7750  1.0000</r>
       <r>  -0.7750  1.0000</r>
       <r>  -0.0471  1.0000</r>
       <r>  -0.0471  1.0000</r>
       <r>  -0.0471  1.0000</r>
       <r>  -0.0471  1.0000</r>
       <r>   0.6752  1.0000</r>
       <r>   1.3979  1.0000</r>
       <r>   1.3980  1.0000</r>
       <r>   1.3980  1.0000</r>
       <r>   1.3980  1.0000</r>
       <r>   2.1155  1.0000</r>
       <r>   2.1155  1.0000</r>
       <r>   2.1155  1.0000</r>
       <r>   2.1155  1.0000</r>
       <r>   2.8091  1.0000</r>
       <r>   2.8264  1.0000</r>
       <r>   2.8264  1.0000</r>
       <r>   2.8264  1.0000</r>
       <r>   2.8265  1.0000</r>
       <r>   4.9235  1.0000</r>
       <r>   4.9235  1.0000</r>
       <r>   4.9235  1.0000</r>
       <r>   4.9235  1.0000</r>
       <r>   4.9579  1.0000</r>
       <r>   4.9579  1.0000</r>
       <r>   4.9579  1.0000</r>
       <r>   4.9579  1.0000</r>
       <r>   5.0905  1.0000</r>
       <r>   5.0905  1.0000</r>
       <r>   5.7723  1.0000</r>
       <r>   5.7723  1.0000</r>
       <r>   6.3652  1.0000</r>
       <r>   6.3652  1.0000</r>
       <r>   7.0309  1.0000</r>
       <r>   7.0309  1.0000</r>
       <r>   7.0309  1.0000</r>
       <r>   7.0309  1.0000</r>
       <r>   7.0704  1.0000</r>
       <r>   7.0706  1.0000</r>
       <r>   7.1381  1.0000</r>
       <r>   7.1381  1.0000</r>
       <r>   7.1382  1.0000</r>
       <r>   7.1382  1.0000</r>
       <r>   7.8218  0.0000</r>
       <r>   7.8218  0.0000</r>
       <r>   7.8218  0.0000</r>
       <r>   7.8218  0.0000</r>
       <r>   8.5068  0.0000</r>
       <r>   8.5068  0.0000</r>
       <r>   8.5167  0.0000</r>
       <r>   8.5167  0.0000</r>
       <r>   8.5167  0.0000</r>
       <r>   8.5167  0.0000</r>
       <r>   8.6095  0.0000</r>
       <r>   9.2379  0.0000</r>
       <r>   9.2379  0.0000</r>
       <r>   9.2379  0.0000</r>
       <r>   9.2379  0.0000</r>
       <r>   9.9727  0.0000</r>
       <r>   9.9727  0.0000</r>
       <r>  10.5599  0.0000</r>
       <r>  10.5599  0.0000</r>
       <r>  10.5605  0.0000</r>
       <r>  10.5605  0.0000</r>
       <r>  10.5636  0.0000</r>
       <r>  10.5636  0.0000</r>
       <r>  10.7459  0.0000</r>
      </set>
      <set comment="kpoint 4">
       <r>  -2.6736  1.0000</r>
       <r>  -2.6708  1.0000</r>
       <r>  -0.4752  1.0000</r>
       <r>  -0.4722  1.0000</r>
       <r>  -0.4722  1.0000</r>
       <r>  -0.4713  1.0000</r>
       <r>  -0.4713  1.0000</r>
       <r>  -0.4704  1.0000</r>
       <r>  -0.4704  1.0000</r>
       <r>  -0.4674  1.0000</r>
       <r>   1.6886  1.0000</r>
       <r>   1.6910  1.0000</r>
       <r>   1.6958  1.0000</r>
       <r>   1.6961  1.0000</r>
       <r>   1.6961  1.0000</r>
       <r>   1.6969  1.0000</r>
       <r>   1.6979  1.0000</r>
       <r>   1.6986  1.0000</r>
       <r>   1.6986  1.0000</r>
       <r>   1.7010  1.0000</r>
       <r>   3.8249  1.0000</r>
       <r>   3.8250  1.0000</r>
       <r>   3.8250  1.0000</r>
       <r>   3.8257  1.0000</r>
       <r>   3.8260  1.0000</r>
       <r>   3.8267  1.0000</r>
       <r>   3.8267  1.0000</r>
       <r>   3.8268  1.0000</r>
       <r>   5.3729  1.0000</r>
       <r>   5.3729  1.0000</r>
       <r>   5.3760  1.0000</r>
       <r>   5.3760  1.0000</r>
       <r>   5.9446  1.0000</r>
       <r>   5.9446  1.0000</r>
       <r>   5.9451  1.0000</r>
       <r>   5.9455  1.0000</r>
       <r>   5.9459  1.0000</r>
       <r>   5.9462  1.0000</r>
       <r>   5.9468  1.0000</r>
       <r>   5.9468  1.0000</r>
       <r>   6.6604  1.0000</r>
       <r>   6.6614  1.0000</r>
       <r>   6.6632  1.0000</r>
       <r>   6.6642  1.0000</r>
       <r>   7.4206  1.0000</r>
       <r>   7.4206  1.0000</r>
       <r>   7.4215  1.0000</r>
       <r>   7.4228  1.0000</r>
       <r>   7.4231  1.0000</r>
       <r>   7.4244  1.0000</r>
       <r>   7.4253  1.0000</r>
       <r>   7.4253  1.0000</r>
       <r>   8.8217  0.0000</r>
       <r>   8.8226  0.0000</r>
       <r>   8.8226  0.0000</r>
       <r>   8.8228  0.0000</r>
       <r>   8.8249  0.0000</r>
       <r>   8.8251  0.0000</r>
       <r>   8.8251  0.0000</r>
       <r>   8.8261  0.0000</r>
       <r>   9.4764  0.0000</r>
       <r>   9.4764  0.0000</r>
       <r>   9.4786  0.0000</r>
       <r>   9.4786  0.0000</r>
       <r>  10.2638  0.0000</r>
       <r>  10.2652  0.0000</r>
       <r>  10.8918  0.0000</r>
       <r>  10.8923  0.0000</r>
       <r>  10.8936  0.0000</r>
       <r>  10.8941  0.0000</r>
       <r>  11.5298  0.0000</r>
       <r>  11.5307  0.0000</r>
      </set>
      <set comment="kpoint 5">
       <r>  -3.1659  1.0000</r>
       <r>  -1.6899  1.0000</r>
       <r>  -0.9602  1.0000</r>
       <r>  -0.9575  1.0000</r>
       <r>  -0.9575  1.0000</r>
       <r>  -0.9549  1.0000</r>
       <r>  -0.2292  1.0000</r>
       <r>   0.4938  1.0000</r>
       <r>   0.4964  1.0000</r>
       <r>   0.4965  1.0000</r>
       <r>   0.4991  1.0000</r>
       <r>   1.2159  1.0000</r>
       <r>   1.2169  1.0000</r>
       <r>   1.2192  1.0000</r>
       <r>   1.2201  1.0000</r>
       <r>   1.9329  1.0000</r>
       <r>   1.9356  1.0000</r>
       <r>   1.9356  1.0000</r>
       <r>   1.9383  1.0000</r>
       <r>   2.6482  1.0000</r>
       <r>   2.6492  1.0000</r>
       <r>   2.6515  1.0000</r>
       <r>   2.6525  1.0000</r>
       <r>   3.9974  1.0000</r>
       <r>   4.0769  1.0000</r>
       <r>   4.0779  1.0000</r>
       <r>   4.0803  1.0000</r>
       <r>   4.0812  1.0000</r>
       <r>   4.9202  1.0000</r>
       <r>   4.9202  1.0000</r>
       <r>   6.0786  1.0000</r>
       <r>   6.0815  1.0000</r>
       <r>   6.0815  1.0000</r>
       <r>   6.0844  1.0000</r>
       <r>   6.1853  1.0000</r>
       <r>   6.1853  1.0000</r>
       <r>   6.2841  1.0000</r>
       <r>   6.2842  1.0000</r>
       <r>   6.9647  1.0000</r>
       <r>   6.9673  1.0000</r>
       <r>   6.9673  1.0000</r>
       <r>   6.9699  1.0000</r>
       <r>   7.0987  1.0000</r>
       <r>   7.5667  1.0000</r>
       <r>   7.5668  1.0000</r>
       <r>   7.6512  1.0000</r>
       <r>   7.6512  1.0000</r>
       <r>   8.1702  0.0000</r>
       <r>   8.1715  0.0000</r>
       <r>   8.1738  0.0000</r>
       <r>   8.1751  0.0000</r>
       <r>   8.2749  0.0000</r>
       <r>   8.2772  0.0000</r>
       <r>   8.2772  0.0000</r>
       <r>   8.2795  0.0000</r>
       <r>   8.3323  0.0000</r>
       <r>   8.3349  0.0000</r>
       <r>   8.3350  0.0000</r>
       <r>   8.3376  0.0000</r>
       <r>   9.1605  0.0000</r>
       <r>   9.1605  0.0000</r>
       <r>   9.3348  0.0000</r>
       <r>   9.3366  0.0000</r>
       <r>   9.3366  0.0000</r>
       <r>   9.3384  0.0000</r>
       <r>   9.7015  0.0000</r>
       <r>   9.7042  0.0000</r>
       <r>   9.7042  0.0000</r>
       <r>   9.7069  0.0000</r>
       <r>   9.7600  0.0000</r>
       <r>   9.7620  0.0000</r>
       <r>   9.7640  0.0000</r>
      </set>
      <set comment="kpoint 6">
       <r>  -3.1041  1.0000</r>
       <r>  -1.6298  1.0000</r>
       <r>  -1.6276  1.0000</r>
       <r>  -0.8967  1.0000</r>
       <r>  -0.8967  1.0000</r>
       <r>  -0.1702  1.0000</r>
       <r>  -0.1685  1.0000</r>
       <r>  -0.1668  1.0000</r>
       <r>   0.5552  1.0000</r>
       <r>   0.5561  1.0000</r>
       <r>   0.5573  1.0000</r>
       <r>   0.5583  1.0000</r>
       <r>   1.2771  1.0000</r>
       <r>   1.2780  1.0000</r>
       <r>   1.9932  1.0000</r>
       <r>   1.9944  1.0000</r>
       <r>   1.9956  1.0000</r>
       <r>   1.9958  1.0000</r>
       <r>   1.9970  1.0000</r>
       <r>   1.9980  1.0000</r>
       <r>   2.7090  1.0000</r>
       <r>   3.3510  1.0000</r>
       <r>   3.3510  1.0000</r>
       <r>   3.4993  1.0000</r>
       <r>   3.4993  1.0000</r>
       <r>   4.0553  1.0000</r>
       <r>   4.0562  1.0000</r>
       <r>   4.8420  1.0000</r>
       <r>   4.8420  1.0000</r>
       <r>   4.9770  1.0000</r>
       <r>   5.4480  1.0000</r>
       <r>   5.4501  1.0000</r>
       <r>   6.0585  1.0000</r>
       <r>   6.0585  1.0000</r>
       <r>   6.2336  1.0000</r>
       <r>   6.2337  1.0000</r>
       <r>   6.2453  1.0000</r>
       <r>   6.3398  1.0000</r>
       <r>   6.3422  1.0000</r>
       <r>   6.8090  1.0000</r>
       <r>   6.8108  1.0000</r>
       <r>   7.1567  1.0000</r>
       <r>   7.1576  1.0000</r>
       <r>   7.5378  1.0000</r>
       <r>   7.5388  1.0000</r>
       <r>   7.5400  1.0000</r>
       <r>   7.5410  1.0000</r>
       <r>   7.7059  0.6773</r>
       <r>   7.7080  0.5633</r>
       <r>   7.7102  0.4437</r>
       <r>   7.7104  0.4327</r>
       <r>   7.7118  0.3567</r>
       <r>   8.4431  0.0000</r>
       <r>   8.4454  0.0000</r>
       <r>   8.9175  0.0000</r>
       <r>   8.9186  0.0000</r>
       <r>   8.9188  0.0000</r>
       <r>   8.9198  0.0000</r>
       <r>   9.0220  0.0000</r>
       <r>   9.0220  0.0000</r>
       <r>   9.0758  0.0000</r>
       <r>   9.0776  0.0000</r>
       <r>   9.1259  0.0000</r>
       <r>   9.2824  0.0000</r>
       <r>   9.2830  0.0000</r>
       <r>   9.5695  0.0000</r>
       <r>   9.5695  0.0000</r>
       <r>  10.0193  0.0000</r>
       <r>  10.0213  0.0000</r>
       <r>  10.4459  0.0000</r>
       <r>  10.5017  0.0000</r>
       <r>  10.5018  0.0000</r>
      </set>
      <set comment="kpoint 7">
       <r>  -2.9188  1.0000</r>
       <r>  -2.1802  1.0000</r>
       <r>  -1.4453  1.0000</r>
       <r>  -0.7156  1.0000</r>
       <r>  -0.7142  1.0000</r>
       <r>  -0.7128  1.0000</r>
       <r>   0.0117  1.0000</r>
       <r>   0.0134  1.0000</r>
       <r>   0.0145  1.0000</r>
       <r>   0.7342  1.0000</r>
       <r>   0.7369  1.0000</r>
       <r>   0.7375  1.0000</r>
       <r>   0.7386  1.0000</r>
       <r>   1.4582  1.0000</r>
       <r>   1.4582  1.0000</r>
       <r>   2.1723  1.0000</r>
       <r>   2.1743  1.0000</r>
       <r>   2.1745  1.0000</r>
       <r>   2.8682  1.0000</r>
       <r>   2.8846  1.0000</r>
       <r>   2.8852  1.0000</r>
       <r>   2.8872  1.0000</r>
       <r>   2.8879  1.0000</r>
       <r>   3.5947  1.0000</r>
       <r>   4.2305  1.0000</r>
       <r>   4.2813  1.0000</r>
       <r>   4.3133  1.0000</r>
       <r>   4.3133  1.0000</r>
       <r>   4.9281  1.0000</r>
       <r>   4.9796  1.0000</r>
       <r>   4.9796  1.0000</r>
       <r>   5.1473  1.0000</r>
       <r>   5.6754  1.0000</r>
       <r>   5.7181  1.0000</r>
       <r>   5.7181  1.0000</r>
       <r>   5.8291  1.0000</r>
       <r>   6.3294  1.0000</r>
       <r>   6.3294  1.0000</r>
       <r>   6.3927  1.0000</r>
       <r>   6.3927  1.0000</r>
       <r>   6.4242  1.0000</r>
       <r>   6.5117  1.0000</r>
       <r>   7.0203  1.0000</r>
       <r>   7.0203  1.0000</r>
       <r>   7.0967  1.0000</r>
       <r>   7.1949  1.0000</r>
       <r>   7.3317  1.0000</r>
       <r>   7.7651  0.0000</r>
       <r>   7.7823  0.0000</r>
       <r>   7.7824  0.0000</r>
       <r>   7.8792  0.0000</r>
       <r>   7.8898  0.0000</r>
       <r>   8.0122  0.0000</r>
       <r>   8.5620  0.0000</r>
       <r>   8.5652  0.0000</r>
       <r>   8.5994  0.0000</r>
       <r>   8.6664  0.0000</r>
       <r>   9.2089  0.0000</r>
       <r>   9.4207  0.0000</r>
       <r>   9.4207  0.0000</r>
       <r>   9.7664  0.0000</r>
       <r>   9.7758  0.0000</r>
       <r>   9.7759  0.0000</r>
       <r>   9.9330  0.0000</r>
       <r>   9.9798  0.0000</r>
       <r>  10.0395  0.0000</r>
       <r>  10.1432  0.0000</r>
       <r>  10.1432  0.0000</r>
       <r>  10.1784  0.0000</r>
       <r>  10.6202  0.0000</r>
       <r>  10.8151  0.0000</r>
       <r>  10.8213  0.0000</r>
      </set>
      <set comment="kpoint 8">
       <r>  -2.6120  1.0000</r>
       <r>  -2.6092  1.0000</r>
       <r>  -1.1417  1.0000</r>
       <r>  -1.1388  1.0000</r>
       <r>  -0.4126  1.0000</r>
       <r>  -0.4115  1.0000</r>
       <r>  -0.4098  1.0000</r>
       <r>  -0.4087  1.0000</r>
       <r>   0.3135  1.0000</r>
       <r>   0.3164  1.0000</r>
       <r>   1.0362  1.0000</r>
       <r>   1.0373  1.0000</r>
       <r>   1.0391  1.0000</r>
       <r>   1.0402  1.0000</r>
       <r>   1.7499  1.0000</r>
       <r>   1.7512  1.0000</r>
       <r>   2.4699  1.0000</r>
       <r>   2.4711  1.0000</r>
       <r>   2.4728  1.0000</r>
       <r>   2.4739  1.0000</r>
       <r>   3.1763  1.0000</r>
       <r>   3.1777  1.0000</r>
       <r>   3.8836  1.0000</r>
       <r>   3.8839  1.0000</r>
       <r>   3.8849  1.0000</r>
       <r>   3.8852  1.0000</r>
       <r>   4.5201  1.0000</r>
       <r>   4.5230  1.0000</r>
       <r>   4.5870  1.0000</r>
       <r>   4.5883  1.0000</r>
       <r>   5.3026  1.0000</r>
       <r>   5.3028  1.0000</r>
       <r>   5.3041  1.0000</r>
       <r>   5.3042  1.0000</r>
       <r>   5.4298  1.0000</r>
       <r>   5.4328  1.0000</r>
       <r>   6.6143  1.0000</r>
       <r>   6.6155  1.0000</r>
       <r>   6.6172  1.0000</r>
       <r>   6.6184  1.0000</r>
       <r>   6.7010  1.0000</r>
       <r>   6.7010  1.0000</r>
       <r>   6.7024  1.0000</r>
       <r>   6.7026  1.0000</r>
       <r>   6.7165  1.0000</r>
       <r>   6.7192  1.0000</r>
       <r>   6.7948  1.0000</r>
       <r>   6.7979  1.0000</r>
       <r>   7.6184  1.0000</r>
       <r>   7.6213  1.0000</r>
       <r>   8.1626  0.0000</r>
       <r>   8.1657  0.0000</r>
       <r>   8.1851  0.0000</r>
       <r>   8.1878  0.0000</r>
       <r>   8.6995  0.0000</r>
       <r>   8.7013  0.0000</r>
       <r>   9.5334  0.0000</r>
       <r>   9.5357  0.0000</r>
       <r>   9.5595  0.0000</r>
       <r>   9.5624  0.0000</r>
       <r>   9.7315  0.0000</r>
       <r>   9.7323  0.0000</r>
       <r>   9.7345  0.0000</r>
       <r>   9.7352  0.0000</r>
       <r>  10.3184  0.0000</r>
       <r>  10.3198  0.0000</r>
       <r>  10.7395  0.0000</r>
       <r>  10.7397  0.0000</r>
       <r>  10.7414  0.0000</r>
       <r>  10.7416  0.0000</r>
       <r>  10.9034  0.0000</r>
       <r>  10.9064  0.0000</r>
      </set>
      <set comment="kpoint 9">
       <r>  -2.9806  1.0000</r>
       <r>  -2.2416  1.0000</r>
       <r>  -0.7777  1.0000</r>
       <r>  -0.7750  1.0000</r>
       <r>  -0.7750  1.0000</r>
       <r>  -0.7724  1.0000</r>
       <r>  -0.0498  1.0000</r>
       <r>  -0.0471  1.0000</r>
       <r>  -0.0471  1.0000</r>
       <r>  -0.0445  1.0000</r>
       <r>   0.6752  1.0000</r>
       <r>   1.3958  1.0000</r>
       <r>   1.3968  1.0000</r>
       <r>   1.3991  1.0000</r>
       <r>   1.4001  1.0000</r>
       <r>   2.1133  1.0000</r>
       <r>   2.1143  1.0000</r>
       <r>   2.1166  1.0000</r>
       <r>   2.1176  1.0000</r>
       <r>   2.8091  1.0000</r>
       <r>   2.8237  1.0000</r>
       <r>   2.8264  1.0000</r>
       <r>   2.8264  1.0000</r>
       <r>   2.8291  1.0000</r>
       <r>   4.9207  1.0000</r>
       <r>   4.9235  1.0000</r>
       <r>   4.9235  1.0000</r>
       <r>   4.9263  1.0000</r>
       <r>   4.9557  1.0000</r>
       <r>   4.9567  1.0000</r>
       <r>   4.9591  1.0000</r>
       <r>   4.9601  1.0000</r>
       <r>   5.0905  1.0000</r>
       <r>   5.0905  1.0000</r>
       <r>   5.7723  1.0000</r>
       <r>   5.7723  1.0000</r>
       <r>   6.3651  1.0000</r>
       <r>   6.3652  1.0000</r>
       <r>   7.0286  1.0000</r>
       <r>   7.0298  1.0000</r>
       <r>   7.0321  1.0000</r>
       <r>   7.0332  1.0000</r>
       <r>   7.0704  1.0000</r>
       <r>   7.0705  1.0000</r>
       <r>   7.1355  1.0000</r>
       <r>   7.1381  1.0000</r>
       <r>   7.1382  1.0000</r>
       <r>   7.1407  1.0000</r>
       <r>   7.8192  0.0000</r>
       <r>   7.8218  0.0000</r>
       <r>   7.8219  0.0000</r>
       <r>   7.8245  0.0000</r>
       <r>   8.5066  0.0000</r>
       <r>   8.5068  0.0000</r>
       <r>   8.5146  0.0000</r>
       <r>   8.5167  0.0000</r>
       <r>   8.5167  0.0000</r>
       <r>   8.5189  0.0000</r>
       <r>   8.6095  0.0000</r>
       <r>   9.2357  0.0000</r>
       <r>   9.2378  0.0000</r>
       <r>   9.2379  0.0000</r>
       <r>   9.2400  0.0000</r>
       <r>   9.9727  0.0000</r>
       <r>   9.9727  0.0000</r>
       <r>  10.5577  0.0000</r>
       <r>  10.5605  0.0000</r>
       <r>  10.5605  0.0000</r>
       <r>  10.5627  0.0000</r>
       <r>  10.5630  0.0000</r>
       <r>  10.5635  0.0000</r>
       <r>  10.7446  0.0000</r>
      </set>
      <set comment="kpoint 10">
       <r>  -2.9188  1.0000</r>
       <r>  -2.1802  1.0000</r>
       <r>  -1.4453  1.0000</r>
       <r>  -0.7156  1.0000</r>
       <r>  -0.7142  1.0000</r>
       <r>  -0.7128  1.0000</r>
       <r>   0.0117  1.0000</r>
       <r>   0.0134  1.0000</r>
       <r>   0.0145  1.0000</r>
       <r>   0.7344  1.0000</r>
       <r>   0.7363  1.0000</r>
       <r>   0.7375  1.0000</r>
       <r>   0.7390  1.0000</r>
       <r>   1.4582  1.0000</r>
       <r>   1.4582  1.0000</r>
       <r>   2.1718  1.0000</r>
       <r>   2.1743  1.0000</r>
       <r>   2.1751  1.0000</r>
       <r>   2.8682  1.0000</r>
       <r>   2.8853  1.0000</r>
       <r>   2.8856  1.0000</r>
       <r>   2.8868  1.0000</r>
       <r>   2.8872  1.0000</r>
       <r>   3.5947  1.0000</r>
       <r>   4.2305  1.0000</r>
       <r>   4.2813  1.0000</r>
       <r>   4.3133  1.0000</r>
       <r>   4.3133  1.0000</r>
       <r>   4.9281  1.0000</r>
       <r>   4.9796  1.0000</r>
       <r>   4.9796  1.0000</r>
       <r>   5.1473  1.0000</r>
       <r>   5.6754  1.0000</r>
       <r>   5.7181  1.0000</r>
       <r>   5.7181  1.0000</r>
       <r>   5.8291  1.0000</r>
       <r>   6.3294  1.0000</r>
       <r>   6.3294  1.0000</r>
       <r>   6.3927  1.0000</r>
       <r>   6.3927  1.0000</r>
       <r>   6.4242  1.0000</r>
       <r>   6.5117  1.0000</r>
       <r>   7.0203  1.0000</r>
       <r>   7.0203  1.0000</r>
       <r>   7.0967  1.0000</r>
       <r>   7.1949  1.0000</r>
       <r>   7.3317  1.0000</r>
       <r>   7.7651  0.0000</r>
       <r>   7.7824  0.0000</r>
       <r>   7.7824  0.0000</r>
       <r>   7.8792  0.0000</r>
       <r>   7.8898  0.0000</r>
       <r>   8.0122  0.0000</r>
       <r>   8.5628  0.0000</r>
       <r>   8.5644  0.0000</r>
       <r>   8.5994  0.0000</r>
       <r>   8.6664  0.0000</r>
       <r>   9.2089  0.0000</r>
       <r>   9.4207  0.0000</r>
       <r>   9.4207  0.0000</r>
       <r>   9.7665  0.0000</r>
       <r>   9.7758  0.0000</r>
       <r>   9.7758  0.0000</r>
       <r>   9.9330  0.0000</r>
       <r>   9.9798  0.0000</r>
       <r>  10.0395  0.0000</r>
       <r>  10.1432  0.0000</r>
       <r>  10.1432  0.0000</r>
       <r>  10.1784  0.0000</r>
       <r>  10.6202  0.0000</r>
       <r>  10.8151  0.0000</r>
       <r>  10.8286  0.0000</r>
      </set>
      <set comment="kpoint 11">
       <r>  -2.7338  1.0000</r>
       <r>  -1.9972  1.0000</r>
       <r>  -1.9951  1.0000</r>
       <r>  -1.2622  1.0000</r>
       <r>  -0.5320  1.0000</r>
       <r>  -0.5320  1.0000</r>
       <r>   0.1932  1.0000</r>
       <r>   0.1941  1.0000</r>
       <r>   0.1953  1.0000</r>
       <r>   0.1963  1.0000</r>
       <r>   0.9143  1.0000</r>
       <r>   0.9163  1.0000</r>
       <r>   0.9181  1.0000</r>
       <r>   0.9189  1.0000</r>
       <r>   1.6348  1.0000</r>
       <r>   1.6357  1.0000</r>
       <r>   3.0451  1.0000</r>
       <r>   3.0460  1.0000</r>
       <r>   3.0618  1.0000</r>
       <r>   3.0627  1.0000</r>
       <r>   3.0639  1.0000</r>
       <r>   3.0649  1.0000</r>
       <r>   3.6945  1.0000</r>
       <r>   3.6945  1.0000</r>
       <r>   3.7520  1.0000</r>
       <r>   3.7542  1.0000</r>
       <r>   3.8608  1.0000</r>
       <r>   3.8608  1.0000</r>
       <r>   4.4740  1.0000</r>
       <r>   5.0610  1.0000</r>
       <r>   5.0610  1.0000</r>
       <r>   5.2667  1.0000</r>
       <r>   5.2668  1.0000</r>
       <r>   5.3177  1.0000</r>
       <r>   5.8679  1.0000</r>
       <r>   5.8688  1.0000</r>
       <r>   5.8700  1.0000</r>
       <r>   5.8711  1.0000</r>
       <r>   5.9985  1.0000</r>
       <r>   6.0009  1.0000</r>
       <r>   6.5132  1.0000</r>
       <r>   6.5150  1.0000</r>
       <r>   6.5899  1.0000</r>
       <r>   6.5901  1.0000</r>
       <r>   6.5984  1.0000</r>
       <r>   6.6824  1.0000</r>
       <r>   7.3903  1.0000</r>
       <r>   7.3915  1.0000</r>
       <r>   8.0720  0.0000</r>
       <r>   8.6402  0.0000</r>
       <r>   8.6434  0.0000</r>
       <r>   8.6443  0.0000</r>
       <r>   8.6445  0.0000</r>
       <r>   8.6456  0.0000</r>
       <r>   8.7338  0.0000</r>
       <r>   8.7363  0.0000</r>
       <r>   8.8351  0.0000</r>
       <r>   8.8362  0.0000</r>
       <r>   9.4187  0.0000</r>
       <r>   9.4205  0.0000</r>
       <r>   9.4388  0.0000</r>
       <r>   9.4410  0.0000</r>
       <r>  10.2790  0.0000</r>
       <r>  10.2796  0.0000</r>
       <r>  10.6782  0.0000</r>
       <r>  10.6782  0.0000</r>
       <r>  10.7094  0.0000</r>
       <r>  10.7095  0.0000</r>
       <r>  10.7906  0.0000</r>
       <r>  10.7926  0.0000</r>
       <r>  10.8124  0.0000</r>
       <r>  10.8126  0.0000</r>
      </set>
      <set comment="kpoint 12">
       <r>  -2.4274  1.0000</r>
       <r>  -2.4246  1.0000</r>
       <r>  -1.6913  1.0000</r>
       <r>  -1.6885  1.0000</r>
       <r>  -0.2308  1.0000</r>
       <r>  -0.2297  1.0000</r>
       <r>  -0.2279  1.0000</r>
       <r>  -0.2268  1.0000</r>
       <r>   0.4946  1.0000</r>
       <r>   0.4957  1.0000</r>
       <r>   0.4974  1.0000</r>
       <r>   0.4985  1.0000</r>
       <r>   1.2145  1.0000</r>
       <r>   1.2174  1.0000</r>
       <r>   1.9289  1.0000</r>
       <r>   1.9303  1.0000</r>
       <r>   2.6430  1.0000</r>
       <r>   2.6444  1.0000</r>
       <r>   3.3394  1.0000</r>
       <r>   3.3423  1.0000</r>
       <r>   3.3555  1.0000</r>
       <r>   3.3568  1.0000</r>
       <r>   3.3584  1.0000</r>
       <r>   3.3597  1.0000</r>
       <r>   4.0578  1.0000</r>
       <r>   4.0581  1.0000</r>
       <r>   4.0591  1.0000</r>
       <r>   4.0595  1.0000</r>
       <r>   4.7776  1.0000</r>
       <r>   4.7777  1.0000</r>
       <r>   4.7791  1.0000</r>
       <r>   4.7791  1.0000</r>
       <r>   5.4563  1.0000</r>
       <r>   5.4576  1.0000</r>
       <r>   5.4623  1.0000</r>
       <r>   5.4632  1.0000</r>
       <r>   5.4651  1.0000</r>
       <r>   5.4662  1.0000</r>
       <r>   5.6002  1.0000</r>
       <r>   5.6033  1.0000</r>
       <r>   6.2825  1.0000</r>
       <r>   6.2856  1.0000</r>
       <r>   6.8575  1.0000</r>
       <r>   6.8601  1.0000</r>
       <r>   7.5682  1.0000</r>
       <r>   7.5684  1.0000</r>
       <r>   7.5697  1.0000</r>
       <r>   7.5699  1.0000</r>
       <r>   7.6053  1.0000</r>
       <r>   7.6068  1.0000</r>
       <r>   7.6608  1.0000</r>
       <r>   7.6635  1.0000</r>
       <r>   9.0187  0.0000</r>
       <r>   9.0218  0.0000</r>
       <r>   9.1090  0.0000</r>
       <r>   9.1119  0.0000</r>
       <r>   9.6121  0.0000</r>
       <r>   9.6121  0.0000</r>
       <r>   9.6137  0.0000</r>
       <r>   9.6137  0.0000</r>
       <r>   9.7047  0.0000</r>
       <r>   9.7070  0.0000</r>
       <r>  10.3544  0.0000</r>
       <r>  10.3576  0.0000</r>
       <r>  10.3895  0.0000</r>
       <r>  10.3919  0.0000</r>
       <r>  10.4779  0.0000</r>
       <r>  10.4791  0.0000</r>
       <r>  11.0773  0.0000</r>
       <r>  11.0817  0.0000</r>
       <r>  11.1387  0.0000</r>
       <r>  11.1536  0.0000</r>
      </set>
      <set comment="kpoint 13">
       <r>  -2.6722  1.0000</r>
       <r>  -2.6722  1.0000</r>
       <r>  -0.4763  1.0000</r>
       <r>  -0.4718  1.0000</r>
       <r>  -0.4713  1.0000</r>
       <r>  -0.4713  1.0000</r>
       <r>  -0.4713  1.0000</r>
       <r>  -0.4713  1.0000</r>
       <r>  -0.4708  1.0000</r>
       <r>  -0.4664  1.0000</r>
       <r>   1.6895  1.0000</r>
       <r>   1.6907  1.0000</r>
       <r>   1.6946  1.0000</r>
       <r>   1.6954  1.0000</r>
       <r>   1.6969  1.0000</r>
       <r>   1.6971  1.0000</r>
       <r>   1.6977  1.0000</r>
       <r>   1.6980  1.0000</r>
       <r>   1.6994  1.0000</r>
       <r>   1.7015  1.0000</r>
       <r>   3.8228  1.0000</r>
       <r>   3.8233  1.0000</r>
       <r>   3.8258  1.0000</r>
       <r>   3.8259  1.0000</r>
       <r>   3.8259  1.0000</r>
       <r>   3.8259  1.0000</r>
       <r>   3.8284  1.0000</r>
       <r>   3.8288  1.0000</r>
       <r>   5.3745  1.0000</r>
       <r>   5.3745  1.0000</r>
       <r>   5.3745  1.0000</r>
       <r>   5.3745  1.0000</r>
       <r>   5.9428  1.0000</r>
       <r>   5.9441  1.0000</r>
       <r>   5.9443  1.0000</r>
       <r>   5.9446  1.0000</r>
       <r>   5.9467  1.0000</r>
       <r>   5.9470  1.0000</r>
       <r>   5.9472  1.0000</r>
       <r>   5.9486  1.0000</r>
       <r>   6.6623  1.0000</r>
       <r>   6.6623  1.0000</r>
       <r>   6.6623  1.0000</r>
       <r>   6.6623  1.0000</r>
       <r>   7.4181  1.0000</r>
       <r>   7.4225  1.0000</r>
       <r>   7.4230  1.0000</r>
       <r>   7.4230  1.0000</r>
       <r>   7.4230  1.0000</r>
       <r>   7.4230  1.0000</r>
       <r>   7.4234  1.0000</r>
       <r>   7.4278  1.0000</r>
       <r>   8.8200  0.0000</r>
       <r>   8.8233  0.0000</r>
       <r>   8.8238  0.0000</r>
       <r>   8.8239  0.0000</r>
       <r>   8.8239  0.0000</r>
       <r>   8.8239  0.0000</r>
       <r>   8.8244  0.0000</r>
       <r>   8.8277  0.0000</r>
       <r>   9.4775  0.0000</r>
       <r>   9.4775  0.0000</r>
       <r>   9.4775  0.0000</r>
       <r>   9.4775  0.0000</r>
       <r>  10.2645  0.0000</r>
       <r>  10.2645  0.0000</r>
       <r>  10.8929  0.0000</r>
       <r>  10.8929  0.0000</r>
       <r>  10.8930  0.0000</r>
       <r>  10.8930  0.0000</r>
       <r>  11.5304  0.0000</r>
       <r>  11.5308  0.0000</r>
      </set>
      <set comment="kpoint 14">
       <r>  -2.6106  1.0000</r>
       <r>  -2.6106  1.0000</r>
       <r>  -1.1402  1.0000</r>
       <r>  -1.1402  1.0000</r>
       <r>  -0.4107  1.0000</r>
       <r>  -0.4106  1.0000</r>
       <r>  -0.4106  1.0000</r>
       <r>  -0.4106  1.0000</r>
       <r>   0.3150  1.0000</r>
       <r>   0.3150  1.0000</r>
       <r>   1.0382  1.0000</r>
       <r>   1.0382  1.0000</r>
       <r>   1.0382  1.0000</r>
       <r>   1.0382  1.0000</r>
       <r>   1.7505  1.0000</r>
       <r>   1.7505  1.0000</r>
       <r>   2.4719  1.0000</r>
       <r>   2.4719  1.0000</r>
       <r>   2.4719  1.0000</r>
       <r>   2.4719  1.0000</r>
       <r>   3.1770  1.0000</r>
       <r>   3.1770  1.0000</r>
       <r>   3.8844  1.0000</r>
       <r>   3.8844  1.0000</r>
       <r>   3.8844  1.0000</r>
       <r>   3.8844  1.0000</r>
       <r>   4.5216  1.0000</r>
       <r>   4.5216  1.0000</r>
       <r>   4.5877  1.0000</r>
       <r>   4.5877  1.0000</r>
       <r>   5.3034  1.0000</r>
       <r>   5.3035  1.0000</r>
       <r>   5.3035  1.0000</r>
       <r>   5.3035  1.0000</r>
       <r>   5.4313  1.0000</r>
       <r>   5.4313  1.0000</r>
       <r>   6.6163  1.0000</r>
       <r>   6.6163  1.0000</r>
       <r>   6.6163  1.0000</r>
       <r>   6.6163  1.0000</r>
       <r>   6.7017  1.0000</r>
       <r>   6.7018  1.0000</r>
       <r>   6.7018  1.0000</r>
       <r>   6.7018  1.0000</r>
       <r>   6.7178  1.0000</r>
       <r>   6.7179  1.0000</r>
       <r>   6.7963  1.0000</r>
       <r>   6.7964  1.0000</r>
       <r>   7.6198  1.0000</r>
       <r>   7.6198  1.0000</r>
       <r>   8.1642  0.0000</r>
       <r>   8.1642  0.0000</r>
       <r>   8.1865  0.0000</r>
       <r>   8.1865  0.0000</r>
       <r>   8.7004  0.0000</r>
       <r>   8.7004  0.0000</r>
       <r>   9.5346  0.0000</r>
       <r>   9.5346  0.0000</r>
       <r>   9.5609  0.0000</r>
       <r>   9.5609  0.0000</r>
       <r>   9.7334  0.0000</r>
       <r>   9.7334  0.0000</r>
       <r>   9.7334  0.0000</r>
       <r>   9.7334  0.0000</r>
       <r>  10.3191  0.0000</r>
       <r>  10.3191  0.0000</r>
       <r>  10.7405  0.0000</r>
       <r>  10.7405  0.0000</r>
       <r>  10.7405  0.0000</r>
       <r>  10.7406  0.0000</r>
       <r>  10.9049  0.0000</r>
       <r>  10.9489  0.0000</r>
      </set>
      <set comment="kpoint 15">
       <r>  -2.4260  1.0000</r>
       <r>  -2.4260  1.0000</r>
       <r>  -1.6899  1.0000</r>
       <r>  -1.6899  1.0000</r>
       <r>  -0.2288  1.0000</r>
       <r>  -0.2288  1.0000</r>
       <r>  -0.2288  1.0000</r>
       <r>  -0.2288  1.0000</r>
       <r>   0.4965  1.0000</r>
       <r>   0.4965  1.0000</r>
       <r>   0.4965  1.0000</r>
       <r>   0.4965  1.0000</r>
       <r>   1.2160  1.0000</r>
       <r>   1.2160  1.0000</r>
       <r>   1.9296  1.0000</r>
       <r>   1.9296  1.0000</r>
       <r>   2.6437  1.0000</r>
       <r>   2.6437  1.0000</r>
       <r>   3.3408  1.0000</r>
       <r>   3.3408  1.0000</r>
       <r>   3.3576  1.0000</r>
       <r>   3.3576  1.0000</r>
       <r>   3.3576  1.0000</r>
       <r>   3.3577  1.0000</r>
       <r>   4.0586  1.0000</r>
       <r>   4.0586  1.0000</r>
       <r>   4.0586  1.0000</r>
       <r>   4.0586  1.0000</r>
       <r>   4.7784  1.0000</r>
       <r>   4.7784  1.0000</r>
       <r>   4.7784  1.0000</r>
       <r>   4.7784  1.0000</r>
       <r>   5.4569  1.0000</r>
       <r>   5.4570  1.0000</r>
       <r>   5.4641  1.0000</r>
       <r>   5.4642  1.0000</r>
       <r>   5.4642  1.0000</r>
       <r>   5.4642  1.0000</r>
       <r>   5.6017  1.0000</r>
       <r>   5.6018  1.0000</r>
       <r>   6.2841  1.0000</r>
       <r>   6.2841  1.0000</r>
       <r>   6.8587  1.0000</r>
       <r>   6.8588  1.0000</r>
       <r>   7.5690  1.0000</r>
       <r>   7.5690  1.0000</r>
       <r>   7.5690  1.0000</r>
       <r>   7.5690  1.0000</r>
       <r>   7.6061  1.0000</r>
       <r>   7.6061  1.0000</r>
       <r>   7.6621  1.0000</r>
       <r>   7.6621  1.0000</r>
       <r>   9.0202  0.0000</r>
       <r>   9.0202  0.0000</r>
       <r>   9.1104  0.0000</r>
       <r>   9.1105  0.0000</r>
       <r>   9.6129  0.0000</r>
       <r>   9.6129  0.0000</r>
       <r>   9.6129  0.0000</r>
       <r>   9.6129  0.0000</r>
       <r>   9.7059  0.0000</r>
       <r>   9.7059  0.0000</r>
       <r>  10.3560  0.0000</r>
       <r>  10.3560  0.0000</r>
       <r>  10.3907  0.0000</r>
       <r>  10.3907  0.0000</r>
       <r>  10.4785  0.0000</r>
       <r>  10.4785  0.0000</r>
       <r>  11.0779  0.0000</r>
       <r>  11.0795  0.0000</r>
       <r>  11.1389  0.0000</r>
       <r>  11.1690  0.0000</r>
      </set>
      <set comment="kpoint 16">
       <r>  -2.1213  1.0000</r>
       <r>  -2.1192  1.0000</r>
       <r>  -2.1185  1.0000</r>
       <r>  -2.1164  1.0000</r>
       <r>   0.0703  1.0000</r>
       <r>   0.0724  1.0000</r>
       <r>   0.0734  1.0000</r>
       <r>   0.0736  1.0000</r>
       <r>   0.0741  1.0000</r>
       <r>   0.0743  1.0000</r>
       <r>   0.0753  1.0000</r>
       <r>   0.0774  1.0000</r>
       <r>   2.2238  1.0000</r>
       <r>   2.2256  1.0000</r>
       <r>   2.2272  1.0000</r>
       <r>   2.2275  1.0000</r>
       <r>   2.2276  1.0000</r>
       <r>   2.2279  1.0000</r>
       <r>   2.2295  1.0000</r>
       <r>   2.2313  1.0000</r>
       <r>   4.2632  1.0000</r>
       <r>   4.2647  1.0000</r>
       <r>   4.2654  1.0000</r>
       <r>   4.2659  1.0000</r>
       <r>   4.2659  1.0000</r>
       <r>   4.2664  1.0000</r>
       <r>   4.2670  1.0000</r>
       <r>   4.2685  1.0000</r>
       <r>   4.4538  1.0000</r>
       <r>   4.4540  1.0000</r>
       <r>   4.4549  1.0000</r>
       <r>   4.4556  1.0000</r>
       <r>   4.4557  1.0000</r>
       <r>   4.4565  1.0000</r>
       <r>   4.4575  1.0000</r>
       <r>   4.4576  1.0000</r>
       <r>   5.8832  1.0000</r>
       <r>   5.8856  1.0000</r>
       <r>   5.8863  1.0000</r>
       <r>   5.8887  1.0000</r>
       <r>   6.4065  1.0000</r>
       <r>   6.4075  1.0000</r>
       <r>   6.4082  1.0000</r>
       <r>   6.4093  1.0000</r>
       <r>   7.2756  1.0000</r>
       <r>   7.2767  1.0000</r>
       <r>   7.2779  1.0000</r>
       <r>   7.2791  1.0000</r>
       <r>   8.5410  0.0000</r>
       <r>   8.5419  0.0000</r>
       <r>   8.5420  0.0000</r>
       <r>   8.5424  0.0000</r>
       <r>   8.5432  0.0000</r>
       <r>   8.5436  0.0000</r>
       <r>   8.5437  0.0000</r>
       <r>   8.5447  0.0000</r>
       <r>   9.9858  0.0000</r>
       <r>   9.9895  0.0000</r>
       <r>   9.9909  0.0000</r>
       <r>   9.9912  0.0000</r>
       <r>   9.9913  0.0000</r>
       <r>   9.9916  0.0000</r>
       <r>   9.9929  0.0000</r>
       <r>   9.9966  0.0000</r>
       <r>  10.6935  0.0000</r>
       <r>  10.6950  0.0000</r>
       <r>  10.6964  0.0000</r>
       <r>  10.6966  0.0000</r>
       <r>  10.6970  0.0000</r>
       <r>  10.6972  0.0000</r>
       <r>  10.6986  0.0000</r>
       <r>  10.7001  0.0000</r>
      </set>
      <set comment="kpoint 17">
       <r>  -3.1041  1.0000</r>
       <r>  -1.6287  1.0000</r>
       <r>  -1.6287  1.0000</r>
       <r>  -0.8983  1.0000</r>
       <r>  -0.8950  1.0000</r>
       <r>  -0.1687  1.0000</r>
       <r>  -0.1687  1.0000</r>
       <r>  -0.1681  1.0000</r>
       <r>   0.5541  1.0000</r>
       <r>   0.5561  1.0000</r>
       <r>   0.5574  1.0000</r>
       <r>   0.5594  1.0000</r>
       <r>   1.2775  1.0000</r>
       <r>   1.2775  1.0000</r>
       <r>   1.9926  1.0000</r>
       <r>   1.9946  1.0000</r>
       <r>   1.9949  1.0000</r>
       <r>   1.9960  1.0000</r>
       <r>   1.9975  1.0000</r>
       <r>   1.9985  1.0000</r>
       <r>   2.7090  1.0000</r>
       <r>   3.3510  1.0000</r>
       <r>   3.3510  1.0000</r>
       <r>   3.4993  1.0000</r>
       <r>   3.4993  1.0000</r>
       <r>   4.0557  1.0000</r>
       <r>   4.0557  1.0000</r>
       <r>   4.8403  1.0000</r>
       <r>   4.8437  1.0000</r>
       <r>   4.9770  1.0000</r>
       <r>   5.4490  1.0000</r>
       <r>   5.4491  1.0000</r>
       <r>   6.0585  1.0000</r>
       <r>   6.0585  1.0000</r>
       <r>   6.2337  1.0000</r>
       <r>   6.2337  1.0000</r>
       <r>   6.2452  1.0000</r>
       <r>   6.3410  1.0000</r>
       <r>   6.3411  1.0000</r>
       <r>   6.8099  1.0000</r>
       <r>   6.8099  1.0000</r>
       <r>   7.1571  1.0000</r>
       <r>   7.1571  1.0000</r>
       <r>   7.5366  1.0000</r>
       <r>   7.5387  1.0000</r>
       <r>   7.5402  1.0000</r>
       <r>   7.5422  1.0000</r>
       <r>   7.7071  0.6143</r>
       <r>   7.7079  0.5719</r>
       <r>   7.7081  0.5572</r>
       <r>   7.7111  0.3939</r>
       <r>   7.7120  0.3419</r>
       <r>   8.4443  0.0000</r>
       <r>   8.4443  0.0000</r>
       <r>   8.9164  0.0000</r>
       <r>   8.9172  0.0000</r>
       <r>   8.9201  0.0000</r>
       <r>   8.9209  0.0000</r>
       <r>   9.0220  0.0000</r>
       <r>   9.0220  0.0000</r>
       <r>   9.0766  0.0000</r>
       <r>   9.0767  0.0000</r>
       <r>   9.1259  0.0000</r>
       <r>   9.2827  0.0000</r>
       <r>   9.2827  0.0000</r>
       <r>   9.5695  0.0000</r>
       <r>   9.5695  0.0000</r>
       <r>  10.0203  0.0000</r>
       <r>  10.0203  0.0000</r>
       <r>  10.4459  0.0000</r>
       <r>  10.5018  0.0000</r>
       <r>  10.5018  0.0000</r>
      </set>
      <set comment="kpoint 18">
       <r>  -3.0423  1.0000</r>
       <r>  -1.5691  1.0000</r>
       <r>  -1.5675  1.0000</r>
       <r>  -1.5661  1.0000</r>
       <r>  -0.1111  1.0000</r>
       <r>  -0.1084  1.0000</r>
       <r>  -0.1081  1.0000</r>
       <r>  -0.1076  1.0000</r>
       <r>  -0.1073  1.0000</r>
       <r>  -0.1046  1.0000</r>
       <r>   1.3345  1.0000</r>
       <r>   1.3365  1.0000</r>
       <r>   1.3373  1.0000</r>
       <r>   1.3375  1.0000</r>
       <r>   1.3384  1.0000</r>
       <r>   1.3385  1.0000</r>
       <r>   1.3409  1.0000</r>
       <r>   2.7659  1.0000</r>
       <r>   2.7675  1.0000</r>
       <r>   2.7681  1.0000</r>
       <r>   2.7687  1.0000</r>
       <r>   2.7692  1.0000</r>
       <r>   2.7708  1.0000</r>
       <r>   4.1134  1.0000</r>
       <r>   4.1140  1.0000</r>
       <r>   4.1146  1.0000</r>
       <r>   4.1960  1.0000</r>
       <r>   4.1967  1.0000</r>
       <r>   4.1974  1.0000</r>
       <r>   5.5024  1.0000</r>
       <r>   5.5038  1.0000</r>
       <r>   5.5051  1.0000</r>
       <r>   5.5051  1.0000</r>
       <r>   5.5063  1.0000</r>
       <r>   5.5077  1.0000</r>
       <r>   5.6029  1.0000</r>
       <r>   6.8949  1.0000</r>
       <r>   6.8952  1.0000</r>
       <r>   6.8966  1.0000</r>
       <r>   6.8967  1.0000</r>
       <r>   6.8978  1.0000</r>
       <r>   6.8983  1.0000</r>
       <r>   6.9040  1.0000</r>
       <r>   6.9055  1.0000</r>
       <r>   6.9071  1.0000</r>
       <r>   7.2146  1.0000</r>
       <r>   7.2152  1.0000</r>
       <r>   7.2159  1.0000</r>
       <r>   8.2849  0.0000</r>
       <r>   8.2858  0.0000</r>
       <r>   8.2868  0.0000</r>
       <r>   8.2868  0.0000</r>
       <r>   8.2879  0.0000</r>
       <r>   8.2887  0.0000</r>
       <r>   8.6093  0.0000</r>
       <r>   8.6100  0.0000</r>
       <r>   8.6111  0.0000</r>
       <r>   8.6111  0.0000</r>
       <r>   8.6121  0.0000</r>
       <r>   8.6129  0.0000</r>
       <r>   9.6621  0.0000</r>
       <r>   9.6630  0.0000</r>
       <r>   9.6639  0.0000</r>
       <r>  10.0323  0.0000</r>
       <r>  10.0330  0.0000</r>
       <r>  10.0339  0.0000</r>
       <r>  10.0889  0.0000</r>
       <r>  10.0901  0.0000</r>
       <r>  10.0909  0.0000</r>
       <r>  10.0909  0.0000</r>
       <r>  10.0916  0.0000</r>
       <r>  10.0929  0.0000</r>
      </set>
      <set comment="kpoint 19">
       <r>  -2.8571  1.0000</r>
       <r>  -2.1188  1.0000</r>
       <r>  -1.3843  1.0000</r>
       <r>  -1.3843  1.0000</r>
       <r>  -0.6534  1.0000</r>
       <r>  -0.6533  1.0000</r>
       <r>   0.0733  1.0000</r>
       <r>   0.0733  1.0000</r>
       <r>   0.0740  1.0000</r>
       <r>   0.7942  1.0000</r>
       <r>   0.7970  1.0000</r>
       <r>   0.7976  1.0000</r>
       <r>   0.7987  1.0000</r>
       <r>   1.5173  1.0000</r>
       <r>   1.5173  1.0000</r>
       <r>   2.2313  1.0000</r>
       <r>   2.2318  1.0000</r>
       <r>   2.2345  1.0000</r>
       <r>   2.2350  1.0000</r>
       <r>   2.9274  1.0000</r>
       <r>   2.9461  1.0000</r>
       <r>   3.5800  1.0000</r>
       <r>   3.6534  1.0000</r>
       <r>   3.6534  1.0000</r>
       <r>   3.7406  1.0000</r>
       <r>   4.2887  1.0000</r>
       <r>   4.2888  1.0000</r>
       <r>   4.3395  1.0000</r>
       <r>   4.3395  1.0000</r>
       <r>   4.9858  1.0000</r>
       <r>   4.9858  1.0000</r>
       <r>   5.0746  1.0000</r>
       <r>   5.0746  1.0000</r>
       <r>   5.6139  1.0000</r>
       <r>   5.6140  1.0000</r>
       <r>   5.7532  1.0000</r>
       <r>   5.8146  1.0000</r>
       <r>   5.8146  1.0000</r>
       <r>   6.3859  1.0000</r>
       <r>   6.3859  1.0000</r>
       <r>   6.4756  1.0000</r>
       <r>   7.0746  1.0000</r>
       <r>   7.0747  1.0000</r>
       <r>   7.1460  1.0000</r>
       <r>   7.1460  1.0000</r>
       <r>   7.3883  1.0000</r>
       <r>   7.3883  1.0000</r>
       <r>   7.7079  0.5703</r>
       <r>   7.7079  0.5686</r>
       <r>   7.7685  0.0000</r>
       <r>   7.7685  0.0000</r>
       <r>   8.1585  0.0000</r>
       <r>   8.1585  0.0000</r>
       <r>   8.5314  0.0000</r>
       <r>   8.7223  0.0000</r>
       <r>   8.8101  0.0000</r>
       <r>   8.8101  0.0000</r>
       <r>   9.1455  0.0000</r>
       <r>   9.1455  0.0000</r>
       <r>   9.5141  0.0000</r>
       <r>   9.5141  0.0000</r>
       <r>   9.8252  0.0000</r>
       <r>   9.8252  0.0000</r>
       <r>   9.9225  0.0000</r>
       <r>   9.9225  0.0000</r>
       <r>  10.4301  0.0000</r>
       <r>  10.4302  0.0000</r>
       <r>  10.5179  0.0000</r>
       <r>  10.5179  0.0000</r>
       <r>  10.8751  0.0000</r>
       <r>  10.8779  0.0000</r>
       <r>  10.9075  0.0000</r>
      </set>
      <set comment="kpoint 20">
       <r>  -2.5505  1.0000</r>
       <r>  -2.5476  1.0000</r>
       <r>  -1.0817  1.0000</r>
       <r>  -1.0797  1.0000</r>
       <r>  -1.0788  1.0000</r>
       <r>  -1.0769  1.0000</r>
       <r>   0.3727  1.0000</r>
       <r>   0.3748  1.0000</r>
       <r>   0.3749  1.0000</r>
       <r>   0.3758  1.0000</r>
       <r>   0.3769  1.0000</r>
       <r>   0.3783  1.0000</r>
       <r>   1.8089  1.0000</r>
       <r>   1.8105  1.0000</r>
       <r>   1.8152  1.0000</r>
       <r>   1.8154  1.0000</r>
       <r>   1.8177  1.0000</r>
       <r>   1.8186  1.0000</r>
       <r>   3.2351  1.0000</r>
       <r>   3.2356  1.0000</r>
       <r>   3.2366  1.0000</r>
       <r>   3.2368  1.0000</r>
       <r>   3.2396  1.0000</r>
       <r>   3.2424  1.0000</r>
       <r>   4.5780  1.0000</r>
       <r>   4.5783  1.0000</r>
       <r>   4.5810  1.0000</r>
       <r>   4.5812  1.0000</r>
       <r>   4.6431  1.0000</r>
       <r>   4.6436  1.0000</r>
       <r>   4.6445  1.0000</r>
       <r>   4.6449  1.0000</r>
       <r>   4.6603  1.0000</r>
       <r>   4.6618  1.0000</r>
       <r>   5.9813  1.0000</r>
       <r>   5.9832  1.0000</r>
       <r>   5.9842  1.0000</r>
       <r>   5.9861  1.0000</r>
       <r>   6.0605  1.0000</r>
       <r>   6.0612  1.0000</r>
       <r>   6.0619  1.0000</r>
       <r>   6.0626  1.0000</r>
       <r>   7.3626  1.0000</r>
       <r>   7.3632  1.0000</r>
       <r>   7.3656  1.0000</r>
       <r>   7.3662  1.0000</r>
       <r>   7.4545  1.0000</r>
       <r>   7.4560  1.0000</r>
       <r>   7.6660  1.0000</r>
       <r>   7.6667  1.0000</r>
       <r>   7.6688  1.0000</r>
       <r>   7.6695  1.0000</r>
       <r>   8.7645  0.0000</r>
       <r>   8.7650  0.0000</r>
       <r>   8.7663  0.0000</r>
       <r>   8.7668  0.0000</r>
       <r>   9.1048  0.0000</r>
       <r>   9.1056  0.0000</r>
       <r>   9.1077  0.0000</r>
       <r>   9.1084  0.0000</r>
       <r>  10.1108  0.0000</r>
       <r>  10.1116  0.0000</r>
       <r>  10.1127  0.0000</r>
       <r>  10.1134  0.0000</r>
       <r>  10.3681  0.0000</r>
       <r>  10.3694  0.0000</r>
       <r>  10.4505  0.0000</r>
       <r>  10.4526  0.0000</r>
       <r>  10.4536  0.0000</r>
       <r>  10.4557  0.0000</r>
       <r>  11.4337  0.0000</r>
       <r>  11.4500  0.0000</r>
      </set>
      <set comment="kpoint 21">
       <r>  -2.9188  1.0000</r>
       <r>  -2.1802  1.0000</r>
       <r>  -1.4453  1.0000</r>
       <r>  -0.7164  1.0000</r>
       <r>  -0.7142  1.0000</r>
       <r>  -0.7121  1.0000</r>
       <r>   0.0111  1.0000</r>
       <r>   0.0131  1.0000</r>
       <r>   0.0154  1.0000</r>
       <r>   0.7344  1.0000</r>
       <r>   0.7363  1.0000</r>
       <r>   0.7370  1.0000</r>
       <r>   0.7394  1.0000</r>
       <r>   1.4566  1.0000</r>
       <r>   1.4599  1.0000</r>
       <r>   2.1721  1.0000</r>
       <r>   2.1730  1.0000</r>
       <r>   2.1760  1.0000</r>
       <r>   2.8682  1.0000</r>
       <r>   2.8839  1.0000</r>
       <r>   2.8852  1.0000</r>
       <r>   2.8873  1.0000</r>
       <r>   2.8885  1.0000</r>
       <r>   3.5947  1.0000</r>
       <r>   4.2305  1.0000</r>
       <r>   4.2813  1.0000</r>
       <r>   4.3116  1.0000</r>
       <r>   4.3149  1.0000</r>
       <r>   4.9281  1.0000</r>
       <r>   4.9779  1.0000</r>
       <r>   4.9813  1.0000</r>
       <r>   5.1473  1.0000</r>
       <r>   5.6754  1.0000</r>
       <r>   5.7164  1.0000</r>
       <r>   5.7198  1.0000</r>
       <r>   5.8291  1.0000</r>
       <r>   6.3277  1.0000</r>
       <r>   6.3312  1.0000</r>
       <r>   6.3910  1.0000</r>
       <r>   6.3944  1.0000</r>
       <r>   6.4242  1.0000</r>
       <r>   6.5117  1.0000</r>
       <r>   7.0185  1.0000</r>
       <r>   7.0221  1.0000</r>
       <r>   7.0967  1.0000</r>
       <r>   7.1950  1.0000</r>
       <r>   7.3317  1.0000</r>
       <r>   7.7650  0.0000</r>
       <r>   7.7806  0.0000</r>
       <r>   7.7841  0.0000</r>
       <r>   7.8791  0.0000</r>
       <r>   7.8898  0.0000</r>
       <r>   8.0122  0.0000</r>
       <r>   8.5633  0.0000</r>
       <r>   8.5638  0.0000</r>
       <r>   8.5994  0.0000</r>
       <r>   8.6664  0.0000</r>
       <r>   9.2089  0.0000</r>
       <r>   9.4193  0.0000</r>
       <r>   9.4221  0.0000</r>
       <r>   9.7665  0.0000</r>
       <r>   9.7739  0.0000</r>
       <r>   9.7776  0.0000</r>
       <r>   9.9330  0.0000</r>
       <r>   9.9798  0.0000</r>
       <r>  10.0395  0.0000</r>
       <r>  10.1416  0.0000</r>
       <r>  10.1447  0.0000</r>
       <r>  10.1784  0.0000</r>
       <r>  10.6202  0.0000</r>
       <r>  10.8146  0.0000</r>
       <r>  10.8243  0.0000</r>
      </set>
      <set comment="kpoint 22">
       <r>  -2.8571  1.0000</r>
       <r>  -2.1188  1.0000</r>
       <r>  -1.3853  1.0000</r>
       <r>  -1.3832  1.0000</r>
       <r>  -0.6544  1.0000</r>
       <r>  -0.6523  1.0000</r>
       <r>   0.0718  1.0000</r>
       <r>   0.0736  1.0000</r>
       <r>   0.0753  1.0000</r>
       <r>   0.7950  1.0000</r>
       <r>   0.7960  1.0000</r>
       <r>   0.7974  1.0000</r>
       <r>   0.7992  1.0000</r>
       <r>   1.5168  1.0000</r>
       <r>   1.5178  1.0000</r>
       <r>   2.2310  1.0000</r>
       <r>   2.2330  1.0000</r>
       <r>   2.2338  1.0000</r>
       <r>   2.2347  1.0000</r>
       <r>   2.9274  1.0000</r>
       <r>   2.9461  1.0000</r>
       <r>   3.5800  1.0000</r>
       <r>   3.6524  1.0000</r>
       <r>   3.6545  1.0000</r>
       <r>   3.7406  1.0000</r>
       <r>   4.2883  1.0000</r>
       <r>   4.2892  1.0000</r>
       <r>   4.3384  1.0000</r>
       <r>   4.3406  1.0000</r>
       <r>   4.9853  1.0000</r>
       <r>   4.9862  1.0000</r>
       <r>   5.0741  1.0000</r>
       <r>   5.0751  1.0000</r>
       <r>   5.6129  1.0000</r>
       <r>   5.6150  1.0000</r>
       <r>   5.7532  1.0000</r>
       <r>   5.8134  1.0000</r>
       <r>   5.8158  1.0000</r>
       <r>   6.3848  1.0000</r>
       <r>   6.3870  1.0000</r>
       <r>   6.4756  1.0000</r>
       <r>   7.0740  1.0000</r>
       <r>   7.0753  1.0000</r>
       <r>   7.1454  1.0000</r>
       <r>   7.1465  1.0000</r>
       <r>   7.3878  1.0000</r>
       <r>   7.3888  1.0000</r>
       <r>   7.7072  0.6088</r>
       <r>   7.7087  0.5276</r>
       <r>   7.7679  0.0000</r>
       <r>   7.7691  0.0000</r>
       <r>   8.1584  0.0000</r>
       <r>   8.1587  0.0000</r>
       <r>   8.5314  0.0000</r>
       <r>   8.7223  0.0000</r>
       <r>   8.8095  0.0000</r>
       <r>   8.8107  0.0000</r>
       <r>   9.1444  0.0000</r>
       <r>   9.1466  0.0000</r>
       <r>   9.5136  0.0000</r>
       <r>   9.5147  0.0000</r>
       <r>   9.8247  0.0000</r>
       <r>   9.8257  0.0000</r>
       <r>   9.9213  0.0000</r>
       <r>   9.9237  0.0000</r>
       <r>  10.4293  0.0000</r>
       <r>  10.4310  0.0000</r>
       <r>  10.5173  0.0000</r>
       <r>  10.5185  0.0000</r>
       <r>  10.8741  0.0000</r>
       <r>  10.8844  0.0000</r>
       <r>  10.9072  0.0000</r>
      </set>
      <set comment="kpoint 23">
       <r>  -2.6722  1.0000</r>
       <r>  -1.9359  1.0000</r>
       <r>  -1.9338  1.0000</r>
       <r>  -1.2022  1.0000</r>
       <r>  -1.2002  1.0000</r>
       <r>  -0.4722  1.0000</r>
       <r>  -0.4701  1.0000</r>
       <r>   0.2544  1.0000</r>
       <r>   0.2556  1.0000</r>
       <r>   0.9741  1.0000</r>
       <r>   0.9762  1.0000</r>
       <r>   0.9771  1.0000</r>
       <r>   0.9792  1.0000</r>
       <r>   1.6942  1.0000</r>
       <r>   1.6953  1.0000</r>
       <r>   1.6976  1.0000</r>
       <r>   2.4097  1.0000</r>
       <r>   2.4118  1.0000</r>
       <r>   3.1042  1.0000</r>
       <r>   3.1051  1.0000</r>
       <r>   3.1211  1.0000</r>
       <r>   3.1221  1.0000</r>
       <r>   3.8107  1.0000</r>
       <r>   3.8129  1.0000</r>
       <r>   3.8272  1.0000</r>
       <r>   3.8294  1.0000</r>
       <r>   4.4632  1.0000</r>
       <r>   4.5121  1.0000</r>
       <r>   4.5130  1.0000</r>
       <r>   4.5304  1.0000</r>
       <r>   4.5479  1.0000</r>
       <r>   4.5488  1.0000</r>
       <r>   5.1563  1.0000</r>
       <r>   5.1586  1.0000</r>
       <r>   5.2298  1.0000</r>
       <r>   5.2320  1.0000</r>
       <r>   5.8681  1.0000</r>
       <r>   5.9279  1.0000</r>
       <r>   5.9288  1.0000</r>
       <r>   5.9492  1.0000</r>
       <r>   6.6101  1.0000</r>
       <r>   6.6114  1.0000</r>
       <r>   6.6227  1.0000</r>
       <r>   6.6249  1.0000</r>
       <r>   7.3442  1.0000</r>
       <r>   7.5508  1.0000</r>
       <r>   7.9292  0.0000</r>
       <r>   7.9316  0.0000</r>
       <r>   8.0097  0.0000</r>
       <r>   8.0109  0.0000</r>
       <r>   8.2995  0.0000</r>
       <r>   8.3013  0.0000</r>
       <r>   8.6274  0.0000</r>
       <r>   8.6288  0.0000</r>
       <r>   8.7070  0.0000</r>
       <r>   8.8840  0.0000</r>
       <r>   8.8852  0.0000</r>
       <r>   8.9946  0.0000</r>
       <r>   9.3900  0.0000</r>
       <r>   9.3912  0.0000</r>
       <r>   9.5868  0.0000</r>
       <r>   9.5883  0.0000</r>
       <r>  10.0049  0.0000</r>
       <r>  10.0061  0.0000</r>
       <r>  10.0494  0.0000</r>
       <r>  10.2758  0.0000</r>
       <r>  10.2766  0.0000</r>
       <r>  10.6602  0.0000</r>
       <r>  10.6627  0.0000</r>
       <r>  10.9856  0.0000</r>
       <r>  10.9867  0.0000</r>
       <r>  11.0929  0.0000</r>
      </set>
      <set comment="kpoint 24">
       <r>  -2.3660  1.0000</r>
       <r>  -2.3631  1.0000</r>
       <r>  -1.6301  1.0000</r>
       <r>  -1.6273  1.0000</r>
       <r>  -0.8980  1.0000</r>
       <r>  -0.8952  1.0000</r>
       <r>  -0.1695  1.0000</r>
       <r>  -0.1666  1.0000</r>
       <r>   0.5548  1.0000</r>
       <r>   0.5576  1.0000</r>
       <r>   1.2744  1.0000</r>
       <r>   1.2764  1.0000</r>
       <r>   1.2772  1.0000</r>
       <r>   1.2792  1.0000</r>
       <r>   1.9886  1.0000</r>
       <r>   1.9899  1.0000</r>
[...]
       <r>   6.8588  1.0000</r>
       <r>   7.5670  1.0000</r>
       <r>   7.5675  1.0000</r>
       <r>   7.5705  1.0000</r>
       <r>   7.5710  1.0000</r>
       <r>   7.6060  1.0000</r>
       <r>   7.6061  1.0000</r>
       <r>   7.6621  1.0000</r>
       <r>   7.6621  1.0000</r>
       <r>   9.0201  0.0000</r>
       <r>   9.0202  0.0000</r>
       <r>   9.1105  0.0000</r>
       <r>   9.1106  0.0000</r>
       <r>   9.6109  0.0000</r>
       <r>   9.6113  0.0000</r>
       <r>   9.6145  0.0000</r>
       <r>   9.6149  0.0000</r>
       <r>   9.7059  0.0000</r>
       <r>   9.7059  0.0000</r>
       <r>  10.3559  0.0000</r>
       <r>  10.3560  0.0000</r>
       <r>  10.3907  0.0000</r>
       <r>  10.3908  0.0000</r>
       <r>  10.4786  0.0000</r>
       <r>  10.4786  0.0000</r>
       <r>  11.0774  0.0000</r>
       <r>  11.0778  0.0000</r>
       <r>  11.1343  0.0000</r>
       <r>  11.1420  0.0000</r>
      </set>
      <set comment="kpoint 34">
       <r>  -2.3645  1.0000</r>
       <r>  -2.3645  1.0000</r>
       <r>  -1.6287  1.0000</r>
       <r>  -1.6287  1.0000</r>
       <r>  -0.8966  1.0000</r>
       <r>  -0.8966  1.0000</r>
       <r>  -0.1681  1.0000</r>
       <r>  -0.1680  1.0000</r>
       <r>   0.5562  1.0000</r>
       <r>   0.5562  1.0000</r>
       <r>   1.2755  1.0000</r>
       <r>   1.2759  1.0000</r>
       <r>   1.2777  1.0000</r>
       <r>   1.2781  1.0000</r>
       <r>   1.9892  1.0000</r>
       <r>   1.9893  1.0000</r>
       <r>   2.7030  1.0000</r>
       <r>   2.7031  1.0000</r>
       <r>   2.7078  1.0000</r>
       <r>   2.7079  1.0000</r>
       <r>   3.3997  1.0000</r>
       <r>   3.3998  1.0000</r>
       <r>   3.4130  1.0000</r>
       <r>   3.4131  1.0000</r>
       <r>   4.0375  1.0000</r>
       <r>   4.0375  1.0000</r>
       <r>   4.2189  1.0000</r>
       <r>   4.2189  1.0000</r>
       <r>   4.7206  1.0000</r>
       <r>   4.7206  1.0000</r>
       <r>   4.7535  1.0000</r>
       <r>   4.7535  1.0000</r>
       <r>   4.9223  1.0000</r>
       <r>   4.9223  1.0000</r>
       <r>   5.3868  1.0000</r>
       <r>   5.3869  1.0000</r>
       <r>   5.5365  1.0000</r>
       <r>   5.5365  1.0000</r>
       <r>   5.5925  1.0000</r>
       <r>   5.5925  1.0000</r>
       <r>   6.2172  1.0000</r>
       <r>   6.2172  1.0000</r>
       <r>   6.9313  1.0000</r>
       <r>   6.9313  1.0000</r>
       <r>   7.5154  1.0000</r>
       <r>   7.5154  1.0000</r>
       <r>   7.9623  0.0000</r>
       <r>   7.9623  0.0000</r>
       <r>   8.2238  0.0000</r>
       <r>   8.2238  0.0000</r>
       <r>   8.3194  0.0000</r>
       <r>   8.3194  0.0000</r>
       <r>   8.5886  0.0000</r>
       <r>   8.5886  0.0000</r>
       <r>   8.8504  0.0000</r>
       <r>   8.8504  0.0000</r>
       <r>   8.9813  0.0000</r>
       <r>   8.9813  0.0000</r>
       <r>   9.2526  0.0000</r>
       <r>   9.2526  0.0000</r>
       <r>   9.5955  0.0000</r>
       <r>   9.5955  0.0000</r>
       <r>  10.2171  0.0000</r>
       <r>  10.2171  0.0000</r>
       <r>  10.3558  0.0000</r>
       <r>  10.3558  0.0000</r>
       <r>  10.5815  0.0000</r>
       <r>  10.5815  0.0000</r>
       <r>  10.6075  0.0000</r>
       <r>  10.6075  0.0000</r>
       <r>  11.0666  0.0000</r>
       <r>  11.0666  0.0000</r>
      </set>
      <set comment="kpoint 35">
       <r>  -2.1802  1.0000</r>
       <r>  -2.1802  1.0000</r>
       <r>  -1.4474  1.0000</r>
       <r>  -1.4454  1.0000</r>
       <r>  -1.4453  1.0000</r>
       <r>  -1.4433  1.0000</r>
       <r>  -0.7141  1.0000</r>
       <r>  -0.7141  1.0000</r>
       <r>   1.4537  1.0000</r>
       <r>   1.4556  1.0000</r>
       <r>   1.4558  1.0000</r>
       <r>   1.4578  1.0000</r>
       <r>   2.1672  1.0000</r>
       <r>   2.1679  1.0000</r>
       <r>   2.1722  1.0000</r>
       <r>   2.1726  1.0000</r>
       <r>   2.1729  1.0000</r>
       <r>   2.1739  1.0000</r>
       <r>   2.8798  1.0000</r>
       <r>   2.8799  1.0000</r>
       <r>   2.8820  1.0000</r>
       <r>   2.8821  1.0000</r>
       <r>   3.5754  1.0000</r>
       <r>   3.5763  1.0000</r>
       <r>   3.5765  1.0000</r>
       <r>   3.5771  1.0000</r>
       <r>   3.5884  1.0000</r>
       <r>   3.5887  1.0000</r>
       <r>   4.2765  1.0000</r>
       <r>   4.2784  1.0000</r>
       <r>   4.2786  1.0000</r>
       <r>   4.2806  1.0000</r>
       <r>   5.0162  1.0000</r>
       <r>   5.0162  1.0000</r>
       <r>   5.7096  1.0000</r>
       <r>   5.7096  1.0000</r>
       <r>   5.7118  1.0000</r>
       <r>   5.7119  1.0000</r>
       <r>   6.4070  1.0000</r>
       <r>   6.4078  1.0000</r>
       <r>   6.4080  1.0000</r>
       <r>   6.4089  1.0000</r>
       <r>   7.0822  1.0000</r>
       <r>   7.0833  1.0000</r>
       <r>   7.0834  1.0000</r>
       <r>   7.0844  1.0000</r>
       <r>   7.7586  0.0000</r>
       <r>   7.7594  0.0000</r>
       <r>   7.7598  0.0000</r>
       <r>   7.7605  0.0000</r>
       <r>   8.4611  0.0000</r>
       <r>   8.4612  0.0000</r>
       <r>   8.4634  0.0000</r>
       <r>   8.4635  0.0000</r>
       <r>   9.1228  0.0000</r>
       <r>   9.1228  0.0000</r>
       <r>   9.1798  0.0000</r>
       <r>   9.1798  0.0000</r>
       <r>   9.3879  0.0000</r>
       <r>   9.3884  0.0000</r>
       <r>   9.3887  0.0000</r>
       <r>   9.3892  0.0000</r>
       <r>  10.0710  0.0000</r>
       <r>  10.0720  0.0000</r>
       <r>  10.0721  0.0000</r>
       <r>  10.0732  0.0000</r>
       <r>  10.7451  0.0000</r>
       <r>  10.7451  0.0000</r>
       <r>  11.2065  0.0000</r>
       <r>  11.2075  0.0000</r>
       <r>  11.2076  0.0000</r>
       <r>  11.2086  0.0000</r>
      </set>
      <set comment="kpoint 36">
       <r>  -1.8761  1.0000</r>
       <r>  -1.8739  1.0000</r>
       <r>  -1.8732  1.0000</r>
       <r>  -1.8711  1.0000</r>
       <r>  -1.1427  1.0000</r>
       <r>  -1.1406  1.0000</r>
       <r>  -1.1399  1.0000</r>
       <r>  -1.1377  1.0000</r>
       <r>   1.7523  1.0000</r>
       <r>   1.7545  1.0000</r>
       <r>   1.7552  1.0000</r>
       <r>   1.7574  1.0000</r>
       <r>   2.4618  1.0000</r>
       <r>   2.4636  1.0000</r>
       <r>   2.4652  1.0000</r>
       <r>   2.4655  1.0000</r>
       <r>   2.4656  1.0000</r>
       <r>   2.4659  1.0000</r>
       <r>   2.4675  1.0000</r>
       <r>   2.4693  1.0000</r>
       <r>   3.1730  1.0000</r>
       <r>   3.1748  1.0000</r>
       <r>   3.1764  1.0000</r>
       <r>   3.1767  1.0000</r>
       <r>   3.1768  1.0000</r>
       <r>   3.1771  1.0000</r>
       <r>   3.1787  1.0000</r>
       <r>   3.1805  1.0000</r>
       <r>   3.8676  1.0000</r>
       <r>   3.8698  1.0000</r>
       <r>   3.8705  1.0000</r>
       <r>   3.8727  1.0000</r>
       <r>   5.9965  1.0000</r>
       <r>   5.9982  1.0000</r>
       <r>   6.0000  1.0000</r>
       <r>   6.0003  1.0000</r>
       <r>   6.0004  1.0000</r>
       <r>   6.0006  1.0000</r>
       <r>   6.0024  1.0000</r>
       <r>   6.0042  1.0000</r>
       <r>   6.6864  1.0000</r>
       <r>   6.6875  1.0000</r>
       <r>   6.6878  1.0000</r>
       <r>   6.6890  1.0000</r>
       <r>   7.3854  1.0000</r>
       <r>   7.3865  1.0000</r>
       <r>   7.3869  1.0000</r>
       <r>   7.3880  1.0000</r>
       <r>   8.0519  0.0000</r>
       <r>   8.0540  0.0000</r>
       <r>   8.0558  0.0000</r>
       <r>   8.0560  0.0000</r>
       <r>   8.0561  0.0000</r>
       <r>   8.0564  0.0000</r>
       <r>   8.0581  0.0000</r>
       <r>   8.0602  0.0000</r>
       <r>   9.6701  0.0000</r>
       <r>   9.6721  0.0000</r>
       <r>   9.6730  0.0000</r>
       <r>   9.6749  0.0000</r>
       <r>  10.1444  0.0000</r>
       <r>  10.1456  0.0000</r>
       <r>  10.1460  0.0000</r>
       <r>  10.1472  0.0000</r>
       <r>  11.0203  0.0000</r>
       <r>  11.0211  0.0000</r>
       <r>  11.0213  0.0000</r>
       <r>  11.0225  0.0000</r>
       <r>  11.0228  0.0000</r>
       <r>  11.0239  0.0000</r>
       <r>  11.0242  0.0000</r>
       <r>  11.0250  0.0000</r>
      </set>
      <set comment="kpoint 37">
       <r>  -2.1189  1.0000</r>
       <r>  -2.1188  1.0000</r>
       <r>  -2.1188  1.0000</r>
       <r>  -2.1188  1.0000</r>
       <r>   0.0688  1.0000</r>
       <r>   0.0732  1.0000</r>
       <r>   0.0732  1.0000</r>
       <r>   0.0736  1.0000</r>
       <r>   0.0741  1.0000</r>
       <r>   0.0745  1.0000</r>
       <r>   0.0745  1.0000</r>
       <r>   0.0789  1.0000</r>
       <r>   2.2276  1.0000</r>
       <r>   2.2276  1.0000</r>
       <r>   2.2276  1.0000</r>
       <r>   2.2276  1.0000</r>
       <r>   2.2276  1.0000</r>
       <r>   2.2276  1.0000</r>
       <r>   2.2276  1.0000</r>
       <r>   2.2276  1.0000</r>
       <r>   4.2645  1.0000</r>
       <r>   4.2645  1.0000</r>
       <r>   4.2658  1.0000</r>
       <r>   4.2659  1.0000</r>
       <r>   4.2659  1.0000</r>
       <r>   4.2659  1.0000</r>
       <r>   4.2673  1.0000</r>
       <r>   4.2673  1.0000</r>
       <r>   4.4541  1.0000</r>
       <r>   4.4541  1.0000</r>
       <r>   4.4557  1.0000</r>
       <r>   4.4557  1.0000</r>
       <r>   4.4557  1.0000</r>
       <r>   4.4558  1.0000</r>
       <r>   4.4573  1.0000</r>
       <r>   4.4573  1.0000</r>
       <r>   5.8859  1.0000</r>
       <r>   5.8859  1.0000</r>
       <r>   5.8859  1.0000</r>
       <r>   5.8860  1.0000</r>
       <r>   6.4079  1.0000</r>
       <r>   6.4079  1.0000</r>
       <r>   6.4079  1.0000</r>
       <r>   6.4079  1.0000</r>
       <r>   7.2773  1.0000</r>
       <r>   7.2773  1.0000</r>
       <r>   7.2773  1.0000</r>
       <r>   7.2773  1.0000</r>
       <r>   8.5406  0.0000</r>
       <r>   8.5406  0.0000</r>
       <r>   8.5411  0.0000</r>
       <r>   8.5420  0.0000</r>
       <r>   8.5436  0.0000</r>
       <r>   8.5446  0.0000</r>
       <r>   8.5451  0.0000</r>
       <r>   8.5451  0.0000</r>
       <r>   9.9912  0.0000</r>
       <r>   9.9912  0.0000</r>
       <r>   9.9912  0.0000</r>
       <r>   9.9912  0.0000</r>
       <r>   9.9912  0.0000</r>
       <r>   9.9912  0.0000</r>
       <r>   9.9912  0.0000</r>
       <r>   9.9913  0.0000</r>
       <r>  10.6968  0.0000</r>
       <r>  10.6968  0.0000</r>
       <r>  10.6968  0.0000</r>
       <r>  10.6968  0.0000</r>
       <r>  10.6968  0.0000</r>
       <r>  10.6968  0.0000</r>
       <r>  10.6968  0.0000</r>
       <r>  10.6968  0.0000</r>
      </set>
      <set comment="kpoint 38">
       <r>  -2.0575  1.0000</r>
       <r>  -2.0575  1.0000</r>
       <r>  -2.0575  1.0000</r>
       <r>  -2.0575  1.0000</r>
       <r>  -0.5926  1.0000</r>
       <r>  -0.5926  1.0000</r>
       <r>  -0.5926  1.0000</r>
       <r>  -0.5926  1.0000</r>
       <r>   0.8572  1.0000</r>
       <r>   0.8572  1.0000</r>
       <r>   0.8572  1.0000</r>
       <r>   0.8572  1.0000</r>
       <r>   2.2871  1.0000</r>
       <r>   2.2871  1.0000</r>
       <r>   2.2871  1.0000</r>
       <r>   2.2871  1.0000</r>
       <r>   2.2871  1.0000</r>
       <r>   2.2871  1.0000</r>
       <r>   2.2871  1.0000</r>
       <r>   2.2871  1.0000</r>
       <r>   3.7060  1.0000</r>
       <r>   3.7060  1.0000</r>
       <r>   3.7061  1.0000</r>
       <r>   3.7061  1.0000</r>
       <r>   3.7061  1.0000</r>
       <r>   3.7061  1.0000</r>
       <r>   3.7062  1.0000</r>
       <r>   3.7062  1.0000</r>
       <r>   5.0415  1.0000</r>
       <r>   5.0415  1.0000</r>
       <r>   5.0415  1.0000</r>
       <r>   5.0415  1.0000</r>
       <r>   5.1293  1.0000</r>
       <r>   5.1293  1.0000</r>
       <r>   5.1296  1.0000</r>
       <r>   5.1296  1.0000</r>
       <r>   5.1296  1.0000</r>
       <r>   5.1296  1.0000</r>
       <r>   5.1299  1.0000</r>
       <r>   5.1299  1.0000</r>
       <r>   6.5064  1.0000</r>
       <r>   6.5064  1.0000</r>
       <r>   6.5064  1.0000</r>
       <r>   6.5064  1.0000</r>
       <r>   7.9080  0.0000</r>
       <r>   7.9080  0.0000</r>
       <r>   7.9080  0.0000</r>
       <r>   7.9080  0.0000</r>
       <r>   8.1882  0.0000</r>
       <r>   8.1882  0.0000</r>
       <r>   8.1882  0.0000</r>
       <r>   8.1882  0.0000</r>
       <r>   9.1884  0.0000</r>
       <r>   9.1884  0.0000</r>
       <r>   9.1888  0.0000</r>
       <r>   9.1888  0.0000</r>
       <r>   9.1888  0.0000</r>
       <r>   9.1888  0.0000</r>
       <r>   9.1891  0.0000</r>
       <r>   9.1891  0.0000</r>
       <r>   9.2896  0.0000</r>
       <r>   9.2896  0.0000</r>
       <r>   9.2896  0.0000</r>
       <r>   9.2896  0.0000</r>
       <r>  10.8346  0.0000</r>
       <r>  10.8346  0.0000</r>
       <r>  10.8352  0.0000</r>
       <r>  10.8353  0.0000</r>
       <r>  10.8353  0.0000</r>
       <r>  10.8353  0.0000</r>
       <r>  10.8359  0.0000</r>
       <r>  10.8359  0.0000</r>
      </set>
      <set comment="kpoint 39">
       <r>  -1.8736  1.0000</r>
       <r>  -1.8736  1.0000</r>
       <r>  -1.8736  1.0000</r>
       <r>  -1.8736  1.0000</r>
       <r>  -1.1402  1.0000</r>
       <r>  -1.1402  1.0000</r>
       <r>  -1.1402  1.0000</r>
       <r>  -1.1402  1.0000</r>
       <r>   1.7549  1.0000</r>
       <r>   1.7549  1.0000</r>
       <r>   1.7549  1.0000</r>
       <r>   1.7549  1.0000</r>
       <r>   2.4655  1.0000</r>
       <r>   2.4655  1.0000</r>
       <r>   2.4655  1.0000</r>
       <r>   2.4655  1.0000</r>
       <r>   2.4655  1.0000</r>
       <r>   2.4655  1.0000</r>
       <r>   2.4655  1.0000</r>
       <r>   2.4655  1.0000</r>
       <r>   3.1767  1.0000</r>
       <r>   3.1767  1.0000</r>
       <r>   3.1767  1.0000</r>
       <r>   3.1767  1.0000</r>
       <r>   3.1767  1.0000</r>
       <r>   3.1767  1.0000</r>
       <r>   3.1768  1.0000</r>
       <r>   3.1768  1.0000</r>
       <r>   3.8701  1.0000</r>
       <r>   3.8701  1.0000</r>
       <r>   3.8701  1.0000</r>
       <r>   3.8702  1.0000</r>
       <r>   6.0001  1.0000</r>
       <r>   6.0001  1.0000</r>
       <r>   6.0003  1.0000</r>
       <r>   6.0003  1.0000</r>
       <r>   6.0003  1.0000</r>
       <r>   6.0003  1.0000</r>
       <r>   6.0005  1.0000</r>
       <r>   6.0005  1.0000</r>
       <r>   6.6877  1.0000</r>
       <r>   6.6877  1.0000</r>
       <r>   6.6877  1.0000</r>
       <r>   6.6877  1.0000</r>
       <r>   7.3867  1.0000</r>
       <r>   7.3867  1.0000</r>
       <r>   7.3867  1.0000</r>
       <r>   7.3867  1.0000</r>
       <r>   8.0558  0.0000</r>
       <r>   8.0558  0.0000</r>
       <r>   8.0561  0.0000</r>
       <r>   8.0561  0.0000</r>
       <r>   8.0561  0.0000</r>
       <r>   8.0561  0.0000</r>
       <r>   8.0563  0.0000</r>
       <r>   8.0563  0.0000</r>
       <r>   9.6725  0.0000</r>
       <r>   9.6725  0.0000</r>
       <r>   9.6725  0.0000</r>
       <r>   9.6725  0.0000</r>
       <r>  10.1458  0.0000</r>
       <r>  10.1458  0.0000</r>
       <r>  10.1458  0.0000</r>
       <r>  10.1458  0.0000</r>
       <r>  11.0222  0.0000</r>
       <r>  11.0222  0.0000</r>
       <r>  11.0226  0.0000</r>
       <r>  11.0226  0.0000</r>
       <r>  11.0226  0.0000</r>
       <r>  11.0226  0.0000</r>
       <r>  11.0231  0.0000</r>
       <r>  11.0231  0.0000</r>
      </set>
      <set comment="kpoint 40">
       <r>  -1.5721  1.0000</r>
       <r>  -1.5680  1.0000</r>
       <r>  -1.5680  1.0000</r>
       <r>  -1.5678  1.0000</r>
       <r>  -1.5673  1.0000</r>
       <r>  -1.5671  1.0000</r>
       <r>  -1.5671  1.0000</r>
       <r>  -1.5631  1.0000</r>
       <r>   2.7525  1.0000</r>
       <r>   2.7585  1.0000</r>
       <r>   2.7585  1.0000</r>
       <r>   2.7616  1.0000</r>
       <r>   2.7618  1.0000</r>
       <r>   2.7620  1.0000</r>
       <r>   2.7621  1.0000</r>
       <r>   2.7621  1.0000</r>
       <r>   2.7623  1.0000</r>
       <r>   2.7623  1.0000</r>
       <r>   2.7623  1.0000</r>
       <r>   2.7623  1.0000</r>
       <r>   2.7624  1.0000</r>
       <r>   2.7625  1.0000</r>
       <r>   2.7625  1.0000</r>
       <r>   2.7625  1.0000</r>
       <r>   2.7627  1.0000</r>
       <r>   2.7627  1.0000</r>
       <r>   2.7628  1.0000</r>
       <r>   2.7629  1.0000</r>
       <r>   2.7632  1.0000</r>
       <r>   2.7662  1.0000</r>
       <r>   2.7662  1.0000</r>
       <r>   2.7723  1.0000</r>
       <r>   6.9742  1.0000</r>
       <r>   6.9742  1.0000</r>
       <r>   6.9762  1.0000</r>
       <r>   6.9779  1.0000</r>
       <r>   6.9792  1.0000</r>
       <r>   6.9796  1.0000</r>
       <r>   6.9796  1.0000</r>
       <r>   6.9796  1.0000</r>
       <r>   6.9798  1.0000</r>
       <r>   6.9798  1.0000</r>
       <r>   6.9798  1.0000</r>
       <r>   6.9798  1.0000</r>
       <r>   6.9799  1.0000</r>
       <r>   6.9800  1.0000</r>
       <r>   6.9800  1.0000</r>
       <r>   6.9800  1.0000</r>
       <r>   6.9802  1.0000</r>
       <r>   6.9802  1.0000</r>
       <r>   6.9802  1.0000</r>
       <r>   6.9806  1.0000</r>
       <r>   6.9819  1.0000</r>
       <r>   6.9836  1.0000</r>
       <r>   6.9856  1.0000</r>
       <r>   6.9856  1.0000</r>
       <r>  11.1056  0.0000</r>
       <r>  11.1057  0.0000</r>
       <r>  11.1057  0.0000</r>
       <r>  11.1063  0.0000</r>
       <r>  11.1078  0.0000</r>
       <r>  11.1084  0.0000</r>
       <r>  11.1084  0.0000</r>
       <r>  11.1086  0.0000</r>
       <r>  11.3063  0.0000</r>
       <r>  11.3072  0.0000</r>
       <r>  11.3075  0.0000</r>
       <r>  11.3078  0.0000</r>
       <r>  11.3088  0.0000</r>
       <r>  11.3093  0.0000</r>
       <r>  11.3097  0.0000</r>
       <r>  11.3103  0.0000</r>
      </set>
     </set>
    </set>
   </array>
  </eigenvalues>
 </calculation>
 <structure name="finalpos" >
  <crystal>
   <varray name="basis" >
    <v>       8.15514380      0.00000000      0.00000000</v>
    <v>       0.00000000      8.15514380      0.00000000</v>
    <v>       0.00000000      0.00000000      8.15514380</v>
   </varray>
   <i name="volume">    542.36901382</i>
   <varray name="rec_basis" >
    <v>       0.12262199      0.00000000      0.00000000</v>
    <v>       0.00000000      0.12262199      0.00000000</v>
    <v>       0.00000000      0.00000000      0.12262199</v>
   </varray>
  </crystal>
  <varray name="positions" >
   <v>       0.25122622      0.25000000      0.00000000</v>
   <v>       0.75000000      0.25000000      0.00000000</v>
   <v>       0.25000000      0.75000000      0.00000000</v>
   <v>       0.75000000      0.75000000      0.00000000</v>
   <v>       0.25000000      0.25000000      0.50000000</v>
   <v>       0.75000000      0.25000000      0.50000000</v>
   <v>       0.25000000      0.75000000      0.50000000</v>
   <v>       0.75000000      0.75000000      0.50000000</v>
   <v>       0.25000000      0.00000000      0.25000000</v>
   <v>       0.75000000      0.00000000      0.25000000</v>
   <v>       0.25000000      0.50000000      0.25000000</v>
   <v>       0.75000000      0.50000000      0.25000000</v>
   <v>       0.25000000      0.00000000      0.75000000</v>
   <v>       0.75000000      0.00000000      0.75000000</v>
   <v>       0.25000000      0.50000000      0.75000000</v>
   <v>       0.75000000      0.50000000      0.75000000</v>
   <v>       0.00000000      0.25000000      0.25000000</v>
   <v>       0.50000000      0.25000000      0.25000000</v>
   <v>       0.00000000      0.75000000      0.25000000</v>
   <v>       0.50000000      0.75000000      0.25000000</v>
   <v>       0.00000000      0.25000000      0.75000000</v>
   <v>       0.50000000      0.25000000      0.75000000</v>
   <v>       0.00000000      0.75000000      0.75000000</v>
   <v>       0.50000000      0.75000000      0.75000000</v>
   <v>       0.00000000      0.00000000      0.00000000</v>
   <v>       0.50000000      0.00000000      0.00000000</v>
   <v>       0.00000000      0.50000000      0.00000000</v>
   <v>       0.50000000      0.50000000      0.00000000</v>
   <v>       0.00000000      0.00000000      0.50000000</v>
   <v>       0.50000000      0.00000000      0.50000000</v>
   <v>       0.00000000      0.50000000      0.50000000</v>
   <v>       0.50000000      0.50000000      0.50000000</v>
  </varray>
 </structure>
</modeling>
