36   
2    

1    
  0.0069539211435906   0.0000195242509619   0.0071862785593343
  -0.0453992600    0.0004735200   -0.0530393800
   0.0098187400   -0.0040781000    0.0017960400
   0.0096344700    0.0040128400    0.0017814900
   0.0029170600   -0.0083812700    0.0017721300
   0.0031376800    0.0077439300    0.0015927800
   0.0016283100   -0.0001581200    0.0007753600
   0.0027634800    0.0004556200    0.0017856700
   0.0020057100    0.0002766200    0.0007765400
   0.0029918900   -0.0004765400    0.0015928300
  -0.0031414000   -0.0001743700    0.0132624500
   0.0014605500    0.0010053300   -0.0000520300
   0.0014567900   -0.0010355000   -0.0000251000
   0.0004572700    0.0000051900   -0.0000401400
   0.0005061100   -0.0003958600   -0.0002494500
  -0.0010377800   -0.0002478300   -0.0009628600
   0.0003198000   -0.0012966200   -0.0000563100
  -0.0006661900    0.0001922500   -0.0009703300
   0.0003562700    0.0016698900   -0.0002406900
   0.0127817000   -0.0076126300    0.0135257500
  -0.0004123200   -0.0004566500   -0.0003493100
  -0.0025805500   -0.0017937200   -0.0014091900
   0.0001950100    0.0094326000    0.0063351700
  -0.0034047100   -0.0006638800   -0.0017419600
  -0.0001050000   -0.0000994000    0.0006134200
   0.0003124100    0.0002501800   -0.0003539000
   0.0001373800   -0.0005618700   -0.0004147800
  -0.0013476100    0.0016721500   -0.0005869600
  -0.0029491500    0.0015030200   -0.0017221000
  -0.0003829100   -0.0004669500   -0.0003243800
   0.0128854000    0.0071288700    0.0135266300
   0.0002302600   -0.0085996200    0.0060784900
  -0.0011003700    0.0007336800    0.0004927300
  -0.0024906100    0.0012744200   -0.0017153800
   0.0003480400    0.0002279800   -0.0003215900
   0.0000792400   -0.0005356400   -0.0004691300
  -0.0014057100   -0.0010235300   -0.0006624900

1    
 -0.0069539211435906  -0.0000195242509619  -0.0071862785593343
   0.0453423800   -0.0009865500    0.0530311700
  -0.0095958000    0.0044418400   -0.0017772900
  -0.0097298100   -0.0040727700   -0.0017938300
  -0.0033503800    0.0076999100   -0.0017959400
  -0.0023697900   -0.0081110400   -0.0015825600
  -0.0019217700   -0.0000760000   -0.0007744600
  -0.0034504300   -0.0000491500   -0.0017883200
  -0.0015759300    0.0003945100   -0.0007761300
  -0.0025475200    0.0007433400   -0.0015911900
   0.0031271900   -0.0003268100   -0.0132652200
  -0.0013831100   -0.0006394600    0.0000203200
  -0.0013868100    0.0010085100    0.0000487800
  -0.0008907600   -0.0007530000    0.0000291600
   0.0002222100   -0.0000091700    0.0002500400
   0.0007703200    0.0000297200    0.0009783500
  -0.0010177200    0.0016506100    0.0000141000
   0.0011077200    0.0005082400    0.0009743300
   0.0000938300   -0.0014358900    0.0002630000
  -0.0128913500    0.0070965200   -0.0130554600
   0.0000145100   -0.0002830500    0.0003604200
   0.0031995700    0.0013865200    0.0013272100
   0.0000489600   -0.0089398600   -0.0061276600
   0.0026384700    0.0011134300    0.0017416300
   0.0005540300    0.0008461300   -0.0005982000
  -0.0003847600   -0.0002378000    0.0003440000
  -0.0001985000    0.0001798800    0.0004253600
   0.0013569800   -0.0011374900    0.0006068100
   0.0025583800   -0.0017944700    0.0018103100
  -0.0000162300   -0.0002848500    0.0003222300
  -0.0125879100   -0.0077666300   -0.0140226800
   0.0001041000    0.0091233400   -0.0062677000
   0.0003376500   -0.0002667800   -0.0004988100
   0.0029659700   -0.0005480800    0.0017156600
  -0.0003931100   -0.0002080900    0.0003359600
  -0.0001465900    0.0001513300    0.0004748800
   0.0013960300    0.0015530900    0.0006417300
