32   
1    

1    
  0.0100000000000000   0.0000000000000000   0.0000000000000000
  -0.0523362100    0.0000000000    0.0000000000
   0.0011598900   -0.0000000000   -0.0000000000
  -0.0003630500    0.0000000000   -0.0000000000
  -0.0004455300    0.0000000000    0.0000000000
  -0.0003630500   -0.0000000000    0.0000000000
  -0.0004455300    0.0000000000   -0.0000000000
  -0.0001738500    0.0000000000    0.0000000000
  -0.0001230200    0.0000000000    0.0000000000
   0.0068741700    0.0080603600    0.0000000000
   0.0066654900   -0.0077651900   -0.0000000000
   0.0068741700   -0.0080603600    0.0000000000
   0.0066654900    0.0077651900   -0.0000000000
   0.0002356500    0.0000525400    0.0000000000
   0.0002382200   -0.0000513200    0.0000000000
   0.0002356500   -0.0000525400    0.0000000000
   0.0002382200    0.0000513200   -0.0000000000
   0.0068741700   -0.0000000000    0.0080603600
   0.0066654900   -0.0000000000   -0.0077651900
   0.0002356500    0.0000000000    0.0000525400
   0.0002382200   -0.0000000000   -0.0000513200
   0.0068741700    0.0000000000   -0.0080603600
   0.0066654900   -0.0000000000    0.0077651900
   0.0002356500    0.0000000000   -0.0000525400
   0.0002382200   -0.0000000000    0.0000513200
  -0.0013079900   -0.0000104400   -0.0000104400
   0.0005670400    0.0000012900    0.0000012900
  -0.0013079900    0.0000104400   -0.0000104400
   0.0005670400   -0.0000012900    0.0000012900
  -0.0013079900   -0.0000104400    0.0000104400
   0.0005670400    0.0000012900   -0.0000012900
  -0.0013079900    0.0000104400    0.0000104400
   0.0005670400   -0.0000012900   -0.0000012900
