mesh: [    48,    48,    48 ]
nqpoint: 2600   
reciprocal_lattice:
- [   0.24262466,   0.00000000,   0.00000000 ] # a*
- [   0.00000000,   0.24262466,   0.00000000 ] # b*
- [   0.00000000,   0.00000000,   0.24262466 ] # c*
natom:   4      
lattice:
- [     4.121592533800277,     0.000000000000000,     0.000000000000000 ] # a
- [     0.000000000000000,     4.121592533800277,     0.000000000000000 ] # b
- [     0.000000000000000,     0.000000000000000,     4.121592533800277 ] # c
points:
- symbol: Ag # 1
  coordinates: [  0.000000000000000,  0.000000000000000,  0.000000000000000 ]
  mass: 107.868200
- symbol: Ag # 2
  coordinates: [  0.500000000000000,  0.500000000000000,  0.000000000000000 ]
  mass: 107.868200
- symbol: Ag # 3
  coordinates: [  0.500000000000000,  0.000000000000000,  0.500000000000000 ]
  mass: 107.868200
- symbol: Ag # 4
  coordinates: [  0.000000000000000,  0.500000000000000,  0.500000000000000 ]
  mass: 107.868200
phonon:
- q-position: [    0.0104167,    0.0104167,    0.0104167 ]
  weight: 8    
  band:
  - # 1
    frequency:     0.0785752277
  - # 2
    frequency:     0.0785752277
  - # 3
    frequency:     0.1713367814
  - # 4
    frequency:     3.3687106320
  - # 5
    frequency:     3.3687106320
  - # 6
    frequency:     3.3687106320
  - # 7
    frequency:     3.3710024656
  - # 8
    frequency:     3.3710024656
  - # 9
    frequency:     3.3710024656
  - # 10
    frequency:     5.0384097568
  - # 11
    frequency:     5.0384097568
  - # 12
    frequency:     5.0384097568

- q-position: [    0.0312500,    0.0104167,    0.0104167 ]
  weight: 24   
  band:
  - # 1
    frequency:     0.1579200947
  - # 2
    frequency:     0.1727780384
  - # 3
    frequency:     0.3129361431
  - # 4
    frequency:     3.3650142885
  - # 5
    frequency:     3.3667805351
  - # 6
    frequency:     3.3667805351
  - # 7
    frequency:     3.3672982812
  - # 8
    frequency:     3.3749873092
  - # 9
    frequency:     3.3749873092
  - # 10
    frequency:     5.0339503883
  - # 11
    frequency:     5.0346436743
  - # 12
    frequency:     5.0346436743

- q-position: [    0.0520833,    0.0104167,    0.0104167 ]
  weight: 24   
  band:
  - # 1
    frequency:     0.2654742181
  - # 2
    frequency:     0.2776958749
  - # 3
    frequency:     0.4760042963
  - # 4
    frequency:     3.3576264232
  - # 5
    frequency:     3.3598947700
  - # 6
    frequency:     3.3641212566
  - # 7
    frequency:     3.3641212566
  - # 8
    frequency:     3.3817671703
  - # 9
    frequency:     3.3817671703
  - # 10
    frequency:     5.0250269689
  - # 11
    frequency:     5.0271293218
  - # 12
    frequency:     5.0271293218

- q-position: [    0.0729167,    0.0104167,    0.0104167 ]
  weight: 24   
  band:
  - # 1
    frequency:     0.3748583251
  - # 2
    frequency:     0.3844155818
  - # 3
    frequency:     0.6454534901
  - # 4
    frequency:     3.3465566664
  - # 5
    frequency:     3.3488016330
  - # 6
    frequency:     3.3604498007
  - # 7
    frequency:     3.3604498007
  - # 8
    frequency:     3.3916468306
  - # 9
    frequency:     3.3916468306
  - # 10
    frequency:     5.0116302454
  - # 11
    frequency:     5.0159022381
  - # 12
    frequency:     5.0159022381

- q-position: [    0.0937500,    0.0104167,    0.0104167 ]
  weight: 24   
  band:
  - # 1
    frequency:     0.4838335788
  - # 2
    frequency:     0.4914809104
  - # 3
    frequency:     0.8170359783
  - # 4
    frequency:     3.3318194308
  - # 5
    frequency:     3.3340333867
  - # 6
    frequency:     3.3557294487
  - # 7
    frequency:     3.3557294487
  - # 8
    frequency:     3.4046947177
  - # 9
    frequency:     3.4046947177
  - # 10
    frequency:     4.9937466161
  - # 11
    frequency:     5.0010155158
  - # 12
    frequency:     5.0010155158

- q-position: [    0.1145833,    0.0104167,    0.0104167 ]
  weight: 24   
  band:
  - # 1
    frequency:     0.5921252064
  - # 2
    frequency:     0.5983958907
  - # 3
    frequency:     0.9889799588
  - # 4
    frequency:     3.3134338718
  - # 5
    frequency:     3.3156093211
  - # 6
    frequency:     3.3500056575
  - # 7
    frequency:     3.3500056575
  - # 8
    frequency:     3.4209058638
  - # 9
    frequency:     3.4209058638
  - # 10
    frequency:     4.9713584601
  - # 11
    frequency:     4.9825395430
  - # 12
    frequency:     4.9825395430

- q-position: [    0.1354167,    0.0104167,    0.0104167 ]
  weight: 24   
  band:
  - # 1
    frequency:     0.6996609130
  - # 2
    frequency:     0.7049007669
  - # 3
    frequency:     1.1603470299
  - # 4
    frequency:     3.2914238357
  - # 5
    frequency:     3.2935534445
  - # 6
    frequency:     3.3433596729
  - # 7
    frequency:     3.3433596729
  - # 8
    frequency:     3.4402468059
  - # 9
    frequency:     3.4402468059
  - # 10
    frequency:     4.9444445682
  - # 11
    frequency:     4.9605616601
  - # 12
    frequency:     4.9605616601

- q-position: [    0.1562500,    0.0104167,    0.0104167 ]
  weight: 24   
  band:
  - # 1
    frequency:     0.8063785719
  - # 2
    frequency:     0.8108165950
  - # 3
    frequency:     1.3305369363
  - # 4
    frequency:     3.2658177954
  - # 5
    frequency:     3.2678944153
  - # 6
    frequency:     3.3358948794
  - # 7
    frequency:     3.3358948794
  - # 8
    frequency:     3.4626674352
  - # 9
    frequency:     3.4626674352
  - # 10
    frequency:     4.9129806705
  - # 11
    frequency:     4.9351857318
  - # 12
    frequency:     4.9351857318

- q-position: [    0.1770833,    0.0104167,    0.0104167 ]
  weight: 24   
  band:
  - # 1
    frequency:     0.9122049159
  - # 2
    frequency:     0.9159982642
  - # 3
    frequency:     1.4991078996
  - # 4
    frequency:     3.2366487741
  - # 5
    frequency:     3.2386654613
  - # 6
    frequency:     3.3277313967
  - # 7
    frequency:     3.3277313967
  - # 8
    frequency:     3.4881043198
  - # 9
    frequency:     3.4881043198
  - # 10
    frequency:     4.8769400522
  - # 11
    frequency:     4.9065316365
  - # 12
    frequency:     4.9065316365

- q-position: [    0.1979167,    0.0104167,    0.0104167 ]
  weight: 24   
  band:
  - # 1
    frequency:     1.0170566398
  - # 2
    frequency:     1.0203169663
  - # 3
    frequency:     1.6657022683
  - # 4
    frequency:     3.2039542576
  - # 5
    frequency:     3.2059042870
  - # 6
    frequency:     3.3190029151
  - # 7
    frequency:     3.3190029151
  - # 8
    frequency:     3.5164815488
  - # 9
    frequency:     3.5164815488
  - # 10
    frequency:     4.8362942490
  - # 11
    frequency:     4.8747346722
  - # 12
    frequency:     4.8747346722

- q-position: [    0.2187500,    0.0104167,    0.0104167 ]
  weight: 24   
  band:
  - # 1
    frequency:     1.1208435633
  - # 2
    frequency:     1.1236526511
  - # 3
    frequency:     1.8300125229
  - # 4
    frequency:     3.1677760957
  - # 5
    frequency:     3.1696529696
  - # 6
    frequency:     3.3098541281
  - # 7
    frequency:     3.3098541281
  - # 8
    frequency:     3.5477107805
  - # 9
    frequency:     3.5477107805
  - # 10
    frequency:     4.7910138131
  - # 11
    frequency:     4.8399448830
  - # 12
    frequency:     4.8399448830

- q-position: [    0.2395833,    0.0104167,    0.0104167 ]
  weight: 24   
  band:
  - # 1
    frequency:     1.2234710840
  - # 2
    frequency:     1.2258904307
  - # 3
    frequency:     1.9917645140
  - # 4
    frequency:     3.1281603938
  - # 5
    frequency:     3.1299578449
  - # 6
    frequency:     3.3004382573
  - # 7
    frequency:     3.3004382573
  - # 8
    frequency:     3.5816910479
  - # 9
    frequency:     3.5816910479
  - # 10
    frequency:     4.7410691385
  - # 11
    frequency:     4.8023263056
  - # 12
    frequency:     4.8023263056

- q-position: [    0.2604167,    0.0104167,    0.0104167 ]
  weight: 24   
  band:
  - # 1
    frequency:     1.3248418346
  - # 2
    frequency:     1.3269187379
  - # 3
    frequency:     2.1507087236
  - # 4
    frequency:     3.0851573944
  - # 5
    frequency:     3.0868693833
  - # 6
    frequency:     3.2909145044
  - # 7
    frequency:     3.2909145044
  - # 8
    frequency:     3.6183085323
  - # 9
    frequency:     3.6183085323
  - # 10
    frequency:     4.6864313354
  - # 11
    frequency:     4.7620561396
  - # 12
    frequency:     4.7620561396

- q-position: [    0.2812500,    0.0104167,    0.0104167 ]
  weight: 24   
  band:
  - # 1
    frequency:     1.4248567842
  - # 2
    frequency:     1.4266283366
  - # 3
    frequency:     2.3066155215
  - # 4
    frequency:     3.0388213502
  - # 5
    frequency:     3.0404420571
  - # 6
    frequency:     3.2814453844
  - # 7
    frequency:     3.2814453844
  - # 8
    frequency:     3.6574364026
  - # 9
    frequency:     3.6574364026
  - # 10
    frequency:     4.6270731415
  - # 11
    frequency:     4.7193238429
  - # 12
    frequency:     4.7193238429

- q-position: [    0.3020833,    0.0104167,    0.0104167 ]
  weight: 24   
  band:
  - # 1
    frequency:     1.5234159863
  - # 2
    frequency:     1.5249117775
  - # 3
    frequency:     2.4592725221
  - # 4
    frequency:     2.9892103902
  - # 5
    frequency:     2.9907341994
  - # 6
    frequency:     3.2721939415
  - # 7
    frequency:     3.2721939415
  - # 8
    frequency:     3.6989347702
  - # 9
    frequency:     3.6989347702
  - # 10
    frequency:     4.5629698595
  - # 11
    frequency:     4.6743301556
  - # 12
    frequency:     4.6743301556

- q-position: [    0.3229167,    0.0104167,    0.0104167 ]
  weight: 24   
  band:
  - # 1
    frequency:     1.6204191073
  - # 2
    frequency:     1.6216631033
  - # 3
    frequency:     2.6084830839
  - # 4
    frequency:     2.9363863771
  - # 5
    frequency:     2.9378078563
  - # 6
    frequency:     3.2633208771
  - # 7
    frequency:     3.2633208771
  - # 8
    frequency:     3.7426507856
  - # 9
    frequency:     3.7426507856
  - # 10
    frequency:     4.4941003084
  - # 11
    frequency:     4.6272860557
  - # 12
    frequency:     4.6272860557

- q-position: [    0.3437500,    0.0104167,    0.0104167 ]
  weight: 24   
  band:
  - # 1
    frequency:     1.7157658184
  - # 2
    frequency:     1.7167776994
  - # 3
    frequency:     2.7540654462
  - # 4
    frequency:     2.8804147601
  - # 5
    frequency:     2.8817286332
  - # 6
    frequency:     3.2549816307
  - # 7
    frequency:     3.2549816307
  - # 8
    frequency:     3.7884188909
  - # 9
    frequency:     3.7884188909
  - # 10
    frequency:     4.4204477773
  - # 11
    frequency:     4.5784116522
  - # 12
    frequency:     4.5784116522

- q-position: [    0.3645833,    0.0104167,    0.0104167 ]
  weight: 24   
  band:
  - # 1
    frequency:     1.8093561011
  - # 2
    frequency:     1.8101522370
  - # 3
    frequency:     2.8213644225
  - # 4
    frequency:     2.8225655352
  - # 5
    frequency:     2.8958522192
  - # 6
    frequency:     3.2473234691
  - # 7
    frequency:     3.2473234691
  - # 8
    frequency:     3.8360612295
  - # 9
    frequency:     3.8360612295
  - # 10
    frequency:     4.3420009710
  - # 11
    frequency:     4.5279350199
  - # 12
    frequency:     4.5279350199

- q-position: [    0.3854167,    0.0104167,    0.0104167 ]
  weight: 24   
  band:
  - # 1
    frequency:     1.9010904997
  - # 2
    frequency:     1.9016846751
  - # 3
    frequency:     2.7593075244
  - # 4
    frequency:     2.7603908033
  - # 5
    frequency:     3.0336900628
  - # 6
    frequency:     3.2404826475
  - # 7
    frequency:     3.2404826475
  - # 8
    frequency:     3.8853882086
  - # 9
    frequency:     3.8853882086
  - # 10
    frequency:     4.2587549368
  - # 11
    frequency:     4.4760909881
  - # 12
    frequency:     4.4760909881

- q-position: [    0.4062500,    0.0104167,    0.0104167 ]
  weight: 24   
  band:
  - # 1
    frequency:     1.9908703400
  - # 2
    frequency:     1.9912743039
  - # 3
    frequency:     2.6943193435
  - # 4
    frequency:     2.6952797477
  - # 5
    frequency:     3.1674394553
  - # 6
    frequency:     3.2345817086
  - # 7
    frequency:     3.2345817086
  - # 8
    frequency:     3.9361991899
  - # 9
    frequency:     3.9361991899
  - # 10
    frequency:     4.1707119617
  - # 11
    frequency:     4.4231199001
  - # 12
    frequency:     4.4231199001

- q-position: [    0.4270833,    0.0104167,    0.0104167 ]
  weight: 24   
  band:
  - # 1
    frequency:     2.0785979275
  - # 2
    frequency:     2.0788218164
  - # 3
    frequency:     2.6264781128
  - # 4
    frequency:     2.6273105776
  - # 5
    frequency:     3.2297269935
  - # 6
    frequency:     3.2297269935
  - # 7
    frequency:     3.2969744921
  - # 8
    frequency:     3.9882832571
  - # 9
    frequency:     3.9882832571
  - # 10
    frequency:     4.0778824319
  - # 11
    frequency:     4.3692663967
  - # 12
    frequency:     4.3692663967

- q-position: [    0.4479167,    0.0104167,    0.0104167 ]
  weight: 24   
  band:
  - # 1
    frequency:     2.1641767324
  - # 2
    frequency:     2.1642294030
  - # 3
    frequency:     2.5558648589
  - # 4
    frequency:     2.5565642296
  - # 5
    frequency:     3.2260064338
  - # 6
    frequency:     3.2260064338
  - # 7
    frequency:     3.4221826724
  - # 8
    frequency:     3.9802856461
  - # 9
    frequency:     4.0414198563
  - # 10
    frequency:     4.0414198563
  - # 11
    frequency:     4.3147784161
  - # 12
    frequency:     4.3147784161

- q-position: [    0.4687500,    0.0104167,    0.0104167 ]
  weight: 24   
  band:
  - # 1
    frequency:     2.2474008619
  - # 2
    frequency:     2.2475115682
  - # 3
    frequency:     2.4825632391
  - # 4
    frequency:     2.4831241951
  - # 5
    frequency:     3.2234876916
  - # 6
    frequency:     3.2234876916
  - # 7
    frequency:     3.5429646518
  - # 8
    frequency:     3.8779505743
  - # 9
    frequency:     4.0953781200
  - # 10
    frequency:     4.0953781200
  - # 11
    frequency:     4.2599075937
  - # 12
    frequency:     4.2599075937

- q-position: [    0.4895833,    0.0104167,    0.0104167 ]
  weight: 24   
  band:
  - # 1
    frequency:     2.3282417227
  - # 2
    frequency:     2.3285087660
  - # 3
    frequency:     2.4066593806
  - # 4
    frequency:     2.4070763469
  - # 5
    frequency:     3.2222167084
  - # 6
    frequency:     3.2222167084
  - # 7
    frequency:     3.6592339435
  - # 8
    frequency:     3.7709165577
  - # 9
    frequency:     4.1498949260
  - # 10
    frequency:     4.1498949260
  - # 11
    frequency:     4.2049310042
  - # 12
    frequency:     4.2049310042

- q-position: [    0.0312500,    0.0312500,    0.0104167 ]
  weight: 24   
  band:
  - # 1
    frequency:     0.1782119293
  - # 2
    frequency:     0.2284642452
  - # 3
    frequency:     0.4236942416
  - # 4
    frequency:     3.3616187367
  - # 5
    frequency:     3.3630790794
  - # 6
    frequency:     3.3630790794
  - # 7
    frequency:     3.3712772563
  - # 8
    frequency:     3.3712772563
  - # 9
    frequency:     3.3821738337
  - # 10
    frequency:     5.0302211408
  - # 11
    frequency:     5.0302211408
  - # 12
    frequency:     5.0308811191

- q-position: [    0.0520833,    0.0312500,    0.0104167 ]
  weight: 48   
  band:
  - # 1
    frequency:     0.2562252142
  - # 2
    frequency:     0.3152210934
  - # 3
    frequency:     0.5651389721
  - # 4
    frequency:     3.3556808741
  - # 5
    frequency:     3.3562773291
  - # 6
    frequency:     3.3603939959
  - # 7
    frequency:     3.3638622320
  - # 8
    frequency:     3.3780607654
  - # 9
    frequency:     3.3915761135
  - # 10
    frequency:     5.0213712928
  - # 11
    frequency:     5.0227803941
  - # 12
    frequency:     5.0233737798

- q-position: [    0.0729167,    0.0312500,    0.0104167 ]
  weight: 48   
  band:
  - # 1
    frequency:     0.3576736224
  - # 2
    frequency:     0.4123020190
  - # 3
    frequency:     0.7186236380
  - # 4
    frequency:     3.3445953174
  - # 5
    frequency:     3.3507157815
  - # 6
    frequency:     3.3527523835
  - # 7
    frequency:     3.3566780725
  - # 8
    frequency:     3.3879511753
  - # 9
    frequency:     3.4032571204
  - # 10
    frequency:     5.0080846840
  - # 11
    frequency:     5.0116635582
  - # 12
    frequency:     5.0121571125

- q-position: [    0.0937500,    0.0312500,    0.0104167 ]
  weight: 48   
  band:
  - # 1
    frequency:     0.4653426357
  - # 2
    frequency:     0.5135671414
  - # 3
    frequency:     0.8782337272
  - # 4
    frequency:     3.3298364721
  - # 5
    frequency:     3.3379628910
  - # 6
    frequency:     3.3447202472
  - # 7
    frequency:     3.3518959140
  - # 8
    frequency:     3.4010150290
  - # 9
    frequency:     3.4174633729
  - # 10
    frequency:     4.9903474325
  - # 11
    frequency:     4.9969235315
  - # 12
    frequency:     4.9972840871

- q-position: [    0.1145833,    0.0312500,    0.0104167 ]
  weight: 48   
  band:
  - # 1
    frequency:     0.5743361623
  - # 2
    frequency:     0.6166513076
  - # 3
    frequency:     1.0410295270
  - # 4
    frequency:     3.3114230243
  - # 5
    frequency:     3.3195139200
  - # 6
    frequency:     3.3381587994
  - # 7
    frequency:     3.3460933403
  - # 8
    frequency:     3.4172462756
  - # 9
    frequency:     3.4343685355
  - # 10
    frequency:     4.9681415608
  - # 11
    frequency:     4.9786304408
  - # 12
    frequency:     4.9788249303

- q-position: [    0.1354167,    0.0312500,    0.0104167 ]
  weight: 48   
  band:
  - # 1
    frequency:     0.6831363157
  - # 2
    frequency:     0.7204521654
  - # 3
    frequency:     1.2052504621
  - # 4
    frequency:     3.2893782304
  - # 5
    frequency:     3.2974305573
  - # 6
    frequency:     3.3309822526
  - # 7
    frequency:     3.3393515218
  - # 8
    frequency:     3.4366106737
  - # 9
    frequency:     3.4540710813
  - # 10
    frequency:     4.9414454415
  - # 11
    frequency:     4.9568667837
  - # 12
    frequency:     4.9568712969

- q-position: [    0.1562500,    0.0312500,    0.0104167 ]
  weight: 48   
  band:
  - # 1
    frequency:     0.7911997326
  - # 2
    frequency:     0.8243642802
  - # 3
    frequency:     1.3697318769
  - # 4
    frequency:     3.2637298514
  - # 5
    frequency:     3.2717427319
  - # 6
    frequency:     3.3232050173
  - # 7
    frequency:     3.3317735761
  - # 8
    frequency:     3.4590574220
  - # 9
    frequency:     3.4766116012
  - # 10
    frequency:     4.9102343422
  - # 11
    frequency:     4.9315132792
  - # 12
    frequency:     4.9317495636

- q-position: [    0.1770833,    0.0312500,    0.0104167 ]
  weight: 48   
  band:
  - # 1
    frequency:     0.8982933265
  - # 2
    frequency:     0.9280058894
  - # 3
    frequency:     1.5336459025
  - # 4
    frequency:     3.2345100771
  - # 5
    frequency:     3.2424851203
  - # 6
    frequency:     3.3148875881
  - # 7
    frequency:     3.3234792730
  - # 8
    frequency:     3.4845224070
  - # 9
    frequency:     3.5019881946
  - # 10
    frequency:     4.8744810612
  - # 11
    frequency:     4.9028840302
  - # 12
    frequency:     4.9033846447

- q-position: [    0.1979167,    0.0312500,    0.0104167 ]
  weight: 48   
  band:
  - # 1
    frequency:     1.0042881937
  - # 2
    frequency:     1.0311071078
  - # 3
    frequency:     1.6963680446
  - # 4
    frequency:     3.2017554409
  - # 5
    frequency:     3.2096970373
  - # 6
    frequency:     3.3061234642
  - # 7
    frequency:     3.3146019272
  - # 8
    frequency:     3.5129290255
  - # 9
    frequency:     3.5301671824
  - # 10
    frequency:     4.8341566457
  - # 11
    frequency:     4.8711140425
  - # 12
    frequency:     4.8719112874

- q-position: [    0.2187500,    0.0312500,    0.0104167 ]
  weight: 48   
  band:
  - # 1
    frequency:     1.1090899511
  - # 2
    frequency:     1.1334588846
  - # 3
    frequency:     1.8574032739
  - # 4
    frequency:     3.1655067269
  - # 5
    frequency:     3.1734223121
  - # 6
    frequency:     3.2970297494
  - # 7
    frequency:     3.3052858714
  - # 8
    frequency:     3.5441882324
  - # 9
    frequency:     3.5610899407
  - # 10
    frequency:     4.7892311819
  - # 11
    frequency:     4.8363530447
  - # 12
    frequency:     4.8374789049

- q-position: [    0.2395833,    0.0312500,    0.0104167 ]
  weight: 48   
  band:
  - # 1
    frequency:     1.2126140551
  - # 2
    frequency:     1.2348875802
  - # 3
    frequency:     2.0163431850
  - # 4
    frequency:     3.1258088698
  - # 5
    frequency:     3.1337091493
  - # 6
    frequency:     3.2877402302
  - # 7
    frequency:     3.2956840145
  - # 8
    frequency:     3.5781983517
  - # 9
    frequency:     3.5946771022
  - # 10
    frequency:     4.7396746476
  - # 11
    frequency:     4.7987647418
  - # 12
    frequency:     4.8002508204

- q-position: [    0.2604167,    0.0312500,    0.0104167 ]
  weight: 48   
  band:
  - # 1
    frequency:     1.3147770591
  - # 2
    frequency:     1.3352413889
  - # 3
    frequency:     2.1728403031
  - # 4
    frequency:     3.0827108506
  - # 5
    frequency:     3.0906099780
  - # 6
    frequency:     3.2783999833
  - # 7
    frequency:     3.2859553254
  - # 8
    frequency:     3.6148448587
  - # 9
    frequency:     3.6308311234
  - # 10
    frequency:     4.6854578141
  - # 11
    frequency:     4.7585259925
  - # 12
    frequency:     4.7604034345

- q-position: [    0.2812500,    0.0312500,    0.0104167 ]
  weight: 48   
  band:
  - # 1
    frequency:     1.4154937758
  - # 2
    frequency:     1.4343826726
  - # 3
    frequency:     2.3265922326
  - # 4
    frequency:     3.0362655872
  - # 5
    frequency:     3.0441812865
  - # 6
    frequency:     3.2691608914
  - # 7
    frequency:     3.2762621965
  - # 8
    frequency:     3.6540002251
  - # 9
    frequency:     3.6694378901
  - # 10
    frequency:     4.6265531880
  - # 11
    frequency:     4.7158259164
  - # 12
    frequency:     4.7181253197

- q-position: [    0.3020833,    0.0312500,    0.0104167 ]
  weight: 48   
  band:
  - # 1
    frequency:     1.5146766578
  - # 2
    frequency:     1.5321834314
  - # 3
    frequency:     2.4773316286
  - # 4
    frequency:     2.9865298206
  - # 5
    frequency:     2.9944834480
  - # 6
    frequency:     3.2601776897
  - # 7
    frequency:     3.2667676900
  - # 8
    frequency:     3.6955238759
  - # 9
    frequency:     3.7103677897
  - # 10
    frequency:     4.5629359801
  - # 11
    frequency:     4.6708649332
  - # 12
    frequency:     4.6736162459

- q-position: [    0.3229167,    0.0312500,    0.0104167 ]
  weight: 48   
  band:
  - # 1
    frequency:     1.6122359879
  - # 2
    frequency:     1.6285225311
  - # 3
    frequency:     2.6248197079
  - # 4
    frequency:     2.9335639965
  - # 5
    frequency:     2.9415805380
  - # 6
    frequency:     3.2516043334
  - # 7
    frequency:     3.2576326931
  - # 8
    frequency:     3.7392622798
  - # 9
    frequency:     3.7534765140
  - # 10
    frequency:     4.4945850903
  - # 11
    frequency:     4.6238537426
  - # 12
    frequency:     4.6270861449

- q-position: [    0.3437500,    0.0312500,    0.0104167 ]
  weight: 48   
  band:
  - # 1
    frequency:     1.7080803304
  - # 2
    frequency:     1.7232839605
  - # 3
    frequency:     2.7688419549
  - # 4
    frequency:     2.8774321406
  - # 5
    frequency:     2.8855401469
  - # 6
    frequency:     3.2435905815
  - # 7
    frequency:     3.2490130259
  - # 8
    frequency:     3.7850491794
  - # 9
    frequency:     3.7986057456
  - # 10
    frequency:     4.4214840980
  - # 11
    frequency:     4.5750122576
  - # 12
    frequency:     4.5787540237

- q-position: [    0.3645833,    0.0312500,    0.0104167 ]
  weight: 48   
  band:
  - # 1
    frequency:     1.8021170325
  - # 2
    frequency:     1.8163557141
  - # 3
    frequency:     2.8182017243
  - # 4
    frequency:     2.8264331937
  - # 5
    frequency:     2.9092052119
  - # 6
    frequency:     3.2362787587
  - # 7
    frequency:     3.2410565537
  - # 8
    frequency:     3.8327059497
  - # 9
    frequency:     3.8455838084
  - # 10
    frequency:     4.3436222472
  - # 11
    frequency:     4.5245685115
  - # 12
    frequency:     4.5288468480

- q-position: [    0.3854167,    0.0312500,    0.0104167 ]
  weight: 48   
  band:
  - # 1
    frequency:     1.8942527020
  - # 2
    frequency:     1.9076290712
  - # 3
    frequency:     2.7559435190
  - # 4
    frequency:     2.7643337440
  - # 5
    frequency:     3.0457356534
  - # 6
    frequency:     3.2298007009
  - # 7
    frequency:     3.2339003665
  - # 8
    frequency:     3.8820420415
  - # 9
    frequency:     3.8942262910
  - # 10
    frequency:     4.2609954164
  - # 11
    frequency:     4.4727575937
  - # 12
    frequency:     4.4775984420

- q-position: [    0.4062500,    0.0312500,    0.0104167 ]
  weight: 48   
  band:
  - # 1
    frequency:     1.9843936392
  - # 2
    frequency:     1.9969981303
  - # 3
    frequency:     2.6907314363
  - # 4
    frequency:     2.6993188381
  - # 5
    frequency:     3.1782773241
  - # 6
    frequency:     3.2242749167
  - # 7
    frequency:     3.2276680938
  - # 8
    frequency:     3.9328553934
  - # 9
    frequency:     3.9443365418
  - # 10
    frequency:     4.1736070649
  - # 11
    frequency:     4.4198207486
  - # 12
    frequency:     4.4252485189

- q-position: [    0.4270833,    0.0312500,    0.0104167 ]
  weight: 48   
  band:
  - # 1
    frequency:     2.0724462232
  - # 2
    frequency:     2.0843595141
  - # 3
    frequency:     2.6226423516
  - # 4
    frequency:     2.6314683318
  - # 5
    frequency:     3.2198040105
  - # 6
    frequency:     3.2224674243
  - # 7
    frequency:     3.3066910352
  - # 8
    frequency:     3.9849324408
  - # 9
    frequency:     3.9957056132
  - # 10
    frequency:     4.0814691490
  - # 11
    frequency:     4.3660050798
  - # 12
    frequency:     4.3720422095

- q-position: [    0.4479167,    0.0312500,    0.0104167 ]
  weight: 48   
  band:
  - # 1
    frequency:     2.1583172608
  - # 2
    frequency:     2.1696121905
  - # 3
    frequency:     2.5517559105
  - # 4
    frequency:     2.5608647543
  - # 5
    frequency:     3.2164724242
  - # 6
    frequency:     3.2183879020
  - # 7
    frequency:     3.4308534837
  - # 8
    frequency:     3.9846030000
  - # 9
    frequency:     4.0380462441
  - # 10
    frequency:     4.0481097819
  - # 11
    frequency:     4.3115657418
  - # 12
    frequency:     4.3182315602

- q-position: [    0.4687500,    0.0312500,    0.0104167 ]
  weight: 48   
  band:
  - # 1
    frequency:     2.2419143051
  - # 2
    frequency:     2.2526573738
  - # 3
    frequency:     2.4781543192
  - # 4
    frequency:     2.4875931828
  - # 5
    frequency:     3.2143445518
  - # 6
    frequency:     3.2154990653
  - # 7
    frequency:     3.5506565012
  - # 8
    frequency:     3.8830401618
  - # 9
    frequency:     4.0919438335
  - # 10
    frequency:     4.1012932957
  - # 11
    frequency:     4.2567829711
  - # 12
    frequency:     4.2640878950

- q-position: [    0.4895833,    0.0312500,    0.0104167 ]
  weight: 48   
  band:
  - # 1
    frequency:     2.3231459517
  - # 2
    frequency:     2.3333984822
  - # 3
    frequency:     2.4019221196
  - # 4
    frequency:     2.4117411354
  - # 5
    frequency:     3.2134632791
  - # 6
    frequency:     3.2138489892
  - # 7
    frequency:     3.6660063732
  - # 8
    frequency:     3.7768231841
  - # 9
    frequency:     4.1461926535
  - # 10
    frequency:     4.1546971561
  - # 11
    frequency:     4.2022331452
  - # 12
    frequency:     4.2100551533

- q-position: [    0.0520833,    0.0520833,    0.0104167 ]
  weight: 24   
  band:
  - # 1
    frequency:     0.2875922555
  - # 2
    frequency:     0.3827755965
  - # 3
    frequency:     0.6892360287
  - # 4
    frequency:     3.3475458040
  - # 5
    frequency:     3.3529441133
  - # 6
    frequency:     3.3529441133
  - # 7
    frequency:     3.3706533395
  - # 8
    frequency:     3.3706533395
  - # 9
    frequency:     3.4042497358
  - # 10
    frequency:     5.0140775442
  - # 11
    frequency:     5.0140775442
  - # 12
    frequency:     5.0158803841

- q-position: [    0.0729167,    0.0520833,    0.0104167 ]
  weight: 48   
  band:
  - # 1
    frequency:     0.3597710223
  - # 2
    frequency:     0.4659870081
  - # 3
    frequency:     0.8282918964
  - # 4
    frequency:     3.3388184029
  - # 5
    frequency:     3.3417808821
  - # 6
    frequency:     3.3491394197
  - # 7
    frequency:     3.3595556288
  - # 8
    frequency:     3.3805654825
  - # 9
    frequency:     3.4189200334
  - # 10
    frequency:     5.0010109069
  - # 11
    frequency:     5.0031808424
  - # 12
    frequency:     5.0046844269

- q-position: [    0.0937500,    0.0520833,    0.0104167 ]
  weight: 48   
  band:
  - # 1
    frequency:     0.4530814133
  - # 2
    frequency:     0.5575876177
  - # 3
    frequency:     0.9755089985
  - # 4
    frequency:     3.3269182022
  - # 5
    frequency:     3.3300945403
  - # 6
    frequency:     3.3442340799
  - # 7
    frequency:     3.3447836586
  - # 8
    frequency:     3.3936614553
  - # 9
    frequency:     3.4356221427
  - # 10
    frequency:     4.9835659909
  - # 11
    frequency:     4.9887336465
  - # 12
    frequency:     4.9898386338

- q-position: [    0.1145833,    0.0520833,    0.0104167 ]
  weight: 48   
  band:
  - # 1
    frequency:     0.5555067522
  - # 2
    frequency:     0.6537697090
  - # 3
    frequency:     1.1275982131
  - # 4
    frequency:     3.3083745859
  - # 5
    frequency:     3.3212860165
  - # 6
    frequency:     3.3263586518
  - # 7
    frequency:     3.3382746856
  - # 8
    frequency:     3.4099330723
  - # 9
    frequency:     3.4544884400
  - # 10
    frequency:     4.9617240419
  - # 11
    frequency:     4.9708054922
  - # 12
    frequency:     4.9714129100

- q-position: [    0.1354167,    0.0520833,    0.0104167 ]
  weight: 48   
  band:
  - # 1
    frequency:     0.6615831973