mesh: [    48,    48,    48 ]
nqpoint: 2600   
reciprocal_lattice:
- [   0.24523752,   0.00000000,   0.00000000 ] # a*
- [   0.00000000,   0.24523752,   0.00000000 ] # b*
- [   0.00000000,   0.00000000,   0.24523752 ] # c*
natom:   4      
lattice:
- [     4.077679433369544,     0.000000000000000,     0.000000000000000 ] # a
- [     0.000000000000000,     4.077679433369544,     0.000000000000000 ] # b
- [     0.000000000000000,     0.000000000000000,     4.077679433369544 ] # c
points:
- symbol: Al # 1
  coordinates: [  0.500000000000000,  0.500000000000000,  0.000000000000000 ]
  mass: 26.981539
- symbol: Al # 2
  coordinates: [  0.500000000000000,  0.000000000000000,  0.500000000000000 ]
  mass: 26.981539
- symbol: Al # 3
  coordinates: [  0.000000000000000,  0.500000000000000,  0.500000000000000 ]
  mass: 26.981539
- symbol: Al # 4
  coordinates: [  0.000000000000000,  0.000000000000000,  0.000000000000000 ]
  mass: 26.981539
phonon:
- q-position: [    0.0104167,    0.0104167,    0.0104167 ]
  weight: 8    
  band:
  - # 1
    frequency:     0.1661171903
  - # 2
    frequency:     0.1661171903
  - # 3
    frequency:     0.2804792420
  - # 4
    frequency:     3.1872389685
  - # 5
    frequency:     3.1872389685
  - # 6
    frequency:     3.1872389685
  - # 7
    frequency:     3.1925747902
  - # 8
    frequency:     3.1925747902
  - # 9
    frequency:     3.1925747902
  - # 10
    frequency:     9.3126015859
  - # 11
    frequency:     9.3126015859
  - # 12
    frequency:     9.3126015859

- q-position: [    0.0312500,    0.0104167,    0.0104167 ]
  weight: 24   
  band:
  - # 1
    frequency:     0.3237112034
  - # 2
    frequency:     0.3326404657
  - # 3
    frequency:     0.5241170631
  - # 4
    frequency:     3.1934565823
  - # 5
    frequency:     3.1987934060
  - # 6
    frequency:     3.1987934060
  - # 7
    frequency:     3.1987966882
  - # 8
    frequency:     3.2180252575
  - # 9
    frequency:     3.2180252575
  - # 10
    frequency:     9.2994895514
  - # 11
    frequency:     9.2994895514
  - # 12
    frequency:     9.3028730595

- q-position: [    0.0520833,    0.0104167,    0.0104167 ]
  weight: 24   
  band:
  - # 1
    frequency:     0.5181826629
  - # 2
    frequency:     0.5249917729
  - # 3
    frequency:     0.8095718981
  - # 4
    frequency:     3.2057063619
  - # 5
    frequency:     3.2110548822
  - # 6
    frequency:     3.2244190890
  - # 7
    frequency:     3.2244190890
  - # 8
    frequency:     3.2654271306
  - # 9
    frequency:     3.2654271306
  - # 10
    frequency:     9.2733216943
  - # 11
    frequency:     9.2733216943
  - # 12
    frequency:     9.2834241461

- q-position: [    0.0729167,    0.0104167,    0.0104167 ]
  weight: 24   
  band:
  - # 1
    frequency:     0.7164717993
  - # 2
    frequency:     0.7212680921
  - # 3
    frequency:     1.1055405006
  - # 4
    frequency:     3.2236253944
  - # 5
    frequency:     3.2289861533
  - # 6
    frequency:     3.2632704876
  - # 7
    frequency:     3.2632704876
  - # 8
    frequency:     3.3337654388
  - # 9
    frequency:     3.3337654388
  - # 10
    frequency:     9.2342101992
  - # 11
    frequency:     9.2342101992
  - # 12
    frequency:     9.2542711390

- q-position: [    0.0937500,    0.0104167,    0.0104167 ]
  weight: 24   
  band:
  - # 1
    frequency:     0.9138249159
  - # 2
    frequency:     0.9171304238
  - # 3
    frequency:     1.4047601437
  - # 4
    frequency:     3.2466884549
  - # 5
    frequency:     3.2520648225
  - # 6
    frequency:     3.3149787619
  - # 7
    frequency:     3.3149787619
  - # 8
    frequency:     3.4208509898
  - # 9
    frequency:     3.4208509898
  - # 10
    frequency:     9.1823227465
  - # 11
    frequency:     9.1823227465
  - # 12
    frequency:     9.2154385136

- q-position: [    0.1145833,    0.0104167,    0.0104167 ]
  weight: 24   
  band:
  - # 1
    frequency:     1.1086563675
  - # 2
    frequency:     1.1108233256
  - # 3
    frequency:     1.7045798449
  - # 4
    frequency:     3.2742288521
  - # 5
    frequency:     3.2796236037
  - # 6
    frequency:     3.3792580740
  - # 7
    frequency:     3.3792580740
  - # 8
    frequency:     3.5239292303
  - # 9
    frequency:     3.5239292303
  - # 10
    frequency:     9.1178817998
  - # 11
    frequency:     9.1178817998
  - # 12
    frequency:     9.1669589696

- q-position: [    0.1354167,    0.0104167,    0.0104167 ]
  weight: 24   
  band:
  - # 1
    frequency:     1.3000043228
  - # 2
    frequency:     1.3012590178
  - # 3
    frequency:     2.0036887690
  - # 4
    frequency:     3.3054630959
  - # 5
    frequency:     3.3108782801
  - # 6
    frequency:     3.4558061787
  - # 7
    frequency:     3.4558061787
  - # 8
    frequency:     3.6399885794
  - # 9
    frequency:     3.6399885794
  - # 10
    frequency:     9.0411636611
  - # 11
    frequency:     9.0411636611
  - # 12
    frequency:     9.1088734859

- q-position: [    0.1562500,    0.0104167,    0.0104167 ]
  weight: 24   
  band:
  - # 1
    frequency:     1.4871002854
  - # 2
    frequency:     1.4875941960
  - # 3
    frequency:     2.3012734103
  - # 4
    frequency:     3.3395174134
  - # 5
    frequency:     3.3449542338
  - # 6
    frequency:     3.5442790614
  - # 7
    frequency:     3.5442790614
  - # 8
    frequency:     3.7659608581
  - # 9
    frequency:     3.7659608581
  - # 10
    frequency:     8.9524972976
  - # 11
    frequency:     8.9524972976
  - # 12
    frequency:     9.0412313875

- q-position: [    0.1770833,    0.0104167,    0.0104167 ]
  weight: 24   
  band:
  - # 1
    frequency:     1.6691024508
  - # 2
    frequency:     1.6692624495
  - # 3
    frequency:     2.5967390426
  - # 4
    frequency:     3.3754543124
  - # 5
    frequency:     3.3809130234
  - # 6
    frequency:     3.6442833588
  - # 7
    frequency:     3.6442833588
  - # 8
    frequency:     3.8988585153
  - # 9
    frequency:     3.8988585153
  - # 10
    frequency:     8.8522629477
  - # 11
    frequency:     8.8522629477
  - # 12
    frequency:     8.9640904234

- q-position: [    0.1979167,    0.0104167,    0.0104167 ]
  weight: 24   
  band:
  - # 1
    frequency:     1.8451282192
  - # 2
    frequency:     1.8458627906
  - # 3
    frequency:     2.8896005166
  - # 4
    frequency:     3.4122977386
  - # 5
    frequency:     3.4177775594
  - # 6
    frequency:     3.7553733178
  - # 7
    frequency:     3.7553733178
  - # 8
    frequency:     4.0358629195
  - # 9
    frequency:     4.0358629195
  - # 10
    frequency:     8.7408905106
  - # 11
    frequency:     8.7408905106
  - # 12
    frequency:     8.8775168535

- q-position: [    0.2187500,    0.0104167,    0.0104167 ]
  weight: 24   
  band:
  - # 1
    frequency:     2.0150685528
  - # 2
    frequency:     2.0163160100
  - # 3
    frequency:     3.1794338309
  - # 4
    frequency:     3.4490558158
  - # 5
    frequency:     3.4545548617
  - # 6
    frequency:     3.8770481561
  - # 7
    frequency:     3.8770481561
  - # 8
    frequency:     4.1743757866
  - # 9
    frequency:     4.1743757866
  - # 10
    frequency:     8.6188577302
  - # 11
    frequency:     8.6188577302
  - # 12
    frequency:     8.7815855440

- q-position: [    0.2395833,    0.0104167,    0.0104167 ]
  weight: 24   
  band:
  - # 1
    frequency:     2.1783658854
  - # 2
    frequency:     2.1800762465
  - # 3
    frequency:     3.4658525936
  - # 4
    frequency:     3.4847405880
  - # 5
    frequency:     3.4902558216
  - # 6
    frequency:     4.0087471546
  - # 7
    frequency:     4.0087471546
  - # 8
    frequency:     4.3120464433
  - # 9
    frequency:     4.3120464433
  - # 10
    frequency:     8.4866881818
  - # 11
    frequency:     8.4866881818
  - # 12
    frequency:     8.6763800688

- q-position: [    0.2604167,    0.0104167,    0.0104167 ]
  weight: 24   
  band:
  - # 1
    frequency:     2.3345056358
  - # 2
    frequency:     2.3366369214
  - # 3
    frequency:     3.5183845610
  - # 4
    frequency:     3.5239117597
  - # 5
    frequency:     3.7484957669
  - # 6
    frequency:     4.1498381342
  - # 7
    frequency:     4.1498381342
  - # 8
    frequency:     4.4467884879
  - # 9
    frequency:     4.4467884879
  - # 10
    frequency:     8.3449490731
  - # 11
    frequency:     8.3449490731
  - # 12
    frequency:     8.5619928150

- q-position: [    0.2812500,    0.0104167,    0.0104167 ]
  weight: 24   
  band:
  - # 1
    frequency:     2.4830161032
  - # 2
    frequency:     2.4855319591
  - # 3
    frequency:     3.5490541159
  - # 4
    frequency:     3.5545878573
  - # 5
    frequency:     4.0270209499
  - # 6
    frequency:     4.2995881896
  - # 7
    frequency:     4.2995881896
  - # 8
    frequency:     4.5768041889
  - # 9
    frequency:     4.5768041889
  - # 10
    frequency:     8.1942488753
  - # 11
    frequency:     8.1942488753
  - # 12
    frequency:     8.4385250920

- q-position: [    0.3020833,    0.0104167,    0.0104167 ]
  weight: 24   
  band:
  - # 1
    frequency:     2.6234695028
  - # 2
    frequency:     2.6263376341
  - # 3
    frequency:     3.5758600566
  - # 4
    frequency:     3.5813937176
  - # 5
    frequency:     4.3011005607
  - # 6
    frequency:     4.4570811635
  - # 7
    frequency:     4.4570811635
  - # 8
    frequency:     4.7006571949
  - # 9
    frequency:     4.7006571949
  - # 10
    frequency:     8.0352347981
  - # 11
    frequency:     8.0352347981
  - # 12
    frequency:     8.3060872396

- q-position: [    0.3229167,    0.0104167,    0.0104167 ]
  weight: 24   
  band:
  - # 1
    frequency:     2.7554835796
  - # 2
    frequency:     2.7586746989
  - # 3
    frequency:     3.5979656496
  - # 4
    frequency:     3.6034914187
  - # 5
    frequency:     4.5704196134
  - # 6
    frequency:     4.6209405783
  - # 7
    frequency:     4.6209405783
  - # 8
    frequency:     4.8175380930
  - # 9
    frequency:     4.8175380930
  - # 10
    frequency:     7.8685901329
  - # 11
    frequency:     7.8685901329
  - # 12
    frequency:     8.1647987359

- q-position: [    0.3437500,    0.0104167,    0.0104167 ]
  weight: 24   
  band:
  - # 1
    frequency:     2.8787235079
  - # 2
    frequency:     2.8822106179
  - # 3
    frequency:     3.6145925493
  - # 4
    frequency:     3.6201014485
  - # 5
    frequency:     4.7881094764
  - # 6
    frequency:     4.7881094764
  - # 7
    frequency:     4.8346744111
  - # 8
    frequency:     4.9284732811
  - # 9
    frequency:     4.9284732811
  - # 10
    frequency:     7.6950314910
  - # 11
    frequency:     7.6950314910
  - # 12
    frequency:     8.0147883009

- q-position: [    0.3645833,    0.0104167,    0.0104167 ]
  weight: 24   
  band:
  - # 1
    frequency:     2.9929039175
  - # 2
    frequency:     2.9966618176
  - # 3
    frequency:     3.6250249944
  - # 4
    frequency:     3.6305069095
  - # 5
    frequency:     4.9468389157
  - # 6
    frequency:     4.9468389157
  - # 7
    frequency:     5.0433264093
  - # 8
    frequency:     5.0433264093
  - # 9
    frequency:     5.0935717791
  - # 10
    frequency:     7.5153059767
  - # 11
    frequency:     7.5153059767
  - # 12
    frequency:     7.8561939947

- q-position: [    0.3854167,    0.0104167,    0.0104167 ]
  weight: 24   
  band:
  - # 1
    frequency:     3.0977909527
  - # 2
    frequency:     3.1017958991
  - # 3
    frequency:     3.6286126213
  - # 4
    frequency:     3.6340563374
  - # 5
    frequency:     5.0650400342
  - # 6
    frequency:     5.0650400342
  - # 7
    frequency:     5.1924378904
  - # 8
    frequency:     5.1924378904
  - # 9
    frequency:     5.3468286254
  - # 10
    frequency:     7.3301883564
  - # 11
    frequency:     7.3301883564
  - # 12
    frequency:     7.6891633080

- q-position: [    0.4062500,    0.0104167,    0.0104167 ]
  weight: 24   
  band:
  - # 1
    frequency:     3.1932043134
  - # 2
    frequency:     3.1974337853
  - # 3
    frequency:     3.6247721935
  - # 4
    frequency:     3.6301654347
  - # 5
    frequency:     5.1454674610
  - # 6
    frequency:     5.1454674610
  - # 7
    frequency:     5.3714347403
  - # 8
    frequency:     5.3714347403
  - # 9
    frequency:     5.5941717002
  - # 10
    frequency:     7.1404783266
  - # 11
    frequency:     7.1404783266
  - # 12
    frequency:     7.5138532430

- q-position: [    0.4270833,    0.0104167,    0.0104167 ]
  weight: 24   
  band:
  - # 1
    frequency:     3.2790192406
  - # 2
    frequency:     3.2834517833
  - # 3
    frequency:     3.6129884935
  - # 4
    frequency:     3.6183179636
  - # 5
    frequency:     5.2059341103
  - # 6
    frequency:     5.2059341103
  - # 7
    frequency:     5.5610104664
  - # 8
    frequency:     5.5610104664
  - # 9
    frequency:     5.8353374769
  - # 10
    frequency:     6.9469980822
  - # 11
    frequency:     6.9469980822
  - # 12
    frequency:     7.3304303838

- q-position: [    0.4479167,    0.0104167,    0.0104167 ]
  weight: 24   
  band:
  - # 1
    frequency:     3.3551684288
  - # 2
    frequency:     3.3597835503
  - # 3
    frequency:     3.5928145726
  - # 4
    frequency:     3.5980659954
  - # 5
    frequency:     5.2506254890
  - # 6
    frequency:     5.2506254890
  - # 7
    frequency:     5.7556062480
  - # 8
    frequency:     5.7556062480
  - # 9
    frequency:     6.0700721048
  - # 10
    frequency:     6.7505906883
  - # 11
    frequency:     6.7505906883
  - # 12
    frequency:     7.1390709533

- q-position: [    0.4687500,    0.0104167,    0.0104167 ]
  weight: 24   
  band:
  - # 1
    frequency:     3.4216438463
  - # 2
    frequency:     3.4264219552
  - # 3
    frequency:     3.5638715108
  - # 4
    frequency:     3.5690296688
  - # 5
    frequency:     5.2803340853
  - # 6
    frequency:     5.2803340853
  - # 7
    frequency:     5.9531706470
  - # 8
    frequency:     5.9531706470
  - # 9
    frequency:     6.2981314024
  - # 10
    frequency:     6.5521212954
  - # 11
    frequency:     6.5521212954
  - # 12
    frequency:     6.9399608575

- q-position: [    0.4895833,    0.0104167,    0.0104167 ]
  weight: 24   
  band:
  - # 1
    frequency:     3.4784984532
  - # 2
    frequency:     3.4834208254
  - # 3
    frequency:     3.5258478026
  - # 4
    frequency:     3.5308965705
  - # 5
    frequency:     5.2951879807
  - # 6
    frequency:     5.2951879807
  - # 7
    frequency:     6.1523964691
  - # 8
    frequency:     6.1523964691
  - # 9
    frequency:     6.3525082926
  - # 10
    frequency:     6.3525082926
  - # 11
    frequency:     6.5192808711
  - # 12
    frequency:     6.7332957147

- q-position: [    0.0312500,    0.0312500,    0.0104167 ]
  weight: 24   
  band:
  - # 1
    frequency:     0.4056994105
  - # 2
    frequency:     0.4383149941
  - # 3
    frequency:     0.6993139955
  - # 4
    frequency:     3.2030113578
  - # 5
    frequency:     3.2049754594
  - # 6
    frequency:     3.2049754594
  - # 7
    frequency:     3.2241549402
  - # 8
    frequency:     3.2241549402
  - # 9
    frequency:     3.2503507959
  - # 10
    frequency:     9.2864306453
  - # 11
    frequency:     9.2898147967
  - # 12
    frequency:     9.2898147967

- q-position: [    0.0520833,    0.0312500,    0.0104167 ]
  weight: 48   
  band:
  - # 1
    frequency:     0.5593199621
  - # 2
    frequency:     0.5976497913
  - # 3
    frequency:     0.9401064901
  - # 4
    frequency:     3.2171546471
  - # 5
    frequency:     3.2224814764
  - # 6
    frequency:     3.2305697304
  - # 7
    frequency:     3.2362322026
  - # 8
    frequency:     3.2713386522
  - # 9
    frequency:     3.3030166685
  - # 10
    frequency:     9.2603687678
  - # 11
    frequency:     9.2637547453
  - # 12
    frequency:     9.2704733301

- q-position: [    0.0729167,    0.0312500,    0.0104167 ]
  weight: 48   
  band:
  - # 1
    frequency:     0.7407622071
  - # 2
    frequency:     0.7759475173
  - # 3
    frequency:     1.2071691772
  - # 4
    frequency:     3.2349690890
  - # 5
    frequency:     3.2539005343
  - # 6
    frequency:     3.2567971348
  - # 7
    frequency:     3.2693860807
  - # 8
    frequency:     3.3393512617
  - # 9
    frequency:     3.3746254967
  - # 10
    frequency:     9.2214155501
  - # 11
    frequency:     9.2248056264
  - # 12
    frequency:     9.2414812544

- q-position: [    0.0937500,    0.0312500,    0.0104167 ]
  weight: 48   
  band:
  - # 1
    frequency:     0.9303597015
  - # 2
    frequency:     0.9609735463
  - # 3
    frequency:     1.4866656843
  - # 4
    frequency:     3.2578950520
  - # 5
    frequency:     3.2766436356
  - # 6
    frequency:     3.3050709712
  - # 7
    frequency:     3.3210480068
  - # 8
    frequency:     3.4260243452
  - # 9
    frequency:     3.4635784713
  - # 10
    frequency:     9.1697378453
  - # 11
    frequency:     9.1731359564
  - # 12
    frequency:     9.2028627673

- q-position: [    0.1145833,    0.0312500,    0.0104167 ]
  weight: 48   
  band:
  - # 1
    frequency:     1.1211329192
  - # 2
    frequency:     1.1475881059
  - # 3
    frequency:     1.7723173922
  - # 4
    frequency:     3.2852677433
  - # 5
    frequency:     3.3038055587
  - # 6
    frequency:     3.3665577928
  - # 7
    frequency:     3.3852638168
  - # 8
    frequency:     3.5286225137
  - # 9
    frequency:     3.5676570839
  - # 10
    frequency:     9.1055570190
  - # 11
    frequency:     9.1089693725
  - # 12
    frequency:     9.1546502121

- q-position: [    0.1354167,    0.0312500,    0.0104167 ]
  weight: 48   
  band:
  - # 1
    frequency:     1.3101077593
  - # 2
    frequency:     1.3331388380
  - # 3
    frequency:     2.0607874621
  - # 4
    frequency:     3.3163059281
  - # 5
    frequency:     3.3346145880
  - # 6
    frequency:     3.4406330698
  - # 7
    frequency:     3.4617260487
  - # 8
    frequency:     3.6441511096
  - # 9
    frequency:     3.6842449435
  - # 10
    frequency:     9.0291480088
  - # 11
    frequency:     9.0325837440
  - # 12
    frequency:     9.0968841451

- q-position: [    0.1562500,    0.0312500,    0.0104167 ]
  weight: 48   
  band:
  - # 1
    frequency:     1.4956729590
  - # 2
    frequency:     1.5159824588
  - # 3
    frequency:     2.3500819842
  - # 4
    frequency:     3.3501384066
  - # 5
    frequency:     3.3682089797
  - # 6
    frequency:     3.5267289682
  - # 7
    frequency:     3.5500857385
  - # 8
    frequency:     3.7695559179
  - # 9
    frequency:     3.8105613400
  - # 10
    frequency:     8.9408381568
  - # 11
    frequency:     8.9443100753
  - # 12
    frequency:     9.0296134177

- q-position: [    0.1770833,    0.0312500,    0.0104167 ]
  weight: 48   
  band:
  - # 1
    frequency:     1.6767529994
  - # 2
    frequency:     1.6949466103
  - # 3
    frequency:     2.6388861132
  - # 4
    frequency:     3.3858305520
  - # 5
    frequency:     3.4036628297
  - # 6
    frequency:     3.6242827499
  - # 7
    frequency:     3.6499448348
  - # 8
    frequency:     3.9018599877
  - # 9
    frequency:     3.9438400921
  - # 10
    frequency:     8.8410058223
  - # 11
    frequency:     8.8445312125
  - # 12
    frequency:     8.9528952720

- q-position: [    0.1979167,    0.0312500,    0.0104167 ]
  weight: 48   
  band:
  - # 1
    frequency:     1.8525193550
  - # 2
    frequency:     1.8691080705
  - # 3
    frequency:     2.9262559888
  - # 4
    frequency:     3.4224094541
  - # 5
    frequency:     3.4400106719
  - # 6
    frequency:     3.7326986734
  - # 7
    frequency:     3.7608532257
  - # 8
    frequency:     4.0382519130
  - # 9
    frequency:     4.0814527842
  - # 10
    frequency:     8.7300787797
  - # 11
    frequency:     8.7336803680
  - # 12
    frequency:     8.8667954502

- q-position: [    0.2187500,    0.0312500,    0.0104167 ]
  weight: 48   
  band:
  - # 1
    frequency:     2.0222790017
  - # 2
    frequency:     2.0376918275
  - # 3
    frequency:     3.2114639145
  - # 4
    frequency:     3.4588866477
  - # 5
    frequency:     3.4762698181
  - # 6
    frequency:     3.8513153741
  - # 7
    frequency:     3.8823061006
  - # 8
    frequency:     4.1761375431
  - # 9
    frequency:     4.2209914067
  - # 10
    frequency:     8.6085324124
  - # 11
    frequency:     8.6122394813
  - # 12
    frequency:     8.7713883135

- q-position: [    0.2395833,    0.0312500,    0.0104167 ]
  weight: 48   
  band:
  - # 1
    frequency:     2.1854276846
  - # 2
    frequency:     2.2000219611
  - # 3
    frequency:     3.4939155127
  - # 4
    frequency:     3.4942778396
  - # 5
    frequency:     3.5114598676
  - # 6
    frequency:     3.9793684898
  - # 7
    frequency:     4.0137388502
  - # 8
    frequency:     4.3131677468
  - # 9
    frequency:     4.3603298912
  - # 10
    frequency:     8.4768877111
  - # 11
    frequency:     8.4807374428
  - # 12
    frequency:     8.6667569721

- q-position: [    0.2604167,    0.0312500,    0.0104167 ]
  weight: 48   
  band:
  - # 1
    frequency:     2.3414288087
  - # 2
    frequency:     2.3554971675
  - # 3
    frequency:     3.5276194194
  - # 4
    frequency:     3.5446191675
  - # 5
    frequency:     3.7731030429
  - # 6
    frequency:     4.1159340272
  - # 7
    frequency:     4.1545149019
  - # 8
    frequency:     4.4472559141
  - # 9
    frequency:     4.4976877631
  - # 10
    frequency:     8.3357090902
  - # 11
    frequency:     8.3397482122
  - # 12
    frequency:     8.5529934222

- q-position: [    0.2812500,    0.0312500,    0.0104167 ]
  weight: 48   
  band:
  - # 1
    frequency:     2.4898031179
  - # 2
    frequency:     2.5035790012
  - # 3
    frequency:     3.5579818260
  - # 4
    frequency:     3.5748182742
  - # 5
    frequency:     4.0485779389
  - # 6
    frequency:     4.2598262248
  - # 7
    frequency:     4.3038945824
  - # 8
    frequency:     4.5766042208
  - # 9
    frequency:     4.6317290976
  - # 10
    frequency:     8.1856020359
  - # 11
    frequency:     8.1898888791
  - # 12
    frequency:     8.4301986894

- q-position: [    0.3020833,    0.0312500,    0.0104167 ]
  weight: 48   
  band:
  - # 1
    frequency:     2.6301233693
  - # 2
    frequency:     2.6437868595
  - # 3
    frequency:     3.5844800304
  - # 4
    frequency:     3.6011706479
  - # 5
    frequency:     4.3199340543
  - # 6
    frequency:     4.4093956652
  - # 7
    frequency:     4.4609465647
  - # 8
    frequency:     4.6997820964
  - # 9
    frequency:     4.7617559841
  - # 10
    frequency:     8.0272106074
  - # 11
    frequency:     8.0318177322
  - # 12
    frequency:     8.2984829769

- q-position: [    0.3229167,    0.0312500,    0.0104167 ]
  weight: 48   
  band:
  - # 1
    frequency:     2.7620117746
  - # 2
    frequency:     2.7756963745
  - # 3
    frequency:     3.6062814963
  - # 4
    frequency:     3.6228409045
  - # 5
    frequency:     4.5621154516
  - # 6
    frequency:     4.5867971242
  - # 7
    frequency:     4.6242466647
  - # 8
    frequency:     4.8160153117
  - # 9
    frequency:     4.8881119207
  - # 10
    frequency:     7.8612148145
  - # 11
    frequency:     7.8662324330
  - # 12
    frequency:     8.1579658169

- q-position: [    0.3437500,    0.0312500,    0.0104167 ]
  weight: 48   
  band:
  - # 1
    frequency:     2.8851392764
  - # 2
    frequency:     2.8989393418
  - # 3
    frequency:     3.6226120211
  - # 4
    frequency:     3.6390509933
  - # 5
    frequency:     4.7137774809
  - # 6
    frequency:     4.7905266712
  - # 7
    frequency:     4.8488179652
  - # 8
    frequency:     4.9265248182
  - # 9
    frequency:     5.0129750485
  - # 10
    frequency:     7.6883279106
  - # 11
    frequency:     7.6938684422
  - # 12
    frequency:     8.0087762224

- q-position: [    0.3645833,    0.0312500,    0.0104167 ]
  weight: 48   
  band:
  - # 1
    frequency:     2.9992260997
  - # 2
    frequency:     3.0132042601
  - # 3
    frequency:     3.6327598474
  - # 4
    frequency:     3.6490846569
  - # 5
    frequency:     4.8573913306
  - # 6
    frequency:     4.9469518470
  - # 7
    frequency:     5.0422375258
  - # 8
    frequency:     5.1056679911
  - # 9
    frequency:     5.1414497395
  - # 10
    frequency:     7.5092936607
  - # 11
    frequency:     7.5154979328
  - # 12
    frequency:     7.8510528409

- q-position: [    0.3854167,    0.0312500,    0.0104167 ]
  weight: 48   
  band:
  - # 1
    frequency:     3.1040431233
  - # 2
    frequency:     3.1182371104
  - # 3
    frequency:     3.6360784001
  - # 4
    frequency:     3.6522905055
  - # 5
    frequency:     4.9836219554
  - # 6
    frequency:     5.0615720669
  - # 7
    frequency:     5.1933241541
  - # 8
    frequency:     5.2811207515
  - # 9
    frequency:     5.3570362005
  - # 10
    frequency:     7.3248836973
  - # 11
    frequency:     7.3319295837
  - # 12
    frequency:     7.6849441066

- q-position: [    0.4062500,    0.0312500,    0.0104167 ]
  weight: 48   
  band:
  - # 1
    frequency:     3.1994136986
  - # 2
    frequency:     3.2138422659
  - # 3
    frequency:     3.6319879497
  - # 4
    frequency:     3.6480839918
  - # 5
    frequency:     5.0856851997
  - # 6
    frequency:     5.1400083745
  - # 7
    frequency:     5.3725018165
  - # 8
    frequency:     5.4371508793
  - # 9
    frequency:     5.6026271219
  - # 10
    frequency:     7.1358952105
  - # 11
    frequency:     7.1440099657
  - # 12
    frequency:     7.5106083920

- q-position: [    0.4270833,    0.0312500,    0.0104167 ]
  weight: 48   
  band:
  - # 1
    frequency:     3.2852156551
  - # 2
    frequency:     3.2998835100
  - # 3
    frequency:     3.6199764525
  - # 4
    frequency:     3.6359485285
  - # 5
    frequency:     5.1633314361
  - # 6
    frequency:     5.1988273058
  - # 7
    frequency:     5.5616475107
  - # 8
    frequency:     5.6082911005
  - # 9
    frequency:     5.8421593888
  - # 10
    frequency:     6.9431496565
  - # 11
    frequency:     6.9526279678
  - # 12
    frequency:     7.3282141592

- q-position: [    0.4479167,    0.0312500,    0.0104167 ]
  weight: 48   
  band:
  - # 1
    frequency:     3.3613833250
  - # 2
    frequency:     3.3762851461
  - # 3
    frequency:     3.5995997597
  - # 4
    frequency:     3.6154359453
  - # 5
    frequency:     5.2195730435
  - # 6
    frequency:     5.2416791560
  - # 7
    frequency:     5.7556425006
  - # 8
    frequency:     5.7901448334
  - # 9
    frequency:     6.0753647397
  - # 10
    frequency:     6.7474950540
  - # 11
    frequency:     6.7587259848
  - # 12
    frequency:     7.1379401120

- q-position: [    0.4687500,    0.0312500,    0.0104167 ]
  weight: 48   
  band:
  - # 1
    frequency:     3.4279094981
  - # 2
    frequency:     3.4430331757
  - # 3
    frequency:     3.5704813470
  - # 4
    frequency:     3.5861664431
  - # 5
    frequency:     5.2570199484
  - # 6
    frequency:     5.2691350757
  - # 7
    frequency:     5.9524970594
  - # 8
    frequency:     5.9788064041
  - # 9
    frequency:     6.3019873031
  - # 10
    frequency:     6.5498274166
  - # 11
    frequency:     6.5633333642
  - # 12
    frequency:     6.9399753517

- q-position: [    0.4895833,    0.0312500,    0.0104167 ]
  weight: 48   
  band:
  - # 1
    frequency:     3.4848472576
  - # 2
    frequency:     3.5001765093
  - # 3
    frequency:     3.5323116749
  - # 4
    frequency:     3.5478281690
  - # 5
    frequency:     5.2772338663
  - # 6
    frequency:     5.2810961235
  - # 7
    frequency:     6.1506849505
  - # 8
    frequency:     6.1711834280
  - # 9
    frequency:     6.3514108472
  - # 10
    frequency:     6.3678194661
  - # 11
    frequency:     6.5217830769
  - # 12
    frequency:     6.7345195400

- q-position: [    0.0520833,    0.0520833,    0.0104167 ]
  weight: 24   
  band:
  - # 1
    frequency:     0.6607282652
  - # 2
    frequency:     0.7229708277
  - # 3
    frequency:     1.1401741614
  - # 4
    frequency:     3.2339937804
  - # 5
    frequency:     3.2426864771
  - # 6
    frequency:     3.2426864771
  - # 7
    frequency:     3.2829869256
  - # 8
    frequency:     3.2829869256
  - # 9
    frequency:     3.3619155209
  - # 10
    frequency:     9.2345182939
  - # 11
    frequency:     9.2446286924
  - # 12
    frequency:     9.2446286924

- q-position: [    0.0729167,    0.0520833,    0.0104167 ]
  weight: 48   
  band:
  - # 1
    frequency:     0.8067369190
  - # 2
    frequency:     0.8765019142
  - # 3
    frequency:     1.3749374725
  - # 4
    frequency:     3.2604081074
  - # 5
    frequency:     3.2607032075
  - # 6
    frequency:     3.2814338442
  - # 7
    frequency:     3.3000296229
  - # 8
    frequency:     3.3503578381
  - # 9
    frequency:     3.4386782107
  - # 10
    frequency:     9.1958807949
  - # 11
    frequency:     9.2060040185
  - # 12
    frequency:     9.2159592493

- q-position: [    0.0937500,    0.0520833,    0.0104167 ]
  weight: 48   
  band:
  - # 1
    frequency:     0.9754788879
  - # 2
    frequency:     1.0442690157
  - # 3
    frequency:     1.6289049258
  - # 4
    frequency:     3.2832116284
  - # 5
    frequency:     3.3021308025
  - # 6
    frequency:     3.3219705751
  - # 7
    frequency:     3.3330049769
  - # 8
    frequency:     3.4362172924
  - # 9
    frequency:     3.5314328199
  - # 10
    frequency:     9.1446214662
  - # 11
    frequency:     9.1547694813
  - # 12
    frequency:     9.1777700449

- q-position: [    0.1145833,    0.0520833,    0.0104167 ]
  weight: 48   
  band:
  - # 1
    frequency:     1.1540254913
  - # 2
    frequency:     1.2186233532
  - # 3
    frequency:     1.8941452158
  - # 4
    frequency:     3.3104328262
  - # 5
    frequency:     3.3481787160
  - # 6
    frequency:     3.3575091239
  - # 7
    frequency:     3.3970964285
  - # 8
    frequency:     3.5378675960
  - # 9
    frequency:     3.6381286091
  - # 10
    frequency:     9.0809594730
  - # 11
    frequency:     9.0911510432
  - # 12
    frequency:     9.1300926923

- q-position: [    0.1354167,    0.0520833,    0.0104167 ]
  weight: 48   
  band:
  - # 1
    frequency:     1.3356258555
  - # 2