mesh: [    48,    48,    48 ]
nqpoint: 2600   
reciprocal_lattice:
- [   0.25274479,   0.00000000,   0.00000000 ] # a*
- [   0.00000000,   0.25274479,   0.00000000 ] # b*
- [   0.00000000,   0.00000000,   0.25274479 ] # c*
natom:   4      
lattice:
- [     3.956560242279359,     0.000000000000000,     0.000000000000000 ] # a
- [     0.000000000000000,     3.956560242279359,     0.000000000000000 ] # b
- [     0.000000000000000,     0.000000000000000,     3.956560242279359 ] # c
points:
- symbol: Al # 1
  coordinates: [  0.500000000000000,  0.500000000000000,  0.000000000000000 ]
  mass: 26.981539
- symbol: Al # 2
  coordinates: [  0.500000000000000,  0.000000000000000,  0.500000000000000 ]
  mass: 26.981539
- symbol: Al # 3
  coordinates: [  0.000000000000000,  0.500000000000000,  0.500000000000000 ]
  mass: 26.981539
- symbol: Al # 4
  coordinates: [  0.000000000000000,  0.000000000000000,  0.000000000000000 ]
  mass: 26.981539
phonon:
- q-position: [    0.0104167,    0.0104167,    0.0104167 ]
  weight: 8    
  band:
  - # 1
    frequency:     0.1414026351
  - # 2
    frequency:     0.1414026351
  - # 3
    frequency:     0.3495221891
  - # 4
    frequency:     6.1103729284
  - # 5
    frequency:     6.1103729284
  - # 6
    frequency:     6.1103729284
  - # 7
    frequency:     6.1159416879
  - # 8
    frequency:     6.1159416879
  - # 9
    frequency:     6.1159416879
  - # 10
    frequency:    10.8824000950
  - # 11
    frequency:    10.8824000950
  - # 12
    frequency:    10.8824000950

- q-position: [    0.0312500,    0.0104167,    0.0104167 ]
  weight: 24   
  band:
  - # 1
    frequency:     0.2906044991
  - # 2
    frequency:     0.3542832278
  - # 3
    frequency:     0.6199090024
  - # 4
    frequency:     6.1059301950
  - # 5
    frequency:     6.1114867483
  - # 6
    frequency:     6.1168243060
  - # 7
    frequency:     6.1168243060
  - # 8
    frequency:     6.1339118381
  - # 9
    frequency:     6.1339118381
  - # 10
    frequency:    10.8692684596
  - # 11
    frequency:    10.8744065046
  - # 12
    frequency:    10.8744065046

- q-position: [    0.0520833,    0.0104167,    0.0104167 ]
  weight: 24   
  band:
  - # 1
    frequency:     0.5235033975
  - # 2
    frequency:     0.5794651297
  - # 3
    frequency:     0.9200684889
  - # 4
    frequency:     6.0970271190
  - # 5
    frequency:     6.1025591796
  - # 6
    frequency:     6.1346452270
  - # 7
    frequency:     6.1346452270
  - # 8
    frequency:     6.1645500589
  - # 9
    frequency:     6.1645500589
  - # 10
    frequency:    10.8430331034
  - # 11
    frequency:    10.8584362977
  - # 12
    frequency:    10.8584362977

- q-position: [    0.0729167,    0.0104167,    0.0104167 ]
  weight: 24   
  band:
  - # 1
    frequency:     0.7601396323
  - # 2
    frequency:     0.8057494809
  - # 3
    frequency:     1.2317711002
  - # 4
    frequency:     6.0836287850
  - # 5
    frequency:     6.0891239053
  - # 6
    frequency:     6.1630663508
  - # 7
    frequency:     6.1630663508
  - # 8
    frequency:     6.2078719837
  - # 9
    frequency:     6.2078719837
  - # 10
    frequency:    10.8037497091
  - # 11
    frequency:    10.8345234570
  - # 12
    frequency:    10.8345234570

- q-position: [    0.0937500,    0.0104167,    0.0104167 ]
  weight: 24   
  band:
  - # 1
    frequency:     0.9939868241
  - # 2
    frequency:     1.0312942341
  - # 3
    frequency:     1.5492841144
  - # 4
    frequency:     6.0656835707
  - # 5
    frequency:     6.0711290609
  - # 6
    frequency:     6.2011782323
  - # 7
    frequency:     6.2011782323
  - # 8
    frequency:     6.2636906048
  - # 9
    frequency:     6.2636906048
  - # 10
    frequency:    10.7515014358
  - # 11
    frequency:    10.8027190428
  - # 12
    frequency:    10.8027190428

- q-position: [    0.1145833,    0.0104167,    0.0104167 ]
  weight: 24   
  band:
  - # 1
    frequency:     1.2243763393
  - # 2
    frequency:     1.2552900602
  - # 3
    frequency:     1.8697420638
  - # 4
    frequency:     6.0431240336
  - # 5
    frequency:     6.0485068784
  - # 6
    frequency:     6.2479522797
  - # 7
    frequency:     6.2479522797
  - # 8
    frequency:     6.3316330908
  - # 9
    frequency:     6.3316330908
  - # 10
    frequency:    10.6863984834
  - # 11
    frequency:    10.7630912984
  - # 12
    frequency:    10.7630912984

- q-position: [    0.1354167,    0.0104167,    0.0104167 ]
  weight: 24   
  band:
  - # 1
    frequency:     1.4512570667
  - # 2
    frequency:     1.4771803945
  - # 3
    frequency:     2.1915005928
  - # 4
    frequency:     6.0158680669
  - # 5
    frequency:     6.0211748409
  - # 6
    frequency:     6.3022580558
  - # 7
    frequency:     6.3022580558
  - # 8
    frequency:     6.4111691061
  - # 9
    frequency:     6.4111691061
  - # 10
    frequency:    10.6085775166
  - # 11
    frequency:    10.7157257933
  - # 12
    frequency:    10.7157257933

- q-position: [    0.1562500,    0.0104167,    0.0104167 ]
  weight: 24   
  band:
  - # 1
    frequency:     1.6745642831
  - # 2
    frequency:     1.6965014315
  - # 3
    frequency:     2.5135170314
  - # 4
    frequency:     5.9838203050
  - # 5
    frequency:     5.9890370856
  - # 6
    frequency:     6.3628828100
  - # 7
    frequency:     6.3628828100
  - # 8
    frequency:     6.5016415747
  - # 9
    frequency:     6.5016415747
  - # 10
    frequency:    10.5182009520
  - # 11
    frequency:    10.6607256054
  - # 12
    frequency:    10.6607256054

- q-position: [    0.1770833,    0.0104167,    0.0104167 ]
  weight: 24   
  band:
  - # 1
    frequency:     1.8941566265
  - # 2
    frequency:     1.9128356329
  - # 3
    frequency:     2.8350641105
  - # 4
    frequency:     5.9468737542
  - # 5
    frequency:     5.9519860316
  - # 6
    frequency:     6.4285538162
  - # 7
    frequency:     6.4285538162
  - # 8
    frequency:     6.6022962352
  - # 9
    frequency:     6.6022962352
  - # 10
    frequency:    10.4154561130
  - # 11
    frequency:    10.5982115458
  - # 12
    frequency:    10.5982115458

- q-position: [    0.1979167,    0.0104167,    0.0104167 ]
  weight: 24   
  band:
  - # 1
    frequency:     2.1098345496
  - # 2
    frequency:     2.1257955042
  - # 3
    frequency:     3.1555869283
  - # 4
    frequency:     5.9049116197
  - # 5
    frequency:     5.9099042036
  - # 6
    frequency:     6.4979624012
  - # 7
    frequency:     6.4979624012
  - # 8
    frequency:     6.7123084125
  - # 9
    frequency:     6.7123084125
  - # 10
    frequency:    10.3005542584
  - # 11
    frequency:    10.5283224287
  - # 12
    frequency:    10.5283224287

- q-position: [    0.2187500,    0.0104167,    0.0104167 ]
  weight: 24   
  band:
  - # 1
    frequency:     2.3213638982
  - # 2
    frequency:     2.3350174806
  - # 3
    frequency:     3.4746274008
  - # 4
    frequency:     5.8578093003
  - # 5
    frequency:     5.8626662214
  - # 6
    frequency:     6.5697880810
  - # 7
    frequency:     6.5697880810
  - # 8
    frequency:     6.8308064856
  - # 9
    frequency:     6.8308064856
  - # 10
    frequency:    10.1737294910
  - # 11
    frequency:    10.4512153911
  - # 12
    frequency:    10.4512153911

- q-position: [    0.2395833,    0.0104167,    0.0104167 ]
  weight: 24   
  band:
  - # 1
    frequency:     2.5284937344
  - # 2
    frequency:     2.5401597247
  - # 3
    frequency:     3.7917823402
  - # 4
    frequency:     5.8054365161
  - # 5
    frequency:     5.8101409233
  - # 6
    frequency:     6.6427214355
  - # 7
    frequency:     6.6427214355
  - # 8
    frequency:     6.9568919680
  - # 9
    frequency:     6.9568919680
  - # 10
    frequency:    10.0352375544
  - # 11
    frequency:    10.3670662646
  - # 12
    frequency:    10.3670662646

- q-position: [    0.2604167,    0.0104167,    0.0104167 ]
  weight: 24   
  band:
  - # 1
    frequency:     2.7309686668
  - # 2
    frequency:     2.7409015872
  - # 3
    frequency:     4.1066791542
  - # 4
    frequency:     5.7476595388
  - # 5
    frequency:     5.7521935896
  - # 6
    frequency:     6.7154848056
  - # 7
    frequency:     6.7154848056
  - # 8
    frequency:     7.0896562939
  - # 9
    frequency:     7.0896562939
  - # 10
    frequency:     9.8853545251
  - # 11
    frequency:    10.2760700062
  - # 12
    frequency:    10.2760700062

- q-position: [    0.2812500,    0.0104167,    0.0104167 ]
  weight: 24   
  band:
  - # 1
    frequency:     2.9285373002
  - # 2
    frequency:     2.9369438045
  - # 3
    frequency:     4.4189612288
  - # 4
    frequency:     5.6843434898
  - # 5
    frequency:     5.6886882332
  - # 6
    frequency:     6.7868503421
  - # 7
    frequency:     6.7868503421
  - # 8
    frequency:     7.2281944971
  - # 9
    frequency:     7.2281944971
  - # 10
    frequency:     9.7243754112
  - # 11
    frequency:    10.1784411917
  - # 12
    frequency:    10.1784411917

- q-position: [    0.3020833,    0.0104167,    0.0104167 ]
  weight: 24   
  band:
  - # 1
    frequency:     3.1209581094
  - # 2
    frequency:     3.1280090127
  - # 3
    frequency:     4.7282788860
  - # 4
    frequency:     5.6153546734
  - # 5
    frequency:     5.6194899245
  - # 6
    frequency:     6.8556552806
  - # 7
    frequency:     6.8556552806
  - # 8
    frequency:     7.3716160371
  - # 9
    frequency:     7.3716160371
  - # 10
    frequency:     9.5526126659
  - # 11
    frequency:    10.0744145781
  - # 12
    frequency:    10.0744145781

- q-position: [    0.3229167,    0.0104167,    0.0104167 ]
  weight: 24   
  band:
  - # 1
    frequency:     3.3080036043
  - # 2
    frequency:     3.3138423679
  - # 3
    frequency:     5.0342836994
  - # 4
    frequency:     5.5405629144
  - # 5
    frequency:     5.5444671177
  - # 6
    frequency:     6.9208145542
  - # 7
    frequency:     6.9208145542
  - # 8
    frequency:     7.5190530768
  - # 9
    frequency:     7.5190530768
  - # 10
    frequency:     9.3703946280
  - # 11
    frequency:     9.9642457412
  - # 12
    frequency:     9.9642457412

- q-position: [    0.3437500,    0.0104167,    0.0104167 ]
  weight: 24   
  band:
  - # 1
    frequency:     3.4894633345
  - # 2
    frequency:     3.4942121611
  - # 3
    frequency:     5.3366249215
  - # 4
    frequency:     5.4598438693
  - # 5
    frequency:     5.4634939498
  - # 6
    frequency:     6.9813309859
  - # 7
    frequency:     6.9813309859
  - # 8
    frequency:     7.6696665509
  - # 9
    frequency:     7.6696665509
  - # 10
    frequency:     9.1780639013
  - # 11
    frequency:     9.8482117961
  - # 12
    frequency:     9.8482117961

- q-position: [    0.3645833,    0.0104167,    0.0104167 ]
  weight: 24   
  band:
  - # 1
    frequency:     3.6651460745
  - # 2
    frequency:     3.6689103642
  - # 3
    frequency:     5.3730812833
  - # 4
    frequency:     5.3764524824
  - # 5
    frequency:     5.6349472999
  - # 6
    frequency:     7.0363033757
  - # 7
    frequency:     7.0363033757
  - # 8
    frequency:     7.8226503653
  - # 9
    frequency:     7.8226503653
  - # 10
    frequency:     8.9759756845
  - # 11
    frequency:     9.7266122085
  - # 12
    frequency:     9.7266122085

- q-position: [    0.3854167,    0.0104167,    0.0104167 ]
  weight: 24   
  band:
  - # 1
    frequency:     3.8348814061
  - # 2
    frequency:     3.8377530652
  - # 3
    frequency:     5.2801691681
  - # 4
    frequency:     5.2832348611
  - # 5
    frequency:     5.9288898459
  - # 6
    frequency:     7.0849328058
  - # 7
    frequency:     7.0849328058
  - # 8
    frequency:     7.9772340550
  - # 9
    frequency:     7.9772340550
  - # 10
    frequency:     8.7644960667
  - # 11
    frequency:     9.5997697138
  - # 12
    frequency:     9.5997697138

- q-position: [    0.4062500,    0.0104167,    0.0104167 ]
  weight: 24   
  band:
  - # 1
    frequency:     3.9985208322
  - # 2
    frequency:     4.0005807686
  - # 3
    frequency:     5.1810138767
  - # 4
    frequency:     5.1837453683
  - # 5
    frequency:     6.2180852835
  - # 6
    frequency:     7.1265274779
  - # 7
    frequency:     7.1265274779
  - # 8
    frequency:     8.1326841837
  - # 9
    frequency:     8.1326841837
  - # 10
    frequency:     8.5440003020
  - # 11
    frequency:     9.4680313724
  - # 12
    frequency:     9.4680313724

- q-position: [    0.4270833,    0.0104167,    0.0104167 ]
  weight: 24   
  band:
  - # 1
    frequency:     4.1559385089
  - # 2
    frequency:     4.1572585418
  - # 3
    frequency:     5.0755360555
  - # 4
    frequency:     5.0779023481
  - # 5
    frequency:     6.5021600040
  - # 6
    frequency:     7.1605063592
  - # 7
    frequency:     7.1605063592
  - # 8
    frequency:     8.2883046669
  - # 9
    frequency:     8.2883046669
  - # 10
    frequency:     8.3148710774
  - # 11
    frequency:     9.3317698562
  - # 12
    frequency:     9.3317698562

- q-position: [    0.4479167,    0.0104167,    0.0104167 ]
  weight: 24   
  band:
  - # 1
    frequency:     4.3070316537
  - # 2
    frequency:     4.3076759941
  - # 3
    frequency:     4.9636724566
  - # 4
    frequency:     4.9656399852
  - # 5
    frequency:     6.7807344067
  - # 6
    frequency:     7.1864018750
  - # 7
    frequency:     7.1864018750
  - # 8
    frequency:     8.0774967928
  - # 9
    frequency:     8.4434358734
  - # 10
    frequency:     8.4434358734
  - # 11
    frequency:     9.1913853467
  - # 12
    frequency:     9.1913853467

- q-position: [    0.4687500,    0.0104167,    0.0104167 ]
  weight: 24   
  band:
  - # 1
    frequency:     4.4517206653
  - # 2
    frequency:     4.4517470802
  - # 3
    frequency:     4.8453775947
  - # 4
    frequency:     4.8469099210
  - # 5
    frequency:     7.0534235465
  - # 6
    frequency:     7.2038618420
  - # 7
    frequency:     7.2038618420
  - # 8
    frequency:     7.8322698661
  - # 9
    frequency:     8.5974502807
  - # 10
    frequency:     8.5974502807
  - # 11
    frequency:     9.0473104594
  - # 12
    frequency:     9.0473104594

- q-position: [    0.4895833,    0.0104167,    0.0104167 ]
  weight: 24   
  band:
  - # 1
    frequency:     4.5894097212
  - # 2
    frequency:     4.5899489817
  - # 3
    frequency:     4.7206252377
  - # 4
    frequency:     4.7216826925
  - # 5
    frequency:     7.2126507912
  - # 6
    frequency:     7.2126507912
  - # 7
    frequency:     7.3198380254
  - # 8
    frequency:     7.5795850856
  - # 9
    frequency:     8.7497037841
  - # 10
    frequency:     8.7497037841
  - # 11
    frequency:     8.9000592438
  - # 12
    frequency:     8.9000592438

- q-position: [    0.0312500,    0.0312500,    0.0104167 ]
  weight: 24   
  band:
  - # 1
    frequency:     0.2737737549
  - # 2
    frequency:     0.4695522238
  - # 3
    frequency:     0.8549665886
  - # 4
    frequency:     6.1123689629
  - # 5
    frequency:     6.1123689629
  - # 6
    frequency:     6.1125783539
  - # 7
    frequency:     6.1294274735
  - # 8
    frequency:     6.1294274735
  - # 9
    frequency:     6.1623560059
  - # 10
    frequency:    10.8613615016
  - # 11
    frequency:    10.8613615016
  - # 12
    frequency:    10.8664216362

- q-position: [    0.0520833,    0.0312500,    0.0104167 ]
  weight: 48   
  band:
  - # 1
    frequency:     0.4276451446
  - # 2
    frequency:     0.6558275389
  - # 3
    frequency:     1.1294231286
  - # 4
    frequency:     6.1034403959
  - # 5
    frequency:     6.1200929413
  - # 6
    frequency:     6.1204410186
  - # 7
    frequency:     6.1301440579
  - # 8
    frequency:     6.1600272150
  - # 9
    frequency:     6.2028607482
  - # 10
    frequency:    10.8352994828
  - # 11
    frequency:    10.8455647714
  - # 12
    frequency:    10.8504688299

- q-position: [    0.0729167,    0.0312500,    0.0104167 ]
  weight: 48   
  band:
  - # 1
    frequency:     0.6495513549
  - # 2
    frequency:     0.8623403672
  - # 3
    frequency:     1.4181254535
  - # 4
    frequency:     6.0900031321
  - # 5
    frequency:     6.1069173374
  - # 6
    frequency:     6.1390889799
  - # 7
    frequency:     6.1584805271
  - # 8
    frequency:     6.2033067372
  - # 9
    frequency:     6.2549644988
  - # 10
    frequency:    10.7962762814
  - # 11
    frequency:    10.8219126819
  - # 12
    frequency:    10.8265819814

- q-position: [    0.0937500,    0.0312500,    0.0104167 ]
  weight: 48   
  band:
  - # 1
    frequency:     0.8859329277
  - # 2
    frequency:     1.0762274927
  - # 3
    frequency:     1.7149717145
  - # 4
    frequency:     6.0720046776
  - # 5
    frequency:     6.0888045092
  - # 6
    frequency:     6.1689629293
  - # 7
    frequency:     6.1964655431
  - # 8
    frequency:     6.2590816713
  - # 9
    frequency:     6.3181925840
  - # 10
    frequency:    10.7443752940
  - # 11
    frequency:    10.7904569551
  - # 12
    frequency:    10.7948120219

- q-position: [    0.1145833,    0.0312500,    0.0104167 ]
  weight: 48   
  band:
  - # 1
    frequency:     1.1240526149
  - # 2
    frequency:     1.2926321660
  - # 3
    frequency:     2.0171390952
  - # 4
    frequency:     6.0493763574
  - # 5
    frequency:     6.0660347565
  - # 6
    frequency:     6.2088922542
  - # 7
    frequency:     6.2430688152
  - # 8
    frequency:     6.3269798535
  - # 9
    frequency:     6.3919881570
  - # 10
    frequency:    10.6797070600
  - # 11
    frequency:    10.7512667467
  - # 12
    frequency:    10.7552270254

- q-position: [    0.1354167,    0.0312500,    0.0104167 ]
  weight: 48   
  band:
  - # 1
    frequency:     1.3600793323
  - # 2
    frequency:     1.5092317781
  - # 3
    frequency:     2.3228650308
  - # 4
    frequency:     6.0220344050
  - # 5
    frequency:     6.0385256620
  - # 6
    frequency:     6.2578572350
  - # 7
    frequency:     6.2971590496
  - # 8
    frequency:     6.4064704543
  - # 9
    frequency:     6.4757344832
  - # 10
    frequency:    10.6024087053
  - # 11
    frequency:    10.7044288154
  - # 12
    frequency:    10.7079123531

- q-position: [    0.1562500,    0.0312500,    0.0104167 ]
  weight: 48   
  band:
  - # 1
    frequency:     1.5925626564
  - # 2
    frequency:     1.7246832142
  - # 3
    frequency:     2.6308743782
  - # 4
    frequency:     5.9898812762
  - # 5
    frequency:     6.0061816578
  - # 6
    frequency:     6.3146651471
  - # 7
    frequency:     6.3575227842
  - # 8
    frequency:     6.4968954018
  - # 9
    frequency:     6.5687795716
  - # 10
    frequency:    10.5126432542
  - # 11
    frequency:    10.6500477377
  - # 12
    frequency:    10.6529708390

- q-position: [    0.1770833,    0.0312500,    0.0104167 ]
  weight: 48   
  band:
  - # 1
    frequency:     1.8208352223
  - # 2
    frequency:     1.9380857293
  - # 3
    frequency:     2.9401721475
  - # 4
    frequency:     5.9528071558
  - # 5
    frequency:     5.9688957700
  - # 6
    frequency:     6.3779815200
  - # 7
    frequency:     6.4228862747
  - # 8
    frequency:     6.5974993460
  - # 9
    frequency:     6.6704555074
  - # 10
    frequency:    10.4105988146
  - # 11
    frequency:    10.5882461721
  - # 12
    frequency:    10.5905230183

- q-position: [    0.1979167,    0.0312500,    0.0104167 ]
  weight: 48   
  band:
  - # 1
    frequency:     2.0445183285
  - # 2
    frequency:     2.1487656180
  - # 3
    frequency:     3.2499456202
  - # 4
    frequency:     5.9106916231
  - # 5
    frequency:     5.9265515961
  - # 6
    frequency:     6.4463680313
  - # 7
    frequency:     6.4919392714
  - # 8
    frequency:     6.7074566365
  - # 9
    frequency:     6.7800903340
  - # 10
    frequency:    10.2964876422
  - # 11
    frequency:    10.5191651752
  - # 12
    frequency:    10.5207074019

- q-position: [    0.2187500,    0.0312500,    0.0104167 ]
  weight: 48   
  band:
  - # 1
    frequency:     2.2633451458
  - # 2
    frequency:     2.3561796312
  - # 3
    frequency:     3.5595077475
  - # 4
    frequency:     5.8634054359
  - # 5
    frequency:     5.8790254943
  - # 6
    frequency:     6.5183249413
  - # 7
    frequency:     6.5633590271
  - # 8
    frequency:     6.8258948684
  - # 9
    frequency:     6.8970125104
  - # 10
    frequency:    10.1705450912
  - # 11
    frequency:    10.4429645741
  - # 12
    frequency:    10.4436808019

- q-position: [    0.2395833,    0.0312500,    0.0104167 ]
  weight: 48   
  band:
  - # 1
    frequency:     2.4770930316
  - # 2
    frequency:     2.5598678260
  - # 3
    frequency:     3.8682600669
  - # 4
    frequency:     5.8108123956
  - # 5
    frequency:     5.8261889585
  - # 6
    frequency:     6.5923348642
  - # 7
    frequency:     6.6358331100
  - # 8
    frequency:     6.9519149710
  - # 9
    frequency:     7.0205496845
  - # 10
    frequency:    10.0330284586
  - # 11
    frequency:    10.3596187125
  - # 12
    frequency:    10.3598233981

- q-position: [    0.2604167,    0.0312500,    0.0104167 ]
  weight: 48   
  band:
  - # 1
    frequency:     2.6855577173
  - # 2
    frequency:     2.7594290403
  - # 3
    frequency:     4.1756668039
  - # 4
    frequency:     5.7527712542
  - # 5
    frequency:     5.7679111504
  - # 6
    frequency:     6.6669041881
  - # 7
    frequency:     6.7080800676
  - # 8
    frequency:     7.0846079695
  - # 9
    frequency:     7.1500246063
  - # 10
    frequency:     9.8842157315
  - # 11
    frequency:    10.2687157515
  - # 12
    frequency:    10.2699403767

- q-position: [    0.2812500,    0.0312500,    0.0104167 ]
  weight: 48   
  band:
  - # 1
    frequency:     2.8885445632
  - # 2
    frequency:     2.9545075231
  - # 3
    frequency:     4.4812362522
  - # 4
    frequency:     5.6891376389
  - # 5
    frequency:     5.7040615466
  - # 6
    frequency:     6.7405988516
  - # 7
    frequency:     6.7788674548
  - # 8
    frequency:     7.2230686227
  - # 9
    frequency:     7.2847511255
  - # 10
    frequency:     9.7244042480
  - # 11
    frequency:    10.1711861706
  - # 12
    frequency:    10.1735345075

- q-position: [    0.3020833,    0.0312500,    0.0104167 ]
  weight: 48   
  band:
  - # 1
    frequency:     3.0858668831
  - # 2
    frequency:     3.1447854016
  - # 3
    frequency:     4.7845072302
  - # 4
    frequency:     5.6197659879
  - # 5
    frequency:     5.6345126423
  - # 6
    frequency:     6.8120723928
  - # 7
    frequency:     6.8470270902
  - # 8
    frequency:     7.3664061975
  - # 9
    frequency:     7.4240324247
  - # 10
    frequency:     9.5539092804
  - # 11
    frequency:    10.0672644440
  - # 12
    frequency:    10.0708457021

- q-position: [    0.3229167,    0.0312500,    0.0104167 ]
  weight: 48   
  band:
  - # 1
    frequency:     3.2773470757
  - # 2
    frequency:     3.3299783373
  - # 3
    frequency:     5.0850392054
  - # 4
    frequency:     5.5445115249
  - # 5
    frequency:     5.5591426174
  - # 6
    frequency:     6.8800857428
  - # 7
    frequency:     6.9114676500
  - # 8
    frequency:     7.5137526858
  - # 9
    frequency:     7.5671623653
  - # 10
    frequency:     9.3730625558
  - # 11
    frequency:     9.9572059481
  - # 12
    frequency:     9.9621355214

- q-position: [    0.3437500,    0.0312500,    0.0104167 ]
  weight: 48   
  band:
  - # 1
    frequency:     3.4628187011
  - # 2
    frequency:     3.5098329794
  - # 3
    frequency:     5.3824051184
  - # 4
    frequency:     5.4632323510
  - # 5
    frequency:     5.4778378294
  - # 6
    frequency:     6.9435195932
  - # 7
    frequency:     6.9711848460
  - # 8
    frequency:     7.6642687843
  - # 9
    frequency:     7.7134296387
  - # 10
    frequency:     9.1822107246
  - # 11
    frequency:     9.8412877555
  - # 12
    frequency:     9.8476880137

- q-position: [    0.3645833,    0.0312500,    0.0104167 ]
  weight: 48   
  band:
  - # 1
    frequency:     3.6421286864
  - # 2
    frequency:     3.6841254420
  - # 3
    frequency:     5.3757917710
  - # 4
    frequency:     5.3904949548
  - # 5
    frequency:     5.6761862229
  - # 6
    frequency:     7.0013809554
  - # 7
    frequency:     7.0252695042
  - # 8
    frequency:     7.8171479546
  - # 9
    frequency:     7.8621236891
  - # 10
    frequency:     8.9817137926
  - # 11
    frequency:     9.7198095873
  - # 12
    frequency:     9.7278106927

- q-position: [    0.3854167,    0.0312500,    0.0104167 ]
  weight: 48   
  band:
  - # 1
    frequency:     3.8151393200
  - # 2
    frequency:     3.8526603544
  - # 3
    frequency:     5.2820609801
  - # 4
    frequency:     5.2970226046
  - # 5
    frequency:     5.9659684479
  - # 6
    frequency:     7.0528057228
  - # 7
    frequency:     7.0729138783
  - # 8
    frequency:     7.9716188130
  - # 9
    frequency:     8.0125411417
  - # 10
    frequency:     8.7719435321
  - # 11
    frequency:     9.5930950237
  - # 12
    frequency:     9.6028357306

- q-position: [    0.4062500,    0.0312500,    0.0104167 ]
  weight: 48   
  band:
  - # 1
    frequency:     3.9817299117
  - # 2
    frequency:     4.0152702052
  - # 3
    frequency:     5.1819221441
  - # 4
    frequency:     5.1973423317
  - # 5
    frequency:     6.2513399209
  - # 6
    frequency:     7.0970588172
  - # 7
    frequency:     7.1134165224
  - # 8
    frequency:     8.1269459340
  - # 9
    frequency:     8.1639914943
  - # 10
    frequency:     8.5532818878
  - # 11
    frequency:     9.4614932446
  - # 12
    frequency:     9.4731215887

- q-position: [    0.4270833,    0.0312500,    0.0104167 ]
  weight: 48   
  band:
  - # 1
    frequency:     4.1417981021
  - # 2
    frequency:     4.1718147949
  - # 3
    frequency:     5.0752717095
  - # 4
    frequency:     5.0913891504
  - # 5
    frequency:     6.5318893883
  - # 6
    frequency:     7.1335330898
  - # 7
    frequency:     7.1461860151
  - # 8
    frequency:     8.2824286043
  - # 9
    frequency:     8.3158005530
  - # 10
    frequency:     8.3261193981
  - # 11
    frequency:     9.3253821956
  - # 12
    frequency:     9.3390558043

- q-position: [    0.4479167,    0.0312500,    0.0104167 ]
  weight: 48   
  band:
  - # 1
    frequency:     4.2952608580
  - # 2
    frequency:     4.3221806553
  - # 3
    frequency:     4.9620235526
  - # 4
    frequency:     4.9791119243
  - # 5
    frequency:     6.8072053359
  - # 6
    frequency:     7.1617477311
  - # 7
    frequency:     7.1707437979
  - # 8
    frequency:     8.0908536495
  - # 9
    frequency:     8.4373947390
  - # 10
    frequency:     8.4673074912
  - # 11
    frequency:     9.1851770205
  - # 12
    frequency:     9.2010619340

- q-position: [    0.4687500,    0.0312500,    0.0104167 ]
  weight: 48   
  band:
  - # 1
    frequency:     4.4420552223
  - # 2
    frequency:     4.4662803185
  - # 3
    frequency:     4.8421114856
  - # 4
    frequency:     4.8604740703
  - # 5
    frequency:     7.0768756611
  - # 6
    frequency:     7.1813466104
  - # 7
    frequency:     7.1867263480
  - # 8
    frequency:     7.8478877882
  - # 9
    frequency:     8.5911718243
  - # 10
    frequency:     8.6178301698
  - # 11
    frequency:     9.0413690826
  - # 12
    frequency:     9.0596289498

- q-position: [    0.4895833,    0.0312500,    0.0104167 ]
  weight: 48   
  band:
  - # 1
    frequency:     4.5821389061
  - # 2
    frequency:     4.6040513227
  - # 3
    frequency:     4.7154908059
  - # 4
    frequency:     4.7354548664
  - # 5
    frequency:     7.1920967351
  - # 6
    frequency:     7.1938868794
  - # 7
    frequency:     7.3404877849
  - # 8
    frequency:     7.5976291143
  - # 9
    frequency:     8.7427648708
  - # 10
    frequency:     8.7661065713
  - # 11
    frequency:     8.8950878371
  - # 12
    frequency:     8.9156332055

- q-position: [    0.0520833,    0.0520833,    0.0104167 ]
  weight: 24   
  band:
  - # 1
    frequency:     0.4336283546
  - # 2
    frequency:     0.7999447630
  - # 3
    frequency:     1.3867126602
  - # 4
    frequency:     6.1168414719
  - # 5
    frequency:     6.1211228748
  - # 6
    frequency:     6.1211228748
  - # 7
    frequency:     6.1509641790
  - # 8
    frequency:     6.1509641790
  - # 9
    frequency:     6.2532650663
  - # 10
    frequency:    10.8198498292
  - # 11
    frequency:    10.8198498292
  - # 12
    frequency:    10.8345507376

- q-position: [    0.0729167,    0.0520833,    0.0104167 ]
  weight: 48   
  band:
  - # 1
    frequency:     0.5732090680
  - # 2
    frequency:     0.9766961759
  - # 3
    frequency:     1.6603081751
  - # 4
    frequency:     6.1075442373
  - # 5
    frequency:     6.1252322087
  - # 6
    frequency:     6.1373266088
  - # 7
    frequency:     6.1492883567
  - # 8
    frequency:     6.1941597695
  - # 9
    frequency:     6.3147061784
  - # 10
    frequency:    10.7813475591
  - # 11
    frequency:    10.7967193695
  - # 12
    frequency:    10.8107157432

- q-position: [    0.0937500,    0.0520833,    0.0104167 ]
  weight: 48   
  band:
  - # 1
    frequency:     0.7772439562
  - # 2
    frequency:     1.1701699904
  - # 3
    frequency:     1.9425515721
  - # 4
    frequency:     6.0893526000
  - # 5
    frequency:     6.1190638721
  - # 6
    frequency:     6.1449079082
  - # 7
    frequency:     6.1870174526
  - # 8
    frequency:     6.2498485894
  - # 9
    frequency:     6.3864983988
  - # 10
    frequency:    10.7301417615
  - # 11
    frequency:    10.7659610750
  - # 12
    frequency:    10.7790145207

- q-position: [    0.1145833,    0.0520833,    0.0104167 ]
  weight: 48   
  band:
  - # 1
    frequency:     1.0044231881
  - # 2
    frequency:     1.3721744613
  - # 3
    frequency:     2.2302918076
  - # 4
    frequency:     6.0664750335
  - # 5
    frequency:     6.0961100914
  - # 6
    frequency:     6.1752565413
  - # 7
    frequency:     6.2332767769
  - # 8
    frequency:     6.3176596395
  - # 9
    frequency:     6.4679171124
  - # 10
    frequency:    10.6663435544
  - # 11
    frequency:    10.7276458185
  - # 12
    frequency:    10.7395148058

- q-position: [    0.1354167,    0.0520833,    0.0104167 ]
  weight: 48   
  band:
  - # 1
    frequency:     1.2391649690
  - # 2