 running on    8 nodes
 distr:  one band on    1 nodes,    8 groups
 vasp.4.6.28 25Jul05 complex 
 POSCAR found :  1 types and   32 ions

 ----------------------------------------------------------------------------- 
|                                                                             |
|  ADVICE TO THIS USER RUNNING 'VASP/VAMP'   (HEAR YOUR MASTER'S VOICE ...):  |
|                                                                             |
|      You have a (more or less) 'large supercell' and for larger cells       |
|      it might be more efficient to use real space projection operators      |
|      So try LREAL= Auto  in the INCAR   file.                               |
|      Mind: If you want to do an extremely accurate calculations keep the    |
|      reciprocal projection scheme          (i.e. LREAL=.FALSE.)             |
|                                                                             |
 ----------------------------------------------------------------------------- 

 LDA part: xc-table for Pade appr. of Perdew
 POSCAR, INCAR and KPOINTS ok, starting setup
 FFT: planning ...           1
 reading WAVECAR
 WARNING: random wavefunctions but no delay for mixing, default for NELMDL
 entering main loop
       N       E                     dE             d eps       ncg     rms          rms(c)
DAV:   1     0.456614564218E+04    0.45661E+04   -0.20583E+05 84672   0.216E+03
DAV:   2     0.161192219585E+03   -0.44050E+04   -0.42056E+04 84680   0.546E+02
DAV:   3    -0.101019122702E+03   -0.26221E+03   -0.23914E+03 93848   0.141E+02
DAV:   4    -0.110258125746E+03   -0.92390E+01   -0.90923E+01 90560   0.254E+01
DAV:   5    -0.110418576363E+03   -0.16045E+00   -0.16002E+00 91352   0.293E+00    0.154E+01
DAV:   6    -0.103336644988E+03    0.70819E+01   -0.20823E+01 89416   0.156E+01    0.378E+00
DAV:   7    -0.103037397870E+03    0.29925E+00   -0.10151E+00 92880   0.276E+00    0.178E+00
DAV:   8    -0.102976244682E+03    0.61153E-01   -0.54325E-02 88176   0.847E-01    0.138E-01
DAV:   9    -0.102976666111E+03   -0.42143E-03   -0.44020E-03 93528   0.204E-01    0.820E-02
DAV:  10    -0.102976718364E+03   -0.52253E-04   -0.44758E-04 88080   0.644E-02    0.168E-02
DAV:  11    -0.102976729582E+03   -0.11218E-04   -0.24508E-05 91312   0.191E-02    0.317E-03
DAV:  12    -0.102976733262E+03   -0.36800E-05   -0.99613E-07 89176   0.325E-03    0.151E-03
DAV:  13    -0.102976732127E+03    0.11341E-05   -0.66779E-08 88704   0.113E-03    0.706E-04
DAV:  14    -0.102976731288E+03    0.83930E-06   -0.31366E-08 64192   0.565E-04    0.130E-04
DAV:  15    -0.102976731243E+03    0.45569E-07   -0.20342E-09 46824   0.209E-04    0.520E-05
DAV:  16    -0.102976731291E+03   -0.48869E-07    0.15214E-11 46288   0.812E-05    0.240E-05
DAV:  17    -0.102976731297E+03   -0.52714E-08    0.38901E-10 46360   0.286E-05
   1 F= -.10297673E+03 E0= -.10297633E+03  d E =-.801560E-03
