  32  32   0   0
  0.1984955E+02  0.8596075E-09  0.8596075E-09  0.8596075E-09  0.5000000E-15
  1.000000000000000E-004
  CAR 
 unknown system                          
     12.80714837     -5.22687500  301      3.92782346      1.00000000
     -5.227  0.0000E+00  0.0000E+00
     -5.167  0.0000E+00  0.0000E+00
     -5.107  0.0000E+00  0.0000E+00
     -5.047  0.0000E+00  0.0000E+00
     -4.986  0.0000E+00  0.0000E+00
     -4.926  0.0000E+00  0.0000E+00
     -4.866  0.0000E+00  0.0000E+00
     -4.806  0.0000E+00  0.0000E+00
     -4.746  0.0000E+00  0.0000E+00
     -4.686  0.0000E+00  0.0000E+00
     -4.626  0.0000E+00  0.0000E+00
     -4.566  0.0000E+00  0.0000E+00
     -4.506  0.0000E+00  0.0000E+00
     -4.445  0.6070E-09  0.3649E-10
     -4.385  0.1087E+00  0.6533E-02
     -4.325  0.6021E+00  0.4273E-01
     -4.265  0.9822E+00  0.1018E+00
     -4.205  0.1564E+01  0.1958E+00
     -4.145  0.1568E+01  0.2900E+00
     -4.085  0.1682E+01  0.3912E+00
     -4.025  0.2148E+01  0.5203E+00
     -3.964  0.1334E+01  0.6005E+00
     -3.904  0.2772E+01  0.7672E+00
     -3.844  0.1909E+01  0.8820E+00
     -3.784  0.3020E+01  0.1064E+01
     -3.724  0.2110E+01  0.1190E+01
     -3.664  0.3613E+01  0.1408E+01
     -3.604  0.2794E+01  0.1576E+01
     -3.544  0.3064E+01  0.1760E+01
     -3.484  0.4158E+01  0.2010E+01
     -3.423  0.2824E+01  0.2180E+01
     -3.363  0.4042E+01  0.2423E+01
     -3.303  0.3697E+01  0.2645E+01
     -3.243  0.4376E+01  0.2908E+01
     -3.183  0.3757E+01  0.3134E+01
     -3.123  0.4630E+01  0.3412E+01
     -3.063  0.4019E+01  0.3654E+01
     -3.003  0.4685E+01  0.3935E+01
     -2.943  0.5409E+01  0.4261E+01
     -2.882  0.5244E+01  0.4576E+01
     -2.822  0.4303E+01  0.4835E+01
     -2.762  0.7137E+01  0.5264E+01
     -2.702  0.5705E+01  0.5607E+01
     -2.642  0.5850E+01  0.5958E+01
     -2.582  0.6350E+01  0.6340E+01
     -2.522  0.7846E+01  0.6812E+01
     -2.462  0.5500E+01  0.7142E+01
     -2.402  0.1037E+02  0.7766E+01
     -2.341  0.8149E+01  0.8256E+01
     -2.281  0.8892E+01  0.8790E+01
     -2.221  0.1097E+02  0.9450E+01
     -2.161  0.1477E+02  0.1034E+02
     -2.101  0.1620E+02  0.1131E+02
     -2.041  0.2745E+02  0.1296E+02
     -1.981  0.2192E+02  0.1428E+02
     -1.921  0.2768E+02  0.1594E+02
     -1.861  0.2532E+02  0.1747E+02
     -1.800  0.3283E+02  0.1944E+02
     -1.740  0.3861E+02  0.2176E+02
     -1.680  0.4554E+02  0.2450E+02
     -1.620  0.4753E+02  0.2736E+02
     -1.560  0.6410E+02  0.3121E+02
     -1.500  0.6725E+02  0.3525E+02
     -1.440  0.7353E+02  0.3967E+02
     -1.380  0.7561E+02  0.4422E+02
     -1.320  0.7115E+02  0.4850E+02
     -1.259  0.7708E+02  0.5313E+02
     -1.199  0.5844E+02  0.5664E+02
     -1.139  0.7575E+02  0.6120E+02
     -1.079  0.5439E+02  0.6447E+02
     -1.019  0.6858E+02  0.6859E+02
     -0.959  0.5728E+02  0.7203E+02
     -0.899  0.5930E+02  0.7560E+02
     -0.839  0.5246E+02  0.7875E+02
     -0.778  0.4417E+02  0.8141E+02
     -0.718  0.4865E+02  0.8433E+02
     -0.658  0.6485E+02  0.8823E+02
     -0.598  0.5941E+02  0.9180E+02
     -0.538  0.8004E+02  0.9662E+02
     -0.478  0.8255E+02  0.1016E+03
     -0.418  0.8027E+02  0.1064E+03
     -0.358  0.9209E+02  0.1119E+03
     -0.298  0.8195E+02  0.1169E+03
     -0.237  0.7747E+02  0.1215E+03
     -0.177  0.7730E+02  0.1262E+03
     -0.117  0.9360E+02  0.1318E+03
     -0.057  0.8049E+02  0.1366E+03
      0.003  0.9470E+02  0.1423E+03
      0.063  0.1094E+03  0.1489E+03
      0.123  0.1064E+03  0.1553E+03
      0.183  0.1395E+03  0.1637E+03
      0.243  0.1546E+03  0.1730E+03
      0.304  0.1094E+03  0.1796E+03
      0.364  0.8768E+02  0.1848E+03
      0.424  0.7834E+02  0.1895E+03
      0.484  0.6756E+02  0.1936E+03
      0.544  0.6551E+02  0.1975E+03
      0.604  0.7460E+02  0.2020E+03
      0.664  0.6600E+02  0.2060E+03
      0.724  0.6550E+02  0.2099E+03
      0.784  0.7275E+02  0.2143E+03
      0.845  0.8476E+02  0.2194E+03
      0.905  0.8514E+02  0.2245E+03
      0.965  0.8683E+02  0.2297E+03
      1.025  0.8241E+02  0.2347E+03
      1.085  0.1008E+03  0.2408E+03
      1.145  0.8743E+02  0.2460E+03
      1.205  0.8190E+02  0.2509E+03
      1.265  0.7253E+02  0.2553E+03
      1.325  0.7638E+02  0.2599E+03
      1.386  0.7049E+02  0.2641E+03
      1.446  0.7040E+02  0.2684E+03
      1.506  0.6664E+02  0.2724E+03
      1.566  0.7337E+02  0.2768E+03
      1.626  0.6344E+02  0.2806E+03
      1.686  0.8159E+02  0.2855E+03
      1.746  0.7254E+02  0.2899E+03
      1.806  0.8429E+02  0.2949E+03
      1.867  0.8721E+02  0.3002E+03
      1.927  0.1166E+03  0.3072E+03
      1.987  0.1312E+03  0.3151E+03
      2.047  0.1230E+03  0.3225E+03
      2.107  0.8141E+02  0.3274E+03
      2.167  0.6764E+02  0.3314E+03
      2.227  0.4223E+02  0.3340E+03
      2.287  0.2547E+02  0.3355E+03
      2.347  0.2197E+02  0.3368E+03
      2.408  0.5026E+01  0.3371E+03
      2.468  0.8016E+01  0.3376E+03
      2.528  0.6298E+01  0.3380E+03
      2.588  0.1817E+02  0.3391E+03
      2.648  0.5927E+01  0.3394E+03
      2.708  0.1032E+02  0.3400E+03
      2.768  0.9252E+01  0.3406E+03
      2.828  0.1183E+02  0.3413E+03
      2.888  0.7160E+01  0.3417E+03
      2.949  0.8145E+01  0.3422E+03
      3.009  0.1347E+02  0.3430E+03
      3.069  0.9741E+01  0.3436E+03
      3.129  0.7787E+01  0.3441E+03
      3.189  0.7118E+01  0.3445E+03
      3.249  0.1091E+02  0.3452E+03
      3.309  0.1325E+02  0.3460E+03
      3.369  0.9692E+01  0.3466E+03
      3.429  0.6868E+01  0.3470E+03
      3.490  0.8011E+01  0.3475E+03
      3.550  0.9783E+01  0.3480E+03
      3.610  0.1208E+02  0.3488E+03
      3.670  0.1203E+02  0.3495E+03
      3.730  0.7934E+01  0.3500E+03
      3.790  0.7031E+01  0.3504E+03
      3.850  0.1170E+02  0.3511E+03
      3.910  0.9720E+01  0.3517E+03
      3.970  0.1163E+02  0.3524E+03
      4.031  0.1026E+02  0.3530E+03
      4.091  0.6655E+01  0.3534E+03
      4.151  0.1083E+02  0.3540E+03
      4.211  0.1397E+02  0.3549E+03
      4.271  0.5330E+01  0.3552E+03
      4.331  0.1191E+02  0.3559E+03
      4.391  0.7449E+01  0.3564E+03
      4.451  0.1131E+02  0.3570E+03
      4.511  0.1194E+02  0.3578E+03
      4.572  0.9068E+01  0.3583E+03
      4.632  0.7292E+01  0.3587E+03
      4.692  0.9083E+01  0.3593E+03
      4.752  0.1163E+02  0.3600E+03
      4.812  0.9229E+01  0.3605E+03
      4.872  0.9804E+01  0.3611E+03
      4.932  0.9737E+01  0.3617E+03
      4.992  0.8831E+01  0.3623E+03
      5.053  0.1045E+02  0.3629E+03
      5.113  0.8312E+01  0.3634E+03
      5.173  0.1148E+02  0.3641E+03
      5.233  0.9362E+01  0.3646E+03
      5.293  0.9405E+01  0.3652E+03
      5.353  0.9067E+01  0.3657E+03
      5.413  0.7554E+01  0.3662E+03
      5.473  0.1356E+02  0.3670E+03
      5.533  0.6079E+01  0.3674E+03
      5.594  0.1210E+02  0.3681E+03
      5.654  0.9566E+01  0.3687E+03
      5.714  0.8527E+01  0.3692E+03
      5.774  0.1105E+02  0.3699E+03
      5.834  0.3996E+01  0.3701E+03
      5.894  0.1262E+02  0.3709E+03
      5.954  0.1058E+02  0.3715E+03
      6.014  0.9508E+01  0.3721E+03
      6.074  0.7362E+01  0.3725E+03
      6.135  0.7869E+01  0.3730E+03
      6.195  0.1258E+02  0.3737E+03
      6.255  0.9565E+01  0.3743E+03
      6.315  0.1089E+02  0.3750E+03
      6.375  0.1408E+02  0.3758E+03
      6.435  0.1931E+02  0.3770E+03
      6.495  0.1451E+02  0.3778E+03
      6.555  0.1205E+02  0.3786E+03
      6.615  0.1063E+02  0.3792E+03
      6.676  0.1637E+02  0.3802E+03
      6.736  0.1263E+02  0.3810E+03
      6.796  0.1060E+02  0.3816E+03
      6.856  0.1049E+02  0.3822E+03
      6.916  0.1230E+02  0.3830E+03
      6.976  0.1235E+02  0.3837E+03
      7.036  0.9907E+01  0.3843E+03
      7.096  0.1102E+02  0.3850E+03
      7.156  0.8168E+01  0.3855E+03
      7.217  0.7897E+01  0.3859E+03
      7.277  0.1272E+02  0.3867E+03
      7.337  0.1090E+02  0.3873E+03
      7.397  0.1106E+02  0.3880E+03
      7.457  0.8032E+01  0.3885E+03
      7.517  0.7132E+01  0.3889E+03
      7.577  0.8346E+01  0.3894E+03
      7.637  0.1069E+02  0.3901E+03
      7.698  0.5949E+01  0.3904E+03
      7.758  0.1216E+02  0.3912E+03
      7.818  0.4680E+01  0.3914E+03
      7.878  0.9627E+01  0.3920E+03
      7.938  0.1047E+02  0.3926E+03
      7.998  0.6255E+01  0.3930E+03
      8.058  0.8997E+01  0.3936E+03
      8.118  0.6834E+01  0.3940E+03
      8.178  0.1312E+02  0.3948E+03
      8.239  0.1114E+02  0.3954E+03
      8.299  0.1343E+02  0.3962E+03
      8.359  0.9423E+01  0.3968E+03
      8.419  0.1241E+02  0.3976E+03
      8.479  0.1196E+02  0.3983E+03
      8.539  0.1480E+02  0.3992E+03
      8.599  0.1470E+02  0.4000E+03
      8.659  0.1436E+02  0.4009E+03
      8.719  0.1480E+02  0.4018E+03
      8.780  0.1100E+02  0.4025E+03
      8.840  0.1268E+02  0.4032E+03
      8.900  0.9462E+01  0.4038E+03
      8.960  0.1366E+02  0.4046E+03
      9.020  0.1121E+02  0.4053E+03
      9.080  0.1213E+02  0.4060E+03
      9.140  0.1195E+02  0.4067E+03
      9.200  0.1479E+02  0.4076E+03
      9.260  0.1247E+02  0.4084E+03
      9.321  0.1269E+02  0.4091E+03
      9.381  0.8802E+01  0.4097E+03
      9.441  0.1317E+02  0.4105E+03
      9.501  0.7148E+01  0.4109E+03
      9.561  0.1217E+02  0.4116E+03
      9.621  0.1226E+02  0.4124E+03
      9.681  0.1127E+02  0.4130E+03
      9.741  0.7265E+01  0.4135E+03
      9.801  0.7645E+01  0.4139E+03
      9.862  0.1273E+02  0.4147E+03
      9.922  0.8840E+01  0.4152E+03
      9.982  0.9648E+01  0.4158E+03
     10.042  0.1234E+02  0.4166E+03
     10.102  0.8220E+01  0.4170E+03
     10.162  0.6928E+01  0.4175E+03
     10.222  0.1015E+02  0.4181E+03
     10.282  0.1554E+02  0.4190E+03
     10.342  0.8566E+01  0.4195E+03
     10.403  0.9100E+01  0.4201E+03
     10.463  0.1005E+02  0.4207E+03
     10.523  0.1324E+02  0.4215E+03
     10.583  0.8330E+01  0.4220E+03
     10.643  0.1190E+02  0.4227E+03
     10.703  0.1292E+02  0.4235E+03
     10.763  0.1246E+02  0.4242E+03
     10.823  0.1717E+02  0.4252E+03
     10.884  0.1110E+02  0.4259E+03
     10.944  0.1240E+02  0.4267E+03
     11.004  0.6643E+01  0.4271E+03
     11.064  0.7168E+01  0.4275E+03
     11.124  0.1187E+02  0.4282E+03
     11.184  0.8586E+01  0.4287E+03
     11.244  0.5688E+01  0.4291E+03
     11.304  0.9253E+01  0.4296E+03
     11.364  0.1294E+02  0.4304E+03
     11.425  0.5665E+01  0.4307E+03
     11.485  0.4557E+01  0.4310E+03
     11.545  0.4277E+01  0.4313E+03
     11.605  0.2220E+01  0.4314E+03
     11.665  0.2703E+01  0.4316E+03
     11.725  0.2943E+01  0.4317E+03
     11.785  0.1790E+01  0.4318E+03
     11.845  0.4254E-01  0.4318E+03
     11.905  0.4745E+00  0.4319E+03
     11.966  0.1353E+01  0.4320E+03
     12.026  0.7484E+00  0.4320E+03
     12.086  0.0000E+00  0.4320E+03
     12.146  0.0000E+00  0.4320E+03
     12.206  0.0000E+00  0.4320E+03
     12.266  0.0000E+00  0.4320E+03
     12.326  0.0000E+00  0.4320E+03
     12.386  0.0000E+00  0.4320E+03
     12.446  0.0000E+00  0.4320E+03
     12.507  0.0000E+00  0.4320E+03
     12.567  0.0000E+00  0.4320E+03
     12.627  0.0000E+00  0.4320E+03
     12.687  0.0000E+00  0.4320E+03
     12.747  0.0000E+00  0.4320E+03
     12.807  0.0000E+00  0.4320E+03
