   32   32    1    1
  0.1984955E+02  0.8596075E-09  0.8596075E-09  0.8596075E-09  0.5000000E-15
  1.000000000000000E-004
  CAR 
 unknown system                          
  352  196  216
 
  0.0000000E+00  0.0000000E+00  0.0000000E+00  0.5787037E-03
   1       -4.4071
   2       -2.2632
   3       -2.2602
   4       -2.2602
   5       -2.2602
   6       -2.2601
   7       -2.2571
   8       -2.1323
   9       -2.1323
  10       -2.1323
  11       -2.1323
  12       -1.8814
  13       -1.8814
  14       -1.8814
  15       -1.6488
  16       -1.6488
  17       -1.6488
  18       -1.1265
  19       -1.1251
  20       -1.1251
  21       -1.1235
  22       -1.1233
  23       -1.1233
  24       -1.1233
  25       -1.1233
  26       -1.1231
  27       -1.1216
  28       -1.1216
  29       -1.1202
  30       -0.9899
  31       -0.9881
  32       -0.9881
  33       -0.9881
  34       -0.9881
  35       -0.9862
  36       -0.9130
  37       -0.9111
  38       -0.9111
  39       -0.9111
  40       -0.9111
  41       -0.9093
  42       -0.4377
  43       -0.4354
  44       -0.4354
  45       -0.4343
  46       -0.4343
  47       -0.4343
  48       -0.4343
  49       -0.4343
  50       -0.4343
  51       -0.4333
  52       -0.4333
  53       -0.4311
  54       -0.3782
  55       -0.3782
  56       -0.3762
  57       -0.3762
  58       -0.3762
  59       -0.3762
  60       -0.3762
  61       -0.3761
  62       -0.3761
  63       -0.3760
  64       -0.3740
  65       -0.3740
  66       -0.1409
  67       -0.1378
  68       -0.1377
  69       -0.1377
  70       -0.1375
  71       -0.1375
  72       -0.1374
  73       -0.1374
  74       -0.1372
  75       -0.1372
  76       -0.1372
  77       -0.1340
  78       -0.0789
  79       -0.0789
  80       -0.0789
  81       -0.0789
  82       -0.0789
  83       -0.0789
  84       -0.0788
  85       -0.0788
  86       -0.0586
  87       -0.0586
  88       -0.0586
  89        0.5312
  90        0.5330
  91        0.5331
  92        0.5331
  93        0.5331
  94        0.5349
  95        0.6658
  96        0.6665
  97        0.6675
  98        0.6675
  99        0.6680
 100        0.6680
 101        0.6681
 102        0.6681
 103        0.6686
 104        0.6686
 105        0.6697
 106        0.6702
 107        0.9016
 108        0.9016
 109        0.9039
 110        0.9039
 111        0.9041
 112        0.9041
 113        0.9041
 114        0.9041
 115        0.9043
 116        0.9043
 117        0.9064
 118        0.9064
 119        1.0245
 120        1.0260
 121        1.0260
 122        1.0260
 123        1.0260
 124        1.0276
 125        1.0981
 126        1.0983
 127        1.1064
 128        1.1064
 129        1.1086
 130        1.1089
 131        1.1090
 132        1.1090
 133        1.1090
 134        1.1091
 135        1.1093
 136        1.1094
 137        1.1117
 138        1.1117
 139        1.5218
 140        1.5230
 141        1.5230
 142        1.5230
 143        1.5230
 144        1.5241
 145        1.9782
 146        1.9782
 147        1.9782
 148        2.0152
 149        2.0152
 150        2.0152
 151        2.0152
 152        2.0152
 153        2.0153
 154        2.0153
 155        2.0153
 156        2.2580
 157        2.2583
 158        2.2583
 159        2.2583
 160        2.2583
 161        2.2583
 162        2.2595
 163        2.2596
 164        2.2596
 165        2.2596
 166        2.2596
 167        2.2598
 168        3.5088
 169        3.5096
 170        3.5096
 171        3.5103
 172        3.5107
 173        3.5107
 174        3.5107
 175        3.5107
 176        3.5112
 177        3.5118
 178        3.5118
 179        3.5126
 180        3.6457
 181        3.6458
 182        3.6458
 183        3.6458
 184        5.3754
 185        5.3754
 186        5.3754
 187        6.2892
 188        6.2892
 189        6.2892
 190        6.2892
 191        7.9594
 192        7.9595
 193        7.9596
 194        7.9596
 195        7.9596
 196        7.9597
 197        8.6272
 198        8.6272
 199        8.6273
 200        9.7885
 201        9.7885
 202        9.7914
 203        9.7914
 204        9.7918
 205        9.7918
 206        9.7919
 207        9.7919
 208        9.7922
 209        9.7922
 210        9.7952
 211        9.7952
 212       11.7160
 213       11.7166
 214       11.7172
 215       11.7178
 216       11.7183
 
  0.8333333E-01  0.0000000E+00  0.0000000E+00  0.1157407E-02
   1       -4.3894
   2       -2.5177
   3       -2.2474
   4       -2.2474
   5       -2.2474
   6       -2.2474
   7       -2.1229
   8       -2.1229
   9       -2.1229
  10       -2.1229
  11       -2.0393
  12       -1.8759
  13       -1.8703
  14       -1.8703
  15       -1.6429
  16       -1.6398
  17       -1.6398
  18       -1.2143
  19       -1.2143
  20       -1.2143
  21       -1.2143
  22       -1.1720
  23       -1.1720
  24       -1.1720
  25       -1.1720
  26       -1.0455
  27       -1.0455
  28       -1.0455
  29       -1.0455
  30       -1.0131
  31       -1.0111
  32       -1.0110
  33       -0.9804
  34       -0.9804
  35       -0.9804
  36       -0.9803
  37       -0.9061
  38       -0.9061
  39       -0.9061
  40       -0.9060
  41       -0.8072
  42       -0.5760
  43       -0.5760
  44       -0.4752
  45       -0.4751
  46       -0.4751
  47       -0.4751
  48       -0.4029
  49       -0.4023
  50       -0.4023
  51       -0.4022
  52       -0.3968
  53       -0.3968
  54       -0.3968
  55       -0.3963
  56       -0.3853
  57       -0.3852
  58       -0.3852
  59       -0.3852
  60       -0.3753
  61       -0.3752
  62       -0.3752
  63       -0.3750
  64       -0.1859
  65       -0.1858
  66       -0.1858
  67       -0.1858
  68       -0.1610
  69       -0.1610
  70       -0.1180
  71       -0.1175
  72       -0.1175
  73       -0.1175
  74       -0.1078
  75       -0.1078
  76       -0.1078
  77       -0.1073
  78       -0.0823
  79       -0.0823
  80       -0.0823
  81       -0.0822
  82       -0.0716
  83       -0.0715
  84       -0.0715
  85       -0.0715
  86       -0.0665
  87       -0.0514
  88       -0.0514
  89        0.4860
  90        0.4861
  91        0.4861
  92        0.4861
  93        0.5104
  94        0.6269
  95        0.6326
  96        0.6327
  97        0.6327
  98        0.6327
  99        0.6684
 100        0.6684
 101        0.6684
 102        0.6685
 103        0.7098
 104        0.7098
 105        0.7099
 106        0.7099
 107        0.7623
 108        0.7623
 109        0.9036
 110        0.9036
 111        0.9036
 112        0.9036
 113        0.9443
 114        0.9443
 115        0.9443
 116        0.9443
 117        1.0295
 118        1.0295
 119        1.0295
 120        1.0296
 121        1.0408
 122        1.0408
 123        1.0409
 124        1.0410
 125        1.0505
 126        1.0506
 127        1.0523
 128        1.0523
 129        1.0900
 130        1.1018
 131        1.1470
 132        1.1470
 133        1.1470
 134        1.1471
 135        1.1937
 136        1.1937
 137        1.1938
 138        1.1938
 139        1.4659
 140        1.5338
 141        1.5338
 142        1.5338
 143        1.5338
 144        1.5805
 145        1.9665
 146        1.9665
 147        1.9706
 148        1.9706
 149        1.9706
 150        1.9706
 151        1.9741
 152        2.0051
 153        2.0051
 154        2.0051
 155        2.0052
 156        2.2085
 157        2.2085
 158        2.2438
 159        2.2438
 160        2.2438
 161        2.2438
 162        2.2438
 163        2.2438
 164        2.2581
 165        2.2583
 166        2.2595
 167        2.2598
 168        3.2477
 169        3.2477
 170        3.2477
 171        3.2477
 172        3.5118
 173        3.5119
 174        3.5119
 175        3.5119
 176        3.6394
 177        3.6394
 178        3.6395
 179        3.6395
 180        3.7959
 181        3.7959
 182        3.7959
 183        3.7959
 184        5.1940
 185        5.4387
 186        5.4387
 187        6.3642
 188        6.3642
 189        6.3642
 190        6.3642
 191        7.8381
 192        7.8381
 193        7.8382
 194        7.8382
 195        7.9701
 196        7.9701
 197        8.6152
 198        8.6152
 199        8.8401
 200        9.3157
 201        9.3157
 202        9.8231
 203        9.8231
 204        9.8232
 205        9.8232
 206        9.8282
 207        9.8282
 208        9.8282
 209        9.8282
 210       10.2642
 211       10.2642
 212       11.4098
 213       11.4102
 214       11.4108
 215       11.4129
 216       11.4132
 
  0.1666667E+00  0.0000000E+00  0.0000000E+00  0.1157407E-02
   1       -4.3362
   2       -2.7915
   3       -2.2094
   4       -2.2093
   5       -2.2093
   6       -2.2093
   7       -2.0946
   8       -2.0946
   9       -2.0946
  10       -2.0946
  11       -1.8738
  12       -1.8597
  13       -1.8371
  14       -1.8371
  15       -1.6252
  16       -1.6129
  17       -1.6129
  18       -1.3208
  19       -1.3208
  20       -1.3208
  21       -1.3208
  22       -1.2858
  23       -1.2858
  24       -1.2857
  25       -1.2857
  26       -1.1115
  27       -1.0752
  28       -1.0752
  29       -0.9771
  30       -0.9771
  31       -0.9771
  32       -0.9771
  33       -0.9577
  34       -0.9577
  35       -0.9577
  36       -0.9577
  37       -0.8909
  38       -0.8909
  39       -0.8909
  40       -0.8909
  41       -0.7599
  42       -0.7599
  43       -0.7032
  44       -0.5233
  45       -0.5233
  46       -0.5233
  47       -0.5232
  48       -0.4111
  49       -0.4111
  50       -0.4111
  51       -0.4111
  52       -0.3798
  53       -0.3791
  54       -0.3791
  55       -0.3791
  56       -0.3727
  57       -0.3726
  58       -0.3726
  59       -0.3721
  60       -0.3306
  61       -0.3305
  62       -0.3305
  63       -0.3305
  64       -0.2586
  65       -0.2586
  66       -0.2586
  67       -0.2586
  68       -0.1153
  69       -0.1152
  70       -0.1152
  71       -0.1152
  72       -0.0926
  73       -0.0926
  74       -0.0926
  75       -0.0925
  76       -0.0900
  77       -0.0496
  78       -0.0496
  79       -0.0496
  80       -0.0496
  81       -0.0298
  82       -0.0298
  83       -0.0053
  84       -0.0053
  85       -0.0052
  86       -0.0052
  87        0.0686
  88        0.0686
  89        0.3860
  90        0.3860
  91        0.3860
  92        0.3860
  93        0.5367
  94        0.5510
  95        0.5510
  96        0.5510
  97        0.5510
  98        0.6284
  99        0.6284
 100        0.7083
 101        0.7084
 102        0.7084
 103        0.7084
 104        0.7803
 105        0.7804
 106        0.7804
 107        0.7804
 108        0.8120
 109        0.9023
 110        0.9023
 111        0.9023
 112        0.9023
 113        0.9890
 114        0.9890
 115        0.9891
 116        0.9891
 117        1.0171
 118        1.0171
 119        1.0171
 120        1.0172
 121        1.0389
 122        1.0389
 123        1.0389
 124        1.0389
 125        1.0653
 126        1.1122
 127        1.1191
 128        1.1192
 129        1.2041
 130        1.2041
 131        1.2365
 132        1.2365
 133        1.2365
 134        1.2365
 135        1.2940
 136        1.2940
 137        1.2941
 138        1.2941
 139        1.4103
 140        1.5732
 141        1.5732
 142        1.5732
 143        1.5732
 144        1.6376
 145        1.8442
 146        1.8442
 147        1.8442
 148        1.8442
 149        1.9318
 150        1.9318
 151        1.9621
 152        1.9751
 153        1.9751
 154        1.9751
 155        1.9751
 156        2.0702
 157        2.0702
 158        2.1975
 159        2.1975
 160        2.1975
 161        2.1975
 162        2.2011
 163        2.2011
 164        2.2581
 165        2.2584
 166        2.2595
 167        2.2597
 168        3.0019
 169        3.0019
 170        3.0019
 171        3.0019
 172        3.5154
 173        3.5155
 174        3.5155
 175        3.5155
 176        3.6237
 177        3.6237
 178        3.6237
 179        3.6237
 180        4.1084
 181        4.1084
 182        4.1085
 183        4.1085
 184        4.7499
 185        5.6174
 186        5.6174
 187        6.5788
 188        6.5788
 189        6.5788
 190        6.5788
 191        7.5233
 192        7.5233
 193        7.5233
 194        7.5233
 195        8.0010
 196        8.0010
 197        8.5799
 198        8.5799
 199        8.8396
 200        8.8396
 201        9.3790
 202        9.9114
 203        9.9114
 204        9.9115
 205        9.9115
 206        9.9162
 207        9.9162
 208        9.9163
 209        9.9163
 210       10.7285
 211       10.7285
 212       10.8262
 213       10.8263
 214       10.8264
 215       10.8264
 216       11.1373
 
  0.2500000E+00  0.0000000E+00  0.0000000E+00  0.1157407E-02
   1       -4.2481
   2       -3.0650
   3       -2.1471
   4       -2.1471
   5       -2.1471
   6       -2.1471
   7       -2.0478
   8       -2.0478
   9       -2.0478
  10       -2.0478
  11       -1.8343
  12       -1.7828
  13       -1.7827
  14       -1.7708
  15       -1.5959
  16       -1.5681
  17       -1.5681
  18       -1.4420
  19       -1.4420
  20       -1.4420
  21       -1.4420
  22       -1.4216
  23       -1.4216
  24       -1.4215
  25       -1.4215
  26       -1.2049
  27       -1.1694
  28       -1.1694
  29       -0.9273
  30       -0.9273
  31       -0.9221
  32       -0.9219
  33       -0.9219
  34       -0.9219
  35       -0.9152
  36       -0.9152
  37       -0.9152
  38       -0.9151
  39       -0.8661
  40       -0.8661
  41       -0.8661
  42       -0.8661
  43       -0.6008
  44       -0.5767
  45       -0.5767
  46       -0.5767
  47       -0.5767
  48       -0.4493
  49       -0.4493
  50       -0.4493
  51       -0.4493
  52       -0.3696
  53       -0.3688
  54       -0.3688
  55       -0.3687
  56       -0.3643
  57       -0.3642
  58       -0.3642
  59       -0.3634
  60       -0.3444
  61       -0.3443
  62       -0.3443
  63       -0.3443
  64       -0.2816
  65       -0.2816
  66       -0.2815
  67       -0.2815
  68       -0.1286
  69       -0.1128
  70       -0.1125
  71       -0.1125
  72       -0.1125
  73       -0.1090
  74       -0.1090
  75       -0.1090
  76       -0.1086
  77       -0.0133
  78       -0.0133
  79       -0.0133
  80       -0.0133
  81        0.0061
  82        0.0061
  83        0.1717
  84        0.1717
  85        0.1717
  86        0.1718
  87        0.2750
  88        0.2750
  89        0.2750
  90        0.2751
  91        0.3114
  92        0.3114
  93        0.4534
  94        0.4535
  95        0.4535
  96        0.4535
  97        0.5038
  98        0.5038
  99        0.5936
 100        0.7737
 101        0.7738
 102        0.7738
 103        0.7738
 104        0.8604
 105        0.8604
 106        0.8604
 107        0.8604
 108        0.9007
 109        0.9007
 110        0.9007
 111        0.9007
 112        0.9517
 113        0.9517
 114        0.9518
 115        0.9518
 116        1.0250
 117        1.0494
 118        1.0495
 119        1.0495
 120        1.0495
 121        1.0666
 122        1.0667
 123        1.0667
 124        1.0667
 125        1.0967
 126        1.1297
 127        1.2199
 128        1.2199
 129        1.3463
 130        1.3465
 131        1.3465
 132        1.3465
 133        1.3573
 134        1.3578
 135        1.3578
 136        1.4077
 137        1.4077
 138        1.4078
 139        1.4078
 140        1.6543
 141        1.6543
 142        1.6543
 143        1.6544
 144        1.6556
 145        1.6556
 146        1.6556
 147        1.6556
 148        1.6933
 149        1.8683
 150        1.8683
 151        1.8747
 152        1.8747
 153        1.9259
 154        1.9259
 155        1.9259
 156        1.9260
 157        1.9423
 158        2.1239
 159        2.1239
 160        2.1239
 161        2.1239
 162        2.1320
 163        2.1320
 164        2.2582
 165        2.2585
 166        2.2594
 167        2.2597
 168        2.7694
 169        2.7694
 170        2.7694
 171        2.7694
 172        3.5214
 173        3.5214
 174        3.5215
 175        3.5215
 176        3.6041
 177        3.6041
 178        3.6041
 179        3.6042
 180        4.1898
 181        4.4527
 182        4.4527
 183        4.4527
 184        4.4527
 185        5.8865
 186        5.8865
 187        6.9085
 188        6.9085
 189        6.9085
 190        6.9085
 191        7.1011
 192        7.1011
 193        7.1011
 194        7.1011
 195        8.0508
 196        8.0508
 197        8.3671
 198        8.3671
 199        8.5240
 200        8.5240
 201       10.0092
 202       10.0092
 203       10.0092
 204       10.0093
 205       10.0676
 206       10.0676
 207       10.0676
 208       10.0676
 209       10.0982
 210       10.1880
 211       10.1880
 212       10.1880
 213       10.1880
 214       10.8983
 215       10.8983
 216       10.8983
 
  0.3333333E+00  0.0000000E+00  0.0000000E+00  0.1157407E-02
   1       -4.1257
   2       -3.3263
   3       -2.0626
   4       -2.0626
   5       -2.0626
   6       -2.0626
   7       -1.9827
   8       -1.9827
   9       -1.9827
  10       -1.9827
  11       -1.8022
  12       -1.7240
  13       -1.7087
  14       -1.7087
  15       -1.5734
  16       -1.5734
  17       -1.5733
  18       -1.5733
  19       -1.5582
  20       -1.5580
  21       -1.5580
  22       -1.5580
  23       -1.5552
  24       -1.5054
  25       -1.5054
  26       -1.2920
  27       -1.2807
  28       -1.2807
  29       -1.0777
  30       -1.0777
  31       -0.8768
  32       -0.8767
  33       -0.8767
  34       -0.8767
  35       -0.8602
  36       -0.8602
  37       -0.8602
  38       -0.8601
  39       -0.8323
  40       -0.8323
  41       -0.8323
  42       -0.8323
  43       -0.6328
  44       -0.6328
  45       -0.6328
  46       -0.6328
  47       -0.5019
  48       -0.4930
  49       -0.4930
  50       -0.4930
  51       -0.4930
  52       -0.4305
  53       -0.4305
  54       -0.4305
  55       -0.4305
  56       -0.3646
  57       -0.3640
  58       -0.3640
  59       -0.3640
  60       -0.3565
  61       -0.3565
  62       -0.3565
  63       -0.3559
  64       -0.2457
  65       -0.2457
  66       -0.2457
  67       -0.2457
  68       -0.1811
  69       -0.1306
  70       -0.1306
  71       -0.1306
  72       -0.1306
  73       -0.0957
  74       -0.0957
  75       -0.0957
  76       -0.0956
  77        0.0367
  78        0.0367
  79        0.0367
  80        0.0367
  81        0.0561
  82        0.0561
  83        0.1693
  84        0.1693
  85        0.1693
  86        0.1694
  87        0.3545
  88        0.3545
  89        0.3545
  90        0.3545
  91        0.3898
  92        0.3898
  93        0.3951
  94        0.3952
  95        0.3952
  96        0.3952
  97        0.5657
  98        0.5657
  99        0.6673
 100        0.8498
 101        0.8498
 102        0.8498
 103        0.8498
 104        0.8994
 105        0.8994
 106        0.8995
 107        0.8995
 108        0.9267
 109        0.9267
 110        0.9267
 111        0.9267
 112        0.9343
 113        0.9343
 114        0.9343
 115        0.9343
 116        0.9707
 117        1.0557
 118        1.0557
 119        1.0557
 120        1.0557
 121        1.0742
 122        1.0742
 123        1.0742
 124        1.0742
 125        1.1536
 126        1.3071
 127        1.3393
 128        1.3393
 129        1.4225
 130        1.4226
 131        1.4226
 132        1.4226
 133        1.4618
 134        1.4618
 135        1.4618
 136        1.4618
 137        1.4746
 138        1.5104
 139        1.5104
 140        1.5313
 141        1.5313
 142        1.5313
 143        1.5313
 144        1.6276
 145        1.6276
 146        1.7464
 147        1.7846
 148        1.7846
 149        1.7846
 150        1.7846
 151        1.7966
 152        1.7967
 153        1.8592
 154        1.8592
 155        1.8592
 156        1.8592
 157        1.9152
 158        2.0276
 159        2.0276
 160        2.0276
 161        2.0276
 162        2.0394
 163        2.0394
 164        2.2582
 165        2.2586
 166        2.2592
 167        2.2596
 168        2.5478
 169        2.5478
 170        2.5478
 171        2.5478
 172        3.5295
 173        3.5297
 174        3.5297
 175        3.5297
 176        3.5847
 177        3.5850
 178        3.5850
 179        3.5850
 180        3.5963
 181        4.8314
 182        4.8314
 183        4.8314
 184        4.8314
 185        6.2206
 186        6.2206
 187        6.6329
 188        6.6329
 189        6.6329
 190        6.6330
 191        7.3276
 192        7.3276
 193        7.3276
 194        7.3276
 195        7.9023
 196        7.9023
 197        8.1169
 198        8.1169
 199        8.4518
 200        8.4518
 201        9.5524
 202        9.5524
 203        9.5524
 204        9.5524
 205       10.1135
 206       10.1135
 207       10.1135
 208       10.1135
 209       10.2727
 210       10.2727
 211       10.2727
 212       10.2727
 213       10.6908
 214       10.6908
 215       10.6908
 216       10.6909
 
  0.4166667E+00  0.0000000E+00  0.0000000E+00  0.1157407E-02
   1       -3.9702
   2       -3.5675
   3       -1.9584
   4       -1.9584
   5       -1.9584
   6       -1.9584
   7       -1.9000
   8       -1.9000
   9       -1.9000
  10       -1.9000
  11       -1.7676
  12       -1.7179
  13       -1.7080
  14       -1.7080
  15       -1.7080
  16       -1.7078
  17       -1.6858
  18       -1.6857
  19       -1.6857
  20       -1.6857
  21       -1.6175
  22       -1.6175
  23       -1.5040
  24       -1.4249
  25       -1.4249
  26       -1.3979
  27       -1.3979
  28       -1.3715
  29       -1.2109
  30       -1.2109
  31       -0.8315
  32       -0.8312
  33       -0.8312
  34       -0.8312
  35       -0.8183
  36       -0.8183
  37       -0.8183
  38       -0.8181
  39       -0.7905
  40       -0.7905
  41       -0.7905
  42       -0.7905
  43       -0.6888
  44       -0.6887
  45       -0.6887
  46       -0.6887
  47       -0.5303
  48       -0.5303
  49       -0.5303
  50       -0.5303
  51       -0.5026
  52       -0.5026
  53       -0.5026
  54       -0.5026
  55       -0.4087
  56       -0.3601
  57       -0.3593
  58       -0.3593
  59       -0.3593
  60       -0.3541
  61       -0.3541
  62       -0.3541
  63       -0.3533
  64       -0.2464
  65       -0.2141
  66       -0.2141
  67       -0.2141
  68       -0.2141
  69       -0.1561
  70       -0.1561
  71       -0.1561
  72       -0.1561
  73       -0.0589
  74       -0.0588
  75       -0.0588
  76       -0.0588
  77        0.0758
  78        0.0758
  79        0.0758
  80        0.0759
  81        0.0998
  82        0.0999
  83        0.0999
  84        0.0999
  85        0.1199
  86        0.1199
  87        0.2605
  88        0.2605
  89        0.2605
  90        0.2605
  91        0.2874
  92        0.2874
  93        0.6435
  94        0.6435
  95        0.6435
  96        0.6435
  97        0.7481
  98        0.8289
  99        0.8289
 100        0.8997
 101        0.8997
 102        0.8998
 103        0.8998
 104        0.9043
 105        0.9113
 106        0.9114
 107        0.9114
 108        0.9114
 109        0.9258
 110        0.9258
 111        0.9258
 112        0.9259
 113        0.9926
 114        0.9927
 115        0.9927
 116        0.9927
 117        1.0458
 118        1.0459
 119        1.0460
 120        1.0460
 121        1.0515
 122        1.0515
 123        1.0517
 124        1.0517
 125        1.1677
 126        1.1677
 127        1.1677
 128        1.1677
 129        1.1838
 130        1.2611
 131        1.3665
 132        1.3665
 133        1.4650
 134        1.4650
 135        1.5748
 136        1.5748
 137        1.5748
 138        1.5748
 139        1.6585
 140        1.6585
 141        1.6604
 142        1.6604
 143        1.6604
 144        1.6604
 145        1.6997
 146        1.6997
 147        1.7767
 148        1.7767
 149        1.7767
 150        1.7767
 151        1.7961
 152        1.8813
 153        1.9143
 154        1.9143
 155        1.9143
 156        1.9143
 157        1.9270
 158        1.9270
 159        1.9304
 160        1.9487
 161        1.9487
 162        1.9488
 163        1.9488
 164        2.2583
 165        2.2587
 166        2.2591
 167        2.2596
 168        2.3359
 169        2.3360
 170        2.3360
 171        2.3360
 172        3.0075
 173        3.5400
 174        3.5401
 175        3.5401
 176        3.5401
 177        3.5678
 178        3.5678
 179        3.5678
 180        3.5679
 181        5.2442
 182        5.2442
 183        5.2442
 184        5.2442
 185        6.1549
 186        6.1549
 187        6.1549
 188        6.1549
 189        6.6006
 190        6.6006
 191        7.4493
 192        7.4493
 193        7.8151
 194        7.8151
 195        7.8151
 196        7.8151
 197        8.1953
 198        8.1953
 199        8.3689
 200        8.3689
 201        8.9381
 202        8.9381
 203        8.9381
 204        8.9381
 205       10.2282
 206       10.2282
 207       10.2283
 208       10.2283
 209       10.5122
 210       10.5122
 211       10.5122
 212       10.5123
 213       10.5256
 214       10.5256
 215       10.5256
 216       10.5256
 
  0.5000000E+00  0.0000000E+00  0.0000000E+00  0.5787037E-03
   1       -3.7849
   2       -3.7819
   3       -1.8417
   4       -1.8393
   5       -1.8390
   6       -1.8390
   7       -1.8379
   8       -1.8379
   9       -1.8376
  10       -1.8354
  11       -1.8020
  12       -1.8020
  13       -1.8015
  14       -1.8014
  15       -1.7997
  16       -1.7995
  17       -1.7991
  18       -1.7991
  19       -1.7371
  20       -1.7357
  21       -1.5139
  22       -1.5131
  23       -1.5115
  24       -1.5108
  25       -1.4435
  26       -1.4414
  27       -1.3279
  28       -1.3279
  29       -1.3255
  30       -1.3255
  31       -0.8073
  32       -0.8055
  33       -0.8054
  34       -0.8054
  35       -0.8054
  36       -0.8054
  37       -0.8053
  38       -0.8036
  39       -0.7436
  40       -0.7433
  41       -0.7433
  42       -0.7423
  43       -0.7418
  44       -0.7408
  45       -0.7408
  46       -0.7406
  47       -0.5407
  48       -0.5405
  49       -0.5405
  50       -0.5400
  51       -0.5396
  52       -0.5391
  53       -0.5391
  54       -0.5389
  55       -0.3578
  56       -0.3561
  57       -0.3561
  58       -0.3558
  59       -0.3553
  60       -0.3550
  61       -0.3550
  62       -0.3534
  63       -0.3232
  64       -0.3223
  65       -0.1849
  66       -0.1846
  67       -0.1845
  68       -0.1845
  69       -0.1841
  70       -0.1841
  71       -0.1840
  72       -0.1837
  73       -0.0021
  74       -0.0021
  75       -0.0020
  76       -0.0013
  77       -0.0009
  78       -0.0003
  79       -0.0001
  80       -0.0001
  81        0.1729
  82        0.1735
  83        0.1735
  84        0.1747
  85        0.1751
  86        0.1762
  87        0.1762
  88        0.1768
  89        0.1962
  90        0.1962
  91        0.1983
  92        0.1983
  93        0.8281
  94        0.8295
  95        0.9012
  96        0.9021
  97        0.9021
  98        0.9029
  99        0.9031
 100        0.9033
 101        0.9033
 102        0.9033
 103        0.9037
 104        0.9041
 105        0.9042
 106        0.9042
 107        0.9048
 108        0.9052
 109        0.9052
 110        0.9064
 111        0.9922
 112        0.9932
 113        0.9932
 114        0.9933
 115        0.9939
 116        0.9941
 117        0.9941
 118        0.9951
 119        1.0306
 120        1.0308
 121        1.0315
 122        1.0315
 123        1.0317
 124        1.0317
 125        1.0324
 126        1.0327
 127        1.0968
 128        1.0968
 129        1.0984
 130        1.0984
 131        1.2189
 132        1.2207
 133        1.5872
 134        1.5873
 135        1.5877
 136        1.5878
 137        1.6798
 138        1.6803
 139        1.6803
 140        1.6806
 141        1.6813
 142        1.6816
 143        1.6816
 144        1.6822
 145        1.7884
 146        1.7884
 147        1.7897
 148        1.7897
 149        1.7901
 150        1.7902
 151        1.7913
 152        1.7913
 153        1.7984
 154        1.7984
 155        1.7992
 156        1.7992
 157        1.8412
 158        1.8415
 159        2.1340
 160        2.1346
 161        2.1346
 162        2.1349
 163        2.1352
 164        2.1355
 165        2.1355
 166        2.1361
 167        2.2583
 168        2.2589
 169        2.2589
 170        2.2595
 171        2.4466
 172        2.4469
 173        3.5509
 174        3.5518
 175        3.5523
 176        3.5523
 177        3.5533
 178        3.5533
 179        3.5539
 180        3.5547
 181        5.6859
 182        5.6859
 183        5.6873
 184        5.6875
 185        5.6881
 186        5.6883
 187        5.6897
 188        5.6897
 189        7.0119
 190        7.0119
 191        7.0145
 192        7.0145
 193        8.2810
 194        8.2812
 195        8.2813
 196        8.2815
 197        8.3533
 198        8.3533
 199        8.3552
 200        8.3555
 201        8.3560
 202        8.3563
 203        8.3582
 204        8.3582
 205       10.3575
 206       10.3591
 207       10.3591
 208       10.3592
 209       10.3596
 210       10.3598
 211       10.3598
 212       10.3614
 213       10.8198
 214       10.8201
 215       10.8209
 216       10.8218
 
  0.0000000E+00  0.8333333E-01  0.0000000E+00  0.2314815E-02
   1       -4.3894
   2       -2.5177
   3       -2.2497
   4       -2.2474
   5       -2.2474
   6       -2.2451
   7       -2.1229
   8       -2.1229
   9       -2.1228
  10       -2.1228
  11       -2.0393
  12       -1.8759
  13       -1.8703
  14       -1.8703
  15       -1.6429
  16       -1.6398
  17       -1.6398
  18       -1.2161
  19       -1.2143
  20       -1.2143
  21       -1.2125
  22       -1.1730
  23       -1.1721
  24       -1.1718
  25       -1.1709
  26       -1.0471
  27       -1.0455
  28       -1.0455
  29       -1.0440
  30       -1.0131