 vasp.4.6.28 25Jul05 complex 
 executed on             LinuxIFC date 2017.01.13  08:32:47
 running on    8 nodes
 distr:  one band on    1 nodes,    8 groups


--------------------------------------------------------------------------------------------------------


 INCAR:
 POTCAR:   PAW_PBE Au 06Sep2000                   
 POTCAR:   PAW_PBE Au 06Sep2000                   
   VRHFIN =Au: s1d10                                                            
   LEXCH  = PE                                                                  
   EATOM  =   926.0567 eV,   68.0632 Ry                                         
                                                                                
   TITEL  = PAW_PBE Au 06Sep2000                                                
   LULTRA =        F    use ultrasoft PP ?                                      
   IUNSCR =        1    unscreen: 0-lin 1-nonlin 2-no                           
   RPACOR =    2.330    partial core radius                                     
   POMASS =  196.966; ZVAL   =   11.000    mass and valenz                      
   RCORE  =    2.500    outmost cutoff radius                                   
   RWIGS  =    2.840; RWIGS  =    1.503    wigner-seitz radius (au A)           
   ENMAX  =  229.948; ENMIN  =  172.461 eV                                      
   RCLOC  =    1.964    cutoff for local pot                                    
   LCOR   =        T    correct aug charges                                     
   LPAW   =        T    paw PP                                                  
   EAUG   =  356.670                                                            
   DEXC   =    -.025                                                            
   RMAX   =    3.041    core radius for proj-oper                               
   RAUG   =    1.300    factor for augmentation sphere                          
   RDEP   =    2.598    radius for radial grids                                 
   QCUT   =   -4.111; QGAM   =    8.222    optimization parameters              
                                                                                
   Description                                                                  
     l     E      TYP  RCUT    TYP  RCUT                                        
     2   .000     23  2.500                                                     
     2   .000     23  2.500                                                     
     0   .000     23  2.500                                                     
     0   .000     23  2.500                                                     
     1  -.200     23  2.500                                                     
     1   .000     23  2.500                                                     
     3   .000      7   .000                                                     
  local pseudopotential read in
  partial core-charges read in
  atomic valenz-charges read in
  non local Contribution for L=           2  read in
    real space projection operators read in
  non local Contribution for L=           2  read in
    real space projection operators read in
  non local Contribution for L=           0  read in
    real space projection operators read in
  non local Contribution for L=           0  read in
    real space projection operators read in
  non local Contribution for L=           1  read in
    real space projection operators read in
  non local Contribution for L=           1  read in
    real space projection operators read in
    PAW grid and wavefunctions read in
 
   number of l-projection  operators is LMAX  =           6
   number of lm-projection operators is LMMAX =          18
 

 ----------------------------------------------------------------------------- 
|                                                                             |
|  ADVICE TO THIS USER RUNNING 'VASP/VAMP'   (HEAR YOUR MASTER'S VOICE ...):  |
|                                                                             |
|      You have a (more or less) 'large supercell' and for larger cells       |
|      it might be more efficient to use real space projection operators      |
|      So try LREAL= Auto  in the INCAR   file.                               |
|      Mind: If you want to do an extremely accurate calculations keep the    |
|      reciprocal projection scheme          (i.e. LREAL=.FALSE.)             |
|                                                                             |
 ----------------------------------------------------------------------------- 

 PAW_PBE Au 06Sep2000                   :
 energy of atom  1       EATOM= -926.0567
 kinetic energy error for atom=    0.0008 (will be added to EATOM!!)
 
 EXHCAR: internal setup
 exchange correlation table for  LEXCH =        8
   RHO(1)=    0.500       N(1)  =     2000
   RHO(2)=  100.500       N(2)  =     4000
 
 POSCAR: Au                                      
  positions in direct lattice
  No initial velocities read in
 


--------------------------------------------------------------------------------------------------------


 ion  position               nearest neighbor table
   1  0.001  0.000  0.000-   9 3.03  11 3.03  17 3.03  21 3.03  25 3.04  27 3.04  29 3.04  31 3.04
                            10 3.05  18 3.05  12 3.05  22 3.05
   2  0.500  0.000  0.000-   9 3.04  10 3.04  11 3.04  12 3.04  17 3.04  18 3.04  21 3.04  22 3.04
                            26 3.04  28 3.04  30 3.04  32 3.04
   3  0.000  0.500  0.000-   9 3.04  10 3.04  11 3.04  12 3.04  19 3.04  20 3.04  23 3.04  24 3.04
                            25 3.04  27 3.04  29 3.04  31 3.04
   4  0.500  0.500  0.000-   9 3.04  10 3.04  11 3.04  12 3.04  19 3.04  20 3.04  23 3.04  24 3.04
                            26 3.04  28 3.04  30 3.04  32 3.04
   5  0.000  0.000  0.500-  13 3.04  14 3.04  15 3.04  16 3.04  17 3.04  18 3.04  21 3.04  22 3.04
                            25 3.04  27 3.04  29 3.04  31 3.04
   6  0.500  0.000  0.500-  13 3.04  14 3.04  15 3.04  16 3.04  17 3.04  18 3.04  21 3.04  22 3.04
                            26 3.04  28 3.04  30 3.04  32 3.04
   7  0.000  0.500  0.500-  13 3.04  14 3.04  15 3.04  16 3.04  19 3.04  20 3.04  23 3.04  24 3.04
                            25 3.04  27 3.04  29 3.04  31 3.04
   8  0.500  0.500  0.500-  13 3.04  14 3.04  15 3.04  16 3.04  19 3.04  20 3.04  23 3.04  24 3.04
                            26 3.04  28 3.04  30 3.04  32 3.04
   9  0.250  0.250  0.000-   1 3.03   2 3.04   3 3.04   4 3.04  17 3.04  19 3.04  21 3.04  23 3.04
                            25 3.04  26 3.04  29 3.04  30 3.04
  10  0.750  0.250  0.000-   2 3.04   3 3.04   4 3.04  18 3.04  20 3.04  22 3.04  24 3.04  25 3.04
                            26 3.04  29 3.04  30 3.04   1 3.05
  11  0.250  0.750  0.000-   1 3.03   2 3.04   3 3.04   4 3.04  17 3.04  19 3.04  21 3.04  23 3.04
                            27 3.04  28 3.04  31 3.04  32 3.04
  12  0.750  0.750  0.000-   2 3.04   3 3.04   4 3.04  18 3.04  20 3.04  22 3.04  24 3.04  27 3.04
                            28 3.04  31 3.04  32 3.04   1 3.05
  13  0.250  0.250  0.500-   5 3.04   6 3.04   7 3.04   8 3.04  17 3.04  19 3.04  21 3.04  23 3.04
                            25 3.04  26 3.04  29 3.04  30 3.04
  14  0.750  0.250  0.500-   5 3.04   6 3.04   7 3.04   8 3.04  18 3.04  20 3.04  22 3.04  24 3.04
                            25 3.04  26 3.04  29 3.04  30 3.04
  15  0.250  0.750  0.500-   5 3.04   6 3.04   7 3.04   8 3.04  17 3.04  19 3.04  21 3.04  23 3.04
                            27 3.04  28 3.04  31 3.04  32 3.04
  16  0.750  0.750  0.500-   5 3.04   6 3.04   7 3.04   8 3.04  18 3.04  20 3.04  22 3.04  24 3.04
                            27 3.04  28 3.04  31 3.04  32 3.04
  17  0.250  0.000  0.250-   1 3.03   2 3.04   5 3.04   6 3.04   9 3.04  11 3.04  13 3.04  15 3.04
                            25 3.04  26 3.04  27 3.04  28 3.04
  18  0.750  0.000  0.250-   2 3.04   5 3.04   6 3.04  10 3.04  12 3.04  14 3.04  16 3.04  25 3.04
                            26 3.04  27 3.04  28 3.04   1 3.05
  19  0.250  0.500  0.250-   3 3.04   4 3.04   7 3.04   8 3.04   9 3.04  11 3.04  13 3.04  15 3.04
                            25 3.04  26 3.04  27 3.04  28 3.04
  20  0.750  0.500  0.250-   3 3.04   4 3.04   7 3.04   8 3.04  10 3.04  12 3.04  14 3.04  16 3.04
                            25 3.04  26 3.04  27 3.04  28 3.04
  21  0.250  0.000  0.750-   1 3.03   2 3.04   5 3.04   6 3.04   9 3.04  11 3.04  13 3.04  15 3.04
                            29 3.04  30 3.04  31 3.04  32 3.04
  22  0.750  0.000  0.750-   2 3.04   5 3.04   6 3.04  10 3.04  12 3.04  14 3.04  16 3.04  29 3.04
                            30 3.04  31 3.04  32 3.04   1 3.05
  23  0.250  0.500  0.750-   3 3.04   4 3.04   7 3.04   8 3.04   9 3.04  11 3.04  13 3.04  15 3.04
                            29 3.04  30 3.04  31 3.04  32 3.04
  24  0.750  0.500  0.750-   3 3.04   4 3.04   7 3.04   8 3.04  10 3.04  12 3.04  14 3.04  16 3.04
                            29 3.04  30 3.04  31 3.04  32 3.04
  25  0.000  0.250  0.250-   3 3.04   5 3.04   7 3.04   9 3.04  10 3.04  13 3.04  14 3.04  17 3.04
                            18 3.04  19 3.04  20 3.04   1 3.04
  26  0.500  0.250  0.250-   2 3.04   4 3.04   6 3.04   8 3.04   9 3.04  10 3.04  13 3.04  14 3.04
                            17 3.04  18 3.04  19 3.04  20 3.04
  27  0.000  0.750  0.250-   3 3.04   5 3.04   7 3.04  11 3.04  12 3.04  15 3.04  16 3.04  17 3.04
                            18 3.04  19 3.04  20 3.04   1 3.04
  28  0.500  0.750  0.250-   2 3.04   4 3.04   6 3.04   8 3.04  11 3.04  12 3.04  15 3.04  16 3.04
                            17 3.04  18 3.04  19 3.04  20 3.04
  29  0.000  0.250  0.750-   3 3.04   5 3.04   7 3.04   9 3.04  10 3.04  13 3.04  14 3.04  21 3.04
                            22 3.04  23 3.04  24 3.04   1 3.04
  30  0.500  0.250  0.750-   2 3.04   4 3.04   6 3.04   8 3.04   9 3.04  10 3.04  13 3.04  14 3.04
                            21 3.04  22 3.04  23 3.04  24 3.04
  31  0.000  0.750  0.750-   3 3.04   5 3.04   7 3.04  11 3.04  12 3.04  15 3.04  16 3.04  21 3.04
                            22 3.04  23 3.04  24 3.04   1 3.04
  32  0.500  0.750  0.750-   2 3.04   4 3.04   6 3.04   8 3.04  11 3.04  12 3.04  15 3.04  16 3.04
                            21 3.04  22 3.04  23 3.04  24 3.04
 
  LATTYP: Found a simple cubic cell.
 ALAT       =     8.5960749188
  
  Lattice vectors:
  
 A1 = (   8.5960749188,   0.0000000000,   0.0000000000)
 A2 = (   0.0000000000,   8.5960749188,   0.0000000000)
 A3 = (   0.0000000000,   0.0000000000,   8.5960749188)
 Subroutine PRICEL returns:
 Original cell was already a primitive cell.
 

Analysis of symmetry for initial positions (statically):

 Routine SETGRP: Setting up the symmetry group for a 
 simple cubic supercell.


 Subroutine GETGRP returns: Found  8 space group operations
 (whereof  8 operations were pure point group operations)
 out of a pool of 48 trial point group operations.


The static configuration has the point symmetry C_4v.

Analysis of symmetry for dynamics (positions and initial velocities):

 Subroutine DYNSYM returns: Found  8 space group operations
 (whereof  8 operations were pure point group operations)
 out of a pool of  8 trial space group operations
 (whereof  8 operations were pure point group operations)
 and found also     1 'primitive' translations


The dynamic configuration has the point symmetry C_4v.
 
 
 KPOINTS: Automatic mesh                          

Automatic generation of k-mesh.
 
 Subroutine IBZKPT returns following result:
 ===========================================
 
 Found    196 irreducible k-points:
 
 Following reciprocal coordinates:
            Coordinates               Weight
  0.000000  0.000000  0.000000      1.000000
  0.083333  0.000000  0.000000      2.000000
  0.166667  0.000000  0.000000      2.000000
  0.250000  0.000000  0.000000      2.000000
  0.333333  0.000000  0.000000      2.000000
  0.416667  0.000000  0.000000      2.000000
  0.500000  0.000000  0.000000      1.000000
  0.000000  0.083333  0.000000      4.000000
  0.083333  0.083333  0.000000      8.000000
  0.166667  0.083333  0.000000      8.000000
  0.250000  0.083333  0.000000      8.000000
  0.333333  0.083333  0.000000      8.000000
  0.416667  0.083333  0.000000      8.000000
  0.500000  0.083333  0.000000      4.000000
  0.000000  0.166667  0.000000      4.000000
  0.083333  0.166667  0.000000      8.000000
  0.166667  0.166667  0.000000      8.000000
  0.250000  0.166667  0.000000      8.000000
  0.333333  0.166667  0.000000      8.000000
  0.416667  0.166667  0.000000      8.000000
  0.500000  0.166667  0.000000      4.000000
  0.000000  0.250000  0.000000      4.000000
  0.083333  0.250000  0.000000      8.000000
  0.166667  0.250000  0.000000      8.000000
  0.250000  0.250000  0.000000      8.000000
  0.333333  0.250000  0.000000      8.000000
  0.416667  0.250000  0.000000      8.000000
  0.500000  0.250000  0.000000      4.000000
  0.000000  0.333333  0.000000      4.000000
  0.083333  0.333333  0.000000      8.000000
  0.166667  0.333333  0.000000      8.000000
  0.250000  0.333333  0.000000      8.000000
  0.333333  0.333333  0.000000      8.000000
  0.416667  0.333333  0.000000      8.000000
  0.500000  0.333333  0.000000      4.000000
  0.000000  0.416667  0.000000      4.000000
  0.083333  0.416667  0.000000      8.000000
  0.166667  0.416667  0.000000      8.000000
  0.250000  0.416667  0.000000      8.000000
  0.333333  0.416667  0.000000      8.000000
  0.416667  0.416667  0.000000      8.000000
  0.500000  0.416667  0.000000      4.000000
  0.000000  0.500000  0.000000      2.000000
  0.083333  0.500000  0.000000      4.000000
  0.166667  0.500000  0.000000      4.000000
  0.250000  0.500000  0.000000      4.000000
  0.333333  0.500000  0.000000      4.000000
  0.416667  0.500000  0.000000      4.000000
  0.500000  0.500000  0.000000      2.000000
  0.000000  0.083333  0.083333      4.000000
  0.083333  0.083333  0.083333      8.000000
  0.166667  0.083333  0.083333      8.000000
  0.250000  0.083333  0.083333      8.000000
  0.333333  0.083333  0.083333      8.000000
  0.416667  0.083333  0.083333      8.000000
  0.500000  0.083333  0.083333      4.000000
  0.000000  0.166667  0.083333      8.000000
  0.083333  0.166667  0.083333     16.000000
  0.166667  0.166667  0.083333     16.000000
  0.250000  0.166667  0.083333     16.000000
  0.333333  0.166667  0.083333     16.000000
  0.416667  0.166667  0.083333     16.000000
  0.500000  0.166667  0.083333      8.000000
  0.000000  0.250000  0.083333      8.000000
  0.083333  0.250000  0.083333     16.000000
  0.166667  0.250000  0.083333     16.000000
  0.250000  0.250000  0.083333     16.000000
  0.333333  0.250000  0.083333     16.000000
  0.416667  0.250000  0.083333     16.000000
  0.500000  0.250000  0.083333      8.000000
  0.000000  0.333333  0.083333      8.000000
  0.083333  0.333333  0.083333     16.000000
  0.166667  0.333333  0.083333     16.000000
  0.250000  0.333333  0.083333     16.000000
  0.333333  0.333333  0.083333     16.000000
  0.416667  0.333333  0.083333     16.000000
  0.500000  0.333333  0.083333      8.000000
  0.000000  0.416667  0.083333      8.000000
  0.083333  0.416667  0.083333     16.000000
  0.166667  0.416667  0.083333     16.000000
  0.250000  0.416667  0.083333     16.000000
  0.333333  0.416667  0.083333     16.000000
  0.416667  0.416667  0.083333     16.000000
  0.500000  0.416667  0.083333      8.000000
  0.000000  0.500000  0.083333      4.000000
  0.083333  0.500000  0.083333      8.000000
  0.166667  0.500000  0.083333      8.000000
  0.250000  0.500000  0.083333      8.000000
  0.333333  0.500000  0.083333      8.000000
  0.416667  0.500000  0.083333      8.000000
  0.500000  0.500000  0.083333      4.000000
  0.000000  0.166667  0.166667      4.000000
  0.083333  0.166667  0.166667      8.000000
  0.166667  0.166667  0.166667      8.000000
  0.250000  0.166667  0.166667      8.000000
  0.333333  0.166667  0.166667      8.000000
  0.416667  0.166667  0.166667      8.000000
  0.500000  0.166667  0.166667      4.000000
  0.000000  0.250000  0.166667      8.000000
  0.083333  0.250000  0.166667     16.000000
  0.166667  0.250000  0.166667     16.000000
  0.250000  0.250000  0.166667     16.000000
  0.333333  0.250000  0.166667     16.000000
  0.416667  0.250000  0.166667     16.000000
  0.500000  0.250000  0.166667      8.000000
  0.000000  0.333333  0.166667      8.000000
  0.083333  0.333333  0.166667     16.000000
  0.166667  0.333333  0.166667     16.000000
  0.250000  0.333333  0.166667     16.000000
  0.333333  0.333333  0.166667     16.000000
  0.416667  0.333333  0.166667     16.000000
  0.500000  0.333333  0.166667      8.000000
  0.000000  0.416667  0.166667      8.000000
  0.083333  0.416667  0.166667     16.000000
  0.166667  0.416667  0.166667     16.000000
  0.250000  0.416667  0.166667     16.000000
  0.333333  0.416667  0.166667     16.000000
  0.416667  0.416667  0.166667     16.000000
  0.500000  0.416667  0.166667      8.000000
  0.000000  0.500000  0.166667      4.000000
  0.083333  0.500000  0.166667      8.000000
  0.166667  0.500000  0.166667      8.000000
  0.250000  0.500000  0.166667      8.000000
  0.333333  0.500000  0.166667      8.000000
  0.416667  0.500000  0.166667      8.000000
  0.500000  0.500000  0.166667      4.000000
  0.000000  0.250000  0.250000      4.000000
  0.083333  0.250000  0.250000      8.000000
  0.166667  0.250000  0.250000      8.000000
  0.250000  0.250000  0.250000      8.000000
  0.333333  0.250000  0.250000      8.000000
  0.416667  0.250000  0.250000      8.000000
  0.500000  0.250000  0.250000      4.000000
  0.000000  0.333333  0.250000      8.000000
  0.083333  0.333333  0.250000     16.000000
  0.166667  0.333333  0.250000     16.000000
  0.250000  0.333333  0.250000     16.000000
  0.333333  0.333333  0.250000     16.000000
  0.416667  0.333333  0.250000     16.000000
  0.500000  0.333333  0.250000      8.000000
  0.000000  0.416667  0.250000      8.000000
  0.083333  0.416667  0.250000     16.000000
  0.166667  0.416667  0.250000     16.000000
  0.250000  0.416667  0.250000     16.000000
  0.333333  0.416667  0.250000     16.000000
  0.416667  0.416667  0.250000     16.000000
  0.500000  0.416667  0.250000      8.000000
  0.000000  0.500000  0.250000      4.000000
  0.083333  0.500000  0.250000      8.000000
  0.166667  0.500000  0.250000      8.000000
  0.250000  0.500000  0.250000      8.000000
  0.333333  0.500000  0.250000      8.000000
  0.416667  0.500000  0.250000      8.000000
  0.500000  0.500000  0.250000      4.000000
  0.000000  0.333333  0.333333      4.000000
  0.083333  0.333333  0.333333      8.000000
  0.166667  0.333333  0.333333      8.000000
  0.250000  0.333333  0.333333      8.000000
  0.333333  0.333333  0.333333      8.000000
  0.416667  0.333333  0.333333      8.000000
  0.500000  0.333333  0.333333      4.000000
  0.000000  0.416667  0.333333      8.000000
  0.083333  0.416667  0.333333     16.000000
  0.166667  0.416667  0.333333     16.000000
  0.250000  0.416667  0.333333     16.000000
  0.333333  0.416667  0.333333     16.000000
  0.416667  0.416667  0.333333     16.000000
  0.500000  0.416667  0.333333      8.000000
  0.000000  0.500000  0.333333      4.000000
  0.083333  0.500000  0.333333      8.000000
  0.166667  0.500000  0.333333      8.000000
  0.250000  0.500000  0.333333      8.000000
  0.333333  0.500000  0.333333      8.000000
  0.416667  0.500000  0.333333      8.000000
  0.500000  0.500000  0.333333      4.000000
  0.000000  0.416667  0.416667      4.000000
  0.083333  0.416667  0.416667      8.000000
  0.166667  0.416667  0.416667      8.000000
  0.250000  0.416667  0.416667      8.000000
  0.333333  0.416667  0.416667      8.000000
  0.416667  0.416667  0.416667      8.000000
  0.500000  0.416667  0.416667      4.000000
  0.000000  0.500000  0.416667      4.000000
  0.083333  0.500000  0.416667      8.000000
  0.166667  0.500000  0.416667      8.000000
  0.250000  0.500000  0.416667      8.000000
  0.333333  0.500000  0.416667      8.000000
  0.416667  0.500000  0.416667      8.000000
  0.500000  0.500000  0.416667      4.000000
  0.000000  0.500000  0.500000      1.000000
  0.083333  0.500000  0.500000      2.000000
  0.166667  0.500000  0.500000      2.000000
  0.250000  0.500000  0.500000      2.000000
  0.333333  0.500000  0.500000      2.000000
  0.416667  0.500000  0.500000      2.000000
  0.500000  0.500000  0.500000      1.000000
 
 Following cartesian coordinates:
            Coordinates               Weight
  0.000000  0.000000  0.000000      1.000000
  0.009694  0.000000  0.000000      2.000000
  0.019389  0.000000  0.000000      2.000000
  0.029083  0.000000  0.000000      2.000000
  0.038777  0.000000  0.000000      2.000000
  0.048472  0.000000  0.000000      2.000000
  0.058166  0.000000  0.000000      1.000000
  0.000000  0.009694  0.000000      4.000000
  0.009694  0.009694  0.000000      8.000000
  0.019389  0.009694  0.000000      8.000000
  0.029083  0.009694  0.000000      8.000000
  0.038777  0.009694  0.000000      8.000000
  0.048472  0.009694  0.000000      8.000000
  0.058166  0.009694  0.000000      4.000000
  0.000000  0.019389  0.000000      4.000000
  0.009694  0.019389  0.000000      8.000000
  0.019389  0.019389  0.000000      8.000000
  0.029083  0.019389  0.000000      8.000000
  0.038777  0.019389  0.000000      8.000000
  0.048472  0.019389  0.000000      8.000000
  0.058166  0.019389  0.000000      4.000000
  0.000000  0.029083  0.000000      4.000000
  0.009694  0.029083  0.000000      8.000000
  0.019389  0.029083  0.000000      8.000000
  0.029083  0.029083  0.000000      8.000000
  0.038777  0.029083  0.000000      8.000000
  0.048472  0.029083  0.000000      8.000000
  0.058166  0.029083  0.000000      4.000000
  0.000000  0.038777  0.000000      4.000000
  0.009694  0.038777  0.000000      8.000000
  0.019389  0.038777  0.000000      8.000000
  0.029083  0.038777  0.000000      8.000000
  0.038777  0.038777  0.000000      8.000000
  0.048472  0.038777  0.000000      8.000000
  0.058166  0.038777  0.000000      4.000000
  0.000000  0.048472  0.000000      4.000000
  0.009694  0.048472  0.000000      8.000000
  0.019389  0.048472  0.000000      8.000000
  0.029083  0.048472  0.000000      8.000000
  0.038777  0.048472  0.000000      8.000000
  0.048472  0.048472  0.000000      8.000000
  0.058166  0.048472  0.000000      4.000000
  0.000000  0.058166  0.000000      2.000000
  0.009694  0.058166  0.000000      4.000000
  0.019389  0.058166  0.000000      4.000000
  0.029083  0.058166  0.000000      4.000000
  0.038777  0.058166  0.000000      4.000000
  0.048472  0.058166  0.000000      4.000000
  0.058166  0.058166  0.000000      2.000000
  0.000000  0.009694  0.009694      4.000000
  0.009694  0.009694  0.009694      8.000000
  0.019389  0.009694  0.009694      8.000000
  0.029083  0.009694  0.009694      8.000000
  0.038777  0.009694  0.009694      8.000000
  0.048472  0.009694  0.009694      8.000000
  0.058166  0.009694  0.009694      4.000000
  0.000000  0.019389  0.009694      8.000000
  0.009694  0.019389  0.009694     16.000000
  0.019389  0.019389  0.009694     16.000000
  0.029083  0.019389  0.009694     16.000000
  0.038777  0.019389  0.009694     16.000000
  0.048472  0.019389  0.009694     16.000000
  0.058166  0.019389  0.009694      8.000000
  0.000000  0.029083  0.009694      8.000000
  0.009694  0.029083  0.009694     16.000000
  0.019389  0.029083  0.009694     16.000000
  0.029083  0.029083  0.009694     16.000000
  0.038777  0.029083  0.009694     16.000000
  0.048472  0.029083  0.009694     16.000000
  0.058166  0.029083  0.009694      8.000000
  0.000000  0.038777  0.009694      8.000000
  0.009694  0.038777  0.009694     16.000000
  0.019389  0.038777  0.009694     16.000000
  0.029083  0.038777  0.009694     16.000000
  0.038777  0.038777  0.009694     16.000000
  0.048472  0.038777  0.009694     16.000000
  0.058166  0.038777  0.009694      8.000000
  0.000000  0.048472  0.009694      8.000000
  0.009694  0.048472  0.009694     16.000000
  0.019389  0.048472  0.009694     16.000000
  0.029083  0.048472  0.009694     16.000000
  0.038777  0.048472  0.009694     16.000000
  0.048472  0.048472  0.009694     16.000000
  0.058166  0.048472  0.009694      8.000000
  0.000000  0.058166  0.009694      4.000000
  0.009694  0.058166  0.009694      8.000000
  0.019389  0.058166  0.009694      8.000000
  0.029083  0.058166  0.009694      8.000000
  0.038777  0.058166  0.009694      8.000000
  0.048472  0.058166  0.009694      8.000000
  0.058166  0.058166  0.009694      4.000000
  0.000000  0.019389  0.019389      4.000000
  0.009694  0.019389  0.019389      8.000000
  0.019389  0.019389  0.019389      8.000000
  0.029083  0.019389  0.019389      8.000000
  0.038777  0.019389  0.019389      8.000000
  0.048472  0.019389  0.019389      8.000000
  0.058166  0.019389  0.019389      4.000000
  0.000000  0.029083  0.019389      8.000000
  0.009694  0.029083  0.019389     16.000000
  0.019389  0.029083  0.019389     16.000000
  0.029083  0.029083  0.019389     16.000000
  0.038777  0.029083  0.019389     16.000000
  0.048472  0.029083  0.019389     16.000000
  0.058166  0.029083  0.019389      8.000000
  0.000000  0.038777  0.019389      8.000000
  0.009694  0.038777  0.019389     16.000000
  0.019389  0.038777  0.019389     16.000000
  0.029083  0.038777  0.019389     16.000000
  0.038777  0.038777  0.019389     16.000000
  0.048472  0.038777  0.019389     16.000000
  0.058166  0.038777  0.019389      8.000000
  0.000000  0.048472  0.019389      8.000000
  0.009694  0.048472  0.019389     16.000000
  0.019389  0.048472  0.019389     16.000000
  0.029083  0.048472  0.019389     16.000000
  0.038777  0.048472  0.019389     16.000000
  0.048472  0.048472  0.019389     16.000000
  0.058166  0.048472  0.019389      8.000000
  0.000000  0.058166  0.019389      4.000000
  0.009694  0.058166  0.019389      8.000000
  0.019389  0.058166  0.019389      8.000000
  0.029083  0.058166  0.019389      8.000000
  0.038777  0.058166  0.019389      8.000000
  0.048472  0.058166  0.019389      8.000000
  0.058166  0.058166  0.019389      4.000000
  0.000000  0.029083  0.029083      4.000000
  0.009694  0.029083  0.029083      8.000000
  0.019389  0.029083  0.029083      8.000000
  0.029083  0.029083  0.029083      8.000000
  0.038777  0.029083  0.029083      8.000000
  0.048472  0.029083  0.029083      8.000000
  0.058166  0.029083  0.029083      4.000000
  0.000000  0.038777  0.029083      8.000000
  0.009694  0.038777  0.029083     16.000000
  0.019389  0.038777  0.029083     16.000000
  0.029083  0.038777  0.029083     16.000000
  0.038777  0.038777  0.029083     16.000000
  0.048472  0.038777  0.029083     16.000000
  0.058166  0.038777  0.029083      8.000000
  0.000000  0.048472  0.029083      8.000000
  0.009694  0.048472  0.029083     16.000000
  0.019389  0.048472  0.029083     16.000000
  0.029083  0.048472  0.029083     16.000000
  0.038777  0.048472  0.029083     16.000000
  0.048472  0.048472  0.029083     16.000000
  0.058166  0.048472  0.029083      8.000000
  0.000000  0.058166  0.029083      4.000000
  0.009694  0.058166  0.029083      8.000000
  0.019389  0.058166  0.029083      8.000000
  0.029083  0.058166  0.029083      8.000000
  0.038777  0.058166  0.029083      8.000000
  0.048472  0.058166  0.029083      8.000000
  0.058166  0.058166  0.029083      4.000000
  0.000000  0.038777  0.038777      4.000000
  0.009694  0.038777  0.038777      8.000000
  0.019389  0.038777  0.038777      8.000000
  0.029083  0.038777  0.038777      8.000000
  0.038777  0.038777  0.038777      8.000000
  0.048472  0.038777  0.038777      8.000000
  0.058166  0.038777  0.038777      4.000000
  0.000000  0.048472  0.038777      8.000000
  0.009694  0.048472  0.038777     16.000000
  0.019389  0.048472  0.038777     16.000000
  0.029083  0.048472  0.038777     16.000000
  0.038777  0.048472  0.038777     16.000000
  0.048472  0.048472  0.038777     16.000000
  0.058166  0.048472  0.038777      8.000000
  0.000000  0.058166  0.038777      4.000000
  0.009694  0.058166  0.038777      8.000000
  0.019389  0.058166  0.038777      8.000000
  0.029083  0.058166  0.038777      8.000000
  0.038777  0.058166  0.038777      8.000000
  0.048472  0.058166  0.038777      8.000000
  0.058166  0.058166  0.038777      4.000000
  0.000000  0.048472  0.048472      4.000000
  0.009694  0.048472  0.048472      8.000000
  0.019389  0.048472  0.048472      8.000000
  0.029083  0.048472  0.048472      8.000000
  0.038777  0.048472  0.048472      8.000000
  0.048472  0.048472  0.048472      8.000000
  0.058166  0.048472  0.048472      4.000000
  0.000000  0.058166  0.048472      4.000000
  0.009694  0.058166  0.048472      8.000000
  0.019389  0.058166  0.048472      8.000000
  0.029083  0.058166  0.048472      8.000000
  0.038777  0.058166  0.048472      8.000000
  0.048472  0.058166  0.048472      8.000000
  0.058166  0.058166  0.048472      4.000000
  0.000000  0.058166  0.058166      1.000000
  0.009694  0.058166  0.058166      2.000000
  0.019389  0.058166  0.058166      2.000000
  0.029083  0.058166  0.058166      2.000000
  0.038777  0.058166  0.058166      2.000000
  0.048472  0.058166  0.058166      2.000000
  0.058166  0.058166  0.058166      1.000000
 


--------------------------------------------------------------------------------------------------------




 Dimension of arrays:
   k-Points           NKPTS =    196   number of bands    NBANDS=    216
   number of dos      NEDOS =    301   number of ions     NIONS =     32
   non local maximal  LDIM  =      6   non local SUM 2l+1 LMDIM =     18
   total plane-waves  NPLWV = 512000
   max r-space proj   IRMAX =      1   max aug-charges    IRDMAX= 394500
   dimension x,y,z NGX =    80 NGY =   80 NGZ =   80
   dimension x,y,z NGXF=   160 NGYF=  160 NGZF=  160
   support grid    NGXF=   320 NGYF=  320 NGZF=  320
   ions per type =              32
 NGX,Y,Z   is equivalent  to a cutoff of  15.47, 15.47, 15.47 a.u.
 NGXF,Y,Z  is equivalent  to a cutoff of  30.94, 30.94, 30.94 a.u.


 I would recommend the setting:
   dimension x,y,z NGX =    77 NGY =   77 NGZ =   77
 SYSTEM =  unknown system                          
 POSCAR =  Au                                      

 Startparameter for this run:
   NWRITE =      2    write-flag & timer
   PREC   = accura    medium, high low
   ISTART =      0    job   : 0-new  1-cont  2-samecut
   ICHARG =      2    charge: 1-file 2-atom 10-const
   ISPIN  =      1    spin polarized calculation?
   LNONCOLLINEAR =      F non collinear calculations
   LSORBIT =      F    spin-orbit coupling
   INIWAV =      1    electr: 0-lowe 1-rand  2-diag
   LASPH  =      F    aspherical Exc in radial PAW
   METAGGA=      F    non-selfconsistent MetaGGA calc.

 Electronic Relaxation 1
   ENCUT  =  750.0 eV  55.12 Ry    7.42 a.u.  19.19 19.19 19.19*2*pi/ulx,y,z
   ENINI  =  750.0     initial cutoff
   ENAUG  =  356.7 eV  augmentation charge cutoff
   NELM   =     60;   NELMIN=  2; NELMDL=  0     # of ELM steps 
   EDIFF  = 0.1E-07   stopping-criterion for ELM
   LREAL  =      F    real-space projection
   LCOMPAT=      F    compatible to vasp.4.4
   LREAL_COMPAT= F    compatible to vasp.4.5.1-3
   GGA_COMPAT  = T    GGA compatible to vasp.4.4-vasp.4.6
   LMAXPAW     = -100 max onsite density
   LMAXMIX     =    2 max onsite mixed and CHGCAR
   VOSKOWN=      0    Vosko Wilk Nusair interpolation
   ROPT   =    0.00000
 Ionic relaxation
   EDIFFG = 0.1E-06   stopping-criterion for IOM
   NSW    =      0    number of steps for IOM
   NBLOCK =      1;   KBLOCK =      1    inner block; outer block 
   IBRION =     -1    ionic relax: 0-MD 1-quasi-New 2-CG
   NFREE  =      0    steps in history (QN), initial steepest desc. (CG)
   ISIF   =      2    stress and relaxation
   IWAVPR =     10    prediction:  0-non 1-charg 2-wave 3-comb
   ISYM   =      2    0-nonsym 1-usesym 2-fastsym
   LCORR  =      T    Harris-Foulkes like correction to forces

   POTIM  =   0.50    time-step for ionic-motion
   TEIN   =    0.0    initial temperature
   TEBEG  =    0.0;   TEEND  =   0.0 temperature during run
   SMASS  =  -3.00    Nose mass-parameter (am)
   estimated Nose-frequenzy (Omega)   =  0.10E-29 period in steps =****** mass=  -0.169E-26a.u.
   NPACO  =    256;   APACO  = 16.0  distance and # of slots for P.C.
   PSTRESS=    0.0 pullay stress

  Mass of Ions in am
   POMASS = 196.97
  Ionic Valenz
   ZVAL   =  11.00
  Atomic Wigner-Seitz radii
   RWIGS  =  -1.00
   NELECT =     352.0000    total number of electrons
   NUPDOWN=      -1.0000    fix difference up-down

 DOS related values:
   EMIN   =  10.00;   EMAX   =-10.00  energy-range for DOS
   ISMEAR =     0;   SIGMA  =   0.01  broadening in eV -4-tet -1-fermi 0-gaus

 Electronic relaxation 2 (details)
   IALGO  =     38    algorithm
   LDIAG  =      T    sub-space diagonalisation
   IMIX   =      4    mixing-type and parameters
     AMIX     =   0.40;   BMIX     =  1.00
     AMIX_MAG =   1.60;   BMIX_MAG =  1.00
     AMIN     =   0.10
     WC   =   100.;   INIMIX=   1;  MIXPRE=   1

 Intra band minimization:
   WEIMIN = 0.0000     energy-eigenvalue tresh-hold
   EBREAK =  0.12E-10  absolut break condition
   DEPER  =   0.30     relativ break condition  

   TIME   =   0.10     timestep for ELM

  volume/ion in A,a.u.               =      19.85       133.95
  Fermi-wavevector in a.u.,eV,Ry     =   1.344690 24.601937  1.808191

 Second variation
   LSECVAR=     F    do a second variation
 
 Write flags
   LWAVE  =      F    write WAVECAR
   LCHARG =      F    write CHGCAR
   LVTOT  =      F    write LOCPOT, local potential
   LELF   =      F    write electronic localiz. function (ELF)
   LORBIT =      0    0 simple, 1 ext, 2 COOP (PROOUT)


 Dipole corrections
   IDIPOL =      0    1-x, 2-y, 3-z
   LDIPOL =      F    correct potential



--------------------------------------------------------------------------------------------------------


 Static calculation
 charge density will be updated during run
 non-spin polarized calculation
 Variant of blocked Davidson
 Davidson routine will perform the subspace rotation
 performe sub-space diagonalisation
    after iterative eigenvector-optimisation
 modified Broyden-mixing scheme, WC =      100.0
 initial mixing is a Kerker type mixing with AMIX =  0.4000 and BMIX =      1.0000
 Hartree-type preconditioning will be used
 using additional bands           40
 reciprocal scheme for non local part
 use partial core corrections
 calculate Harris-corrections to forces 
   (improved forces if not selfconsistent)
 use gradient corrections 
 use of overlap-Matrix (Vanderbilt PP)
 Gauss-broadening in eV      SIGMA  =   0.01


--------------------------------------------------------------------------------------------------------


  energy-cutoff  :      750.00
  volume of cell :      635.19
      direct lattice vectors                 reciprocal lattice vectors
     8.596074919  0.000000000  0.000000000     0.116332164  0.000000000  0.000000000
     0.000000000  8.596074919  0.000000000     0.000000000  0.116332164  0.000000000
     0.000000000  0.000000000  8.596074919     0.000000000  0.000000000  0.116332164

  length of vectors
     8.596074919  8.596074919  8.596074919     0.116332164  0.116332164  0.116332164


 
 k-points in units of 2pi/SCALE and weight: Automatic mesh                          
   0.00000000  0.00000000  0.00000000       0.001
   0.00969435  0.00000000  0.00000000       0.001
   0.01938869  0.00000000  0.00000000       0.001
   0.02908304  0.00000000  0.00000000       0.001
   0.03877739  0.00000000  0.00000000       0.001
   0.04847174  0.00000000  0.00000000       0.001
   0.05816608  0.00000000  0.00000000       0.001
   0.00000000  0.00969435  0.00000000       0.002
   0.00969435  0.00969435  0.00000000       0.005
   0.01938869  0.00969435  0.00000000       0.005
   0.02908304  0.00969435  0.00000000       0.005
   0.03877739  0.00969435  0.00000000       0.005
   0.04847174  0.00969435  0.00000000       0.005
   0.05816608  0.00969435  0.00000000       0.002
   0.00000000  0.01938869  0.00000000       0.002
   0.00969435  0.01938869  0.00000000       0.005
   0.01938869  0.01938869  0.00000000       0.005
   0.02908304  0.01938869  0.00000000       0.005
   0.03877739  0.01938869  0.00000000       0.005
   0.04847174  0.01938869  0.00000000       0.005
   0.05816608  0.01938869  0.00000000       0.002
   0.00000000  0.02908304  0.00000000       0.002
   0.00969435  0.02908304  0.00000000       0.005
   0.01938869  0.02908304  0.00000000       0.005
   0.02908304  0.02908304  0.00000000       0.005
   0.03877739  0.02908304  0.00000000       0.005
   0.04847174  0.02908304  0.00000000       0.005
   0.05816608  0.02908304  0.00000000       0.002
   0.00000000  0.03877739  0.00000000       0.002
   0.00969435  0.03877739  0.00000000       0.005
   0.01938869  0.03877739  0.00000000       0.005
   0.02908304  0.03877739  0.00000000       0.005
   0.03877739  0.03877739  0.00000000       0.005
   0.04847174  0.03877739  0.00000000       0.005
   0.05816608  0.03877739  0.00000000       0.002
   0.00000000  0.04847174  0.00000000       0.002
   0.00969435  0.04847174  0.00000000       0.005
   0.01938869  0.04847174  0.00000000       0.005
   0.02908304  0.04847174  0.00000000       0.005
   0.03877739  0.04847174  0.00000000       0.005
   0.04847174  0.04847174  0.00000000       0.005
   0.05816608  0.04847174  0.00000000       0.002
   0.00000000  0.05816608  0.00000000       0.001
   0.00969435  0.05816608  0.00000000       0.002
   0.01938869  0.05816608  0.00000000       0.002
   0.02908304  0.05816608  0.00000000       0.002
   0.03877739  0.05816608  0.00000000       0.002
   0.04847174  0.05816608  0.00000000       0.002
   0.05816608  0.05816608  0.00000000       0.001
   0.00000000  0.00969435  0.00969435       0.002
   0.00969435  0.00969435  0.00969435       0.005
   0.01938869  0.00969435  0.00969435       0.005
   0.02908304  0.00969435  0.00969435       0.005
   0.03877739  0.00969435  0.00969435       0.005
   0.04847174  0.00969435  0.00969435       0.005
   0.05816608  0.00969435  0.00969435       0.002
   0.00000000  0.01938869  0.00969435       0.005
   0.00969435  0.01938869  0.00969435       0.009
   0.01938869  0.01938869  0.00969435       0.009
   0.02908304  0.01938869  0.00969435       0.009
   0.03877739  0.01938869  0.00969435       0.009
   0.04847174  0.01938869  0.00969435       0.009
   0.05816608  0.01938869  0.00969435       0.005
   0.00000000  0.02908304  0.00969435       0.005
   0.00969435  0.02908304  0.00969435       0.009
   0.01938869  0.02908304  0.00969435       0.009
   0.02908304  0.02908304  0.00969435       0.009
   0.03877739  0.02908304  0.00969435       0.009
   0.04847174  0.02908304  0.00969435       0.009
   0.05816608  0.02908304  0.00969435       0.005
   0.00000000  0.03877739  0.00969435       0.005
   0.00969435  0.03877739  0.00969435       0.009
   0.01938869  0.03877739  0.00969435       0.009
   0.02908304  0.03877739  0.00969435       0.009
   0.03877739  0.03877739  0.00969435       0.009
   0.04847174  0.03877739  0.00969435       0.009
   0.05816608  0.03877739  0.00969435       0.005
   0.00000000  0.04847174  0.00969435       0.005
   0.00969435  0.04847174  0.00969435       0.009
   0.01938869  0.04847174  0.00969435       0.009
   0.02908304  0.04847174  0.00969435       0.009
   0.03877739  0.04847174  0.00969435       0.009
   0.04847174  0.04847174  0.00969435       0.009
   0.05816608  0.04847174  0.00969435       0.005
   0.00000000  0.05816608  0.00969435       0.002
   0.00969435  0.05816608  0.00969435       0.005
   0.01938869  0.05816608  0.00969435       0.005
   0.02908304  0.05816608  0.00969435       0.005
   0.03877739  0.05816608  0.00969435       0.005
   0.04847174  0.05816608  0.00969435       0.005
   0.05816608  0.05816608  0.00969435       0.002
   0.00000000  0.01938869  0.01938869       0.002
   0.00969435  0.01938869  0.01938869       0.005
   0.01938869  0.01938869  0.01938869       0.005
   0.02908304  0.01938869  0.01938869       0.005
   0.03877739  0.01938869  0.01938869       0.005
   0.04847174  0.01938869  0.01938869       0.005
   0.05816608  0.01938869  0.01938869       0.002
   0.00000000  0.02908304  0.01938869       0.005
   0.00969435  0.02908304  0.01938869       0.009
   0.01938869  0.02908304  0.01938869       0.009
   0.02908304  0.02908304  0.01938869       0.009
   0.03877739  0.02908304  0.01938869       0.009
   0.04847174  0.02908304  0.01938869       0.009
   0.05816608  0.02908304  0.01938869       0.005
   0.00000000  0.03877739  0.01938869       0.005
   0.00969435  0.03877739  0.01938869       0.009
   0.01938869  0.03877739  0.01938869       0.009
   0.02908304  0.03877739  0.01938869       0.009
   0.03877739  0.03877739  0.01938869       0.009
   0.04847174  0.03877739  0.01938869       0.009
   0.05816608  0.03877739  0.01938869       0.005
   0.00000000  0.04847174  0.01938869       0.005
   0.00969435  0.04847174  0.01938869       0.009
   0.01938869  0.04847174  0.01938869       0.009
   0.02908304  0.04847174  0.01938869       0.009
   0.03877739  0.04847174  0.01938869       0.009
   0.04847174  0.04847174  0.01938869       0.009
   0.05816608  0.04847174  0.01938869       0.005
   0.00000000  0.05816608  0.01938869       0.002
   0.00969435  0.05816608  0.01938869       0.005
   0.01938869  0.05816608  0.01938869       0.005
   0.02908304  0.05816608  0.01938869       0.005
   0.03877739  0.05816608  0.01938869       0.005
   0.04847174  0.05816608  0.01938869       0.005
   0.05816608  0.05816608  0.01938869       0.002
   0.00000000  0.02908304  0.02908304       0.002
   0.00969435  0.02908304  0.02908304       0.005
   0.01938869  0.02908304  0.02908304       0.005
   0.02908304  0.02908304  0.02908304       0.005
   0.03877739  0.02908304  0.02908304       0.005
   0.04847174  0.02908304  0.02908304       0.005
   0.05816608  0.02908304  0.02908304       0.002
   0.00000000  0.03877739  0.02908304       0.005
   0.00969435  0.03877739  0.02908304       0.009
   0.01938869  0.03877739  0.02908304       0.009
   0.02908304  0.03877739  0.02908304       0.009
   0.03877739  0.03877739  0.02908304       0.009
   0.04847174  0.03877739  0.02908304       0.009
   0.05816608  0.03877739  0.02908304       0.005
   0.00000000  0.04847174  0.02908304       0.005
   0.00969435  0.04847174  0.02908304       0.009
   0.01938869  0.04847174  0.02908304       0.009
   0.02908304  0.04847174  0.02908304       0.009
   0.03877739  0.04847174  0.02908304       0.009
   0.04847174  0.04847174  0.02908304       0.009
   0.05816608  0.04847174  0.02908304       0.005
   0.00000000  0.05816608  0.02908304       0.002
   0.00969435  0.05816608  0.02908304       0.005
   0.01938869  0.05816608  0.02908304       0.005
   0.02908304  0.05816608  0.02908304       0.005
   0.03877739  0.05816608  0.02908304       0.005
   0.04847174  0.05816608  0.02908304       0.005
   0.05816608  0.05816608  0.02908304       0.002
   0.00000000  0.03877739  0.03877739       0.002
   0.00969435  0.03877739  0.03877739       0.005
   0.01938869  0.03877739  0.03877739       0.005
   0.02908304  0.03877739  0.03877739       0.005
   0.03877739  0.03877739  0.03877739       0.005
   0.04847174  0.03877739  0.03877739       0.005
   0.05816608  0.03877739  0.03877739       0.002
   0.00000000  0.04847174  0.03877739       0.005
   0.00969435  0.04847174  0.03877739       0.009
   0.01938869  0.04847174  0.03877739       0.009
   0.02908304  0.04847174  0.03877739       0.009
   0.03877739  0.04847174  0.03877739       0.009
   0.04847174  0.04847174  0.03877739       0.009
   0.05816608  0.04847174  0.03877739       0.005
   0.00000000  0.05816608  0.03877739       0.002
   0.00969435  0.05816608  0.03877739       0.005
   0.01938869  0.05816608  0.03877739       0.005
   0.02908304  0.05816608  0.03877739       0.005
   0.03877739  0.05816608  0.03877739       0.005
   0.04847174  0.05816608  0.03877739       0.005
   0.05816608  0.05816608  0.03877739       0.002
   0.00000000  0.04847174  0.04847174       0.002
   0.00969435  0.04847174  0.04847174       0.005
   0.01938869  0.04847174  0.04847174       0.005
   0.02908304  0.04847174  0.04847174       0.005
   0.03877739  0.04847174  0.04847174       0.005
   0.04847174  0.04847174  0.04847174       0.005
   0.05816608  0.04847174  0.04847174       0.002
   0.00000000  0.05816608  0.04847174       0.002
   0.00969435  0.05816608  0.04847174       0.005
   0.01938869  0.05816608  0.04847174       0.005
   0.02908304  0.05816608  0.04847174       0.005
   0.03877739  0.05816608  0.04847174       0.005
   0.04847174  0.05816608  0.04847174       0.005
   0.05816608  0.05816608  0.04847174       0.002
   0.00000000  0.05816608  0.05816608       0.001
   0.00969435  0.05816608  0.05816608       0.001
   0.01938869  0.05816608  0.05816608       0.001
   0.02908304  0.05816608  0.05816608       0.001
   0.03877739  0.05816608  0.05816608       0.001
   0.04847174  0.05816608  0.05816608       0.001
   0.05816608  0.05816608  0.05816608       0.001
 
 k-points in reciprocal lattice and weights: Automatic mesh                          
   0.00000000  0.00000000  0.00000000       0.001
   0.08333333  0.00000000  0.00000000       0.001
   0.16666667  0.00000000  0.00000000       0.001
   0.25000000  0.00000000  0.00000000       0.001
   0.33333333  0.00000000  0.00000000       0.001
   0.41666667  0.00000000  0.00000000       0.001
   0.50000000  0.00000000  0.00000000       0.001
   0.00000000  0.08333333  0.00000000       0.002
   0.08333333  0.08333333  0.00000000       0.005
   0.16666667  0.08333333  0.00000000       0.005
   0.25000000  0.08333333  0.00000000       0.005
   0.33333333  0.08333333  0.00000000       0.005
   0.41666667  0.08333333  0.00000000       0.005
   0.50000000  0.08333333  0.00000000       0.002
   0.00000000  0.16666667  0.00000000       0.002
   0.08333333  0.16666667  0.00000000       0.005
   0.16666667  0.16666667  0.00000000       0.005
   0.25000000  0.16666667  0.00000000       0.005
   0.33333333  0.16666667  0.00000000       0.005
   0.41666667  0.16666667  0.00000000       0.005
   0.50000000  0.16666667  0.00000000       0.002
   0.00000000  0.25000000  0.00000000       0.002
   0.08333333  0.25000000  0.00000000       0.005
   0.16666667  0.25000000  0.00000000       0.005
   0.25000000  0.25000000  0.00000000       0.005
   0.33333333  0.25000000  0.00000000       0.005
   0.41666667  0.25000000  0.00000000       0.005
   0.50000000  0.25000000  0.00000000       0.002
   0.00000000  0.33333333  0.00000000       0.002
   0.08333333  0.33333333  0.00000000       0.005
   0.16666667  0.33333333  0.00000000       0.005
   0.25000000  0.33333333  0.00000000       0.005
   0.33333333  0.33333333  0.00000000       0.005
   0.41666667  0.33333333  0.00000000       0.005
   0.50000000  0.33333333  0.00000000       0.002
   0.00000000  0.41666667  0.00000000       0.002
   0.08333333  0.41666667  0.00000000       0.005
   0.16666667  0.41666667  0.00000000       0.005
   0.25000000  0.41666667  0.00000000       0.005
   0.33333333  0.41666667  0.00000000       0.005
   0.41666667  0.41666667  0.00000000       0.005
   0.50000000  0.41666667  0.00000000       0.002
   0.00000000  0.50000000  0.00000000       0.001
   0.08333333  0.50000000  0.00000000       0.002
   0.16666667  0.50000000  0.00000000       0.002
   0.25000000  0.50000000  0.00000000       0.002
   0.33333333  0.50000000  0.00000000       0.002
   0.41666667  0.50000000  0.00000000       0.002
   0.50000000  0.50000000  0.00000000       0.001
   0.00000000  0.08333333  0.08333333       0.002
   0.08333333  0.08333333  0.08333333       0.005
   0.16666667  0.08333333  0.08333333       0.005
   0.25000000  0.08333333  0.08333333       0.005
   0.33333333  0.08333333  0.08333333       0.005
   0.41666667  0.08333333  0.08333333       0.005
   0.50000000  0.08333333  0.08333333       0.002
   0.00000000  0.16666667  0.08333333       0.005
   0.08333333  0.16666667  0.08333333       0.009
   0.16666667  0.16666667  0.08333333       0.009
   0.25000000  0.16666667  0.08333333       0.009
   0.33333333  0.16666667  0.08333333       0.009
   0.41666667  0.16666667  0.08333333       0.009
   0.50000000  0.16666667  0.08333333       0.005
   0.00000000  0.25000000  0.08333333       0.005
   0.08333333  0.25000000  0.08333333       0.009
   0.16666667  0.25000000  0.08333333       0.009
   0.25000000  0.25000000  0.08333333       0.009
   0.33333333  0.25000000  0.08333333       0.009
   0.41666667  0.25000000  0.08333333       0.009
   0.50000000  0.25000000  0.08333333       0.005
   0.00000000  0.33333333  0.08333333       0.005
   0.08333333  0.33333333  0.08333333       0.009
   0.16666667  0.33333333  0.08333333       0.009
   0.25000000  0.33333333  0.08333333       0.009
   0.33333333  0.33333333  0.08333333       0.009
   0.41666667  0.33333333  0.08333333       0.009
   0.50000000  0.33333333  0.08333333       0.005
   0.00000000  0.41666667  0.08333333       0.005
   0.08333333  0.41666667  0.08333333       0.009
   0.16666667  0.41666667  0.08333333       0.009
   0.25000000  0.41666667  0.08333333       0.009
   0.33333333  0.41666667  0.08333333       0.009
   0.41666667  0.41666667  0.08333333       0.009
   0.50000000  0.41666667  0.08333333       0.005
   0.00000000  0.50000000  0.08333333       0.002
   0.08333333  0.50000000  0.08333333       0.005
   0.16666667  0.50000000  0.08333333       0.005
   0.25000000  0.50000000  0.08333333       0.005
   0.33333333  0.50000000  0.08333333       0.005
   0.41666667  0.50000000  0.08333333       0.005
   0.50000000  0.50000000  0.08333333       0.002
   0.00000000  0.16666667  0.16666667       0.002
   0.08333333  0.16666667  0.16666667       0.005
   0.16666667  0.16666667  0.16666667       0.005
   0.25000000  0.16666667  0.16666667       0.005
   0.33333333  0.16666667  0.16666667       0.005
   0.41666667  0.16666667  0.16666667       0.005
   0.50000000  0.16666667  0.16666667       0.002
   0.00000000  0.25000000  0.16666667       0.005
   0.08333333  0.25000000  0.16666667       0.009
   0.16666667  0.25000000  0.16666667       0.009
   0.25000000  0.25000000  0.16666667       0.009
   0.33333333  0.25000000  0.16666667       0.009
   0.41666667  0.25000000  0.16666667       0.009
   0.50000000  0.25000000  0.16666667       0.005
   0.00000000  0.33333333  0.16666667       0.005
   0.08333333  0.33333333  0.16666667       0.009
   0.16666667  0.33333333  0.16666667       0.009
   0.25000000  0.33333333  0.16666667       0.009
   0.33333333  0.33333333  0.16666667       0.009
   0.41666667  0.33333333  0.16666667       0.009
   0.50000000  0.33333333  0.16666667       0.005
   0.00000000  0.41666667  0.16666667       0.005
   0.08333333  0.41666667  0.16666667       0.009
   0.16666667  0.41666667  0.16666667       0.009
   0.25000000  0.41666667  0.16666667       0.009
   0.33333333  0.41666667  0.16666667       0.009
   0.41666667  0.41666667  0.16666667       0.009
   0.50000000  0.41666667  0.16666667       0.005
   0.00000000  0.50000000  0.16666667       0.002
   0.08333333  0.50000000  0.16666667       0.005
   0.16666667  0.50000000  0.16666667       0.005
   0.25000000  0.50000000  0.16666667       0.005
   0.33333333  0.50000000  0.16666667       0.005
   0.41666667  0.50000000  0.16666667       0.005
   0.50000000  0.50000000  0.16666667       0.002
   0.00000000  0.25000000  0.25000000       0.002
   0.08333333  0.25000000  0.25000000       0.005
   0.16666667  0.25000000  0.25000000       0.005
   0.25000000  0.25000000  0.25000000       0.005
   0.33333333  0.25000000  0.25000000       0.005
   0.41666667  0.25000000  0.25000000       0.005
   0.50000000  0.25000000  0.25000000       0.002
   0.00000000  0.33333333  0.25000000       0.005
   0.08333333  0.33333333  0.25000000       0.009
   0.16666667  0.33333333  0.25000000       0.009
   0.25000000  0.33333333  0.25000000       0.009
   0.33333333  0.33333333  0.25000000       0.009
   0.41666667  0.33333333  0.25000000       0.009
   0.50000000  0.33333333  0.25000000       0.005
   0.00000000  0.41666667  0.25000000       0.005
   0.08333333  0.41666667  0.25000000       0.009
   0.16666667  0.41666667  0.25000000       0.009
   0.25000000  0.41666667  0.25000000       0.009
   0.33333333  0.41666667  0.25000000       0.009
   0.41666667  0.41666667  0.25000000       0.009
   0.50000000  0.41666667  0.25000000       0.005
   0.00000000  0.50000000  0.25000000       0.002
   0.08333333  0.50000000  0.25000000       0.005
   0.16666667  0.50000000  0.25000000       0.005
   0.25000000  0.50000000  0.25000000       0.005
   0.33333333  0.50000000  0.25000000       0.005
   0.41666667  0.50000000  0.25000000       0.005
   0.50000000  0.50000000  0.25000000       0.002
   0.00000000  0.33333333  0.33333333       0.002
   0.08333333  0.33333333  0.33333333       0.005
   0.16666667  0.33333333  0.33333333       0.005
   0.25000000  0.33333333  0.33333333       0.005
   0.33333333  0.33333333  0.33333333       0.005
   0.41666667  0.33333333  0.33333333       0.005
   0.50000000  0.33333333  0.33333333       0.002
   0.00000000  0.41666667  0.33333333       0.005
   0.08333333  0.41666667  0.33333333       0.009
   0.16666667  0.41666667  0.33333333       0.009
   0.25000000  0.41666667  0.33333333       0.009
   0.33333333  0.41666667  0.33333333       0.009
   0.41666667  0.41666667  0.33333333       0.009
   0.50000000  0.41666667  0.33333333       0.005
   0.00000000  0.50000000  0.33333333       0.002
   0.08333333  0.50000000  0.33333333       0.005
   0.16666667  0.50000000  0.33333333       0.005
   0.25000000  0.50000000  0.33333333       0.005
   0.33333333  0.50000000  0.33333333       0.005
   0.41666667  0.50000000  0.33333333       0.005
   0.50000000  0.50000000  0.33333333       0.002
   0.00000000  0.41666667  0.41666667       0.002
   0.08333333  0.41666667  0.41666667       0.005
   0.16666667  0.41666667  0.41666667       0.005
   0.25000000  0.41666667  0.41666667       0.005
   0.33333333  0.41666667  0.41666667       0.005
   0.41666667  0.41666667  0.41666667       0.005
   0.50000000  0.41666667  0.41666667       0.002
   0.00000000  0.50000000  0.41666667       0.002
   0.08333333  0.50000000  0.41666667       0.005
   0.16666667  0.50000000  0.41666667       0.005
   0.25000000  0.50000000  0.41666667       0.005
   0.33333333  0.50000000  0.41666667       0.005
   0.41666667  0.50000000  0.41666667       0.005
   0.50000000  0.50000000  0.41666667       0.002
   0.00000000  0.50000000  0.50000000       0.001
   0.08333333  0.50000000  0.50000000       0.001
   0.16666667  0.50000000  0.50000000       0.001
   0.25000000  0.50000000  0.50000000       0.001
   0.33333333  0.50000000  0.50000000       0.001
   0.41666667  0.50000000  0.50000000       0.001
   0.50000000  0.50000000  0.50000000       0.001
 
 position of ions in fractional coordinates (direct lattice) 
   0.00116332  0.00000000  0.00000000
   0.50000000  0.00000000  0.00000000
   0.00000000  0.50000000  0.00000000
   0.50000000  0.50000000  0.00000000
   0.00000000  0.00000000  0.50000000
   0.50000000  0.00000000  0.50000000
   0.00000000  0.50000000  0.50000000
   0.50000000  0.50000000  0.50000000
   0.25000000  0.25000000  0.00000000
   0.75000000  0.25000000  0.00000000
   0.25000000  0.75000000  0.00000000
   0.75000000  0.75000000  0.00000000
   0.25000000  0.25000000  0.50000000
   0.75000000  0.25000000  0.50000000
   0.25000000  0.75000000  0.50000000
   0.75000000  0.75000000  0.50000000
   0.25000000  0.00000000  0.25000000
   0.75000000  0.00000000  0.25000000
   0.25000000  0.50000000  0.25000000
   0.75000000  0.50000000  0.25000000
   0.25000000  0.00000000  0.75000000
   0.75000000  0.00000000  0.75000000
   0.25000000  0.50000000  0.75000000
   0.75000000  0.50000000  0.75000000
   0.00000000  0.25000000  0.25000000
   0.50000000  0.25000000  0.25000000
   0.00000000  0.75000000  0.25000000
   0.50000000  0.75000000  0.25000000
   0.00000000  0.25000000  0.75000000
   0.50000000  0.25000000  0.75000000
   0.00000000  0.75000000  0.75000000
   0.50000000  0.75000000  0.75000000
 
 position of ions in cartesian coordinates  (Angst):
   0.01000000  0.00000000  0.00000000
   4.29803746  0.00000000  0.00000000
   0.00000000  4.29803746  0.00000000
   4.29803746  4.29803746  0.00000000
   0.00000000  0.00000000  4.29803746
   4.29803746  0.00000000  4.29803746
   0.00000000  4.29803746  4.29803746
   4.29803746  4.29803746  4.29803746
   2.14901873  2.14901873  0.00000000
   6.44705619  2.14901873  0.00000000
   2.14901873  6.44705619  0.00000000
   6.44705619  6.44705619  0.00000000
   2.14901873  2.14901873  4.29803746
   6.44705619  2.14901873  4.29803746
   2.14901873  6.44705619  4.29803746
   6.44705619  6.44705619  4.29803746
   2.14901873  0.00000000  2.14901873
   6.44705619  0.00000000  2.14901873
   2.14901873  4.29803746  2.14901873
   6.44705619  4.29803746  2.14901873
   2.14901873  0.00000000  6.44705619
   6.44705619  0.00000000  6.44705619
   2.14901873  4.29803746  6.44705619
   6.44705619  4.29803746  6.44705619
   0.00000000  2.14901873  2.14901873
   4.29803746  2.14901873  2.14901873
   0.00000000  6.44705619  2.14901873
   4.29803746  6.44705619  2.14901873
   0.00000000  2.14901873  6.44705619
   4.29803746  2.14901873  6.44705619
   0.00000000  6.44705619  6.44705619
   4.29803746  6.44705619  6.44705619
 


--------------------------------------------------------------------------------------------------------


 k-point  1 :  0.00000.00000.0000  plane waves:  29423
 k-point  2 :  0.08330.00000.0000  plane waves:  29579
 k-point  3 :  0.16670.00000.0000  plane waves:  29623
 k-point  4 :  0.25000.00000.0000  plane waves:  29594
 k-point  5 :  0.33330.00000.0000  plane waves:  29682
 k-point  6 :  0.41670.00000.0000  plane waves:  29642
 k-point  7 :  0.50000.00000.0000  plane waves:  29686
 k-point  8 :  0.00000.08330.0000  plane waves:  29579
 k-point  9 :  0.08330.08330.0000  plane waves:  29573
 k-point 10 :  0.16670.08330.0000  plane waves:  29603
 k-point 11 :  0.25000.08330.0000  plane waves:  29624
 k-point 12 :  0.33330.08330.0000  plane waves:  29627
 k-point 13 :  0.41670.08330.0000  plane waves:  29620
 k-point 14 :  0.50000.08330.0000  plane waves:  29636
 k-point 15 :  0.00000.16670.0000  plane waves:  29623
 k-point 16 :  0.08330.16670.0000  plane waves:  29603
 k-point 17 :  0.16670.16670.0000  plane waves:  29603
 k-point 18 :  0.25000.16670.0000  plane waves:  29628
 k-point 19 :  0.33330.16670.0000  plane waves:  29610
 k-point 20 :  0.41670.16670.0000  plane waves:  29628
 k-point 21 :  0.50000.16670.0000  plane waves:  29620
 k-point 22 :  0.00000.25000.0000  plane waves:  29594
 k-point 23 :  0.08330.25000.0000  plane waves:  29624
 k-point 24 :  0.16670.25000.0000  plane waves:  29628
 k-point 25 :  0.25000.25000.0000  plane waves:  29611
 k-point 26 :  0.33330.25000.0000  plane waves:  29626
 k-point 27 :  0.41670.25000.0000  plane waves:  29627
 k-point 28 :  0.50000.25000.0000  plane waves:  29630
 k-point 29 :  0.00000.33330.0000  plane waves:  29682
 k-point 30 :  0.08330.33330.0000  plane waves:  29627
 k-point 31 :  0.16670.33330.0000  plane waves:  29610
 k-point 32 :  0.25000.33330.0000  plane waves:  29626
 k-point 33 :  0.33330.33330.0000  plane waves:  29631
 k-point 34 :  0.41670.33330.0000  plane waves:  29627
 k-point 35 :  0.50000.33330.0000  plane waves:  29656
 k-point 36 :  0.00000.41670.0000  plane waves:  29642
 k-point 37 :  0.08330.41670.0000  plane waves:  29620
 k-point 38 :  0.16670.41670.0000  plane waves:  29628
 k-point 39 :  0.25000.41670.0000  plane waves:  29627
 k-point 40 :  0.33330.41670.0000  plane waves:  29627
 k-point 41 :  0.41670.41670.0000  plane waves:  29655
 k-point 42 :  0.50000.41670.0000  plane waves:  29676
 k-point 43 :  0.00000.50000.0000  plane waves:  29686
 k-point 44 :  0.08330.50000.0000  plane waves:  29636
 k-point 45 :  0.16670.50000.0000  plane waves:  29620
 k-point 46 :  0.25000.50000.0000  plane waves:  29630
 k-point 47 :  0.33330.50000.0000  plane waves:  29656
 k-point 48 :  0.41670.50000.0000  plane waves:  29676
 k-point 49 :  0.50000.50000.0000  plane waves:  29664
 k-point 50 :  0.00000.08330.0833  plane waves:  29573
 k-point 51 :  0.08330.08330.0833  plane waves:  29566
 k-point 52 :  0.16670.08330.0833  plane waves:  29590
 k-point 53 :  0.25000.08330.0833  plane waves:  29601
 k-point 54 :  0.33330.08330.0833  plane waves:  29619
 k-point 55 :  0.41670.08330.0833  plane waves:  29637
 k-point 56 :  0.50000.08330.0833  plane waves:  29656
 k-point 57 :  0.00000.16670.0833  plane waves:  29603
 k-point 58 :  0.08330.16670.0833  plane waves:  29590
 k-point 59 :  0.16670.16670.0833  plane waves:  29624
 k-point 60 :  0.25000.16670.0833  plane waves:  29627
 k-point 61 :  0.33330.16670.0833  plane waves:  29627
 k-point 62 :  0.41670.16670.0833  plane waves:  29618
 k-point 63 :  0.50000.16670.0833  plane waves:  29622
 k-point 64 :  0.00000.25000.0833  plane waves:  29624
 k-point 65 :  0.08330.25000.0833  plane waves:  29601
 k-point 66 :  0.16670.25000.0833  plane waves:  29627
 k-point 67 :  0.25000.25000.0833  plane waves:  29628
 k-point 68 :  0.33330.25000.0833  plane waves:  29632
 k-point 69 :  0.41670.25000.0833  plane waves:  29620
 k-point 70 :  0.50000.25000.0833  plane waves:  29604
 k-point 71 :  0.00000.33330.0833  plane waves:  29627
 k-point 72 :  0.08330.33330.0833  plane waves:  29619
 k-point 73 :  0.16670.33330.0833  plane waves:  29627
 k-point 74 :  0.25000.33330.0833  plane waves:  29632
 k-point 75 :  0.33330.33330.0833  plane waves:  29654
 k-point 76 :  0.41670.33330.0833  plane waves:  29624
 k-point 77 :  0.50000.33330.0833  plane waves:  29612
 k-point 78 :  0.00000.41670.0833  plane waves:  29620
 k-point 79 :  0.08330.41670.0833  plane waves:  29637
 k-point 80 :  0.16670.41670.0833  plane waves:  29618
 k-point 81 :  0.25000.41670.0833  plane waves:  29620
 k-point 82 :  0.33330.41670.0833  plane waves:  29624
 k-point 83 :  0.41670.41670.0833  plane waves:  29636
 k-point 84 :  0.50000.41670.0833  plane waves:  29648
 k-point 85 :  0.00000.50000.0833  plane waves:  29636
 k-point 86 :  0.08330.50000.0833  plane waves:  29656
 k-point 87 :  0.16670.50000.0833  plane waves:  29622
 k-point 88 :  0.25000.50000.0833  plane waves:  29604
 k-point 89 :  0.33330.50000.0833  plane waves:  29612
 k-point 90 :  0.41670.50000.0833  plane waves:  29648
 k-point 91 :  0.50000.50000.0833  plane waves:  29656
 k-point 92 :  0.00000.16670.1667  plane waves:  29603
 k-point 93 :  0.08330.16670.1667  plane waves:  29624
 k-point 94 :  0.16670.16670.1667  plane waves:  29605
 k-point 95 :  0.25000.16670.1667  plane waves:  29619
 k-point 96 :  0.33330.16670.1667  plane waves:  29620
 k-point 97 :  0.41670.16670.1667  plane waves:  29629
 k-point 98 :  0.50000.16670.1667  plane waves:  29660
 k-point 99 :  0.00000.25000.1667  plane waves:  29628
 k-point ** :  0.08330.25000.1667  plane waves:  29627
 k-point ** :  0.16670.25000.1667  plane waves:  29619
 k-point ** :  0.25000.25000.1667  plane waves:  29627
 k-point ** :  0.33330.25000.1667  plane waves:  29609
 k-point ** :  0.41670.25000.1667  plane waves:  29625
 k-point ** :  0.50000.25000.1667  plane waves:  29612
 k-point ** :  0.00000.33330.1667  plane waves:  29610
 k-point ** :  0.08330.33330.1667  plane waves:  29627
 k-point ** :  0.16670.33330.1667  plane waves:  29620
 k-point ** :  0.25000.33330.1667  plane waves:  29609
 k-point ** :  0.33330.33330.1667  plane waves:  29619
 k-point ** :  0.41670.33330.1667  plane waves:  29625
 k-point ** :  0.50000.33330.1667  plane waves:  29618
 k-point ** :  0.00000.41670.1667  plane waves:  29628
 k-point ** :  0.08330.41670.1667  plane waves:  29618
 k-point ** :  0.16670.41670.1667  plane waves:  29629
 k-point ** :  0.25000.41670.1667  plane waves:  29625
 k-point ** :  0.33330.41670.1667  plane waves:  29625
 k-point ** :  0.41670.41670.1667  plane waves:  29645
 k-point ** :  0.50000.41670.1667  plane waves:  29624
 k-point ** :  0.00000.50000.1667  plane waves:  29620
 k-point ** :  0.08330.50000.1667  plane waves:  29622
 k-point ** :  0.16670.50000.1667  plane waves:  29660
 k-point ** :  0.25000.50000.1667  plane waves:  29612
 k-point ** :  0.33330.50000.1667  plane waves:  29618
 k-point ** :  0.41670.50000.1667  plane waves:  29624
 k-point ** :  0.50000.50000.1667  plane waves:  29640
 k-point ** :  0.00000.25000.2500  plane waves:  29611
 k-point ** :  0.08330.25000.2500  plane waves:  29628
 k-point ** :  0.16670.25000.2500  plane waves:  29627
 k-point ** :  0.25000.25000.2500  plane waves:  29623
 k-point ** :  0.33330.25000.2500  plane waves:  29616
 k-point ** :  0.41670.25000.2500  plane waves:  29601
 k-point ** :  0.50000.25000.2500  plane waves:  29680
 k-point ** :  0.00000.33330.2500  plane waves:  29626
 k-point ** :  0.08330.33330.2500  plane waves:  29632
 k-point ** :  0.16670.33330.2500  plane waves:  29609
 k-point ** :  0.25000.33330.2500  plane waves:  29616
 k-point ** :  0.33330.33330.2500  plane waves:  29611
 k-point ** :  0.41670.33330.2500  plane waves:  29620
 k-point ** :  0.50000.33330.2500  plane waves:  29624
 k-point ** :  0.00000.41670.2500  plane waves:  29627
 k-point ** :  0.08330.41670.2500  plane waves:  29620
 k-point ** :  0.16670.41670.2500  plane waves:  29625
 k-point ** :  0.25000.41670.2500  plane waves:  29601
 k-point ** :  0.33330.41670.2500  plane waves:  29620
 k-point ** :  0.41670.41670.2500  plane waves:  29625
 k-point ** :  0.50000.41670.2500  plane waves:  29632
 k-point ** :  0.00000.50000.2500  plane waves:  29630
 k-point ** :  0.08330.50000.2500  plane waves:  29604
 k-point ** :  0.16670.50000.2500  plane waves:  29612
 k-point ** :  0.25000.50000.2500  plane waves:  29680
 k-point ** :  0.33330.50000.2500  plane waves:  29624
 k-point ** :  0.41670.50000.2500  plane waves:  29632
 k-point ** :  0.50000.50000.2500  plane waves:  29632
 k-point ** :  0.00000.33330.3333  plane waves:  29631
 k-point ** :  0.08330.33330.3333  plane waves:  29654
 k-point ** :  0.16670.33330.3333  plane waves:  29619
 k-point ** :  0.25000.33330.3333  plane waves:  29611
 k-point ** :  0.33330.33330.3333  plane waves:  29620
 k-point ** :  0.41670.33330.3333  plane waves:  29637
 k-point ** :  0.50000.33330.3333  plane waves:  29606
 k-point ** :  0.00000.41670.3333  plane waves:  29627
 k-point ** :  0.08330.41670.3333  plane waves:  29624
 k-point ** :  0.16670.41670.3333  plane waves:  29625
 k-point ** :  0.25000.41670.3333  plane waves:  29620
 k-point ** :  0.33330.41670.3333  plane waves:  29637
 k-point ** :  0.41670.41670.3333  plane waves:  29614
 k-point ** :  0.50000.41670.3333  plane waves:  29626
 k-point ** :  0.00000.50000.3333  plane waves:  29656
 k-point ** :  0.08330.50000.3333  plane waves:  29612
 k-point ** :  0.16670.50000.3333  plane waves:  29618
 k-point ** :  0.25000.50000.3333  plane waves:  29624
 k-point ** :  0.33330.50000.3333  plane waves:  29606
 k-point ** :  0.41670.50000.3333  plane waves:  29626
 k-point ** :  0.50000.50000.3333  plane waves:  29652
 k-point ** :  0.00000.41670.4167  plane waves:  29655
 k-point ** :  0.08330.41670.4167  plane waves:  29636
 k-point ** :  0.16670.41670.4167  plane waves:  29645
 k-point ** :  0.25000.41670.4167  plane waves:  29625
 k-point ** :  0.33330.41670.4167  plane waves:  29614
 k-point ** :  0.41670.41670.4167  plane waves:  29629
 k-point ** :  0.50000.41670.4167  plane waves:  29618
 k-point ** :  0.00000.50000.4167  plane waves:  29676
 k-point ** :  0.08330.50000.4167  plane waves:  29648
 k-point ** :  0.16670.50000.4167  plane waves:  29624
 k-point ** :  0.25000.50000.4167  plane waves:  29632
 k-point ** :  0.33330.50000.4167  plane waves:  29626
 k-point ** :  0.41670.50000.4167  plane waves:  29618
 k-point ** :  0.50000.50000.4167  plane waves:  29620
 k-point ** :  0.00000.50000.5000  plane waves:  29664
 k-point ** :  0.08330.50000.5000  plane waves:  29656
 k-point ** :  0.16670.50000.5000  plane waves:  29640
 k-point ** :  0.25000.50000.5000  plane waves:  29632
 k-point ** :  0.33330.50000.5000  plane waves:  29652
 k-point ** :  0.41670.50000.5000  plane waves:  29620
 k-point ** :  0.50000.50000.5000  plane waves:  29464

 maximum and minimum number of plane-waves per node :  29686 29423

 maximum number of plane-waves:  29686
 maximal index in each direction: 
   IXMAX= 19   IYMAX= 19   IZMAX= 19
   IXMIN=-19   IYMIN=-19   IZMIN=-19

 NGX is ok and might be reduce to  78
 NGY is ok and might be reduce to  78
 NGZ is ok and might be reduce to  78

 parallel 3dFFT wavefunction:
    minimum data exchange during FFTs selected (reduces bandwidth)
 parallel 3dFFT charge:
    minimum data exchange during FFTs selected (reduces bandwidth)

 For storing wavefunctions ******* MBYTES are necessary
 For predicting wavefunctions  215.27 MBYTES are necessary
Broyden mixing: mesh for mixing (old mesh)
   NGX = 39   NGY = 39   NGZ = 39
  (NGX  =160   NGY  =160   NGZ  =160)
 gives a total of  59319 points
 initial charge density was supplied:
 charge density of overlapping atoms calculated
 number of electron  352.0000000 magnetization 
 keeping initial charge density in first step


--------------------------------------------------------------------------------------------------------


 Maximum index for augmentation-charges        48019 (set IRDMAX)


--------------------------------------------------------------------------------------------------------


 First call to EWALD:  gamma=   0.206
 Maximum number of real-space cells 3x 3x 3
 Maximum number of reciprocal cells 3x 3x 3

    FEWALD:  VPU time    0.00: CPU time    0.01


----------------------------------------- Iteration    1(   1)  ---------------------------------------


    POTLOK:  VPU time    0.33: CPU time    0.33
    SETDIJ:  VPU time    0.48: CPU time    0.48
    EDDAV :  VPU time  938.27: CPU time  938.17
    DOS   :  VPU time    0.00: CPU time   -0.00
    ------------------------------------------
      LOOP:  VPU time  939.21: CPU time  939.11

 eigenvalue-minimisations  : 84672
 total energy-change (2. order) : 0.4566146E+04  (-0.2058288E+05)
 number of electron  352.0000000 magnetization 
 augmentation part   352.0000000 magnetization 

 Free energy of the ion-electron system (eV)
  ---------------------------------------------------
  alpha Z        PSCENC =      3019.22523168
  Ewald energy   TEWEN  =    -29738.37930113
  -1/2 Hartree   DENC   =     -4610.14239855
  -V(xc)+E(xc)   XCENC  =       475.79630546
  PAW double counting   =     23920.39735419   -23172.13309131
  entropy T*S    EENTRO =        -0.00078164
  eigenvalues    EBANDS =      5037.59253158
  atomic energy  EATOM  =     29633.78979189
  ---------------------------------------------------
  free energy    TOTEN  =      4566.14564218 eV

  energy without entropy =     4566.14642382  energy(sigma->0) =     4566.14603300


--------------------------------------------------------------------------------------------------------




----------------------------------------- Iteration    1(   2)  ---------------------------------------


    EDDAV :  VPU time  940.74: CPU time  940.61
    DOS   :  VPU time    0.00: CPU time   -0.00
    ------------------------------------------
      LOOP:  VPU time  940.87: CPU time  940.74

 eigenvalue-minimisations  : 84680
 total energy-change (2. order) :-0.4404953E+04  (-0.4205601E+04)
 number of electron  352.0000000 magnetization 
 augmentation part   352.0000000 magnetization 

 Free energy of the ion-electron system (eV)
  ---------------------------------------------------
  alpha Z        PSCENC =      3019.22523168
  Ewald energy   TEWEN  =    -29738.37930113
  -1/2 Hartree   DENC   =     -4610.14239855
  -V(xc)+E(xc)   XCENC  =       475.79630546
  PAW double counting   =     23920.39735419   -23172.13309131
  entropy T*S    EENTRO =        -0.00040568
  eigenvalues    EBANDS =       632.63873303
  atomic energy  EATOM  =     29633.78979189
  ---------------------------------------------------
  free energy    TOTEN  =       161.19221959 eV

  energy without entropy =      161.19262527  energy(sigma->0) =      161.19242243


--------------------------------------------------------------------------------------------------------




----------------------------------------- Iteration    1(   3)  ---------------------------------------


    EDDAV :  VPU time 1019.87: CPU time 1019.68
    DOS   :  VPU time    0.00: CPU time   -0.00
    ------------------------------------------
      LOOP:  VPU time 1020.00: CPU time 1019.81

 eigenvalue-minimisations  : 93848
 total energy-change (2. order) :-0.2622113E+03  (-0.2391389E+03)
 number of electron  352.0000000 magnetization 
 augmentation part   352.0000000 magnetization 

 Free energy of the ion-electron system (eV)
  ---------------------------------------------------
  alpha Z        PSCENC =      3019.22523168
  Ewald energy   TEWEN  =    -29738.37930113
  -1/2 Hartree   DENC   =     -4610.14239855
  -V(xc)+E(xc)   XCENC  =       475.79630546
  PAW double counting   =     23920.39735419   -23172.13309131
  entropy T*S    EENTRO =        -0.00075017
  eigenvalues    EBANDS =       370.42773523
  atomic energy  EATOM  =     29633.78979189
  ---------------------------------------------------
  free energy    TOTEN  =      -101.01912270 eV

  energy without entropy =     -101.01837253  energy(sigma->0) =     -101.01874762


--------------------------------------------------------------------------------------------------------




----------------------------------------- Iteration    1(   4)  ---------------------------------------


    EDDAV :  VPU time  988.13: CPU time  987.98
    DOS   :  VPU time    0.00: CPU time   -0.00
    ------------------------------------------
      LOOP:  VPU time  988.27: CPU time  988.11

 eigenvalue-minimisations  : 90560
 total energy-change (2. order) :-0.9239003E+01  (-0.9092294E+01)
 number of electron  352.0000000 magnetization 
 augmentation part   352.0000000 magnetization 

 Free energy of the ion-electron system (eV)
  ---------------------------------------------------
  alpha Z        PSCENC =      3019.22523168
  Ewald energy   TEWEN  =    -29738.37930113
  -1/2 Hartree   DENC   =     -4610.14239855
  -V(xc)+E(xc)   XCENC  =       475.79630546
  PAW double counting   =     23920.39735419   -23172.13309131
  entropy T*S    EENTRO =        -0.00090224
  eigenvalues    EBANDS =       361.18888425
  atomic energy  EATOM  =     29633.78979189
  ---------------------------------------------------
  free energy    TOTEN  =      -110.25812575 eV

  energy without entropy =     -110.25722350  energy(sigma->0) =     -110.25767462


--------------------------------------------------------------------------------------------------------




----------------------------------------- Iteration    1(   5)  ---------------------------------------


    EDDAV :  VPU time  997.87: CPU time  997.70
    DOS   :  VPU time    0.00: CPU time   -0.00
    CHARGE:  VPU time   45.60: CPU time   45.59
    MIXING:  VPU time    0.01: CPU time    0.01
    ------------------------------------------
      LOOP:  VPU time 1043.62: CPU time 1043.44

 eigenvalue-minimisations  : 91352
 total energy-change (2. order) :-0.1604506E+00  (-0.1600209E+00)
 number of electron  352.0000006 magnetization 
 augmentation part   124.6660996 magnetization 

 Broyden mixing:
  rms(total) = 0.15436E+01    rms(broyden)= 0.15436E+01
  rms(prec ) = 0.23606E+01
  weight for this iteration     100.00

 Free energy of the ion-electron system (eV)
  ---------------------------------------------------
  alpha Z        PSCENC =      3019.22523168
  Ewald energy   TEWEN  =    -29738.37930113
  -1/2 Hartree   DENC   =     -4610.14239855
  -V(xc)+E(xc)   XCENC  =       475.79630546
  PAW double counting   =     23920.39735419   -23172.13309131
  entropy T*S    EENTRO =        -0.00091039
  eigenvalues    EBANDS =       361.02844179
  atomic energy  EATOM  =     29633.78979189
  ---------------------------------------------------
  free energy    TOTEN  =      -110.41857636 eV

  energy without entropy =     -110.41766597  energy(sigma->0) =     -110.41812117


--------------------------------------------------------------------------------------------------------




----------------------------------------- Iteration    1(   6)  ---------------------------------------


    POTLOK:  VPU time    0.35: CPU time    0.35
    SETDIJ:  VPU time    0.47: CPU time    0.47
    EDDAV :  VPU time  986.49: CPU time  986.30
    DOS   :  VPU time    0.00: CPU time   -0.00
    CHARGE:  VPU time   47.30: CPU time   47.30
    MIXING:  VPU time    0.01: CPU time    0.01
    ------------------------------------------
      LOOP:  VPU time 1034.76: CPU time 1034.56

 eigenvalue-minimisations  : 89416
 total energy-change (2. order) : 0.7081931E+01  (-0.2082334E+01)
 number of electron  352.0000007 magnetization 
 augmentation part   129.0814812 magnetization 

 Broyden mixing:
  rms(total) = 0.37840E+00    rms(broyden)= 0.37840E+00
  rms(prec ) = 0.54556E+00
  weight for this iteration     100.00

 eigenvalues of (default mixing * dielectric matrix)
  average eigenvalue GAMMA=   1.1639
  1.1639

 Free energy of the ion-electron system (eV)
  ---------------------------------------------------
  alpha Z        PSCENC =      3019.22523168
  Ewald energy   TEWEN  =    -29738.37930113
  -1/2 Hartree   DENC   =     -4360.66887799
  -V(xc)+E(xc)   XCENC  =       464.72939795
  PAW double counting   =     23544.09818855   -22826.70597495
  entropy T*S    EENTRO =        -0.00074373
  eigenvalues    EBANDS =       160.57564275
  atomic energy  EATOM  =     29633.78979189
  ---------------------------------------------------
  free energy    TOTEN  =      -103.33664499 eV

  energy without entropy =     -103.33590125  energy(sigma->0) =     -103.33627312


--------------------------------------------------------------------------------------------------------




----------------------------------------- Iteration    1(   7)  ---------------------------------------


    POTLOK:  VPU time    0.32: CPU time    0.32
    SETDIJ:  VPU time    0.48: CPU time    0.48
    EDDAV :  VPU time 1008.47: CPU time 1008.31
    DOS   :  VPU time    0.00: CPU time   -0.00
    CHARGE:  VPU time   47.50: CPU time   47.49
    MIXING:  VPU time    0.01: CPU time    0.01
    ------------------------------------------
      LOOP:  VPU time 1056.91: CPU time 1056.74

 eigenvalue-minimisations  : 92880
 total energy-change (2. order) : 0.2992471E+00  (-0.1015100E+00)
 number of electron  352.0000007 magnetization 
 augmentation part   129.9544457 magnetization 

 Broyden mixing:
  rms(total) = 0.17849E+00    rms(broyden)= 0.17849E+00
  rms(prec ) = 0.21032E+00
  weight for this iteration     100.00

 eigenvalues of (default mixing * dielectric matrix)
  average eigenvalue GAMMA=   1.8216
  1.1708  2.4724

 Free energy of the ion-electron system (eV)
  ---------------------------------------------------
  alpha Z        PSCENC =      3019.22523168
  Ewald energy   TEWEN  =    -29738.37930113
  -1/2 Hartree   DENC   =     -4298.78521864
  -V(xc)+E(xc)   XCENC  =       461.84514278
  PAW double counting   =     23531.68278826   -22831.65522306
  entropy T*S    EENTRO =        -0.00079613
  eigenvalues    EBANDS =       119.24018647
  atomic energy  EATOM  =     29633.78979189
[...]
     72       0.1628      2.00000
     73       0.1632      2.00000
     74       0.1632      2.00000
     75       0.1632      2.00000
     76       0.1633      2.00000
     77       0.1639      2.00000
     78       0.1640      2.00000
     79       0.1643      2.00000
     80       0.1643      2.00000
     81       0.2752      2.00000
     82       0.2752      2.00000
     83       0.2761      2.00000
     84       0.2766      2.00000
     85       0.2781      2.00000
     86       0.2787      2.00000
     87       0.2788      2.00000
     88       0.2788      2.00000
     89       0.2788      2.00000
     90       0.2788      2.00000
     91       0.2789      2.00000
     92       0.2789      2.00000
     93       0.2790      2.00000
     94       0.2790      2.00000
     95       0.2790      2.00000
     96       0.2790      2.00000
     97       0.2791      2.00000
     98       0.2791      2.00000
     99       0.2791      2.00000
    100       0.2798      2.00000
    101       0.2813      2.00000
    102       0.2817      2.00000
    103       0.2827      2.00000
    104       0.2827      2.00000
    105       0.8635      2.00000
    106       0.8649      2.00000
    107       0.8649      2.00000
    108       0.8669      2.00000
    109       0.8671      2.00000
    110       0.8672      2.00000
    111       0.8672      2.00000
    112       0.8674      2.00000
    113       0.8675      2.00000
    114       0.8675      2.00000
    115       0.8675      2.00000
    116       0.8676      2.00000
    117       0.8677      2.00000
    118       0.8677      2.00000
    119       0.8677      2.00000
    120       0.8677      2.00000
    121       0.8678      2.00000
    122       0.8680      2.00000
    123       0.8680      2.00000
    124       0.8681      2.00000
    125       0.8684      2.00000
    126       0.8704      2.00000
    127       0.8704      2.00000
    128       0.8717      2.00000
    129       1.2363      2.00000
    130       1.2377      2.00000
    131       1.2377      2.00000
    132       1.2377      2.00000
    133       1.2388      2.00000
    134       1.2388      2.00000
    135       1.2390      2.00000
    136       1.2390      2.00000
    137       1.2392      2.00000
    138       1.2392      2.00000
    139       1.2394      2.00000
    140       1.2394      2.00000
    141       1.2405      2.00000
    142       1.2405      2.00000
    143       1.2406      2.00000
    144       1.2419      2.00000
    145       2.0811      2.00000
    146       2.0811      2.00000
    147       2.0813      2.00000
    148       2.0815      2.00000
    149       2.0816      2.00000
    150       2.0816      2.00000
    151       2.0816      2.00000
    152       2.0816      2.00000
    153       2.0817      2.00000
    154       2.0818      2.00000
    155       2.0818      2.00000
    156       2.0818      2.00000
    157       2.0820      2.00000
    158       2.0820      2.00000
    159       2.0820      2.00000
    160       2.0821      2.00000
    161       2.0822      2.00000
    162       2.0822      2.00000
    163       2.0822      2.00000
    164       2.0822      2.00000
    165       2.0823      2.00000
    166       2.0825      2.00000
    167       2.0827      2.00000
    168       2.0827      2.00000
    169       4.7731      0.00000
    170       4.7764      0.00000
    171       4.7764      0.00000
    172       4.7780      0.00000
    173       4.7785      0.00000
    174       4.7788      0.00000
    175       4.7788      0.00000
    176       4.7788      0.00000
    177       4.7788      0.00000
    178       4.7788      0.00000
    179       4.7788      0.00000
    180       4.7789      0.00000
    181       4.7791      0.00000
    182       4.7791      0.00000
    183       4.7792      0.00000
    184       4.7792      0.00000
    185       4.7792      0.00000
    186       4.7792      0.00000
    187       4.7792      0.00000
    188       4.7795      0.00000
    189       4.7800      0.00000
    190       4.7816      0.00000
    191       4.7816      0.00000
    192       4.7849      0.00000
    193       8.8991      0.00000
    194       8.8991      0.00000
    195       8.9017      0.00000
    196       8.9022      0.00000
    197       8.9028      0.00000
    198       8.9033      0.00000
    199       8.9033      0.00000
    200       8.9037      0.00000
    201       8.9038      0.00000
    202       8.9038      0.00000
    203       8.9038      0.00000
    204       8.9039      0.00000
    205       8.9039      0.00000
    206       8.9039      0.00000
    207       8.9040      0.00000
    208       8.9040      0.00000
    209       8.9041      0.00000
    210       8.9045      0.00000
    211       8.9045      0.00000
    212       8.9049      0.00000
    213       8.9056      0.00000
    214       8.9061      0.00000
    215       8.9087      0.00000
    216       8.9087      0.00000


--------------------------------------------------------------------------------------------------------


 soft charge-density along one line, spin component           1
         0         1         2         3         4         5         6         7         8         9
 total charge-density along one line
 
 pseudopotential strength for first ion, spin component:           1
-10.375  -0.000  -0.000  -0.000  -0.000  -0.021   0.000   0.000
 -0.000 -10.375   0.000  -0.000   0.000   0.000  -0.021  -0.000
 -0.000   0.000 -10.362   0.000  -0.000   0.000  -0.000  -0.023
 -0.000  -0.000   0.000 -10.375  -0.000   0.000   0.000  -0.000
 -0.000   0.000  -0.000  -0.000 -10.362   0.000  -0.000   0.000
 -0.021   0.000   0.000   0.000   0.000   0.273  -0.000   0.000
  0.000  -0.021  -0.000   0.000  -0.000  -0.000   0.273   0.000
  0.000  -0.000  -0.023  -0.000   0.000   0.000   0.000   0.273
  0.000   0.000  -0.000  -0.021   0.000  -0.000  -0.000   0.000
  0.000  -0.000   0.000   0.000  -0.023  -0.000   0.000  -0.000
  0.000   0.000   0.000   0.000  -0.000   0.000   0.000  -0.000
 -0.000  -0.000  -0.000  -0.000   0.000   0.000   0.000   0.000
 -0.000  -0.000   0.000  -0.000  -0.000   0.000   0.000  -0.000
 -0.000  -0.000   0.000  -0.000  -0.000   0.000   0.000   0.000
 -0.000  -0.000   0.000  -0.000  -0.000   0.000   0.000  -0.000
  0.000   0.000  -0.000   0.000   0.000  -0.000  -0.000   0.000
  0.000  -0.000  -0.000   0.000   0.000  -0.000  -0.000   0.000
  0.000   0.000  -0.000   0.000   0.000  -0.000  -0.000   0.000
 total augmentation occupancy for first ion, spin component:           1
  1.905  -0.000  -0.002  -0.001  -0.001  -0.062   0.000  -0.000   0.001   0.001   0.004  -0.000   0.000   0.000  -0.000  -0.000
 -0.000   1.912  -0.001  -0.002  -0.002   0.000  -0.068   0.002   0.001   0.000   0.004  -0.000   0.000   0.000  -0.000  -0.000
 -0.002  -0.001   1.961  -0.000  -0.004  -0.000   0.002  -0.106   0.001   0.003   0.013   0.003  -0.000  -0.000   0.000  -0.000
 -0.001  -0.002  -0.000   1.918   0.001   0.001   0.001   0.001  -0.073   0.001   0.004  -0.000   0.000   0.000  -0.000  -0.000
 -0.001  -0.002  -0.004   0.001   1.948   0.001   0.000   0.003   0.001  -0.097   0.007   0.002   0.000   0.000   0.000  -0.000
 -0.062   0.000  -0.000   0.001   0.001   0.133  -0.000   0.002  -0.000  -0.000  -0.001   0.001   0.001  -0.000   0.000  -0.000
  0.000  -0.068   0.002   0.001   0.000  -0.000   0.137  -0.002  -0.001   0.001  -0.000   0.002  -0.000  -0.000   0.000   0.000
 -0.000   0.002  -0.106   0.001   0.003   0.002  -0.002   0.110  -0.002  -0.001  -0.008  -0.001   0.000   0.000  -0.000   0.000
  0.001   0.001   0.001  -0.073   0.001  -0.000  -0.001  -0.002   0.142  -0.002   0.000   0.002  -0.000   0.001   0.000   0.000
  0.001   0.000   0.003   0.001  -0.097  -0.000   0.001  -0.001  -0.002   0.106  -0.005  -0.001  -0.000  -0.000   0.001   0.000
  0.004   0.004   0.013   0.004   0.007  -0.001  -0.000  -0.008   0.000  -0.005   1.011  -0.297   0.000  -0.000   0.002  -0.000
 -0.000  -0.000   0.003  -0.000   0.002   0.001   0.002  -0.001   0.002  -0.001  -0.297   0.171   0.000  -0.000  -0.001  -0.000
  0.000   0.000  -0.000   0.000   0.000   0.001  -0.000   0.000  -0.000  -0.000   0.000   0.000   0.115   0.001   0.002  -0.008
  0.000   0.000  -0.000   0.000   0.000  -0.000  -0.000   0.000   0.001  -0.000  -0.000  -0.000   0.001   0.116  -0.000  -0.000
 -0.000  -0.000   0.000  -0.000   0.000   0.000   0.000  -0.000   0.000   0.001   0.002  -0.001   0.002  -0.000   0.115  -0.000
 -0.000  -0.000  -0.000  -0.000  -0.000  -0.000   0.000   0.000   0.000   0.000  -0.000  -0.000  -0.008  -0.000  -0.000   0.001
 -0.000  -0.000   0.000  -0.000   0.000   0.000   0.000  -0.000  -0.000  -0.000   0.000   0.000  -0.000  -0.008  -0.000   0.000
  0.000   0.000   0.000   0.000  -0.000  -0.000  -0.000   0.000  -0.000  -0.000  -0.000   0.000  -0.000  -0.000  -0.008   0.000


------------------------ aborting loop because EDIFF is reached ----------------------------------------




--------------------------------------------------------------------------------------------------------


    CHARGE:  VPU time   47.76: CPU time   47.75
    FORLOC:  VPU time    0.07: CPU time    0.07
    FORNL :  VPU time  444.39: CPU time  444.25
    STRESS:  VPU time  752.65: CPU time  752.44
    FORCOR:  VPU time    0.37: CPU time    0.37
    FORHAR:  VPU time    0.13: CPU time    0.13
    MIXING:  VPU time    0.01: CPU time    0.01


--------------------------------------------------------------------------------------------------------



  FREE ENERGIE OF THE ION-ELECTRON SYSTEM (eV)
  ---------------------------------------------------
  free  energy   TOTEN  =      -102.976731 eV

  energy  without entropy=     -102.975930  energy(sigma->0) =     -102.976331
 

  FORCE on cell =-STRESS in cart. coord.  units (eV/reduce length):
  Direction    X        Y        Z        XY       YZ       ZX
  --------------------------------------------------------------------------------------
  Alpha Z   3019.23   3019.23   3019.23
  Ewald    -9912.86  -9912.82  -9912.82      0.00      0.00      0.00
  Hartree   1424.37   1424.39   1424.39     -0.00     -0.00     -0.00
  E(xc)    -1578.31  -1578.31  -1578.31      0.00     -0.00     -0.00
  Local     2408.98   2408.93   2408.93     -0.00      0.00     -0.00
  n-local  -1657.98  -1663.95  -1652.01      3.31      2.63      1.95
  augment   1376.66   1376.66   1376.66     -0.00     -0.00     -0.00
  Kinetic   4883.42   4877.55   4889.29      0.37     -0.59     -1.56
  -------------------------------------------------------------------------------------
  Total      -36.50    -36.50    -36.50      0.00      0.00      0.00
  in kB      -92.05    -92.05    -92.05      0.00      0.00      0.00
  external pressure =      -92.05 kB  Pullay stress =        0.00 kB


 VOLUME and BASIS-vectors are now :
 -----------------------------------------------------------------------------
  energy-cutoff  :      750.00
  volume of cell :      635.19
      direct lattice vectors                 reciprocal lattice vectors
     8.596074919  0.000000000  0.000000000     0.116332164  0.000000000  0.000000000
     0.000000000  8.596074919  0.000000000     0.000000000  0.116332164  0.000000000
     0.000000000  0.000000000  8.596074919     0.000000000  0.000000000  0.116332164

  length of vectors
     8.596074919  8.596074919  8.596074919     0.116332164  0.116332164  0.116332164


 FORCES acting on ions
    electron-ion (+dipol)            ewald-force                    non-local-force                 convergence-correction
 -----------------------------------------------------------------------------------------------
   0.357E+01 0.339E-13 0.160E-07   -.356E+01 0.120E-13 -.200E-13   -.364E-01 0.542E-19 0.000E+00   -.299E-04 0.808E-13 -.105E-12
   -.930E+00 0.716E-13 -.161E-07   0.940E+00 0.604E-13 0.355E-14   -.613E-02 0.000E+00 0.000E+00   -.224E-05 0.752E-13 -.177E-12
   0.296E+00 -.315E-14 -.102E-11   -.298E+00 0.711E-13 -.355E-14   0.797E-03 -.678E-20 0.000E+00   -.259E-05 -.189E-12 -.640E-13
   -.239E+00 0.127E-11 -.121E-11   0.234E+00 0.391E-13 -.533E-13   0.354E-02 -.136E-19 0.339E-20   0.425E-05 -.178E-12 -.911E-13
   0.296E+00 0.344E-13 0.160E-10   -.298E+00 0.568E-13 -.568E-13   0.797E-03 -.678E-20 0.136E-19   -.226E-05 0.784E-13 0.680E-14
   -.239E+00 0.192E-13 0.171E-10   0.234E+00 0.604E-13 0.533E-13   0.354E-02 0.339E-20 0.136E-19   0.417E-05 0.749E-13 0.500E-13
   0.124E+00 -.320E-14 -.446E-11   -.123E+00 -.355E-14 0.000E+00   -.131E-02 0.678E-20 -.136E-19   -.200E-05 -.189E-12 -.464E-13
   -.115E+00 -.476E-11 -.314E-11   0.115E+00 -.355E-14 0.533E-13   -.385E-03 0.203E-19 -.678E-20   0.392E-06 -.177E-12 -.273E-13
   -.452E+00 -.865E+00 -.206E-11   0.452E+00 0.868E+00 0.320E-13   0.405E-02 0.189E-02 0.136E-19   0.409E-05 0.381E-05 -.137E-12
   -.455E+00 0.858E+00 -.852E-11   0.454E+00 -.861E+00 -.107E-13   0.396E-02 -.180E-02 0.000E+00   0.426E-05 -.306E-05 -.903E-13
   -.452E+00 0.865E+00 -.215E-11   0.452E+00 -.868E+00 -.107E-13   0.405E-02 -.189E-02 0.000E+00   0.409E-05 -.381E-05 -.114E-12
   -.455E+00 -.858E+00 0.375E-11   0.454E+00 0.861E+00 -.675E-13   0.396E-02 0.180E-02 0.000E+00   0.426E-05 0.306E-05 -.781E-13
   -.130E-01 -.715E-01 0.614E-11   0.138E-01 0.713E-01 -.639E-13   -.524E-03 0.112E-03 0.000E+00   -.759E-06 0.204E-05 0.228E-13
   -.143E-01 0.713E-01 0.720E-11   0.151E-01 -.712E-01 0.355E-13   -.528E-03 -.993E-04 0.000E+00   -.103E-05 -.124E-06 -.330E-14
   -.130E-01 0.715E-01 0.623E-11   0.138E-01 -.713E-01 0.391E-13   -.524E-03 -.112E-03 0.169E-20   -.759E-06 -.204E-05 -.447E-14
   -.143E-01 -.713E-01 -.520E-11   0.151E-01 0.712E-01 0.959E-13   -.528E-03 0.993E-04 -.172E-21   -.103E-05 0.124E-06 -.176E-13
   -.452E+00 0.201E-13 -.865E+00   0.452E+00 0.209E-13 0.868E+00   0.405E-02 0.000E+00 0.189E-02   0.402E-05 0.553E-13 0.387E-05
   -.455E+00 0.268E-13 0.858E+00   0.454E+00 0.209E-13 -.861E+00   0.396E-02 -.169E-20 -.180E-02   0.419E-05 0.716E-13 -.313E-05
   -.130E-01 0.689E-12 -.715E-01   0.138E-01 0.360E-13 0.713E-01   -.524E-03 0.000E+00 0.112E-03   -.739E-06 -.172E-12 0.210E-05
   -.143E-01 0.760E-11 0.713E-01   0.151E-01 -.209E-13 -.712E-01   -.528E-03 -.847E-21 -.993E-04   -.101E-05 -.183E-12 -.189E-06
   -.452E+00 0.478E-13 0.865E+00   0.452E+00 0.462E-13 -.868E+00   0.405E-02 -.847E-20 -.189E-02   0.402E-05 0.808E-13 -.387E-05
   -.455E+00 0.365E-13 -.858E+00   0.454E+00 0.462E-13 0.861E+00   0.396E-02 -.339E-20 0.180E-02   0.419E-05 0.845E-13 0.313E-05
   -.130E-01 0.809E-12 0.715E-01   0.138E-01 0.107E-13 -.713E-01   -.524E-03 -.424E-21 -.112E-03   -.739E-06 -.197E-12 -.210E-05
   -.143E-01 -.494E-11 -.713E-01   0.151E-01 0.107E-13 0.712E-01   -.528E-03 0.169E-20 0.993E-04   -.101E-05 -.195E-12 0.189E-06
   0.557E+00 0.204E-02 0.204E-02   -.562E+00 -.205E-02 -.205E-02   0.263E-02 0.864E-05 0.864E-05   -.988E-06 0.870E-06 0.870E-06
   -.314E+00 -.608E-03 -.608E-03   0.316E+00 0.615E-03 0.615E-03   -.717E-03 -.744E-05 -.744E-05   0.200E-05 0.105E-05 0.105E-05
   0.557E+00 -.204E-02 0.204E-02   -.562E+00 0.205E-02 -.205E-02   0.263E-02 -.864E-05 0.864E-05   -.988E-06 -.870E-06 0.870E-06
   -.314E+00 0.608E-03 -.608E-03   0.316E+00 -.615E-03 0.615E-03   -.717E-03 0.744E-05 -.744E-05   0.200E-05 -.105E-05 0.105E-05
   0.557E+00 0.204E-02 -.204E-02   -.562E+00 -.205E-02 0.205E-02   0.263E-02 0.864E-05 -.864E-05   -.988E-06 0.870E-06 -.870E-06
   -.314E+00 -.608E-03 0.608E-03   0.316E+00 0.615E-03 -.615E-03   -.717E-03 -.744E-05 0.744E-05   0.200E-05 0.105E-05 -.105E-05
   0.557E+00 -.204E-02 -.204E-02   -.562E+00 0.205E-02 0.205E-02   0.263E-02 -.864E-05 -.864E-05   -.988E-06 -.870E-06 -.870E-06
   -.314E+00 0.608E-03 0.608E-03   0.316E+00 -.615E-03 -.615E-03   -.717E-03 0.744E-05 0.744E-05   0.200E-05 -.105E-05 -.105E-05
 -----------------------------------------------------------------------------------------------
   -.227E-05 0.370E-11 -.512E-10   0.888E-14 0.914E-13 -.133E-12   0.400E-05 0.202E-18 -.728E-19   -.531E-07 -.437E-12 -.423E-12
 
 
 POSITION                                       TOTAL-FORCE (eV/Angst)
 -----------------------------------------------------------------------------------
      0.01000      0.00000      0.00000        -0.025739      0.000000     -0.000000
      4.29804      0.00000      0.00000         0.003843      0.000000      0.000000
      0.00000      4.29804      0.00000        -0.000550      0.000000     -0.000000
      4.29804      4.29804      0.00000        -0.002037      0.000000      0.000000
      0.00000      0.00000      4.29804        -0.000550      0.000000     -0.000000
      4.29804      0.00000      4.29804        -0.002037     -0.000000      0.000000
      0.00000      4.29804      4.29804         0.000209      0.000000      0.000000
      4.29804      4.29804      4.29804        -0.000139     -0.000000      0.000000
      2.14902      2.14902      0.00000         0.003984      0.005243     -0.000000
      6.44706      2.14902      0.00000         0.003807     -0.005002     -0.000000
      2.14902      6.44706      0.00000         0.003984     -0.005243     -0.000000
      6.44706      6.44706      0.00000         0.003807      0.005002     -0.000000
      2.14902      2.14902      4.29804         0.000248     -0.000006      0.000000
      6.44706      2.14902      4.29804         0.000250      0.000000      0.000000
      2.14902      6.44706      4.29804         0.000248      0.000006     -0.000000
      6.44706      6.44706      4.29804         0.000250     -0.000000      0.000000
      2.14902      0.00000      2.14902         0.003984      0.000000      0.005243
      6.44706      0.00000      2.14902         0.003807      0.000000     -0.005002
      2.14902      4.29804      2.14902         0.000248      0.000000     -0.000006
      6.44706      4.29804      2.14902         0.000250      0.000000      0.000000
      2.14902      0.00000      6.44706         0.003984      0.000000     -0.005243
      6.44706      0.00000      6.44706         0.003807      0.000000      0.005002
      2.14902      4.29804      6.44706         0.000248      0.000000      0.000006
      6.44706      4.29804      6.44706         0.000250      0.000000     -0.000000
      0.00000      2.14902      2.14902        -0.002316      0.000000      0.000000
      4.29804      2.14902      2.14902         0.000778      0.000001      0.000001
      0.00000      6.44706      2.14902        -0.002316     -0.000000      0.000000
      4.29804      6.44706      2.14902         0.000778     -0.000001      0.000001
      0.00000      2.14902      6.44706        -0.002316      0.000000     -0.000000
      4.29804      2.14902      6.44706         0.000778      0.000001     -0.000001
      0.00000      6.44706      6.44706        -0.002316     -0.000000     -0.000000
      4.29804      6.44706      6.44706         0.000778     -0.000001     -0.000001
 -----------------------------------------------------------------------------------
    total drift:                                0.000002      0.000000     -0.000000


--------------------------------------------------------------------------------------------------------



 mean value of Nose-termostat <S>:     1.000 mean value of <T> :     0.000
 mean temperature <T/S>/<1/S>  :     0.000

     LOOP+:  VPU time17393.41: CPU time17390.96
  
  
 General timing and accounting informations for this job:
 ========================================================
  
                  Total CPU time used (sec):    17576.586
                            User time (sec):    16869.635
                          System time (sec):      706.951
                         Elapsed time (sec):    17574.476
  
                   Maximum memory used (kb):     8767224.
                   Average memory used (kb):           0.
  
                          Minor page faults:      1232877
                          Major page faults:           10
                 Voluntary context switches:         1234
