 running on    8 nodes
 distr:  one band on    1 nodes,    8 groups
 vasp.4.6.28 25Jul05 complex 
 POSCAR found :  1 types and   32 ions

 ----------------------------------------------------------------------------- 
|                                                                             |
|  ADVICE TO THIS USER RUNNING 'VASP/VAMP'   (HEAR YOUR MASTER'S VOICE ...):  |
|                                                                             |
|      You have a (more or less) 'large supercell' and for larger cells       |
|      it might be more efficient to use real space projection operators      |
|      So try LREAL= Auto  in the INCAR   file.                               |
|      Mind: If you want to do an extremely accurate calculations keep the    |
|      reciprocal projection scheme          (i.e. LREAL=.FALSE.)             |
|                                                                             |
 ----------------------------------------------------------------------------- 

 LDA part: xc-table for Pade appr. of Perdew
 generate k-points for:   6   6   6
 POSCAR, INCAR and KPOINTS ok, starting setup
 FFT: planning ...           1
 reading WAVECAR
 WARNING: random wavefunctions but no delay for mixing, default for NELMDL
 entering main loop
       N       E                     dE             d eps       ncg     rms          rms(c)
DAV:   1     0.137225054732E+03    0.13723E+03   -0.33650E+04  5760   0.106E+03
DAV:   2    -0.104817720946E+03   -0.24204E+03   -0.22464E+03  6752   0.146E+02
DAV:   3    -0.118175117245E+03   -0.13357E+02   -0.12720E+02  7152   0.275E+01
DAV:   4    -0.118415110034E+03   -0.23999E+00   -0.23805E+00  6688   0.384E+00
DAV:   5    -0.118417805368E+03   -0.26953E-02   -0.26941E-02  6664   0.477E-01    0.557E+00
DAV:   6    -0.117936945752E+03    0.48086E+00   -0.34333E-02  6608   0.575E-01    0.347E+00
DAV:   7    -0.117590316478E+03    0.34663E+00   -0.10814E-01  6184   0.942E-01    0.134E-01
DAV:   8    -0.117590533344E+03   -0.21687E-03   -0.11089E-03  6872   0.132E-01    0.521E-02
DAV:   9    -0.117590570731E+03   -0.37387E-04   -0.64473E-05  6536   0.213E-02    0.484E-03
DAV:  10    -0.117590573904E+03   -0.31733E-05   -0.42237E-06  6800   0.646E-03    0.208E-03
DAV:  11    -0.117590572515E+03    0.13890E-05   -0.26447E-07  6672   0.156E-03    0.829E-04
DAV:  12    -0.117590571926E+03    0.58965E-06   -0.17947E-08  4424   0.448E-04    0.148E-04
DAV:  13    -0.117590571791E+03    0.13527E-06   -0.27970E-09  3720   0.195E-04    0.317E-05
DAV:  14    -0.117590571779E+03    0.11578E-07   -0.46509E-10  3688   0.713E-05    0.981E-06
DAV:  15    -0.117590571780E+03   -0.10186E-08   -0.93097E-11  3560   0.360E-05
   1 F= -.11759057E+03 E0= -.11759000E+03  d E =-.115318E-02
