  36  36   0   0
  0.1746205E+02  0.8820702E-09  0.8820702E-09  0.9299549E-09  0.5000000E-15
  1.000000000000000E-004
  CAR 
 unknown system                          
      8.72047361    -29.30861648  301      5.87001229      1.00000000
    -29.309  0.0000E+00  0.0000E+00
    -29.182  0.0000E+00  0.0000E+00
    -29.055  0.0000E+00  0.0000E+00
    -28.928  0.0000E+00  0.0000E+00
    -28.802  0.0000E+00  0.0000E+00
    -28.675  0.0000E+00  0.0000E+00
    -28.548  0.0000E+00  0.0000E+00
    -28.421  0.0000E+00  0.0000E+00
    -28.295  0.0000E+00  0.0000E+00
    -28.168  0.0000E+00  0.0000E+00
    -28.041  0.0000E+00  0.0000E+00
    -27.914  0.0000E+00  0.0000E+00
    -27.787  0.0000E+00  0.0000E+00
    -27.661  0.0000E+00  0.0000E+00
    -27.534  0.5374E+01  0.6812E+00
    -27.407  0.1460E+03  0.2061E+02
    -27.280  0.1401E+03  0.5493E+02
    -27.154  0.1328E+03  0.8180E+02
    -27.027  0.2909E+03  0.1316E+03
    -26.900  0.3683E+03  0.2049E+03
    -26.773  0.9531E+01  0.2160E+03
    -26.647  0.0000E+00  0.2160E+03
    -26.520  0.0000E+00  0.2160E+03
    -26.393  0.0000E+00  0.2160E+03
    -26.266  0.0000E+00  0.2160E+03
    -26.140  0.0000E+00  0.2160E+03
    -26.013  0.0000E+00  0.2160E+03
    -25.886  0.0000E+00  0.2160E+03
    -25.759  0.0000E+00  0.2160E+03
    -25.632  0.0000E+00  0.2160E+03
    -25.506  0.0000E+00  0.2160E+03
    -25.379  0.0000E+00  0.2160E+03
    -25.252  0.0000E+00  0.2160E+03
    -25.125  0.0000E+00  0.2160E+03
    -24.999  0.0000E+00  0.2160E+03
    -24.872  0.0000E+00  0.2160E+03
    -24.745  0.0000E+00  0.2160E+03
    -24.618  0.0000E+00  0.2160E+03
    -24.492  0.0000E+00  0.2160E+03
    -24.365  0.0000E+00  0.2160E+03
    -24.238  0.0000E+00  0.2160E+03
    -24.111  0.0000E+00  0.2160E+03
    -23.985  0.0000E+00  0.2160E+03
    -23.858  0.0000E+00  0.2160E+03
    -23.731  0.0000E+00  0.2160E+03
    -23.604  0.0000E+00  0.2160E+03
    -23.477  0.0000E+00  0.2160E+03
    -23.351  0.0000E+00  0.2160E+03
    -23.224  0.0000E+00  0.2160E+03
    -23.097  0.0000E+00  0.2160E+03
    -22.970  0.0000E+00  0.2160E+03
    -22.844  0.0000E+00  0.2160E+03
    -22.717  0.0000E+00  0.2160E+03
    -22.590  0.0000E+00  0.2160E+03
    -22.463  0.0000E+00  0.2160E+03
    -22.337  0.0000E+00  0.2160E+03
    -22.210  0.0000E+00  0.2160E+03
    -22.083  0.0000E+00  0.2160E+03
    -21.956  0.0000E+00  0.2160E+03
    -21.830  0.0000E+00  0.2160E+03
    -21.703  0.0000E+00  0.2160E+03
    -21.576  0.0000E+00  0.2160E+03
    -21.449  0.0000E+00  0.2160E+03
    -21.323  0.0000E+00  0.2160E+03
    -21.196  0.0000E+00  0.2160E+03
    -21.069  0.0000E+00  0.2160E+03
    -20.942  0.0000E+00  0.2160E+03
    -20.815  0.0000E+00  0.2160E+03
    -20.689  0.0000E+00  0.2160E+03
    -20.562  0.0000E+00  0.2160E+03
    -20.435  0.0000E+00  0.2160E+03
    -20.308  0.0000E+00  0.2160E+03
    -20.182  0.0000E+00  0.2160E+03
    -20.055  0.0000E+00  0.2160E+03
    -19.928  0.0000E+00  0.2160E+03
    -19.801  0.0000E+00  0.2160E+03
    -19.675  0.0000E+00  0.2160E+03
    -19.548  0.0000E+00  0.2160E+03
    -19.421  0.0000E+00  0.2160E+03
    -19.294  0.0000E+00  0.2160E+03
    -19.168  0.0000E+00  0.2160E+03
    -19.041  0.0000E+00  0.2160E+03
    -18.914  0.0000E+00  0.2160E+03
    -18.787  0.0000E+00  0.2160E+03
    -18.660  0.0000E+00  0.2160E+03
    -18.534  0.0000E+00  0.2160E+03
    -18.407  0.0000E+00  0.2160E+03
    -18.280  0.0000E+00  0.2160E+03
    -18.153  0.0000E+00  0.2160E+03
    -18.027  0.0000E+00  0.2160E+03
    -17.900  0.0000E+00  0.2160E+03
    -17.773  0.0000E+00  0.2160E+03
    -17.646  0.0000E+00  0.2160E+03
    -17.520  0.0000E+00  0.2160E+03
    -17.393  0.0000E+00  0.2160E+03
    -17.266  0.0000E+00  0.2160E+03
    -17.139  0.0000E+00  0.2160E+03
    -17.013  0.0000E+00  0.2160E+03
    -16.886  0.0000E+00  0.2160E+03
    -16.759  0.0000E+00  0.2160E+03
    -16.632  0.0000E+00  0.2160E+03
    -16.505  0.0000E+00  0.2160E+03
    -16.379  0.0000E+00  0.2160E+03
    -16.252  0.0000E+00  0.2160E+03
    -16.125  0.0000E+00  0.2160E+03
    -15.998  0.0000E+00  0.2160E+03
    -15.872  0.0000E+00  0.2160E+03
    -15.745  0.0000E+00  0.2160E+03
    -15.618  0.0000E+00  0.2160E+03
    -15.491  0.0000E+00  0.2160E+03
    -15.365  0.0000E+00  0.2160E+03
    -15.238  0.0000E+00  0.2160E+03
    -15.111  0.0000E+00  0.2160E+03
    -14.984  0.0000E+00  0.2160E+03
    -14.858  0.0000E+00  0.2160E+03
    -14.731  0.0000E+00  0.2160E+03
    -14.604  0.0000E+00  0.2160E+03
    -14.477  0.0000E+00  0.2160E+03
    -14.351  0.0000E+00  0.2160E+03
    -14.224  0.0000E+00  0.2160E+03
    -14.097  0.0000E+00  0.2160E+03
    -13.970  0.0000E+00  0.2160E+03
    -13.843  0.0000E+00  0.2160E+03
    -13.717  0.0000E+00  0.2160E+03
    -13.590  0.0000E+00  0.2160E+03
    -13.463  0.0000E+00  0.2160E+03
    -13.336  0.0000E+00  0.2160E+03
    -13.210  0.0000E+00  0.2160E+03
    -13.083  0.0000E+00  0.2160E+03
    -12.956  0.0000E+00  0.2160E+03
    -12.829  0.0000E+00  0.2160E+03
    -12.703  0.0000E+00  0.2160E+03
    -12.576  0.0000E+00  0.2160E+03
    -12.449  0.0000E+00  0.2160E+03
    -12.322  0.0000E+00  0.2160E+03
    -12.196  0.0000E+00  0.2160E+03
    -12.069  0.0000E+00  0.2160E+03
    -11.942  0.0000E+00  0.2160E+03
    -11.815  0.0000E+00  0.2160E+03
    -11.688  0.0000E+00  0.2160E+03
    -11.562  0.0000E+00  0.2160E+03
    -11.435  0.0000E+00  0.2160E+03
    -11.308  0.0000E+00  0.2160E+03
    -11.181  0.0000E+00  0.2160E+03
    -11.055  0.0000E+00  0.2160E+03
    -10.928  0.0000E+00  0.2160E+03
    -10.801  0.0000E+00  0.2160E+03
    -10.674  0.0000E+00  0.2160E+03
    -10.548  0.0000E+00  0.2160E+03
    -10.421  0.0000E+00  0.2160E+03
    -10.294  0.0000E+00  0.2160E+03
    -10.167  0.0000E+00  0.2160E+03
    -10.041  0.0000E+00  0.2160E+03
     -9.914  0.0000E+00  0.2160E+03
     -9.787  0.0000E+00  0.2160E+03
     -9.660  0.0000E+00  0.2160E+03
     -9.533  0.0000E+00  0.2160E+03
     -9.407  0.0000E+00  0.2160E+03
     -9.280  0.0000E+00  0.2160E+03
     -9.153  0.0000E+00  0.2160E+03
     -9.026  0.0000E+00  0.2160E+03
     -8.900  0.0000E+00  0.2160E+03
     -8.773  0.0000E+00  0.2160E+03
     -8.646  0.0000E+00  0.2160E+03
     -8.519  0.0000E+00  0.2160E+03
     -8.393  0.0000E+00  0.2160E+03
     -8.266  0.0000E+00  0.2160E+03
     -8.139  0.0000E+00  0.2160E+03
     -8.012  0.0000E+00  0.2160E+03
     -7.886  0.0000E+00  0.2160E+03
     -7.759  0.0000E+00  0.2160E+03
     -7.632  0.0000E+00  0.2160E+03
     -7.505  0.0000E+00  0.2160E+03
     -7.379  0.0000E+00  0.2160E+03
     -7.252  0.0000E+00  0.2160E+03
     -7.125  0.0000E+00  0.2160E+03
     -6.998  0.0000E+00  0.2160E+03
     -6.871  0.0000E+00  0.2160E+03
     -6.745  0.0000E+00  0.2160E+03
     -6.618  0.0000E+00  0.2160E+03
     -6.491  0.0000E+00  0.2160E+03
     -6.364  0.0000E+00  0.2160E+03
     -6.238  0.0000E+00  0.2160E+03
     -6.111  0.0000E+00  0.2160E+03
     -5.984  0.0000E+00  0.2160E+03
     -5.857  0.0000E+00  0.2160E+03
     -5.731  0.0000E+00  0.2160E+03
     -5.604  0.0000E+00  0.2160E+03
     -5.477  0.0000E+00  0.2160E+03
     -5.350  0.0000E+00  0.2160E+03
     -5.224  0.0000E+00  0.2160E+03
     -5.097  0.0000E+00  0.2160E+03
     -4.970  0.0000E+00  0.2160E+03
     -4.843  0.0000E+00  0.2160E+03
     -4.716  0.0000E+00  0.2160E+03
     -4.590  0.0000E+00  0.2160E+03
     -4.463  0.0000E+00  0.2160E+03
     -4.336  0.0000E+00  0.2160E+03
     -4.209  0.0000E+00  0.2160E+03
     -4.083  0.0000E+00  0.2160E+03
     -3.956  0.0000E+00  0.2160E+03
     -3.829  0.0000E+00  0.2160E+03
     -3.702  0.0000E+00  0.2160E+03
     -3.576  0.0000E+00  0.2160E+03
     -3.449  0.0000E+00  0.2160E+03
     -3.322  0.0000E+00  0.2160E+03
     -3.195  0.0000E+00  0.2160E+03
     -3.069  0.0000E+00  0.2160E+03
     -2.942  0.0000E+00  0.2160E+03
     -2.815  0.0000E+00  0.2160E+03
     -2.688  0.0000E+00  0.2160E+03
     -2.561  0.0000E+00  0.2160E+03
     -2.435  0.0000E+00  0.2160E+03
     -2.308  0.0000E+00  0.2160E+03
     -2.181  0.0000E+00  0.2160E+03
     -2.054  0.0000E+00  0.2160E+03
     -1.928  0.0000E+00  0.2160E+03
     -1.801  0.0000E+00  0.2160E+03
     -1.674  0.0000E+00  0.2160E+03
     -1.547  0.0000E+00  0.2160E+03
     -1.421  0.0000E+00  0.2160E+03
     -1.294  0.0000E+00  0.2160E+03
     -1.167  0.0000E+00  0.2160E+03
     -1.040  0.0000E+00  0.2160E+03
     -0.914  0.0000E+00  0.2160E+03
     -0.787  0.0000E+00  0.2160E+03
     -0.660  0.0000E+00  0.2160E+03
     -0.533  0.0000E+00  0.2160E+03
     -0.407  0.0000E+00  0.2160E+03
     -0.280  0.1228E-01  0.2160E+03
     -0.153  0.5152E+00  0.2161E+03
     -0.026  0.4909E+00  0.2162E+03
      0.101  0.9025E+00  0.2165E+03
      0.227  0.8054E+00  0.2167E+03
      0.354  0.1263E+01  0.2171E+03
      0.481  0.1283E+01  0.2174E+03
      0.608  0.2927E+01  0.2180E+03
      0.734  0.1159E+01  0.2183E+03
      0.861  0.2584E+01  0.2188E+03
      0.988  0.3672E+01  0.2195E+03
      1.115  0.1808E+01  0.2198E+03
      1.241  0.3212E+01  0.2206E+03
      1.368  0.3539E+01  0.2213E+03
      1.495  0.3565E+01  0.2219E+03
      1.622  0.6139E+01  0.2228E+03
      1.748  0.2567E+01  0.2235E+03
      1.875  0.3378E+01  0.2242E+03
      2.002  0.5426E+01  0.2253E+03
      2.129  0.3348E+01  0.2264E+03
      2.256  0.6028E+01  0.2272E+03
      2.382  0.8803E+01  0.2286E+03
      2.509  0.6234E+01  0.2299E+03
      2.636  0.5509E+01  0.2312E+03
      2.763  0.8343E+01  0.2326E+03
      2.889  0.8451E+01  0.2345E+03
      3.016  0.1074E+02  0.2364E+03
      3.143  0.1577E+02  0.2396E+03
      3.270  0.1491E+02  0.2420E+03
      3.396  0.3346E+02  0.2479E+03
      3.523  0.2021E+02  0.2514E+03
      3.650  0.1607E+02  0.2553E+03
      3.777  0.2497E+02  0.2602E+03
      3.903  0.2687E+02  0.2659E+03
      4.030  0.3524E+02  0.2715E+03
      4.157  0.2799E+02  0.2772E+03
      4.284  0.4147E+02  0.2855E+03
      4.411  0.2110E+02  0.2906E+03
      4.537  0.2895E+02  0.2957E+03
      4.664  0.2505E+02  0.3006E+03
      4.791  0.3519E+02  0.3071E+03
      4.918  0.3253E+02  0.3133E+03
      5.044  0.4642E+02  0.3216E+03
      5.171  0.4396E+02  0.3298E+03
      5.298  0.4933E+02  0.3394E+03
      5.425  0.3092E+02  0.3463E+03
      5.551  0.1170E+02  0.3502E+03
      5.678  0.2093E+02  0.3544E+03
      5.805  0.1138E+02  0.3571E+03
      5.932  0.2285E+02  0.3620E+03
      6.058  0.4413E+02  0.3695E+03
      6.185  0.5098E+02  0.3799E+03
      6.312  0.5826E+02  0.3903E+03
      6.439  0.4218E+02  0.3989E+03
      6.565  0.4923E+02  0.4086E+03
      6.692  0.6232E+02  0.4202E+03
      6.819  0.4173E+02  0.4290E+03
      6.946  0.4414E+01  0.4318E+03
      7.073  0.0000E+00  0.4320E+03
      7.199  0.0000E+00  0.4320E+03
      7.326  0.0000E+00  0.4320E+03
      7.453  0.0000E+00  0.4320E+03
      7.580  0.0000E+00  0.4320E+03
      7.706  0.0000E+00  0.4320E+03
      7.833  0.0000E+00  0.4320E+03
      7.960  0.0000E+00  0.4320E+03
      8.087  0.0000E+00  0.4320E+03
      8.213  0.0000E+00  0.4320E+03
      8.340  0.0000E+00  0.4320E+03
      8.467  0.0000E+00  0.4320E+03
      8.594  0.0000E+00  0.4320E+03
      8.720  0.0000E+00  0.4320E+03
