   36   36    1    1
  0.1746205E+02  0.8820702E-09  0.8820702E-09  0.9299549E-09  0.5000000E-15
  1.000000000000000E-004
  CAR 
 unknown system                          
  360  123  216
 
  0.0000000E+00  0.0000000E+00  0.0000000E+00  0.4081633E-02
   1      -27.5800
   2      -27.3900
   3      -27.3899
   4      -27.3899
   5      -27.3897
   6      -27.3840
   7      -27.3837
   8      -27.3836
   9      -27.3835
  10      -27.3835
  11      -27.3834
  12      -27.3833
  13      -27.3833
  14      -27.3833
  15      -27.3833
  16      -27.3830
  17      -27.3830
  18      -27.3830
  19      -27.3826
  20      -27.3808
  21      -27.3807
  22      -27.3806
  23      -27.3804
  24      -27.3133
  25      -27.3129
  26      -27.2841
  27      -27.2839
  28      -27.2827
  29      -27.2825
  30      -27.2824
  31      -27.2823
  32      -27.2395
  33      -27.2388
  34      -27.2051
  35      -27.2048
  36      -27.2033
  37      -27.2030
  38      -27.2010
  39      -27.2006
  40      -27.2005
  41      -27.2002
  42      -27.1737
  43      -27.1736
  44      -27.1734
  45      -27.1734
  46      -27.1732
  47      -27.1731
  48      -27.1620
  49      -27.1615
  50      -27.1574
  51      -27.1571
  52      -27.0859
  53      -27.0855
  54      -27.0525
  55      -27.0524
  56      -27.0427
  57      -27.0426
  58      -27.0425
  59      -27.0424
  60      -27.0304
  61      -27.0302
  62      -27.0300
  63      -27.0298
  64      -27.0283
  65      -27.0280
  66      -27.0280
  67      -27.0278
  68      -27.0278
  69      -27.0278
  70      -27.0274
  71      -27.0272
  72      -26.9852
  73      -26.9847
  74      -26.9847
  75      -26.9843
  76      -26.9816
  77      -26.9812
  78      -26.9739
  79      -26.9737
  80      -26.9736
  81      -26.9734
  82      -26.9689
  83      -26.9688
  84      -26.9688
  85      -26.9687
  86      -26.9657
  87      -26.9654
  88      -26.9653
  89      -26.9653
  90      -26.9652
  91      -26.9651
  92      -26.9650
  93      -26.9650
  94      -26.9442
  95      -26.9352
  96      -26.8939
  97      -26.8937
  98      -26.8927
  99      -26.8926
 100      -26.8872
 101      -26.8871
 102      -26.8871
 103      -26.8868
 104      -26.8863
 105      -26.8861
 106      -26.8812
 107      -26.8408
 108      -26.8370
 109       -0.2736
 110        1.5790
 111        1.5793
 112        2.2740
 113        2.2743
 114        2.2744
 115        2.2747
 116        2.2909
 117        2.2912
 118        3.1674
 119        3.1676
 120        3.1678
 121        3.1679
 122        3.1680
 123        3.1681
 124        3.1683
 125        3.1687
 126        3.1817
 127        3.1819
 128        3.1819
 129        3.1825
 130        3.2091
 131        4.1431
 132        4.1437
 133        4.1507
 134        4.1511
 135        4.1512
 136        4.1518
 137        4.1869
 138        4.1885
 139        4.4395
 140        4.4406
 141        4.4628
 142        4.4630
 143        4.4631
 144        4.4644
 145        4.4708
 146        4.4710
 147        4.4826
 148        4.4828
 149        4.5798
 150        4.5799
 151        4.6295
 152        4.6305
 153        4.6312
 154        4.6322
 155        4.7979
 156        4.7992
 157        4.7992
 158        4.8005
 159        5.1931
 160        5.1950
 161        5.1951
 162        5.1956
 163        5.1957
 164        5.1957
 165        5.1960
 166        5.1971
 167        5.1975
 168        5.1985
 169        5.1988
 170        5.1999
 171        5.2475
 172        5.2485
 173        5.2486
 174        5.2493
 175        5.2756
 176        5.2771
 177        5.6489
 178        5.6491
 179        5.6491
 180        5.6493
 181        5.9556
 182        5.9583
 183        6.0631
 184        6.0642
 185        6.1168
 186        6.1184
 187        6.4329
 188        6.4340
 189        6.4343
 190        6.4349
 191        6.4351
 192        6.4353
 193        6.4358
 194        6.4362
 195        6.4740
 196        6.4749
 197        6.4754
 198        6.4766
 199        6.4949
 200        6.4951
 201        6.5105
 202        6.5113
 203        6.5556
 204        6.5557
 205        6.5628
 206        6.5630
 207        6.5634
 208        6.5642
 209        6.5802
 210        6.6615
 211        6.6622
 212        6.6638
 213        6.6662
 214        6.6711
 215        6.6751
 216        6.6763
 
  0.1428571E+00 -0.1387779E-16  0.0000000E+00  0.8163265E-02
   1      -27.5751
   2      -27.4267
   3      -27.4219
   4      -27.4218
   5      -27.4025
   6      -27.4021
   7      -27.4020
   8      -27.4019
   9      -27.3999
  10      -27.3998
  11      -27.3956
  12      -27.3955
  13      -27.3954
  14      -27.3953
  15      -27.3628
  16      -27.3627
  17      -27.3599
  18      -27.3598
  19      -27.3594
  20      -27.3586
  21      -27.3419
  22      -27.3417
  23      -27.3404
  24      -27.3360
  25      -27.3204
  26      -27.3173
  27      -27.3110
  28      -27.3081
  29      -27.2513
  30      -27.2511
  31      -27.2408
  32      -27.2402
  33      -27.2219
  34      -27.2189
  35      -27.2171
  36      -27.2138
  37      -27.2009
  38      -27.1993
  39      -27.1959
  40      -27.1926
  41      -27.1902
  42      -27.1900
  43      -27.1899
  44      -27.1895
  45      -27.1879
  46      -27.1876
  47      -27.1512
  48      -27.1502
  49      -27.1283
  50      -27.1241
  51      -27.1148
  52      -27.0706
  53      -27.0702
  54      -27.0634
  55      -27.0579
  56      -27.0544
  57      -27.0433
  58      -27.0384
  59      -27.0382
  60      -27.0349
  61      -27.0347
  62      -27.0342
  63      -27.0319
  64      -27.0317
  65      -27.0299
  66      -27.0297
  67      -27.0280
  68      -27.0278
  69      -27.0240
  70      -27.0187
  71      -27.0186
  72      -27.0126
  73      -27.0005
  74      -26.9966
  75      -26.9793
  76      -26.9791
  77      -26.9772
  78      -26.9770
  79      -26.9725
  80      -26.9719
  81      -26.9717
  82      -26.9701
  83      -26.9697
  84      -26.9697
  85      -26.9692
  86      -26.9692
  87      -26.9669
  88      -26.9667
  89      -26.9596
  90      -26.9594
  91      -26.9583
  92      -26.9530
  93      -26.9512
  94      -26.9510
  95      -26.9397
  96      -26.9044
  97      -26.8991
  98      -26.8989
  99      -26.8979
 100      -26.8955
 101      -26.8941
 102      -26.8895
 103      -26.8893
 104      -26.8880
 105      -26.8834
 106      -26.8772
 107      -26.8506
 108      -26.8391
 109       -0.2102
 110        1.6329
 111        1.6331
 112        1.7187
 113        2.0410
 114        2.0541
 115        2.5772
 116        2.5961
 117        2.7911
 118        2.9601
 119        2.9603
 120        3.1093
 121        3.1095
 122        3.1213
 123        3.1215
 124        3.2591
 125        3.2697
 126        3.2700
 127        3.2821
 128        3.2824
 129        3.2839
 130        3.2842
 131        4.0349
 132        4.1198
 133        4.1283
 134        4.1808
 135        4.1892
 136        4.1903
 137        4.2119
 138        4.2201
 139        4.2608
 140        4.3220
 141        4.3317
 142        4.3327
 143        4.3574
 144        4.3946
 145        4.3953
 146        4.3968
 147        4.3975
 148        4.4839
 149        4.5132
 150        4.5620
 151        4.5807
 152        4.6109
 153        4.6328
 154        4.7279
 155        5.0281
 156        5.0289
 157        5.0357
 158        5.0365
 159        5.1364
 160        5.1375
 161        5.1760
 162        5.1769
 163        5.1775
 164        5.1780
 165        5.1963
 166        5.2132
 167        5.2209
 168        5.2377
 169        5.2388
 170        5.2401
 171        5.2414
 172        5.2422
 173        5.2668
 174        5.2679
 175        5.2687
 176        5.3246
 177        5.6373
 178        5.6375
 179        5.6405
 180        5.6408
 181        5.9081
 182        5.9106
 183        6.0128
 184        6.0577
 185        6.1651
 186        6.2132
 187        6.2903
 188        6.2909
 189        6.2933
 190        6.2938
 191        6.3261
 192        6.3266
 193        6.4005
 194        6.4383
 195        6.4544
 196        6.4562
 197        6.4688
 198        6.4694
 199        6.4985
 200        6.4986
 201        6.5093
 202        6.5102
 203        6.5111
 204        6.5328
 205        6.5334
 206        6.5724
 207        6.5795
 208        6.5827
 209        6.5829
 210        6.6051
 211        6.6491
 212        6.6647
 213        6.6915
 214        6.6920
 215        6.7011
 216        6.7094
 
  0.2857143E+00  0.0000000E+00  0.0000000E+00  0.8163265E-02
   1      -27.5607
   2      -27.4686
   3      -27.4509
   4      -27.4508
   5      -27.4156
   6      -27.4154
   7      -27.4150
   8      -27.4149
   9      -27.4136
  10      -27.4135
  11      -27.4074
  12      -27.4073
  13      -27.4072
  14      -27.4071
  15      -27.3745
  16      -27.3445
  17      -27.3443
  18      -27.3422
  19      -27.3420
  20      -27.3320
  21      -27.3311
  22      -27.3301
  23      -27.3298
  24      -27.3273
  25      -27.3259
  26      -27.3042
  27      -27.3037
  28      -27.3034
  29      -27.2564
  30      -27.2457
  31      -27.2451
  32      -27.2320
  33      -27.2310
  34      -27.2282
  35      -27.2276
  36      -27.2240
  37      -27.2208
  38      -27.2173
  39      -27.2159
  40      -27.1640
  41      -27.1630
  42      -27.1618
  43      -27.1615
  44      -27.1578
  45      -27.1575
  46      -27.1510
  47      -27.1439
  48      -27.1434
  49      -27.0972
  50      -27.0927
  51      -27.0807
  52      -27.0734
  53      -27.0688
  54      -27.0587
  55      -27.0585
  56      -27.0535
  57      -27.0534
  58      -27.0505
  59      -27.0384
  60      -27.0361
  61      -27.0349
  62      -27.0332
  63      -27.0330
  64      -27.0322
  65      -27.0320
  66      -27.0307
  67      -27.0305
  68      -27.0284
  69      -27.0229
  70      -27.0199
  71      -27.0156
  72      -27.0039
  73      -27.0018
  74      -27.0017
  75      -26.9858
  76      -26.9855
  77      -26.9812
  78      -26.9804
  79      -26.9802
  80      -26.9753
  81      -26.9752
  82      -26.9718
  83      -26.9718
  84      -26.9707
  85      -26.9707
  86      -26.9642
  87      -26.9626
  88      -26.9617
  89      -26.9616
  90      -26.9569
  91      -26.9568
  92      -26.9501
  93      -26.9359
  94      -26.9357
  95      -26.9350
  96      -26.9264
  97      -26.9207
  98      -26.9184
  99      -26.9183
 100      -26.9030
 101      -26.9016
 102      -26.8984
 103      -26.8968
 104      -26.8966
 105      -26.8898
 106      -26.8808
 107      -26.8670
 108      -26.8429
 109       -0.0226
 110        1.1765
 111        1.7899
 112        1.7902
 113        1.8839
 114        1.8923
 115        2.6692
 116        2.6693
 117        2.9368
 118        2.9566
 119        3.0840
 120        3.0842
 121        3.0921
 122        3.0922
 123        3.2121
 124        3.3297
 125        3.3300
 126        3.4028
 127        3.4185
 128        3.4188
 129        3.4313
 130        3.4316
 131        3.8990
 132        4.0736
 133        4.0889
 134        4.0897
 135        4.1096
 136        4.1101
 137        4.1119
 138        4.1123
 139        4.1236
 140        4.1412
 141        4.1524
 142        4.1733
 143        4.1891
 144        4.2498
 145        4.2760
 146        4.3101
 147        4.3185
 148        4.3845
 149        4.4107
 150        4.6749
 151        4.6873
 152        4.7259
 153        4.7443
 154        5.0478
 155        5.0914
 156        5.0925
 157        5.0995
 158        5.1208
 159        5.1767
 160        5.1894
 161        5.1905
 162        5.1938
 163        5.1947
 164        5.2002
 165        5.2067
 166        5.2591
 167        5.2601
 168        5.2607
 169        5.2613
 170        5.2841
 171        5.2852
 172        5.2867
 173        5.2875
 174        5.3619
 175        5.3632
 176        5.4755
 177        5.6646
 178        5.6650
 179        5.6714
 180        5.6718
 181        5.7886
 182        5.7908
 183        6.0098
 184        6.0508
 185        6.1431
 186        6.1436
 187        6.1652
 188        6.1657
 189        6.2078
 190        6.2294
 191        6.2622
 192        6.2731
 193        6.2735
 194        6.2919
 195        6.2939
 196        6.3386
 197        6.3520
 198        6.3525
 199        6.3787
 200        6.3886
 201        6.3892
 202        6.4445
 203        6.4535
 204        6.4784
 205        6.4785
 206        6.5126
 207        6.5798
 208        6.5886
 209        6.6129
 210        6.6315
 211        6.6696
 212        6.6759
 213        6.6760
 214        6.8247
 215        6.8356
 216        6.8816
 
  0.4285714E+00 -0.5551115E-16  0.0000000E+00  0.8163265E-02
   1      -27.5373
   2      -27.5061
   3      -27.4664
   4      -27.4664
   5      -27.4223
   6      -27.4221
   7      -27.4203
   8      -27.4202
   9      -27.4195
  10      -27.4195
  11      -27.4172
  12      -27.4171
  13      -27.4168
  14      -27.4168
  15      -27.3946
  16      -27.3398
  17      -27.3396
  18      -27.3346
  19      -27.3345
  20      -27.3332
  21      -27.3330
  22      -27.3323
  23      -27.3321
  24      -27.2996
  25      -27.2979
  26      -27.2818
  27      -27.2746
  28      -27.2743
  29      -27.2742
  30      -27.2659
  31      -27.2636
  32      -27.2560
  33      -27.2555
  34      -27.2403
  35      -27.2378
  36      -27.2357
  37      -27.2336
  38      -27.1850
  39      -27.1830
  40      -27.1570
  41      -27.1552
  42      -27.1339
  43      -27.1308
  44      -27.1256
  45      -27.1254
  46      -27.1203
  47      -27.1201
  48      -27.1049
  49      -27.0996
  50      -27.0893
  51      -27.0892
  52      -27.0849
  53      -27.0835
  54      -27.0834
  55      -27.0745
  56      -27.0685
  57      -27.0639
  58      -27.0551
  59      -27.0426
  60      -27.0381
  61      -27.0339
  62      -27.0338
  63      -27.0334
  64      -27.0332
  65      -27.0330
  66      -27.0329
  67      -27.0266
  68      -27.0120
  69      -27.0105
  70      -26.9961
  71      -26.9933
  72      -26.9902
  73      -26.9900
  74      -26.9863
  75      -26.9836
  76      -26.9782
  77      -26.9781
  78      -26.9766
  79      -26.9766
  80      -26.9751
  81      -26.9749
  82      -26.9748
  83      -26.9746
  84      -26.9729
  85      -26.9728
  86      -26.9652
  87      -26.9597
  88      -26.9592
  89      -26.9586
  90      -26.9584
  91      -26.9579
  92      -26.9568
  93      -26.9567
  94      -26.9536
  95      -26.9466
  96      -26.9465
  97      -26.9276
  98      -26.9209
  99      -26.9207
 100      -26.9157
 101      -26.9127
 102      -26.9108
 103      -26.9075
 104      -26.9073
 105      -26.9048
 106      -26.9006
 107      -26.8573
 108      -26.8491
 109        0.2812
 110        0.6877
 111        1.8063
 112        1.8092
 113        2.0355
 114        2.0357
 115        2.3426
 116        2.3428
 117        3.0781
 118        3.0782
 119        3.0810
 120        3.0811
 121        3.3317
 122        3.3440
 123        3.3444
 124        3.3510
 125        3.4952
 126        3.6121
 127        3.6124
 128        3.6201
 129        3.6221
 130        3.6225
 131        3.7271
 132        3.7451
 133        3.7647
 134        3.8449
 135        3.8453
 136        3.8513
 137        3.8516
 138        3.8713
 139        4.0543
 140        4.1755
 141        4.1968
 142        4.1984
 143        4.1997
 144        4.2152
 145        4.2233
 146        4.2840
 147        4.3050
 148        4.3956
 149        4.4000
 150        4.7472
 151        4.7516
 152        4.8503
 153        4.8682
 154        4.9785
 155        4.9974
 156        5.0667
 157        5.0679
 158        5.1100
 159        5.1199
 160        5.2157
 161        5.2352
 162        5.2361
 163        5.2438
 164        5.2448
 165        5.2893
 166        5.2904
 167        5.2996
 168        5.3006
 169        5.3123
 170        5.3134
 171        5.3141
 172        5.3147
 173        5.4143
 174        5.4884
 175        5.4900
 176        5.6379
 177        5.6398
 178        5.7035
 179        5.8116
 180        5.8576
 181        5.8579
 182        5.8801
 183        5.8804
 184        5.9684
 185        6.0545
 186        6.0581
 187        6.0585
 188        6.0663
 189        6.0667
 190        6.0908
 191        6.1253
 192        6.1257
 193        6.1417
 194        6.1554
 195        6.1558
 196        6.1741
 197        6.3348
 198        6.3351
 199        6.3401
 200        6.3929
 201        6.3955
 202        6.4176
 203        6.4178
 204        6.4285
 205        6.4715
 206        6.4782
 207        6.5491
 208        6.5829
 209        6.5886
 210        6.5958
 211        6.6923
 212        6.8276
 213        6.8278
 214        6.8329
 215        6.9477
 216        6.9919
 
  0.0000000E+00  0.1428571E+00  0.0000000E+00  0.8163265E-02
   1      -27.5751
   2      -27.4268
   3      -27.4218
   4      -27.4217
   5      -27.4025
   6      -27.4022
   7      -27.4020
   8      -27.4019
   9      -27.3999
  10      -27.3998
  11      -27.3957
  12      -27.3956
  13      -27.3954
  14      -27.3953
  15      -27.3629
  16      -27.3627
  17      -27.3599
  18      -27.3598
  19      -27.3594
  20      -27.3585
  21      -27.3418
  22      -27.3416
  23      -27.3405
  24      -27.3360
  25      -27.3204
  26      -27.3173
  27      -27.3110
  28      -27.3081
  29      -27.2514
  30      -27.2510
  31      -27.2408
  32      -27.2402
  33      -27.2219
  34      -27.2189
  35      -27.2171
  36      -27.2138
  37      -27.2009
  38      -27.1993
  39      -27.1960
  40      -27.1925
  41      -27.1903
  42      -27.1900
  43      -27.1899
  44      -27.1895
  45      -27.1879
  46      -27.1876
  47      -27.1512
  48      -27.1501
  49      -27.1284
  50      -27.1240
  51      -27.1148
  52      -27.0706
  53      -27.0702
  54      -27.0634
  55      -27.0579
  56      -27.0544
  57      -27.0432
  58      -27.0384
  59      -27.0382
  60      -27.0348
  61      -27.0347
  62      -27.0342
  63      -27.0319
  64      -27.0318
  65      -27.0299
  66      -27.0297
  67      -27.0279
  68      -27.0278
  69      -27.0241
  70      -27.0187
  71      -27.0186
  72      -27.0125
  73      -27.0006
  74      -26.9966
  75      -26.9793
  76      -26.9791
  77      -26.9772
  78      -26.9770
  79      -26.9726
  80      -26.9719
  81      -26.9717
  82      -26.9702
  83      -26.9697
  84      -26.9696
  85      -26.9692
  86      -26.9692
  87      -26.9669
  88      -26.9667
  89      -26.9596
  90      -26.9594
  91      -26.9582
  92      -26.9530
  93      -26.9512
  94      -26.9510
  95      -26.9397
  96      -26.9044
  97      -26.8991
  98      -26.8989
  99      -26.8979
 100      -26.8955
 101      -26.8941
 102      -26.8895
 103      -26.8893
 104      -26.8880
 105      -26.8834
 106      -26.8772
 107      -26.8506
 108      -26.8390
 109       -0.2102
 110        1.6329
 111        1.6331
 112        1.7187
 113        2.0410
 114        2.0541
 115        2.5772
 116        2.5961
 117        2.7910
 118        2.9601
 119        2.9603
 120        3.1093
 121        3.1095
 122        3.1213
 123        3.1215
 124        3.2590
 125        3.2696
 126        3.2699
 127        3.2821
 128        3.2825
 129        3.2840
 130        3.2842
 131        4.0347
 132        4.1198
 133        4.1285
 134        4.1807
 135        4.1892
 136        4.1901
 137        4.2118
 138        4.2203
 139        4.2604
 140        4.3220
 141        4.3317
 142        4.3327
 143        4.3578
 144        4.3944
 145        4.3952
 146        4.3968
 147        4.3977
 148        4.4839
 149        4.5132
 150        4.5621
 151        4.5811
 152        4.6109
 153        4.6328
 154        4.7275
 155        5.0281
 156        5.0289
 157        5.0359
 158        5.0367
 159        5.1362
 160        5.1373
 161        5.1761
 162        5.1772
 163        5.1773
 164        5.1783
 165        5.1962
 166        5.2133
 167        5.2209
 168        5.2378
 169        5.2388
 170        5.2398
 171        5.2415
 172        5.2423
 173        5.2668
 174        5.2677
 175        5.2687
 176        5.3247
 177        5.6372
 178        5.6374
 179        5.6405
 180        5.6408
 181        5.9081
 182        5.9106
 183        6.0128
 184        6.0580
 185        6.1647
 186        6.2133
 187        6.2906
 188        6.2911
 189        6.2930
 190        6.2935
 191        6.3261
 192        6.3266
 193        6.4006
 194        6.4383
 195        6.4542
 196        6.4563
 197        6.4685
 198        6.4691
 199        6.4985
 200        6.4986
 201        6.5092
 202        6.5102
 203        6.5110
 204        6.5327
 205        6.5331
 206        6.5726
 207        6.5804
 208        6.5828
 209        6.5829
 210        6.6049
 211        6.6490
 212        6.6629
 213        6.6916
 214        6.6924
 215        6.6974
 216        6.7071
 
  0.1428571E+00  0.1428571E+00  0.0000000E+00  0.8163265E-02
   1      -27.5655
   2      -27.4452
   3      -27.4451
   4      -27.4355
   5      -27.4354
   6      -27.4353
   7      -27.4353
   8      -27.4080
   9      -27.4080
  10      -27.3995
  11      -27.3995
  12      -27.3796
  13      -27.3795
  14      -27.3793
  15      -27.3792
  16      -27.3729
  17      -27.3726
  18      -27.3543
  19      -27.3542
  20      -27.3375
  21      -27.3231
  22      -27.3228
  23      -27.3228
  24      -27.3226
  25      -27.3185
  26      -27.3183
  27      -27.3143
  28      -27.2780
  29      -27.2778
  30      -27.2441
  31      -27.2435
  32      -27.2392
  33      -27.2391
  34      -27.2326
  35      -27.2241
  36      -27.2188
  37      -27.2161
  38      -27.1874
  39      -27.1873
  40      -27.1855
  41      -27.1855
  42      -27.1842
  43      -27.1693
  44      -27.1689
  45      -27.1689
  46      -27.1686
  47      -27.1602
  48      -27.1054
  49      -27.1006
  50      -27.0938
  51      -27.0937
  52      -27.0690
  53      -27.0689
  54      -27.0573
  55      -27.0573
  56      -27.0516
  57      -27.0475
  58      -27.0473
  59      -27.0472
  60      -27.0470
  61      -27.0417
  62      -27.0395
  63      -27.0394
  64      -27.0393
  65      -27.0391
  66      -27.0282
  67      -27.0278
  68      -27.0146
  69      -27.0145
  70      -27.0143
  71      -27.0141
  72      -27.0115
  73      -27.0114
  74      -26.9886
  75      -26.9882
  76      -26.9807
  77      -26.9806
  78      -26.9804
  79      -26.9804
  80      -26.9730
  81      -26.9728
  82      -26.9728
  83      -26.9726
  84      -26.9720
  85      -26.9716
  86      -26.9715
  87      -26.9700
  88      -26.9699
  89      -26.9477
  90      -26.9473
  91      -26.9468
  92      -26.9457
  93      -26.9455
  94      -26.9454
  95      -26.9452
  96      -26.9158
  97      -26.9156
  98      -26.9127
  99      -26.9126
 100      -26.9056
 101      -26.9055
 102      -26.8936
 103      -26.8934
 104      -26.8877
 105      -26.8775
 106      -26.8773
 107      -26.8700
 108      -26.8418
 109       -0.0853
 110        1.4869
 111        1.4873
 112        1.7379
 113        1.7382
 114        2.4450
 115        2.4453
 116        2.8553
 117        2.8554
 118        2.8557
 119        2.8559
 120        3.0519
 121        3.0523
 122        3.3072
 123        3.3073
 124        3.3074
 125        3.3079
 126        3.3479
 127        3.3481
 128        3.3482
 129        3.3487
 130        3.3556
 131        3.9979
 132        3.9982
 133        4.1161
 134        4.1552
 135        4.1558
 136        4.1587
 137        4.1898
 138        4.1905
 139        4.1919
 140        4.1924
 141        4.1959
 142        4.2051
 143        4.2212
 144        4.2217
 145        4.2647
 146        4.2653
 147        4.3516
 148        4.4346
 149        4.4355
 150        4.5314
 151        4.6205
 152        4.7628
 153        4.8651
 154        4.8659
 155        5.1282
 156        5.1287
 157        5.1293
 158        5.1300
 159        5.1346
 160        5.1360
 161        5.1698
 162        5.1708
 163        5.1800
 164        5.1802
 165        5.2318
 166        5.2334
 167        5.2338
 168        5.2339
 169        5.2458
 170        5.2470
 171        5.3126
 172        5.3137
 173        5.3139
 174        5.3152
 175        5.3508
 176        5.3516
 177        5.6479
 178        5.6484
 179        5.6531
 180        5.6533
 181        5.8230
 182        5.8254
 183        6.0236
 184        6.0258
 185        6.2341
 186        6.2347
 187        6.2350
 188        6.2354
 189        6.2395
 190        6.2401
 191        6.2406
 192        6.2416
 193        6.2809
 194        6.2811
 195        6.2831
 196        6.3098
 197        6.3342
 198        6.3353
 199        6.3706
 200        6.3711
 201        6.4777
 202        6.4778
 203        6.5545
 204        6.5555
 205        6.5662
 206        6.5671
 207        6.6558
 208        6.6559
 209        6.6662
 210        6.6680
 211        6.7082
 212        6.7085
 213        6.7087
 214        6.7089
 215        6.7134
 216        6.7185
 
  0.2857143E+00  0.1428571E+00  0.0000000E+00  0.8163265E-02
   1      -27.5465
   2      -27.4848
   3      -27.4576
   4      -27.4576
   5      -27.4565
   6      -27.4408
   7      -27.4407
   8      -27.4242
   9      -27.4242
  10      -27.4033
  11      -27.4032
  12      -27.3944
  13      -27.3943
  14      -27.3839
  15      -27.3809
  16      -27.3639
  17      -27.3638
  18      -27.3630
  19      -27.3553
  20      -27.3388
  21      -27.3102
  22      -27.3093
  23      -27.3090
  24      -27.2975
  25      -27.2935
  26      -27.2892
  27      -27.2889
  28      -27.2878
  29      -27.2647
  30      -27.2621
  31      -27.2516
  32      -27.2511
  33      -27.2483
  34      -27.2433
  35      -27.2421
  36      -27.2399
  37      -27.2374
  38      -27.2184
  39      -27.1915
  40      -27.1543
  41      -27.1530
  42      -27.1380
  43      -27.1378
  44      -27.1355
  45      -27.1353
  46      -27.1299
  47      -27.1186
  48      -27.0948
  49      -27.0887
  50      -27.0829
  51      -27.0779
  52      -27.0774
  53      -27.0741
  54      -27.0739
  55      -27.0696
  56      -27.0610
  57      -27.0610
  58      -27.0552
  59      -27.0550
  60      -27.0505
  61      -27.0460
  62      -27.0449
  63      -27.0418
  64      -27.0417
  65      -27.0365
  66      -27.0191
  67      -27.0119
  68      -27.0118
  69      -27.0106
  70      -27.0067
  71      -27.0030
  72      -26.9934
  73      -26.9931
  74      -26.9929
  75      -26.9857
  76      -26.9856
  77      -26.9848
  78      -26.9836
  79      -26.9795
  80      -26.9794
  81      -26.9750
  82      -26.9749
  83      -26.9748
  84      -26.9747
  85      -26.9713
  86      -26.9712
  87      -26.9686
  88      -26.9685
  89      -26.9642
  90      -26.9462
  91      -26.9439
  92      -26.9438
  93      -26.9408
  94      -26.9358
  95      -26.9358
  96      -26.9309
  97      -26.9308
  98      -26.9306
  99      -26.9278
 100      -26.9262
 101      -26.9105
 102      -26.9041
 103      -26.9029
 104      -26.9028
 105      -26.8964
 106      -26.8857
 107      -26.8669
 108      -26.8484
 109        0.1600
 110        0.9685
 111        1.3470
 112        1.9394
 113        1.9397
 114        2.3535
 115        2.5409
 116        2.5410
 117        2.7949
 118        2.7950
 119        2.8879
 120        3.3410
 121        3.3411
 122        3.3546
 123        3.3767
 124        3.3770
 125        3.4079
 126        3.4734
 127        3.4737
 128        3.5217
 129        3.5220
 130        3.5369
 131        3.7642
 132        3.8635
 133        3.8945
 134        3.8950
 135        3.9759
 136        3.9894
 137        3.9897
 138        4.0202
 139        4.0217
 140        4.0885
 141        4.1313
 142        4.1496
 143        4.1971
 144        4.2082
 145        4.2354
 146        4.3345
 147        4.3356
 148        4.4359
 149        4.4946
 150        4.5195
 151        4.6976
 152        4.8970
 153        4.9707
 154        4.9815
 155        4.9996
 156        5.0959
 157        5.0970
 158        5.1026
 159        5.1628
 160        5.1639
 161        5.1848
 162        5.1993
 163        5.2541
 164        5.2549
 165        5.2781
 166        5.2788
 167        5.2875
 168        5.2884
 169        5.2929
 170        5.2940
 171        5.3417
 172        5.3544
 173        5.3556
 174        5.4178
 175        5.4192
 176        5.5495
 177        5.6903
 178        5.6923
 179        5.7075
 180        5.7081
 181        5.8666
 182        5.8668
 183        5.9618
 184        6.0309
 185        6.0388
 186        6.0392
 187        6.0489
 188        6.0685
 189        6.0834
 190        6.0838
 191        6.1756
 192        6.1760
 193        6.1809
 194        6.2642
 195        6.2687
 196        6.2767
 197        6.2770
 198        6.3319
 199        6.3785
 200        6.4302
 201        6.4304
 202        6.4328
 203        6.4843
 204        6.5002
 205        6.5007
 206        6.5108
 207        6.5889
 208        6.5966
 209        6.6314
 210        6.6642
 211        6.7292
 212        6.7812
 213        6.7825
 214        6.8113
 215        6.8345
 216        6.8948
 
  0.4285714E+00  0.1428571E+00  0.0000000E+00  0.8163265E-02
   1      -27.5192
   2      -27.5192
   3      -27.4655
   4      -27.4654
   5      -27.4603
   6      -27.4370
   7      -27.4370
   8      -27.4360
   9      -27.4360
  10      -27.4027
  11      -27.4026
  12      -27.4024
  13      -27.4024
  14      -27.3942
  15      -27.3836
  16      -27.3663
  17      -27.3616
  18      -27.3586
  19      -27.3585
  20      -27.3097
  21      -27.3039
  22      -27.3037
  23      -27.3035
  24      -27.3020
  25      -27.3007
  26      -27.2759
  27      -27.2738
  28      -27.2692
  29      -27.2666
  30      -27.2660