       N       E                     dE             d eps       ncg     rms          rms(c)
DAV:   1     0.498060338296E+04    0.49806E+04   -0.17194E+05 53896   0.180E+03
DAV:   2     0.908170482975E+02   -0.48898E+04   -0.48145E+04 53136   0.638E+02
DAV:   3    -0.292343664799E+03   -0.38316E+03   -0.36050E+03 77704   0.161E+02
DAV:   4    -0.324009430513E+03   -0.31666E+02   -0.30763E+02 72656   0.403E+01
DAV:   5    -0.324951478660E+03   -0.94205E+00   -0.92029E+00 69440   0.624E+00    0.359E+01
DAV:   6    -0.286122682665E+03    0.38829E+02   -0.12109E+02 58064   0.373E+01    0.908E+00
DAV:   7    -0.284226738431E+03    0.18959E+01   -0.15467E+01 69968   0.115E+01    0.355E+00
DAV:   8    -0.284305958774E+03   -0.79220E-01   -0.28189E+00 70328   0.674E+00    0.377E+00
DAV:   9    -0.284130943793E+03    0.17501E+00   -0.93740E-01 74512   0.443E+00    0.174E+00
DAV:  10    -0.284068016302E+03    0.62927E-01   -0.16420E-01 71272   0.148E+00    0.987E-01
DAV:  11    -0.284038957565E+03    0.29059E-01   -0.20380E-01 63000   0.155E+00    0.239E-01
DAV:  12    -0.284039666457E+03   -0.70889E-03   -0.96021E-03 71808   0.356E-01    0.248E-01
DAV:  13    -0.284038528409E+03    0.11380E-02   -0.32115E-03 68656   0.211E-01    0.108E-01
DAV:  14    -0.284038321725E+03    0.20668E-03   -0.68545E-04 70896   0.114E-01    0.561E-02
DAV:  15    -0.284038285016E+03    0.36709E-04   -0.13598E-04 72328   0.555E-02    0.353E-02
DAV:  16    -0.284038269544E+03    0.15472E-04   -0.37450E-05 73592   0.288E-02    0.264E-02
DAV:  17    -0.284038235795E+03    0.33748E-04   -0.32325E-05 67872   0.211E-02    0.125E-02
DAV:  18    -0.284038221937E+03    0.13859E-04   -0.84059E-06 71584   0.125E-02    0.516E-03
DAV:  19    -0.284038213700E+03    0.82368E-05   -0.20328E-06 72560   0.575E-03    0.220E-03
DAV:  20    -0.284038211286E+03    0.24135E-05   -0.44583E-07 72976   0.304E-03    0.579E-04
DAV:  21    -0.284038210781E+03    0.50574E-06   -0.70464E-08 53400   0.106E-03    0.407E-04
DAV:  22    -0.284038210816E+03   -0.35332E-07   -0.13484E-08 37744   0.716E-04    0.223E-04
DAV:  23    -0.284038211189E+03   -0.37345E-06   -0.76580E-09 35064   0.375E-04    0.112E-04
DAV:  24    -0.284038211242E+03   -0.52729E-07   -0.34570E-09 34408   0.279E-04    0.882E-05
DAV:  25    -0.284038211306E+03   -0.64130E-07   -0.14176E-09 33808   0.176E-04    0.597E-05
DAV:  26    -0.284038211321E+03   -0.14967E-07   -0.67877E-10 33336   0.915E-05    0.548E-05
DAV:  27    -0.284038211330E+03   -0.89276E-08   -0.33320E-10 33136   0.730E-05
   1 F= -.28403821E+03 E0= -.28403707E+03  d E =-.227996E-02
