 vasp.4.6.28 25Jul05 complex 
 executed on             LinuxIFC date 2016.11.25  11:40:33
 running on    4 nodes
 distr:  one band on    1 nodes,    4 groups


--------------------------------------------------------------------------------------------------------


 INCAR:
 POTCAR:   PAW_PBE Ti_pv 07Sep2000                
 POTCAR:   PAW_PBE Ti_pv 07Sep2000                
   VRHFIN =Ti: d3 s1                                                            
   LEXCH  = PE                                                                  
   EATOM  =  1042.3781 eV,   76.6126 Ry                                         
                                                                                
   TITEL  = PAW_PBE Ti_pv 07Sep2000                                             
   LULTRA =        F    use ultrasoft PP ?                                      
   IUNSCR =        1    unscreen: 0-lin 1-nonlin 2-no                           
   RPACOR =    2.200    partial core radius                                     
   POMASS =   47.880; ZVAL   =   10.000    mass and valenz                      
   RCORE  =    2.500    outmost cutoff radius                                   
   RWIGS  =    2.500; RWIGS  =    1.323    wigner-seitz radius (au A)           
   ENMAX  =  222.338; ENMIN  =  166.753 eV                                      
   RCLOC  =    1.701    cutoff for local pot                                    
   LCOR   =        T    correct aug charges                                     
   LPAW   =        T    paw PP                                                  
   EAUG   =  482.848                                                            
   DEXC   =    -.008                                                            
   RMAX   =    3.092    core radius for proj-oper                               
   RAUG   =    1.300    factor for augmentation sphere                          
   RDEP   =    2.538    radius for radial grids                                 
   QCUT   =   -4.042; QGAM   =    8.085    optimization parameters              
                                                                                
   Description                                                                  
     l     E      TYP  RCUT    TYP  RCUT                                        
     1   .000     23  2.300                                                     
     1  -.100     23  2.300                                                     
     2   .000     23  2.500                                                     
     2   .000     23  2.500                                                     
     0   .000     23  2.500                                                     
     0  1.500     23  2.500                                                     
     3   .000      7   .000                                                     
  local pseudopotential read in
  partial core-charges read in
  atomic valenz-charges read in
  non local Contribution for L=           1  read in
    real space projection operators read in
  non local Contribution for L=           1  read in
    real space projection operators read in
  non local Contribution for L=           2  read in
    real space projection operators read in
  non local Contribution for L=           2  read in
    real space projection operators read in
  non local Contribution for L=           0  read in
    real space projection operators read in
  non local Contribution for L=           0  read in
    real space projection operators read in
    PAW grid and wavefunctions read in
 
   number of l-projection  operators is LMAX  =           6
   number of lm-projection operators is LMMAX =          18
 

 ----------------------------------------------------------------------------- 
|                                                                             |
|  ADVICE TO THIS USER RUNNING 'VASP/VAMP'   (HEAR YOUR MASTER'S VOICE ...):  |
|                                                                             |
|      You have a (more or less) 'large supercell' and for larger cells       |
|      it might be more efficient to use real space projection operators      |
|      So try LREAL= Auto  in the INCAR   file.                               |
|      Mind: If you want to do an extremely accurate calculations keep the    |
|      reciprocal projection scheme          (i.e. LREAL=.FALSE.)             |
|                                                                             |
 ----------------------------------------------------------------------------- 

 PAW_PBE Ti_pv 07Sep2000                :
 energy of atom  1       EATOM=-1042.3781
 kinetic energy error for atom=    0.0024 (will be added to EATOM!!)
 
 EXHCAR: internal setup
 exchange correlation table for  LEXCH =        8
   RHO(1)=    0.500       N(1)  =     2000
   RHO(2)=  100.500       N(2)  =     4000
 
 POSCAR: Ti                                      
  positions in direct lattice
  No initial velocities read in
 


--------------------------------------------------------------------------------------------------------


 ion  position               nearest neighbor table
   1  0.110  0.223  0.124-  30 2.87  31 2.87  21 2.88  28 2.88  22 2.88  19 2.89   3 2.93   4 2.94
                             7 2.94   2 2.95   9 2.95   5 2.96
   2  0.444  0.223  0.125-  19 2.88  28 2.88  23 2.88  32 2.88  29 2.88  20 2.88   3 2.94   8 2.94
                             5 2.94   1 2.95   7 2.95   6 2.95
   3  0.777  0.223  0.125-  20 2.88  29 2.88  24 2.88  33 2.88  30 2.88  21 2.88   1 2.93   2 2.94
                             9 2.94   6 2.94   8 2.95   4 2.95
   4  0.111  0.556  0.125-  24 2.88  33 2.88  25 2.88  34 2.88  22 2.88  31 2.88   1 2.94   6 2.94
                             5 2.94   7 2.94   3 2.95   8 2.95
   5  0.444  0.556  0.125-  22 2.88  31 2.88  26 2.88  35 2.88  32 2.88  23 2.88   4 2.94   6 2.94
                             2 2.94   8 2.94   9 2.95   1 2.96
   6  0.777  0.556  0.125-  23 2.88  32 2.88  27 2.88  36 2.88  33 2.88  24 2.88   4 2.94   5 2.94
                             3 2.94   9 2.94   7 2.95   2 2.95
   7  0.111  0.889  0.125-  27 2.88  36 2.88  28 2.88  19 2.88  34 2.88  25 2.88   9 2.94   8 2.94
                             4 2.94   1 2.94   2 2.95   6 2.95
   8  0.444  0.889  0.125-  25 2.88  34 2.88  29 2.88  20 2.88  26 2.88  35 2.88   7 2.94   9 2.94
                             2 2.94   5 2.94   3 2.95   4 2.95
   9  0.777  0.889  0.125-  26 2.88  35 2.88  30 2.88  21 2.88  27 2.88  36 2.88   7 2.94   8 2.94
                             3 2.94   6 2.94   1 2.95   5 2.95
  10  0.111  0.223  0.625-  21 2.88  30 2.88  22 2.88  31 2.88  19 2.88  28 2.88  12 2.94  11 2.94
                            16 2.94  13 2.94  18 2.95  14 2.95
  11  0.444  0.223  0.625-  19 2.88  28 2.88  23 2.88  32 2.88  29 2.88  20 2.88  10 2.94  12 2.94
                            17 2.94  14 2.94  16 2.95  15 2.95
  12  0.777  0.223  0.625-  20 2.88  29 2.88  24 2.88  33 2.88  30 2.88  21 2.88  10 2.94  11 2.94
                            18 2.94  15 2.94  17 2.95  13 2.95
  13  0.111  0.556  0.625-  24 2.88  33 2.88  25 2.88  34 2.88  22 2.88  31 2.88  15 2.94  14 2.94
                            10 2.94  16 2.94  12 2.95  17 2.95
  14  0.444  0.556  0.625-  22 2.88  31 2.88  26 2.88  35 2.88  32 2.88  23 2.88  13 2.94  15 2.94
                            11 2.94  17 2.94  10 2.95  18 2.95
  15  0.777  0.556  0.625-  23 2.88  32 2.88  27 2.88  36 2.88  33 2.88  24 2.88  13 2.94  14 2.94
                            12 2.94  18 2.94  16 2.95  11 2.95
  16  0.111  0.889  0.625-  27 2.88  36 2.88  28 2.88  19 2.88  34 2.88  25 2.88  18 2.94  17 2.94
                            10 2.94  13 2.94  11 2.95  15 2.95
  17  0.444  0.889  0.625-  25 2.88  34 2.88  29 2.88  20 2.88  26 2.88  35 2.88  16 2.94  18 2.94
                            11 2.94  14 2.94  12 2.95  13 2.95
  18  0.777  0.889  0.625-  26 2.88  35 2.88  30 2.88  21 2.88  27 2.88  36 2.88  16 2.94  17 2.94
                            12 2.94  15 2.94  10 2.95  14 2.95
  19  0.223  0.111  0.375-   2 2.88  11 2.88   7 2.88  16 2.88  10 2.88   1 2.89  21 2.94  20 2.94
                            25 2.94  22 2.94  27 2.95  23 2.95
  20  0.556  0.111  0.375-   3 2.88  12 2.88   8 2.88  17 2.88   2 2.88  11 2.88  19 2.94  21 2.94
                            26 2.94  23 2.94  25 2.95  24 2.95
  21  0.889  0.111  0.375-  10 2.88   9 2.88  18 2.88   1 2.88  12 2.88   3 2.88  19 2.94  20 2.94
                            27 2.94  24 2.94  26 2.95  22 2.95
  22  0.223  0.444  0.375-   5 2.88  14 2.88  10 2.88  13 2.88   4 2.88   1 2.88  24 2.94  23 2.94
                            19 2.94  25 2.94  21 2.95  26 2.95
  23  0.556  0.444  0.375-   6 2.88  15 2.88  11 2.88   2 2.88  14 2.88   5 2.88  22 2.94  24 2.94
                            20 2.94  26 2.94  19 2.95  27 2.95
  24  0.889  0.444  0.375-   4 2.88  13 2.88  12 2.88   3 2.88   6 2.88  15 2.88  22 2.94  23 2.94
                            21 2.94  27 2.94  25 2.95  20 2.95
  25  0.223  0.777  0.375-   8 2.88  17 2.88  13 2.88   4 2.88  16 2.88   7 2.88  27 2.94  26 2.94
                            19 2.94  22 2.94  20 2.95  24 2.95
  26  0.556  0.777  0.375-   9 2.88  18 2.88  14 2.88   5 2.88  17 2.88   8 2.88  25 2.94  27 2.94
                            20 2.94  23 2.94  21 2.95  22 2.95
  27  0.889  0.777  0.375-   7 2.88  16 2.88  15 2.88   6 2.88   9 2.88  18 2.88  25 2.94  26 2.94
                            21 2.94  24 2.94  19 2.95  23 2.95
  28  0.223  0.111  0.875-   2 2.88  11 2.88   7 2.88  16 2.88   1 2.88  10 2.88  30 2.94  29 2.94
                            34 2.94  31 2.94  36 2.95  32 2.95
  29  0.556  0.111  0.875-   3 2.88  12 2.88   8 2.88  17 2.88   2 2.88  11 2.88  28 2.94  30 2.94
                            35 2.94  32 2.94  34 2.95  33 2.95
  30  0.889  0.111  0.875-   1 2.87  10 2.88   9 2.88  18 2.88  12 2.88   3 2.88  28 2.94  29 2.94
                            36 2.94  33 2.94  35 2.95  31 2.95
  31  0.223  0.444  0.875-   1 2.87   5 2.88  14 2.88  10 2.88  13 2.88   4 2.88  33 2.94  32 2.94
                            28 2.94  34 2.94  30 2.95  35 2.95
  32  0.556  0.444  0.875-   6 2.88  15 2.88  11 2.88   2 2.88  14 2.88   5 2.88  31 2.94  33 2.94
                            29 2.94  35 2.94  28 2.95  36 2.95
  33  0.889  0.444  0.875-   4 2.88  13 2.88  12 2.88   3 2.88   6 2.88  15 2.88  31 2.94  32 2.94
                            30 2.94  36 2.94  34 2.95  29 2.95
  34  0.223  0.777  0.875-   8 2.88  17 2.88  13 2.88   4 2.88  16 2.88   7 2.88  36 2.94  35 2.94
                            28 2.94  31 2.94  29 2.95  33 2.95
  35  0.556  0.777  0.875-   9 2.88  18 2.88  14 2.88   5 2.88  17 2.88   8 2.88  34 2.94  36 2.94
                            29 2.94  32 2.94  30 2.95  31 2.95
  36  0.889  0.777  0.875-   7 2.88  16 2.88  15 2.88   6 2.88   9 2.88  18 2.88  34 2.94  35 2.94
                            30 2.94  33 2.94  28 2.95  32 2.95
 
  LATTYP: Found a base centered orthorhombic cell.
 ALAT       =     8.8635622795
 B/A-ratio  =     1.7208744689
 C/A-ratio  =     1.0491886802
  
  Lattice vectors:
  
 A1 = (   8.8206670999,   0.0247654402,   0.0000000000)
 A2 = (  -4.3888858705,   7.6513046101,   0.0000000000)
 A3 = (   0.0000000000,   0.0000000000,   9.2995492100)
 Subroutine PRICEL returns:
 Original cell was already a primitive cell.
 

Analysis of symmetry for initial positions (statically):

 Routine SETGRP: Setting up the symmetry group for a 
 base centered orthorhombic supercell.


 Subroutine GETGRP returns: Found  1 space group operations
 (whereof  1 operations were pure point group operations)
 out of a pool of  8 trial point group operations.


The static configuration has the point symmetry C_1 .

Analysis of symmetry for dynamics (positions and initial velocities):

 Subroutine DYNSYM returns: Found  1 space group operations
 (whereof  1 operations were pure point group operations)
 out of a pool of  1 trial space group operations
 (whereof  1 operations were pure point group operations)
 and found also     1 'primitive' translations


The dynamic configuration has the point symmetry C_1 .
 
 
 KPOINTS: Automatic mesh                          

Automatic generation of k-mesh.
 generate k-points for:   7   7   5
 
 Subroutine IBZKPT returns following result:
 ===========================================
 
 Found    123 irreducible k-points:
 
 Following reciprocal coordinates:
            Coordinates               Weight
  0.000000  0.000000  0.000000      1.000000
  0.142857 -0.000000  0.000000      2.000000
  0.285714  0.000000  0.000000      2.000000
  0.428571 -0.000000  0.000000      2.000000
  0.000000  0.142857  0.000000      2.000000
  0.142857  0.142857  0.000000      2.000000
  0.285714  0.142857  0.000000      2.000000
  0.428571  0.142857  0.000000      2.000000
 -0.428571  0.142857  0.000000      2.000000
 -0.285714  0.142857  0.000000      2.000000
 -0.142857  0.142857  0.000000      2.000000
  0.000000  0.285714  0.000000      2.000000
  0.142857  0.285714  0.000000      2.000000
  0.285714  0.285714  0.000000      2.000000
  0.428571  0.285714  0.000000      2.000000
 -0.428571  0.285714  0.000000      2.000000
 -0.285714  0.285714  0.000000      2.000000
 -0.142857  0.285714  0.000000      2.000000
  0.000000  0.428571  0.000000      2.000000
  0.142857  0.428571  0.000000      2.000000
  0.285714  0.428571  0.000000      2.000000
  0.428571  0.428571  0.000000      2.000000
 -0.428571  0.428571  0.000000      2.000000
 -0.285714  0.428571  0.000000      2.000000
 -0.142857  0.428571  0.000000      2.000000
  0.000000  0.000000  0.200000      2.000000
  0.142857 -0.000000  0.200000      2.000000
  0.285714  0.000000  0.200000      2.000000
  0.428571 -0.000000  0.200000      2.000000
 -0.428571  0.000000  0.200000      2.000000
 -0.285714  0.000000  0.200000      2.000000
 -0.142857  0.000000  0.200000      2.000000
  0.000000  0.142857  0.200000      2.000000
  0.142857  0.142857  0.200000      2.000000
  0.285714  0.142857  0.200000      2.000000
  0.428571  0.142857  0.200000      2.000000
 -0.428571  0.142857  0.200000      2.000000
 -0.285714  0.142857  0.200000      2.000000
 -0.142857  0.142857  0.200000      2.000000
  0.000000  0.285714  0.200000      2.000000
  0.142857  0.285714  0.200000      2.000000
  0.285714  0.285714  0.200000      2.000000
  0.428571  0.285714  0.200000      2.000000
 -0.428571  0.285714  0.200000      2.000000
 -0.285714  0.285714  0.200000      2.000000
 -0.142857  0.285714  0.200000      2.000000
  0.000000  0.428571  0.200000      2.000000
  0.142857  0.428571  0.200000      2.000000
  0.285714  0.428571  0.200000      2.000000
  0.428571  0.428571  0.200000      2.000000
 -0.428571  0.428571  0.200000      2.000000
 -0.285714  0.428571  0.200000      2.000000
 -0.142857  0.428571  0.200000      2.000000
  0.000000 -0.428571  0.200000      2.000000
  0.142857 -0.428571  0.200000      2.000000
  0.285714 -0.428571  0.200000      2.000000
  0.428571 -0.428571  0.200000      2.000000
 -0.428571 -0.428571  0.200000      2.000000
 -0.285714 -0.428571  0.200000      2.000000
 -0.142857 -0.428571  0.200000      2.000000
 -0.000000 -0.285714  0.200000      2.000000
  0.142857 -0.285714  0.200000      2.000000
  0.285714 -0.285714  0.200000      2.000000
  0.428571 -0.285714  0.200000      2.000000
 -0.428571 -0.285714  0.200000      2.000000
 -0.285714 -0.285714  0.200000      2.000000
 -0.142857 -0.285714  0.200000      2.000000
  0.000000 -0.142857  0.200000      2.000000
  0.142857 -0.142857  0.200000      2.000000
  0.285714 -0.142857  0.200000      2.000000
  0.428571 -0.142857  0.200000      2.000000
 -0.428571 -0.142857  0.200000      2.000000
 -0.285714 -0.142857  0.200000      2.000000
 -0.142857 -0.142857  0.200000      2.000000
  0.000000  0.000000  0.400000      2.000000
  0.142857 -0.000000  0.400000      2.000000
  0.285714  0.000000  0.400000      2.000000
  0.428571 -0.000000  0.400000      2.000000
 -0.428571  0.000000  0.400000      2.000000
 -0.285714  0.000000  0.400000      2.000000
 -0.142857  0.000000  0.400000      2.000000
  0.000000  0.142857  0.400000      2.000000
  0.142857  0.142857  0.400000      2.000000
  0.285714  0.142857  0.400000      2.000000
  0.428571  0.142857  0.400000      2.000000
 -0.428571  0.142857  0.400000      2.000000
 -0.285714  0.142857  0.400000      2.000000
 -0.142857  0.142857  0.400000      2.000000
  0.000000  0.285714  0.400000      2.000000
  0.142857  0.285714  0.400000      2.000000
  0.285714  0.285714  0.400000      2.000000
  0.428571  0.285714  0.400000      2.000000
 -0.428571  0.285714  0.400000      2.000000
 -0.285714  0.285714  0.400000      2.000000
 -0.142857  0.285714  0.400000      2.000000
  0.000000  0.428571  0.400000      2.000000
  0.142857  0.428571  0.400000      2.000000
  0.285714  0.428571  0.400000      2.000000
  0.428571  0.428571  0.400000      2.000000
 -0.428571  0.428571  0.400000      2.000000
 -0.285714  0.428571  0.400000      2.000000
 -0.142857  0.428571  0.400000      2.000000
  0.000000 -0.428571  0.400000      2.000000
  0.142857 -0.428571  0.400000      2.000000
  0.285714 -0.428571  0.400000      2.000000
  0.428571 -0.428571  0.400000      2.000000
 -0.428571 -0.428571  0.400000      2.000000
 -0.285714 -0.428571  0.400000      2.000000
 -0.142857 -0.428571  0.400000      2.000000
 -0.000000 -0.285714  0.400000      2.000000
  0.142857 -0.285714  0.400000      2.000000
  0.285714 -0.285714  0.400000      2.000000
  0.428571 -0.285714  0.400000      2.000000
 -0.428571 -0.285714  0.400000      2.000000
 -0.285714 -0.285714  0.400000      2.000000
 -0.142857 -0.285714  0.400000      2.000000
  0.000000 -0.142857  0.400000      2.000000
  0.142857 -0.142857  0.400000      2.000000
  0.285714 -0.142857  0.400000      2.000000
  0.428571 -0.142857  0.400000      2.000000
 -0.428571 -0.142857  0.400000      2.000000
 -0.285714 -0.142857  0.400000      2.000000
 -0.142857 -0.142857  0.400000      2.000000
 
 Following cartesian coordinates:
            Coordinates               Weight
  0.000000  0.000000  0.000000      1.000000
  0.016170  0.009275  0.000000      2.000000
  0.032339  0.018550  0.000000      2.000000
  0.048509  0.027825  0.000000      2.000000
 -0.000052  0.018641  0.000000      2.000000
  0.016117  0.027916  0.000000      2.000000
  0.032287  0.037191  0.000000      2.000000
  0.048457  0.046466  0.000000      2.000000
 -0.048561 -0.009184  0.000000      2.000000
 -0.032392  0.000091  0.000000      2.000000
 -0.016222  0.009366  0.000000      2.000000
 -0.000105  0.037282  0.000000      2.000000
  0.016065  0.046557  0.000000      2.000000
  0.032235  0.055832  0.000000      2.000000
  0.048404  0.065107  0.000000      2.000000
 -0.048614  0.009456  0.000000      2.000000
 -0.032444  0.018732  0.000000      2.000000
 -0.016274  0.028007  0.000000      2.000000
 -0.000157  0.055923  0.000000      2.000000
  0.016013  0.065198  0.000000      2.000000
  0.032182  0.074473  0.000000      2.000000
  0.048352  0.083748  0.000000      2.000000
 -0.048666  0.028097  0.000000      2.000000
 -0.032496  0.037373  0.000000      2.000000
 -0.016327  0.046648  0.000000      2.000000
  0.000000  0.000000  0.021506      2.000000
  0.016170  0.009275  0.021506      2.000000
  0.032339  0.018550  0.021506      2.000000
  0.048509  0.027825  0.021506      2.000000
 -0.048509 -0.027825  0.021506      2.000000
 -0.032339 -0.018550  0.021506      2.000000
 -0.016170 -0.009275  0.021506      2.000000
 -0.000052  0.018641  0.021506      2.000000
  0.016117  0.027916  0.021506      2.000000
  0.032287  0.037191  0.021506      2.000000
  0.048457  0.046466  0.021506      2.000000
 -0.048561 -0.009184  0.021506      2.000000
 -0.032392  0.000091  0.021506      2.000000
 -0.016222  0.009366  0.021506      2.000000
 -0.000105  0.037282  0.021506      2.000000
  0.016065  0.046557  0.021506      2.000000
  0.032235  0.055832  0.021506      2.000000
  0.048404  0.065107  0.021506      2.000000
 -0.048614  0.009456  0.021506      2.000000
 -0.032444  0.018732  0.021506      2.000000
 -0.016274  0.028007  0.021506      2.000000
 -0.000157  0.055923  0.021506      2.000000
  0.016013  0.065198  0.021506      2.000000
  0.032182  0.074473  0.021506      2.000000
  0.048352  0.083748  0.021506      2.000000
 -0.048666  0.028097  0.021506      2.000000
 -0.032496  0.037373  0.021506      2.000000
 -0.016327  0.046648  0.021506      2.000000
  0.000157 -0.055923  0.021506      2.000000
  0.016327 -0.046648  0.021506      2.000000
  0.032496 -0.037373  0.021506      2.000000
  0.048666 -0.028097  0.021506      2.000000
 -0.048352 -0.083748  0.021506      2.000000
 -0.032182 -0.074473  0.021506      2.000000
 -0.016013 -0.065198  0.021506      2.000000
  0.000105 -0.037282  0.021506      2.000000
  0.016274 -0.028007  0.021506      2.000000
  0.032444 -0.018732  0.021506      2.000000
  0.048614 -0.009456  0.021506      2.000000
 -0.048404 -0.065107  0.021506      2.000000
 -0.032235 -0.055832  0.021506      2.000000
 -0.016065 -0.046557  0.021506      2.000000
  0.000052 -0.018641  0.021506      2.000000
  0.016222 -0.009366  0.021506      2.000000
  0.032392 -0.000091  0.021506      2.000000
  0.048561  0.009184  0.021506      2.000000
 -0.048457 -0.046466  0.021506      2.000000
 -0.032287 -0.037191  0.021506      2.000000
 -0.016117 -0.027916  0.021506      2.000000
  0.000000  0.000000  0.043013      2.000000
  0.016170  0.009275  0.043013      2.000000
  0.032339  0.018550  0.043013      2.000000
  0.048509  0.027825  0.043013      2.000000
 -0.048509 -0.027825  0.043013      2.000000
 -0.032339 -0.018550  0.043013      2.000000
 -0.016170 -0.009275  0.043013      2.000000
 -0.000052  0.018641  0.043013      2.000000
  0.016117  0.027916  0.043013      2.000000
  0.032287  0.037191  0.043013      2.000000
  0.048457  0.046466  0.043013      2.000000
 -0.048561 -0.009184  0.043013      2.000000
 -0.032392  0.000091  0.043013      2.000000
 -0.016222  0.009366  0.043013      2.000000
 -0.000105  0.037282  0.043013      2.000000
  0.016065  0.046557  0.043013      2.000000
  0.032235  0.055832  0.043013      2.000000
  0.048404  0.065107  0.043013      2.000000
 -0.048614  0.009456  0.043013      2.000000
 -0.032444  0.018732  0.043013      2.000000
 -0.016274  0.028007  0.043013      2.000000
 -0.000157  0.055923  0.043013      2.000000
  0.016013  0.065198  0.043013      2.000000
  0.032182  0.074473  0.043013      2.000000
  0.048352  0.083748  0.043013      2.000000
 -0.048666  0.028097  0.043013      2.000000
 -0.032496  0.037373  0.043013      2.000000
 -0.016327  0.046648  0.043013      2.000000
  0.000157 -0.055923  0.043013      2.000000
  0.016327 -0.046648  0.043013      2.000000
  0.032496 -0.037373  0.043013      2.000000
  0.048666 -0.028097  0.043013      2.000000
 -0.048352 -0.083748  0.043013      2.000000
 -0.032182 -0.074473  0.043013      2.000000
 -0.016013 -0.065198  0.043013      2.000000
  0.000105 -0.037282  0.043013      2.000000
  0.016274 -0.028007  0.043013      2.000000
  0.032444 -0.018732  0.043013      2.000000
  0.048614 -0.009456  0.043013      2.000000
 -0.048404 -0.065107  0.043013      2.000000
 -0.032235 -0.055832  0.043013      2.000000
 -0.016065 -0.046557  0.043013      2.000000
  0.000052 -0.018641  0.043013      2.000000
  0.016222 -0.009366  0.043013      2.000000
  0.032392 -0.000091  0.043013      2.000000
  0.048561  0.009184  0.043013      2.000000
 -0.048457 -0.046466  0.043013      2.000000
 -0.032287 -0.037191  0.043013      2.000000
 -0.016117 -0.027916  0.043013      2.000000
 


--------------------------------------------------------------------------------------------------------




 Dimension of arrays:
   k-Points           NKPTS =    123   number of bands    NBANDS=    216
   number of dos      NEDOS =    301   number of ions     NIONS =     36
   non local maximal  LDIM  =      6   non local SUM 2l+1 LMDIM =     18
   total plane-waves  NPLWV = 286720
   max r-space proj   IRMAX =      1   max aug-charges    IRDMAX=  17905
   dimension x,y,z NGX =    64 NGY =   64 NGZ =   70
   dimension x,y,z NGXF=   128 NGYF=  128 NGZF=  140
   support grid    NGXF=   128 NGYF=  128 NGZF=  140
   ions per type =              36
 NGX,Y,Z   is equivalent  to a cutoff of  12.06, 12.06, 12.51 a.u.
 NGXF,Y,Z  is equivalent  to a cutoff of  24.12, 24.12, 25.03 a.u.


 I would recommend the setting:
   dimension x,y,z NGX =    64 NGY =   64 NGZ =   68
 SYSTEM =  unknown system                          
 POSCAR =  Ti                                      

 Startparameter for this run:
   NWRITE =      2    write-flag & timer
   PREC   = accura    medium, high low
   ISTART =      0    job   : 0-new  1-cont  2-samecut
   ICHARG =      2    charge: 1-file 2-atom 10-const
   ISPIN  =      1    spin polarized calculation?
   LNONCOLLINEAR =      F non collinear calculations
   LSORBIT =      F    spin-orbit coupling
   INIWAV =      1    electr: 0-lowe 1-rand  2-diag
   LASPH  =      F    aspherical Exc in radial PAW
   METAGGA=      F    non-selfconsistent MetaGGA calc.

 Electronic Relaxation 1
   ENCUT  =  500.0 eV  36.75 Ry    6.06 a.u.  16.08 16.08 16.96*2*pi/ulx,y,z
   ENINI  =  500.0     initial cutoff
   ENAUG  =  482.8 eV  augmentation charge cutoff
   NELM   =     60;   NELMIN=  2; NELMDL=  0     # of ELM steps 
   EDIFF  = 0.1E-07   stopping-criterion for ELM
   LREAL  =      F    real-space projection
   LCOMPAT=      F    compatible to vasp.4.4
   LREAL_COMPAT= F    compatible to vasp.4.5.1-3
   GGA_COMPAT  = T    GGA compatible to vasp.4.4-vasp.4.6
   LMAXPAW     = -100 max onsite density
   LMAXMIX     =    2 max onsite mixed and CHGCAR
   VOSKOWN=      0    Vosko Wilk Nusair interpolation
   ROPT   =    0.00000
 Ionic relaxation
   EDIFFG = 0.1E-06   stopping-criterion for IOM
   NSW    =      0    number of steps for IOM
   NBLOCK =      1;   KBLOCK =      1    inner block; outer block 
   IBRION =     -1    ionic relax: 0-MD 1-quasi-New 2-CG
   NFREE  =      0    steps in history (QN), initial steepest desc. (CG)
   ISIF   =      2    stress and relaxation
   IWAVPR =     10    prediction:  0-non 1-charg 2-wave 3-comb
   ISYM   =      2    0-nonsym 1-usesym 2-fastsym
   LCORR  =      T    Harris-Foulkes like correction to forces

   POTIM  =   0.50    time-step for ionic-motion
   TEIN   =    0.0    initial temperature
   TEBEG  =    0.0;   TEEND  =   0.0 temperature during run
   SMASS  =  -3.00    Nose mass-parameter (am)
   estimated Nose-frequenzy (Omega)   =  0.10E-29 period in steps =****** mass=  -0.178E-26a.u.
   NPACO  =    256;   APACO  = 16.0  distance and # of slots for P.C.
   PSTRESS=    0.0 pullay stress

  Mass of Ions in am
   POMASS =  47.88
  Ionic Valenz
   ZVAL   =  10.00
  Atomic Wigner-Seitz radii
   RWIGS  =  -1.00
   NELECT =     360.0000    total number of electrons
   NUPDOWN=      -1.0000    fix difference up-down

 DOS related values:
   EMIN   =  10.00;   EMAX   =-10.00  energy-range for DOS
   ISMEAR =     0;   SIGMA  =   0.01  broadening in eV -4-tet -1-fermi 0-gaus

 Electronic relaxation 2 (details)
   IALGO  =     38    algorithm
   LDIAG  =      T    sub-space diagonalisation
   IMIX   =      4    mixing-type and parameters
     AMIX     =   0.40;   BMIX     =  1.00
     AMIX_MAG =   1.60;   BMIX_MAG =  1.00
     AMIN     =   0.10
     WC   =   100.;   INIMIX=   1;  MIXPRE=   1

 Intra band minimization:
   WEIMIN = 0.0000     energy-eigenvalue tresh-hold
   EBREAK =  0.12E-10  absolut break condition
   DEPER  =   0.30     relativ break condition  

   TIME   =   0.10     timestep for ELM

  volume/ion in A,a.u.               =      17.46       117.84
  Fermi-wavevector in a.u.,eV,Ry     =   1.359491 25.146513  1.848217

 Second variation
   LSECVAR=     F    do a second variation
 
 Write flags
   LWAVE  =      F    write WAVECAR
   LCHARG =      F    write CHGCAR
   LVTOT  =      F    write LOCPOT, local potential
   LELF   =      F    write electronic localiz. function (ELF)
   LORBIT =      0    0 simple, 1 ext, 2 COOP (PROOUT)


 Dipole corrections
   IDIPOL =      0    1-x, 2-y, 3-z
   LDIPOL =      F    correct potential



--------------------------------------------------------------------------------------------------------


 Static calculation
 charge density will be updated during run
 non-spin polarized calculation
 Variant of blocked Davidson
 Davidson routine will perform the subspace rotation
 performe sub-space diagonalisation
    after iterative eigenvector-optimisation
 modified Broyden-mixing scheme, WC =      100.0
 initial mixing is a Kerker type mixing with AMIX =  0.4000 and BMIX =      1.0000
 Hartree-type preconditioning will be used
 using additional bands           36
 reciprocal scheme for non local part
 use partial core corrections
 calculate Harris-corrections to forces 
   (improved forces if not selfconsistent)
 use gradient corrections 
 use of overlap-Matrix (Vanderbilt PP)
 Gauss-broadening in eV      SIGMA  =   0.01


--------------------------------------------------------------------------------------------------------


  energy-cutoff  :      500.00
  volume of cell :      628.63
      direct lattice vectors                 reciprocal lattice vectors
     8.820667100  0.024765440  0.000000000     0.113187820  0.064925977  0.000000000
    -4.388885871  7.651304610  0.000000000    -0.000366362  0.130486516  0.000000000
     0.000000000  0.000000000  9.299549210     0.000000000  0.000000000  0.107532094

  length of vectors
     8.820701866  8.820701867  9.299549210     0.130487030  0.130487030  0.107532094


 
 k-points in units of 2pi/SCALE and weight: Automatic mesh                          
   0.00000000  0.00000000  0.00000000       0.004
   0.01616969  0.00927514  0.00000000       0.008
   0.03233938  0.01855028  0.00000000       0.008
   0.04850907  0.02782542  0.00000000       0.008
  -0.00005234  0.01864093  0.00000000       0.008
   0.01611735  0.02791607  0.00000000       0.008
   0.03228704  0.03719121  0.00000000       0.008
   0.04845673  0.04646635  0.00000000       0.008
  -0.04856140 -0.00918449  0.00000000       0.008
  -0.03239171  0.00009065  0.00000000       0.008
  -0.01622203  0.00936579  0.00000000       0.008
  -0.00010467  0.03728186  0.00000000       0.008
   0.01606501  0.04655700  0.00000000       0.008
   0.03223470  0.05583214  0.00000000       0.008
   0.04840439  0.06510728  0.00000000       0.008
  -0.04861374  0.00945644  0.00000000       0.008
  -0.03244405  0.01873158  0.00000000       0.008
  -0.01627436  0.02800672  0.00000000       0.008
  -0.00015701  0.05592279  0.00000000       0.008
   0.01601268  0.06519793  0.00000000       0.008
   0.03218236  0.07447307  0.00000000       0.008
   0.04835205  0.08374821  0.00000000       0.008
  -0.04866608  0.02809737  0.00000000       0.008
  -0.03249639  0.03737251  0.00000000       0.008
  -0.01632670  0.04664765  0.00000000       0.008
   0.00000000  0.00000000  0.02150642       0.008
   0.01616969  0.00927514  0.02150642       0.008
   0.03233938  0.01855028  0.02150642       0.008
   0.04850907  0.02782542  0.02150642       0.008
  -0.04850907 -0.02782542  0.02150642       0.008
  -0.03233938 -0.01855028  0.02150642       0.008
  -0.01616969 -0.00927514  0.02150642       0.008
  -0.00005234  0.01864093  0.02150642       0.008
   0.01611735  0.02791607  0.02150642       0.008
   0.03228704  0.03719121  0.02150642       0.008
   0.04845673  0.04646635  0.02150642       0.008
  -0.04856140 -0.00918449  0.02150642       0.008
  -0.03239171  0.00009065  0.02150642       0.008
  -0.01622203  0.00936579  0.02150642       0.008
  -0.00010467  0.03728186  0.02150642       0.008
   0.01606501  0.04655700  0.02150642       0.008
   0.03223470  0.05583214  0.02150642       0.008
   0.04840439  0.06510728  0.02150642       0.008
  -0.04861374  0.00945644  0.02150642       0.008
  -0.03244405  0.01873158  0.02150642       0.008
  -0.01627436  0.02800672  0.02150642       0.008
  -0.00015701  0.05592279  0.02150642       0.008
   0.01601268  0.06519793  0.02150642       0.008
   0.03218236  0.07447307  0.02150642       0.008
   0.04835205  0.08374821  0.02150642       0.008
  -0.04866608  0.02809737  0.02150642       0.008
  -0.03249639  0.03737251  0.02150642       0.008
  -0.01632670  0.04664765  0.02150642       0.008
   0.00015701 -0.05592279  0.02150642       0.008
   0.01632670 -0.04664765  0.02150642       0.008
   0.03249639 -0.03737251  0.02150642       0.008
   0.04866608 -0.02809737  0.02150642       0.008
  -0.04835205 -0.08374821  0.02150642       0.008
  -0.03218236 -0.07447307  0.02150642       0.008
  -0.01601268 -0.06519793  0.02150642       0.008
   0.00010467 -0.03728186  0.02150642       0.008
   0.01627436 -0.02800672  0.02150642       0.008
   0.03244405 -0.01873158  0.02150642       0.008
   0.04861374 -0.00945644  0.02150642       0.008
  -0.04840439 -0.06510728  0.02150642       0.008
  -0.03223470 -0.05583214  0.02150642       0.008
  -0.01606501 -0.04655700  0.02150642       0.008
   0.00005234 -0.01864093  0.02150642       0.008
   0.01622203 -0.00936579  0.02150642       0.008
   0.03239171 -0.00009065  0.02150642       0.008
   0.04856140  0.00918449  0.02150642       0.008
  -0.04845673 -0.04646635  0.02150642       0.008
  -0.03228704 -0.03719121  0.02150642       0.008
  -0.01611735 -0.02791607  0.02150642       0.008
   0.00000000  0.00000000  0.04301284       0.008
   0.01616969  0.00927514  0.04301284       0.008
   0.03233938  0.01855028  0.04301284       0.008
   0.04850907  0.02782542  0.04301284       0.008
  -0.04850907 -0.02782542  0.04301284       0.008
  -0.03233938 -0.01855028  0.04301284       0.008
  -0.01616969 -0.00927514  0.04301284       0.008
  -0.00005234  0.01864093  0.04301284       0.008
   0.01611735  0.02791607  0.04301284       0.008
   0.03228704  0.03719121  0.04301284       0.008
   0.04845673  0.04646635  0.04301284       0.008
  -0.04856140 -0.00918449  0.04301284       0.008
  -0.03239171  0.00009065  0.04301284       0.008
  -0.01622203  0.00936579  0.04301284       0.008
  -0.00010467  0.03728186  0.04301284       0.008
   0.01606501  0.04655700  0.04301284       0.008
   0.03223470  0.05583214  0.04301284       0.008
   0.04840439  0.06510728  0.04301284       0.008
  -0.04861374  0.00945644  0.04301284       0.008
  -0.03244405  0.01873158  0.04301284       0.008
  -0.01627436  0.02800672  0.04301284       0.008
  -0.00015701  0.05592279  0.04301284       0.008
   0.01601268  0.06519793  0.04301284       0.008
   0.03218236  0.07447307  0.04301284       0.008
   0.04835205  0.08374821  0.04301284       0.008
  -0.04866608  0.02809737  0.04301284       0.008
  -0.03249639  0.03737251  0.04301284       0.008
  -0.01632670  0.04664765  0.04301284       0.008
   0.00015701 -0.05592279  0.04301284       0.008
   0.01632670 -0.04664765  0.04301284       0.008
   0.03249639 -0.03737251  0.04301284       0.008
   0.04866608 -0.02809737  0.04301284       0.008
  -0.04835205 -0.08374821  0.04301284       0.008
  -0.03218236 -0.07447307  0.04301284       0.008
  -0.01601268 -0.06519793  0.04301284       0.008
   0.00010467 -0.03728186  0.04301284       0.008
   0.01627436 -0.02800672  0.04301284       0.008
   0.03244405 -0.01873158  0.04301284       0.008
   0.04861374 -0.00945644  0.04301284       0.008
  -0.04840439 -0.06510728  0.04301284       0.008
  -0.03223470 -0.05583214  0.04301284       0.008
  -0.01606501 -0.04655700  0.04301284       0.008
   0.00005234 -0.01864093  0.04301284       0.008
   0.01622203 -0.00936579  0.04301284       0.008
   0.03239171 -0.00009065  0.04301284       0.008
   0.04856140  0.00918449  0.04301284       0.008
  -0.04845673 -0.04646635  0.04301284       0.008
  -0.03228704 -0.03719121  0.04301284       0.008
  -0.01611735 -0.02791607  0.04301284       0.008
 
 k-points in reciprocal lattice and weights: Automatic mesh                          
   0.00000000  0.00000000  0.00000000       0.004
   0.14285714 -0.00000000  0.00000000       0.008
   0.28571429  0.00000000  0.00000000       0.008
   0.42857143 -0.00000000  0.00000000       0.008
   0.00000000  0.14285714  0.00000000       0.008
   0.14285714  0.14285714  0.00000000       0.008
   0.28571429  0.14285714  0.00000000       0.008
   0.42857143  0.14285714  0.00000000       0.008
  -0.42857143  0.14285714  0.00000000       0.008
  -0.28571429  0.14285714  0.00000000       0.008
  -0.14285714  0.14285714  0.00000000       0.008
   0.00000000  0.28571429  0.00000000       0.008
   0.14285714  0.28571429  0.00000000       0.008
   0.28571429  0.28571429  0.00000000       0.008
   0.42857143  0.28571429  0.00000000       0.008
  -0.42857143  0.28571429  0.00000000       0.008
  -0.28571429  0.28571429  0.00000000       0.008
  -0.14285714  0.28571429  0.00000000       0.008
   0.00000000  0.42857143  0.00000000       0.008
   0.14285714  0.42857143  0.00000000       0.008
   0.28571429  0.42857143  0.00000000       0.008
   0.42857143  0.42857143  0.00000000       0.008
  -0.42857143  0.42857143  0.00000000       0.008
  -0.28571429  0.42857143  0.00000000       0.008
  -0.14285714  0.42857143  0.00000000       0.008
   0.00000000  0.00000000  0.20000000       0.008
   0.14285714 -0.00000000  0.20000000       0.008
   0.28571429  0.00000000  0.20000000       0.008
   0.42857143 -0.00000000  0.20000000       0.008
  -0.42857143  0.00000000  0.20000000       0.008
  -0.28571429  0.00000000  0.20000000       0.008
  -0.14285714  0.00000000  0.20000000       0.008
   0.00000000  0.14285714  0.20000000       0.008
   0.14285714  0.14285714  0.20000000       0.008
   0.28571429  0.14285714  0.20000000       0.008
   0.42857143  0.14285714  0.20000000       0.008
  -0.42857143  0.14285714  0.20000000       0.008
  -0.28571429  0.14285714  0.20000000       0.008
  -0.14285714  0.14285714  0.20000000       0.008
   0.00000000  0.28571429  0.20000000       0.008
   0.14285714  0.28571429  0.20000000       0.008
   0.28571429  0.28571429  0.20000000       0.008
   0.42857143  0.28571429  0.20000000       0.008
  -0.42857143  0.28571429  0.20000000       0.008
  -0.28571429  0.28571429  0.20000000       0.008
  -0.14285714  0.28571429  0.20000000       0.008
   0.00000000  0.42857143  0.20000000       0.008
   0.14285714  0.42857143  0.20000000       0.008
   0.28571429  0.42857143  0.20000000       0.008
   0.42857143  0.42857143  0.20000000       0.008
  -0.42857143  0.42857143  0.20000000       0.008
  -0.28571429  0.42857143  0.20000000       0.008
  -0.14285714  0.42857143  0.20000000       0.008
   0.00000000 -0.42857143  0.20000000       0.008
   0.14285714 -0.42857143  0.20000000       0.008
   0.28571429 -0.42857143  0.20000000       0.008
   0.42857143 -0.42857143  0.20000000       0.008
  -0.42857143 -0.42857143  0.20000000       0.008
  -0.28571429 -0.42857143  0.20000000       0.008
  -0.14285714 -0.42857143  0.20000000       0.008
  -0.00000000 -0.28571429  0.20000000       0.008
   0.14285714 -0.28571429  0.20000000       0.008
   0.28571429 -0.28571429  0.20000000       0.008
   0.42857143 -0.28571429  0.20000000       0.008
  -0.42857143 -0.28571429  0.20000000       0.008
  -0.28571429 -0.28571429  0.20000000       0.008
  -0.14285714 -0.28571429  0.20000000       0.008
   0.00000000 -0.14285714  0.20000000       0.008
   0.14285714 -0.14285714  0.20000000       0.008
   0.28571429 -0.14285714  0.20000000       0.008
   0.42857143 -0.14285714  0.20000000       0.008
  -0.42857143 -0.14285714  0.20000000       0.008
  -0.28571429 -0.14285714  0.20000000       0.008
  -0.14285714 -0.14285714  0.20000000       0.008
   0.00000000  0.00000000  0.40000000       0.008
   0.14285714 -0.00000000  0.40000000       0.008
   0.28571429  0.00000000  0.40000000       0.008
   0.42857143 -0.00000000  0.40000000       0.008
  -0.42857143  0.00000000  0.40000000       0.008
  -0.28571429  0.00000000  0.40000000       0.008
  -0.14285714  0.00000000  0.40000000       0.008
   0.00000000  0.14285714  0.40000000       0.008
   0.14285714  0.14285714  0.40000000       0.008
   0.28571429  0.14285714  0.40000000       0.008
   0.42857143  0.14285714  0.40000000       0.008
  -0.42857143  0.14285714  0.40000000       0.008
  -0.28571429  0.14285714  0.40000000       0.008
  -0.14285714  0.14285714  0.40000000       0.008
   0.00000000  0.28571429  0.40000000       0.008
   0.14285714  0.28571429  0.40000000       0.008
   0.28571429  0.28571429  0.40000000       0.008
   0.42857143  0.28571429  0.40000000       0.008
  -0.42857143  0.28571429  0.40000000       0.008
  -0.28571429  0.28571429  0.40000000       0.008
  -0.14285714  0.28571429  0.40000000       0.008
   0.00000000  0.42857143  0.40000000       0.008
   0.14285714  0.42857143  0.40000000       0.008
   0.28571429  0.42857143  0.40000000       0.008
   0.42857143  0.42857143  0.40000000       0.008
  -0.42857143  0.42857143  0.40000000       0.008
  -0.28571429  0.42857143  0.40000000       0.008
  -0.14285714  0.42857143  0.40000000       0.008
   0.00000000 -0.42857143  0.40000000       0.008
   0.14285714 -0.42857143  0.40000000       0.008
   0.28571429 -0.42857143  0.40000000       0.008
   0.42857143 -0.42857143  0.40000000       0.008
  -0.42857143 -0.42857143  0.40000000       0.008
  -0.28571429 -0.42857143  0.40000000       0.008
  -0.14285714 -0.42857143  0.40000000       0.008
  -0.00000000 -0.28571429  0.40000000       0.008
   0.14285714 -0.28571429  0.40000000       0.008
   0.28571429 -0.28571429  0.40000000       0.008
   0.42857143 -0.28571429  0.40000000       0.008
  -0.42857143 -0.28571429  0.40000000       0.008
  -0.28571429 -0.28571429  0.40000000       0.008
  -0.14285714 -0.28571429  0.40000000       0.008
   0.00000000 -0.14285714  0.40000000       0.008
   0.14285714 -0.14285714  0.40000000       0.008
   0.28571429 -0.14285714  0.40000000       0.008
   0.42857143 -0.14285714  0.40000000       0.008
  -0.42857143 -0.14285714  0.40000000       0.008
  -0.28571429 -0.14285714  0.40000000       0.008
  -0.14285714 -0.14285714  0.40000000       0.008
 
 position of ions in fractional coordinates (direct lattice) 
   0.10996321  0.22258994  0.12421981
   0.44407673  0.22258994  0.12500000
   0.77741006  0.22258994  0.12500000
   0.11074339  0.55592327  0.12500000
   0.44407673  0.55592327  0.12500000
   0.77741006  0.55592327  0.12500000
   0.11074339  0.88925661  0.12500000
   0.44407673  0.88925661  0.12500000
   0.77741006  0.88925661  0.12500000
   0.11074339  0.22258994  0.62500000
   0.44407673  0.22258994  0.62500000
   0.77741006  0.22258994  0.62500000
   0.11074339  0.55592327  0.62500000
   0.44407673  0.55592327  0.62500000
   0.77741006  0.55592327  0.62500000
   0.11074339  0.88925661  0.62500000
   0.44407673  0.88925661  0.62500000
   0.77741006  0.88925661  0.62500000
   0.22258994  0.11074339  0.37500000
   0.55592327  0.11074339  0.37500000
   0.88925661  0.11074339  0.37500000
   0.22258994  0.44407673  0.37500000
   0.55592327  0.44407673  0.37500000
   0.88925661  0.44407673  0.37500000
   0.22258994  0.77741006  0.37500000
   0.55592327  0.77741006  0.37500000
   0.88925661  0.77741006  0.37500000
   0.22258994  0.11074339  0.87500000
   0.55592327  0.11074339  0.87500000
   0.88925661  0.11074339  0.87500000
   0.22258994  0.44407673  0.87500000
   0.55592327  0.44407673  0.87500000
   0.88925661  0.44407673  0.87500000
   0.22258994  0.77741006  0.87500000
   0.55592327  0.77741006  0.87500000
   0.88925661  0.77741006  0.87500000
 
 position of ions in cartesian coordinates  (Angst):
  -0.00697300  1.70582671  1.15518826
   2.94013115  1.71410118  1.16244365
   5.88035352  1.72235633  1.16244365
  -1.46305318  4.25628090  1.16244365
   1.47716919  4.26453605  1.16244365
   4.41739156  4.27279120  1.16244365
  -2.92601513  6.80671577  1.16244365
   0.01420723  6.81497092  1.16244365
   2.95442960  6.82322607  1.16244365
  -0.00009122  1.70584603  5.81221826
   2.94013115  1.71410118  5.81221826
   5.88035352  1.72235633  5.81221826
  -1.46305318  4.25628090  5.81221826
   1.47716919  4.26453605  5.81221826
   4.41739156  4.27279120  5.81221826
  -2.92601513  6.80671577  5.81221826
   0.01420723  6.81497092  5.81221826
   2.95442960  6.82322607  5.81221826
   1.47735163  0.85284398  3.48733095
   4.41757399  0.86109913  3.48733095
   7.35779636  0.86935428  3.48733095
   0.01438967  3.40327885  3.48733095
   2.95461204  3.41153400  3.48733095
   5.89483440  3.41978915  3.48733095
  -1.44857229  5.95371372  3.48733095
   1.49165008  5.96196887  3.48733095
   4.43187245  5.97022402  3.48733095
   1.47735163  0.85284398  8.13710556
   4.41757399  0.86109913  8.13710556
   7.35779636  0.86935428  8.13710556
   0.01438967  3.40327885  8.13710556
   2.95461204  3.41153400  8.13710556
   5.89483440  3.41978915  8.13710556
  -1.44857229  5.95371372  8.13710556
   1.49165008  5.96196887  8.13710556
   4.43187245  5.97022402  8.13710556
 


--------------------------------------------------------------------------------------------------------


 k-point  1 :  0.00000.00000.0000  plane waves:  15979
 k-point  2 :  0.1429-.00000.0000  plane waves:  15945
 k-point  3 :  0.28570.00000.0000  plane waves:  15947
 k-point  4 :  0.4286-.00000.0000  plane waves:  15942
 k-point  5 :  0.00000.14290.0000  plane waves:  15945
 k-point  6 :  0.14290.14290.0000  plane waves:  15952
 k-point  7 :  0.28570.14290.0000  plane waves:  15950
 k-point  8 :  0.42860.14290.0000  plane waves:  15938
 k-point  9 :  -.42860.14290.0000  plane waves:  15928
 k-point 10 :  -.28570.14290.0000  plane waves:  15948
 k-point 11 :  -.14290.14290.0000  plane waves:  15968
 k-point 12 :  0.00000.28570.0000  plane waves:  15947
 k-point 13 :  0.14290.28570.0000  plane waves:  15950
 k-point 14 :  0.28570.28570.0000  plane waves:  15956
 k-point 15 :  0.42860.28570.0000  plane waves:  15947
 k-point 16 :  -.42860.28570.0000  plane waves:  15967
 k-point 17 :  -.28570.28570.0000  plane waves:  15956
 k-point 18 :  -.14290.28570.0000  plane waves:  15948
 k-point 19 :  0.00000.42860.0000  plane waves:  15942
 k-point 20 :  0.14290.42860.0000  plane waves:  15938
 k-point 21 :  0.28570.42860.0000  plane waves:  15947
 k-point 22 :  0.42860.42860.0000  plane waves:  15966
 k-point 23 :  -.42860.42860.0000  plane waves:  15962
 k-point 24 :  -.28570.42860.0000  plane waves:  15967
 k-point 25 :  -.14290.42860.0000  plane waves:  15928
 k-point 26 :  0.00000.00000.2000  plane waves:  15960
 k-point 27 :  0.1429-.00000.2000  plane waves:  15953
 k-point 28 :  0.28570.00000.2000  plane waves:  15956
 k-point 29 :  0.4286-.00000.2000  plane waves:  15960
 k-point 30 :  -.42860.00000.2000  plane waves:  15960
 k-point 31 :  -.28570.00000.2000  plane waves:  15956
 k-point 32 :  -.14290.00000.2000  plane waves:  15953
 k-point 33 :  0.00000.14290.2000  plane waves:  15953
 k-point 34 :  0.14290.14290.2000  plane waves:  15945
 k-point 35 :  0.28570.14290.2000  plane waves:  15948
 k-point 36 :  0.42860.14290.2000  plane waves:  15964
 k-point 37 :  -.42860.14290.2000  plane waves:  15953
 k-point 38 :  -.28570.14290.2000  plane waves:  15940
 k-point 39 :  -.14290.14290.2000  plane waves:  15937
 k-point 40 :  0.00000.28570.2000  plane waves:  15956
 k-point 41 :  0.14290.28570.2000  plane waves:  15948
 k-point 42 :  0.28570.28570.2000  plane waves:  15981
 k-point 43 :  0.42860.28570.2000  plane waves:  15977
 k-point 44 :  -.42860.28570.2000  plane waves:  15947
 k-point 45 :  -.28570.28570.2000  plane waves:  15976
 k-point 46 :  -.14290.28570.2000  plane waves:  15940
 k-point 47 :  0.00000.42860.2000  plane waves:  15960
 k-point 48 :  0.14290.42860.2000  plane waves:  15964
 k-point 49 :  0.28570.42860.2000  plane waves:  15977
 k-point 50 :  0.42860.42860.2000  plane waves:  15966
 k-point 51 :  -.42860.42860.2000  plane waves:  15989
 k-point 52 :  -.28570.42860.2000  plane waves:  15947
 k-point 53 :  -.14290.42860.2000  plane waves:  15953
 k-point 54 :  0.0000-.42860.2000  plane waves:  15960
 k-point 55 :  0.1429-.42860.2000  plane waves:  15953
 k-point 56 :  0.2857-.42860.2000  plane waves:  15947
 k-point 57 :  0.4286-.42860.2000  plane waves:  15989
 k-point 58 :  -.4286-.42860.2000  plane waves:  15966
 k-point 59 :  -.2857-.42860.2000  plane waves:  15977
 k-point 60 :  -.1429-.42860.2000  plane waves:  15964
 k-point 61 :  -.0000-.28570.2000  plane waves:  15956
 k-point 62 :  0.1429-.28570.2000  plane waves:  15940
 k-point 63 :  0.2857-.28570.2000  plane waves:  15976
 k-point 64 :  0.4286-.28570.2000  plane waves:  15947
 k-point 65 :  -.4286-.28570.2000  plane waves:  15977
 k-point 66 :  -.2857-.28570.2000  plane waves:  15981
 k-point 67 :  -.1429-.28570.2000  plane waves:  15948
 k-point 68 :  0.0000-.14290.2000  plane waves:  15953
 k-point 69 :  0.1429-.14290.2000  plane waves:  15937
 k-point 70 :  0.2857-.14290.2000  plane waves:  15940
 k-point 71 :  0.4286-.14290.2000  plane waves:  15953
 k-point 72 :  -.4286-.14290.2000  plane waves:  15964
 k-point 73 :  -.2857-.14290.2000  plane waves:  15948
 k-point 74 :  -.1429-.14290.2000  plane waves:  15945
 k-point 75 :  0.00000.00000.4000  plane waves:  15902
 k-point 76 :  0.1429-.00000.4000  plane waves:  15941
 k-point 77 :  0.28570.00000.4000  plane waves:  15959
 k-point 78 :  0.4286-.00000.4000  plane waves:  15981
 k-point 79 :  -.42860.00000.4000  plane waves:  15981
 k-point 80 :  -.28570.00000.4000  plane waves:  15959
 k-point 81 :  -.14290.00000.4000  plane waves:  15941
 k-point 82 :  0.00000.14290.4000  plane waves:  15941
 k-point 83 :  0.14290.14290.4000  plane waves:  15959
 k-point 84 :  0.28570.14290.4000  plane waves:  15982
 k-point 85 :  0.42860.14290.4000  plane waves:  15966
 k-point 86 :  -.42860.14290.4000  plane waves:  15989
 k-point 87 :  -.28570.14290.4000  plane waves:  15956
 k-point 88 :  -.14290.14290.4000  plane waves:  15936
 k-point 89 :  0.00000.28570.4000  plane waves:  15959
 k-point 90 :  0.14290.28570.4000  plane waves:  15982
 k-point 91 :  0.28570.28570.4000  plane waves:  15963
 k-point 92 :  0.42860.28570.4000  plane waves:  15967
 k-point 93 :  -.42860.28570.4000  plane waves:  15981
 k-point 94 :  -.28570.28570.4000  plane waves:  15966
 k-point 95 :  -.14290.28570.4000  plane waves:  15956
 k-point 96 :  0.00000.42860.4000  plane waves:  15981
 k-point 97 :  0.14290.42860.4000  plane waves:  15966
 k-point 98 :  0.28570.42860.4000  plane waves:  15967
 k-point 99 :  0.42860.42860.4000  plane waves:  15963
 k-point ** :  -.42860.42860.4000  plane waves:  15985
 k-point ** :  -.28570.42860.4000  plane waves:  15981
 k-point ** :  -.14290.42860.4000  plane waves:  15989
 k-point ** :  0.0000-.42860.4000  plane waves:  15981
 k-point ** :  0.1429-.42860.4000  plane waves:  15989
 k-point ** :  0.2857-.42860.4000  plane waves:  15981
 k-point ** :  0.4286-.42860.4000  plane waves:  15985
 k-point ** :  -.4286-.42860.4000  plane waves:  15963
 k-point ** :  -.2857-.42860.4000  plane waves:  15967
 k-point ** :  -.1429-.42860.4000  plane waves:  15966
 k-point ** :  -.0000-.28570.4000  plane waves:  15959
 k-point ** :  0.1429-.28570.4000  plane waves:  15956
 k-point ** :  0.2857-.28570.4000  plane waves:  15966
 k-point ** :  0.4286-.28570.4000  plane waves:  15981
 k-point ** :  -.4286-.28570.4000  plane waves:  15967
 k-point ** :  -.2857-.28570.4000  plane waves:  15963
 k-point ** :  -.1429-.28570.4000  plane waves:  15982
 k-point ** :  0.0000-.14290.4000  plane waves:  15941
 k-point ** :  0.1429-.14290.4000  plane waves:  15936
 k-point ** :  0.2857-.14290.4000  plane waves:  15956
 k-point ** :  0.4286-.14290.4000  plane waves:  15989
 k-point ** :  -.4286-.14290.4000  plane waves:  15966
 k-point ** :  -.2857-.14290.4000  plane waves:  15982
 k-point ** :  -.1429-.14290.4000  plane waves:  15959

 maximum and minimum number of plane-waves per node :  15989 15902

 maximum number of plane-waves:  15989
 maximal index in each direction: 
   IXMAX= 16   IYMAX= 16   IZMAX= 16
   IXMIN=-16   IYMIN=-16   IZMIN=-17

 WARNING: wrap around error must be expected set NGX to  66
 WARNING: wrap around error must be expected set NGY to  66
 NGZ is ok and might be reduce to  68

 parallel 3dFFT wavefunction:
    minimum data exchange during FFTs selected (reduces bandwidth)
 parallel 3dFFT charge:
    minimum data exchange during FFTs selected (reduces bandwidth)

 For storing wavefunctions 6784.26 MBYTES are necessary
 For predicting wavefunctions  120.72 MBYTES are necessary
Broyden mixing: mesh for mixing (old mesh)
   NGX = 33   NGY = 33   NGZ = 33
  (NGX  =128   NGY  =128   NGZ  =140)
 gives a total of  35937 points
 initial charge density was supplied:
 charge density of overlapping atoms calculated
 number of electron  360.0000000 magnetization 
 keeping initial charge density in first step


--------------------------------------------------------------------------------------------------------


 Maximum index for augmentation-charges         4328 (set IRDMAX)


--------------------------------------------------------------------------------------------------------


 First call to EWALD:  gamma=   0.207
 Maximum number of real-space cells 3x 3x 3
 Maximum number of reciprocal cells 3x 3x 3

    FEWALD:  VPU time    0.01: CPU time    0.01


----------------------------------------- Iteration    1(   1)  ---------------------------------------


    POTLOK:  VPU time    1.72: CPU time    1.73
    SETDIJ:  VPU time    0.08: CPU time    0.08
    EDDAV :  VPU time 3352.55: CPU time 3362.59
    DOS   :  VPU time    0.00: CPU time   -0.00
    ------------------------------------------
      LOOP:  VPU time 3354.71: CPU time 3364.74

 eigenvalue-minimisations  : 53896
 total energy-change (2. order) : 0.4980603E+04  (-0.1719409E+05)
 number of electron  360.0000000 magnetization 
 augmentation part   360.0000000 magnetization 

 Free energy of the ion-electron system (eV)
  ---------------------------------------------------
  alpha Z        PSCENC =      2248.03169769
  Ewald energy   TEWEN  =    -28849.98162687
  -1/2 Hartree   DENC   =     -8014.13397078
  -V(xc)+E(xc)   XCENC  =      1292.27885659
  PAW double counting   =     25711.31321228   -25685.71707589
  entropy T*S    EENTRO =        -0.00106213
  eigenvalues    EBANDS =       753.28911419
  atomic energy  EATOM  =     37525.52423787
  ---------------------------------------------------
  free energy    TOTEN  =      4980.60338296 eV

  energy without entropy =     4980.60444509  energy(sigma->0) =     4980.60391402


--------------------------------------------------------------------------------------------------------




----------------------------------------- Iteration    1(   2)  ---------------------------------------


    EDDAV :  VPU time 3332.16: CPU time 3333.17
    DOS   :  VPU time    0.00: CPU time   -0.00
    ------------------------------------------
      LOOP:  VPU time 3332.51: CPU time 3333.52

 eigenvalue-minimisations  : 53136
 total energy-change (2. order) :-0.4889786E+04  (-0.4814482E+04)
 number of electron  360.0000000 magnetization 
 augmentation part   360.0000000 magnetization 

 Free energy of the ion-electron system (eV)
  ---------------------------------------------------
  alpha Z        PSCENC =      2248.03169769
  Ewald energy   TEWEN  =    -28849.98162687
  -1/2 Hartree   DENC   =     -8014.13397078
  -V(xc)+E(xc)   XCENC  =      1292.27885659
  PAW double counting   =     25711.31321228   -25685.71707589
  entropy T*S    EENTRO =        -0.00159992
  eigenvalues    EBANDS =     -4136.49668268
  atomic energy  EATOM  =     37525.52423787
  ---------------------------------------------------
  free energy    TOTEN  =        90.81704830 eV

  energy without entropy =       90.81864822  energy(sigma->0) =       90.81784826


--------------------------------------------------------------------------------------------------------




----------------------------------------- Iteration    1(   3)  ---------------------------------------


    EDDAV :  VPU time 4480.80: CPU time 4482.15
    DOS   :  VPU time    0.00: CPU time   -0.00
    ------------------------------------------
      LOOP:  VPU time 4481.15: CPU time 4482.51

 eigenvalue-minimisations  : 77704
 total energy-change (2. order) :-0.3831607E+03  (-0.3605030E+03)
 number of electron  360.0000000 magnetization 
 augmentation part   360.0000000 magnetization 

 Free energy of the ion-electron system (eV)
  ---------------------------------------------------
  alpha Z        PSCENC =      2248.03169769
  Ewald energy   TEWEN  =    -28849.98162687
  -1/2 Hartree   DENC   =     -8014.13397078
  -V(xc)+E(xc)   XCENC  =      1292.27885659
  PAW double counting   =     25711.31321228   -25685.71707589
  entropy T*S    EENTRO =        -0.00149916
  eigenvalues    EBANDS =     -4519.65749654
  atomic energy  EATOM  =     37525.52423787
  ---------------------------------------------------
  free energy    TOTEN  =      -292.34366480 eV

  energy without entropy =     -292.34216564  energy(sigma->0) =     -292.34291522


--------------------------------------------------------------------------------------------------------




----------------------------------------- Iteration    1(   4)  ---------------------------------------


    EDDAV :  VPU time 4208.76: CPU time 4210.15
    DOS   :  VPU time    0.00: CPU time   -0.00
    ------------------------------------------
      LOOP:  VPU time 4209.10: CPU time 4210.50

 eigenvalue-minimisations  : 72656
 total energy-change (2. order) :-0.3166577E+02  (-0.3076332E+02)
 number of electron  360.0000000 magnetization 
 augmentation part   360.0000000 magnetization 

 Free energy of the ion-electron system (eV)
  ---------------------------------------------------
  alpha Z        PSCENC =      2248.03169769
  Ewald energy   TEWEN  =    -28849.98162687
  -1/2 Hartree   DENC   =     -8014.13397078
  -V(xc)+E(xc)   XCENC  =      1292.27885659
  PAW double counting   =     25711.31321228   -25685.71707589
  entropy T*S    EENTRO =        -0.00088572
  eigenvalues    EBANDS =     -4551.32387568
  atomic energy  EATOM  =     37525.52423787
  ---------------------------------------------------
  free energy    TOTEN  =      -324.00943051 eV

  energy without entropy =     -324.00854479  energy(sigma->0) =     -324.00898765


--------------------------------------------------------------------------------------------------------




----------------------------------------- Iteration    1(   5)  ---------------------------------------


    EDDAV :  VPU time 4051.71: CPU time 4061.41
    DOS   :  VPU time    0.00: CPU time   -0.00
    CHARGE:  VPU time  196.34: CPU time  196.95
    MIXING:  VPU time    0.04: CPU time    0.04
    ------------------------------------------
      LOOP:  VPU time 4248.42: CPU time 4258.74

 eigenvalue-minimisations  : 69440
 total energy-change (2. order) :-0.9420481E+00  (-0.9202911E+00)
 number of electron  360.0000132 magnetization 
 augmentation part   157.1646743 magnetization 

 Broyden mixing:
  rms(total) = 0.35886E+01    rms(broyden)= 0.35886E+01
  rms(prec ) = 0.50972E+01
  weight for this iteration     100.00

 Free energy of the ion-electron system (eV)
  ---------------------------------------------------
  alpha Z        PSCENC =      2248.03169769
  Ewald energy   TEWEN  =    -28849.98162687
  -1/2 Hartree   DENC   =     -8014.13397078
  -V(xc)+E(xc)   XCENC  =      1292.27885659
  PAW double counting   =     25711.31321228   -25685.71707589
  entropy T*S    EENTRO =        -0.00079289
  eigenvalues    EBANDS =     -4552.26601666
  atomic energy  EATOM  =     37525.52423787
  ---------------------------------------------------
  free energy    TOTEN  =      -324.95147866 eV

  energy without entropy =     -324.95068576  energy(sigma->0) =     -324.95108221


--------------------------------------------------------------------------------------------------------




----------------------------------------- Iteration    1(   6)  ---------------------------------------


    POTLOK:  VPU time    1.59: CPU time    1.63
    SETDIJ:  VPU time    0.07: CPU time    0.08
    EDDAV :  VPU time 3479.84: CPU time 3499.34
    DOS   :  VPU time    0.00: CPU time   -0.00
    CHARGE:  VPU time  189.36: CPU time  190.04
    MIXING:  VPU time    0.04: CPU time    0.04
    ------------------------------------------
      LOOP:  VPU time 3671.26: CPU time 3691.47

 eigenvalue-minimisations  : 58064
 total energy-change (2. order) : 0.3882880E+02  (-0.1210889E+02)
 number of electron  360.0000141 magnetization 
 augmentation part   166.5977062 magnetization 

 Broyden mixing:
  rms(total) = 0.90819E+00    rms(broyden)= 0.90815E+00
  rms(prec ) = 0.13062E+01
  weight for this iteration     100.00

 eigenvalues of (default mixing * dielectric matrix)
  average eigenvalue GAMMA=   1.2620
  1.2620

 Free energy of the ion-electron system (eV)
  ---------------------------------------------------
  alpha Z        PSCENC =      2248.03169769
  Ewald energy   TEWEN  =    -28849.98162687
  -1/2 Hartree   DENC   =     -7300.84993226
  -V(xc)+E(xc)   XCENC  =      1254.50453354
  PAW double counting   =     24899.13786742   -24941.54293010
  entropy T*S    EENTRO =        -0.00202795
  eigenvalues    EBANDS =     -5120.94450200
  atomic energy  EATOM  =     37525.52423787
  ---------------------------------------------------
  free energy    TOTEN  =      -286.12268266 eV

  energy without entropy =     -286.12065471  energy(sigma->0) =     -286.12166869


--------------------------------------------------------------------------------------------------------




----------------------------------------- Iteration    1(   7)  ---------------------------------------


    POTLOK:  VPU time    1.62: CPU time    1.63
    SETDIJ:  VPU time    0.07: CPU time    0.08
    EDDAV :  VPU time 4017.59: CPU time 4024.23
    DOS   :  VPU time    0.00: CPU time   -0.00
    CHARGE:  VPU time  185.42: CPU time  185.66
    MIXING:  VPU time    0.04: CPU time    0.04
    ------------------------------------------
      LOOP:  VPU time 4205.09: CPU time 4211.99

 eigenvalue-minimisations  : 69968
 total energy-change (2. order) : 0.1895944E+01  (-0.1546653E+01)
 number of electron  360.0000145 magnetization 
 augmentation part   169.9593818 magnetization 

 Broyden mixing:
  rms(total) = 0.35460E+00    rms(broyden)= 0.35458E+00
  rms(prec ) = 0.42244E+00
  weight for this iteration     100.00

 eigenvalues of (default mixing * dielectric matrix)
  average eigenvalue GAMMA=   1.8626
  1.3998  2.3255

 Free energy of the ion-electron system (eV)
  ---------------------------------------------------
  alpha Z        PSCENC =      2248.03169769
  Ewald energy   TEWEN  =    -28849.98162687
  -1/2 Hartree   DENC   =     -7091.08477329
  -V(xc)+E(xc)   XCENC  =      1244.14146102
  PAW double counting   =     25027.49331036   -25108.70958288
  entropy T*S    EENTRO =        -0.00219262
  eigenvalues    EBANDS =     -5279.63926972
  atomic energy  EATOM  =     37525.52423787
  ---------------------------------------------------
  free energy    TOTEN  =      -284.22673843 eV

  energy without entropy =     -284.22454581  energy(sigma->0) =     -284.22564212


--------------------------------------------------------------------------------------------------------




----------------------------------------- Iteration    1(   8)  ---------------------------------------


    POTLOK:  VPU time    1.80: CPU time    1.81
    SETDIJ:  VPU time    0.08: CPU time    0.08
    EDDAV :  VPU time 4034.48: CPU time 4039.78
    DOS   :  VPU time    0.00: CPU time   -0.00
    CHARGE:  VPU time  190.86: CPU time  191.12
    MIXING:  VPU time    0.05: CPU time    0.05
    ------------------------------------------
      LOOP:  VPU time 4227.61: CPU time 4233.17

 eigenvalue-minimisations  : 70328
 total energy-change (2. order) :-0.7922034E-01  (-0.2818938E+00)
 number of electron  360.0000144 magnetization 
 augmentation part   168.9735839 magnetization 

 Broyden mixing:
  rms(total) = 0.37689E+00    rms(broyden)= 0.37688E+00
  rms(prec ) = 0.81940E+00
  weight for this iteration     100.00

 eigenvalues of (default mixing * dielectric matrix)
  average eigenvalue GAMMA=   1.3746
  2.5188  1.3612  0.2439

 Free energy of the ion-electron system (eV)
  ---------------------------------------------------
  alpha Z        PSCENC =      2248.03169769
  Ewald energy   TEWEN  =    -28849.98162687
  -1/2 Hartree   DENC   =     -7129.57439104
  -V(xc)+E(xc)   XCENC  =      1247.24134574
  PAW double counting   =     25554.85474458   -25653.01491041
  entropy T*S    EENTRO =        -0.00220846
  eigenvalues    EBANDS =     -5227.38484789
  atomic energy  EATOM  =     37525.52423787
  ---------------------------------------------------
  free energy    TOTEN  =      -284.30595877 eV

  energy without entropy =     -284.30375032  energy(sigma->0) =     -284.30485455


--------------------------------------------------------------------------------------------------------




----------------------------------------- Iteration    1(   9)  ---------------------------------------


    POTLOK:  VPU time    1.61: CPU time    1.62
    SETDIJ:  VPU time    0.07: CPU time    0.07
    EDDAV :  VPU time 4206.22: CPU time 4211.66
    DOS   :  VPU time    0.00: CPU time   -0.00
    CHARGE:  VPU time  198.93: CPU time  199.19
    MIXING:  VPU time    0.05: CPU time    0.05
    ------------------------------------------
      LOOP:  VPU time 4407.23: CPU time 4412.93

 eigenvalue-minimisations  : 74512
 total energy-change (2. order) : 0.1750150E+00  (-0.9374026E-01)
 number of electron  360.0000144 magnetization 
 augmentation part   168.9346690 magnetization 

 Broyden mixing:
  rms(total) = 0.17373E+00    rms(broyden)= 0.17372E+00
  rms(prec ) = 0.25148E+00
  weight for this iteration     100.00

 eigenvalues of (default mixing * dielectric matrix)
  average eigenvalue GAMMA=   1.1630
  2.5633  1.2884  0.5751  0.2251

 Free energy of the ion-electron system (eV)
  ---------------------------------------------------
  alpha Z        PSCENC =      2248.03169769
  Ewald energy   TEWEN  =    -28849.98162687
  -1/2 Hartree   DENC   =     -7126.45022829
  -V(xc)+E(xc)   XCENC  =      1247.34219427
  PAW double counting   =     25660.62042575   -25763.43546273
  entropy T*S    EENTRO =        -0.00210179
  eigenvalues    EBANDS =     -5225.78007970
  atomic energy  EATOM  =     37525.52423787
  ---------------------------------------------------
  free energy    TOTEN  =      -284.13094379 eV

  energy without entropy =     -284.12884200  energy(sigma->0) =     -284.12989290


--------------------------------------------------------------------------------------------------------




----------------------------------------- Iteration    1(  10)  ---------------------------------------


    POTLOK:  VPU time    1.61: CPU time    1.62
    SETDIJ:  VPU time    0.07: CPU time    0.07
    EDDAV :  VPU time 4057.10: CPU time 4062.53
    DOS   :  VPU time    0.00: CPU time   -0.00
    CHARGE:  VPU time  207.01: CPU time  207.29
    MIXING:  VPU time    0.04: CPU time    0.04
    ------------------------------------------
      LOOP:  VPU time 4266.18: CPU time 4271.90

 eigenvalue-minimisations  : 71272
 total energy-change (2. order) : 0.6292749E-01  (-0.1641980E-01)
 number of electron  360.0000144 magnetization 
 augmentation part   169.1999789 magnetization 

 Broyden mixing:
  rms(total) = 0.98743E-01    rms(broyden)= 0.98741E-01
  rms(prec ) = 0.14418E+00
  weight for this iteration     100.00

 eigenvalues of (default mixing * dielectric matrix)
  average eigenvalue GAMMA=   1.0811
  2.5960  1.1714  1.1714  0.2333  0.2333

 Free energy of the ion-electron system (eV)
  ---------------------------------------------------
  alpha Z        PSCENC =      2248.03169769
  Ewald energy   TEWEN  =    -28849.98162687
  -1/2 Hartree   DENC   =     -7109.66733345
  -V(xc)+E(xc)   XCENC  =      1246.44617830
  PAW double counting   =     25632.10862706   -25735.48941230
  entropy T*S    EENTRO =        -0.00234668
  eigenvalues    EBANDS =     -5241.03803793
  atomic energy  EATOM  =     37525.52423787
  ---------------------------------------------------
  free energy    TOTEN  =      -284.06801630 eV

  energy without entropy =     -284.06566962  energy(sigma->0) =     -284.06684296


--------------------------------------------------------------------------------------------------------




----------------------------------------- Iteration    1(  11)  ---------------------------------------


    POTLOK:  VPU time    1.60: CPU time    1.61
    SETDIJ:  VPU time    0.07: CPU time    0.07
    EDDAV :  VPU time 3673.38: CPU time 3678.38
    DOS   :  VPU time    0.00: CPU time   -0.00
    CHARGE:  VPU time  213.43: CPU time  213.72
    MIXING:  VPU time    0.04: CPU time    0.04
    ------------------------------------------
      LOOP:  VPU time 3888.86: CPU time 3894.16

 eigenvalue-minimisations  : 63000
 total energy-change (2. order) : 0.2905874E-01  (-0.2037966E-01)
 number of electron  360.0000145 magnetization 
 augmentation part   169.6061425 magnetization 

 Broyden mixing:
  rms(total) = 0.23856E-01    rms(broyden)= 0.23854E-01
  rms(prec ) = 0.37135E-01
  weight for this iteration     100.00

 eigenvalues of (default mixing * dielectric matrix)
  average eigenvalue GAMMA=   0.9945
  2.5886  1.2436  1.2436  0.4156  0.2198  0.2556

 Free energy of the ion-electron system (eV)
  ---------------------------------------------------
  alpha Z        PSCENC =      2248.03169769
  Ewald energy   TEWEN  =    -28849.98162687
  -1/2 Hartree   DENC   =     -7087.30436179
  -V(xc)+E(xc)   XCENC  =      1245.23559964
  PAW double counting   =     25588.06715527   -25691.59623052
  entropy T*S    EENTRO =        -0.00219837
  eigenvalues    EBANDS =     -5262.01323049
  atomic energy  EATOM  =     37525.52423787
  ---------------------------------------------------
  free energy    TOTEN  =      -284.03895756 eV

  energy without entropy =     -284.03675920  energy(sigma->0) =     -284.03785838


--------------------------------------------------------------------------------------------------------




----------------------------------------- Iteration    1(  12)  ---------------------------------------


    POTLOK:  VPU time    1.61: CPU time    1.62
    SETDIJ:  VPU time    0.07: CPU time    0.08
    EDDAV :  VPU time 4063.52: CPU time 4069.06
    DOS   :  VPU time    0.00: CPU time   -0.00
    CHARGE:  VPU time  218.91: CPU time  219.21
    MIXING:  VPU time    0.04: CPU time    0.04
    ------------------------------------------
      LOOP:  VPU time 4284.49: CPU time 4290.34

 eigenvalue-minimisations  : 71808
 total energy-change (2. order) :-0.7088925E-03  (-0.9602144E-03)
 number of electron  360.0000145 magnetization 
 augmentation part   169.6312955 magnetization 

 Broyden mixing:
  rms(total) = 0.24777E-01    rms(broyden)= 0.24777E-01
  rms(prec ) = 0.34561E-01
  weight for this iteration     100.00

 eigenvalues of (default mixing * dielectric matrix)
  average eigenvalue GAMMA=   1.0308
  2.5388  1.8408  1.1866  0.9106  0.2182  0.2602  0.2602

 Free energy of the ion-electron system (eV)
  ---------------------------------------------------
  alpha Z        PSCENC =      2248.03169769
  Ewald energy   TEWEN  =    -28849.98162687
  -1/2 Hartree   DENC   =     -7086.86569051
  -V(xc)+E(xc)   XCENC  =      1245.20982416
  PAW double counting   =     25586.55348573   -25689.58415301
  entropy T*S    EENTRO =        -0.00217689
  eigenvalues    EBANDS =     -5262.92526464
  atomic energy  EATOM  =     37525.52423787
  ---------------------------------------------------
  free energy    TOTEN  =      -284.03966646 eV

  energy without entropy =     -284.03748957  energy(sigma->0) =     -284.03857801


--------------------------------------------------------------------------------------------------------




----------------------------------------- Iteration    1(  13)  ---------------------------------------


    POTLOK:  VPU time    1.64: CPU time    1.64
    SETDIJ:  VPU time    0.07: CPU time    0.08
    EDDAV :  VPU time 3952.44: CPU time 3955.82
    DOS   :  VPU time    0.00: CPU time   -0.00
    CHARGE:  VPU time  217.99: CPU time  218.19
    MIXING:  VPU time    0.05: CPU time    0.05
    ------------------------------------------
      LOOP:  VPU time 4172.54: CPU time 4176.13

 eigenvalue-minimisations  : 68656
 total energy-change (2. order) : 0.1138048E-02  (-0.3211501E-03)
 number of electron  360.0000145 magnetization 
 augmentation part   169.5889294 magnetization 

 Broyden mixing:
  rms(total) = 0.10837E-01    rms(broyden)= 0.10837E-01
  rms(prec ) = 0.16437E-01
  weight for this iteration     100.00

 eigenvalues of (default mixing * dielectric matrix)
  average eigenvalue GAMMA=   0.9782
  2.5282  2.0853  1.1376  0.9549  0.3899  0.2187  0.2553  0.2553

 Free energy of the ion-electron system (eV)
  ---------------------------------------------------
  alpha Z        PSCENC =      2248.03169769
  Ewald energy   TEWEN  =    -28849.98162687
  -1/2 Hartree   DENC   =     -7090.58876121
  -V(xc)+E(xc)   XCENC  =      1245.40906338
  PAW double counting   =     25592.76881834   -25694.45524760
  entropy T*S    EENTRO =        -0.00224416
  eigenvalues    EBANDS =     -5260.74446585
  atomic energy  EATOM  =     37525.52423787
  ---------------------------------------------------
  free energy    TOTEN  =      -284.03852841 eV

  energy without entropy =     -284.03628425  energy(sigma->0) =     -284.03740633


--------------------------------------------------------------------------------------------------------




----------------------------------------- Iteration    1(  14)  ---------------------------------------


    POTLOK:  VPU time    1.91: CPU time    1.92
    SETDIJ:  VPU time    0.07: CPU time    0.07
    EDDAV :  VPU time 4024.17: CPU time 4035.72
    DOS   :  VPU time    0.00: CPU time   -0.00
    CHARGE:  VPU time  221.00: CPU time  221.71
    MIXING:  VPU time    0.04: CPU time    0.04
    ------------------------------------------
      LOOP:  VPU time 4247.54: CPU time 4259.82

 eigenvalue-minimisations  : 70896
 total energy-change (2. order) : 0.2066840E-03  (-0.6854525E-04)
 number of electron  360.0000145 magnetization 
 augmentation part   169.5739204 magnetization 

 Broyden mixing:
  rms(total) = 0.56144E-02    rms(broyden)= 0.56142E-02
  rms(prec ) = 0.88183E-02
  weight for this iteration     100.00

 eigenvalues of (default mixing * dielectric matrix)
  average eigenvalue GAMMA=   0.9778
  2.6071  2.0294  1.2587  0.9569  0.9569  0.2180  0.2608  0.2608  0.2516

 Free energy of the ion-electron system (eV)
  ---------------------------------------------------
  alpha Z        PSCENC =      2248.03169769
  Ewald energy   TEWEN  =    -28849.98162687
  -1/2 Hartree   DENC   =     -7091.85095659
  -V(xc)+E(xc)   XCENC  =      1245.47858284
  PAW double counting   =     25595.44314286   -25696.65333877
  entropy T*S    EENTRO =        -0.00226535
  eigenvalues    EBANDS =     -5260.02779540
  atomic energy  EATOM  =     37525.52423787
  ---------------------------------------------------
  free energy    TOTEN  =      -284.03832173 eV

  energy without entropy =     -284.03605637  energy(sigma->0) =     -284.03718905


--------------------------------------------------------------------------------------------------------




----------------------------------------- Iteration    1(  15)  ---------------------------------------


    POTLOK:  VPU time    1.30: CPU time    1.31
    SETDIJ:  VPU time    0.06: CPU time    0.06
    EDDAV :  VPU time 4080.46: CPU time 4094.21
    DOS   :  VPU time    0.00: CPU time   -0.00
    CHARGE:  VPU time  219.24: CPU time  219.97
    MIXING:  VPU time    0.05: CPU time    0.05
    ------------------------------------------
      LOOP:  VPU time 4301.47: CPU time 4315.95

 eigenvalue-minimisations  : 72328
 total energy-change (2. order) : 0.3670943E-04  (-0.1359833E-04)
 number of electron  360.0000145 magnetization 
 augmentation part   169.5718648 magnetization 

 Broyden mixing:
  rms(total) = 0.35261E-02    rms(broyden)= 0.35260E-02
  rms(prec ) = 0.56756E-02
  weight for this iteration     100.00

 eigenvalues of (default mixing * dielectric matrix)
  average eigenvalue GAMMA=   0.9216
  2.6176  2.0219  1.3006  0.9983  0.9983  0.2908  0.2908  0.2183  0.2396  0.2396

 Free energy of the ion-electron system (eV)
  ---------------------------------------------------
  alpha Z        PSCENC =      2248.03169769
  Ewald energy   TEWEN  =    -28849.98162687
  -1/2 Hartree   DENC   =     -7092.11358238
  -V(xc)+E(xc)   XCENC  =      1245.49645410
  PAW double counting   =     25596.91636928   -25697.96192630
  entropy T*S    EENTRO =        -0.00226745
  eigenvalues    EBANDS =     -5259.94764096
  atomic energy  EATOM  =     37525.52423787
  ---------------------------------------------------
  free energy    TOTEN  =      -284.03828502 eV

  energy without entropy =     -284.03601757  energy(sigma->0) =     -284.03715129


--------------------------------------------------------------------------------------------------------




----------------------------------------- Iteration    1(  16)  ---------------------------------------


    POTLOK:  VPU time    1.86: CPU time    1.87
    SETDIJ:  VPU time    0.07: CPU time    0.07
    EDDAV :  VPU time 4144.42: CPU time 4156.32
    DOS   :  VPU time    0.00: CPU time   -0.00
    CHARGE:  VPU time  220.72: CPU time  221.44
    MIXING:  VPU time    0.06: CPU time    0.06
    ------------------------------------------
      LOOP:  VPU time 4367.48: CPU time 4380.13

 eigenvalue-minimisations  : 73592
 total energy-change (2. order) : 0.1547229E-04  (-0.3744993E-05)
 number of electron  360.0000145 magnetization 
 augmentation part   169.5704866 magnetization 

 Broyden mixing:
  rms(total) = 0.26397E-02    rms(broyden)= 0.26396E-02
  rms(prec ) = 0.37148E-02
  weight for this iteration     100.00

 eigenvalues of (default mixing * dielectric matrix)
  average eigenvalue GAMMA=   0.9584
  2.6225  2.0689  1.6272  1.1099  1.1099  0.7955  0.2713  0.2542  0.2542  0.2169
  0.2120

 Free energy of the ion-electron system (eV)
  ---------------------------------------------------
  alpha Z        PSCENC =      2248.03169769
  Ewald energy   TEWEN  =    -28849.98162687
  -1/2 Hartree   DENC   =     -7092.22519080
  -V(xc)+E(xc)   XCENC  =      1245.50335425
  PAW double counting   =     25597.27893436   -25698.26901050
  entropy T*S    EENTRO =        -0.00226897
  eigenvalues    EBANDS =     -5259.89839657
  atomic energy  EATOM  =     37525.52423787
  ---------------------------------------------------
  free energy    TOTEN  =      -284.03826954 eV

  energy without entropy =     -284.03600057  energy(sigma->0) =     -284.03713506


--------------------------------------------------------------------------------------------------------




----------------------------------------- Iteration    1(  17)  ---------------------------------------


    POTLOK:  VPU time    1.91: CPU time    1.92
    SETDIJ:  VPU time    0.07: CPU time    0.07
    EDDAV :  VPU time 3874.06: CPU time 3884.83
    DOS   :  VPU time    0.00: CPU time   -0.00
    CHARGE:  VPU time  217.07: CPU time  217.75
    MIXING:  VPU time    0.06: CPU time    0.06
    ------------------------------------------
      LOOP:  VPU time 4093.51: CPU time 4104.98

 eigenvalue-minimisations  : 67872
 total energy-change (2. order) : 0.3374823E-04  (-0.3232494E-05)
 number of electron  360.0000145 magnetization 
 augmentation part   169.5659139 magnetization 

 Broyden mixing:
[...]
     97     -26.9262      2.00000
     98     -26.9250      2.00000
     99     -26.9202      2.00000
    100     -26.9201      2.00000
    101     -26.9059      2.00000
    102     -26.9057      2.00000
    103     -26.8907      2.00000
    104     -26.8905      2.00000
    105     -26.8780      2.00000
    106     -26.8676      2.00000
    107     -26.8634      2.00000
    108     -26.8518      2.00000
    109       0.2422      2.00000
    110       0.6340      2.00000
    111       1.7303      2.00000
    112       1.7307      2.00000
    113       2.0218      2.00000
    114       2.0222      2.00000
    115       2.5950      2.00000
    116       2.5952      2.00000
    117       2.7767      2.00000
    118       2.7769      2.00000
    119       2.8472      2.00000
    120       3.0409      2.00000
    121       3.0411      2.00000
    122       3.0805      2.00000
    123       3.0806      2.00000
    124       3.1725      2.00000
    125       3.7613      2.00000
    126       3.7620      2.00000
    127       3.7863      2.00000
    128       3.7870      2.00000
    129       3.9027      2.00000
    130       3.9035      2.00000
    131       3.9146      2.00000
    132       3.9154      2.00000
    133       3.9853      2.00000
    134       3.9881      2.00000
    135       4.1056      2.00000
    136       4.1061      2.00000
    137       4.1517      2.00000
    138       4.1524      2.00000
    139       4.1528      2.00000
    140       4.1809      2.00000
    141       4.2046      2.00000
    142       4.2153      2.00000
    143       4.4041      2.00000
    144       4.4353      2.00000
    145       4.4784      2.00000
    146       4.4788      2.00000
    147       4.5201      2.00000
    148       4.5205      2.00000
    149       4.6234      2.00000
    150       4.6280      2.00000
    151       4.6820      2.00000
    152       4.6823      2.00000
    153       4.7209      2.00000
    154       4.7219      2.00000
    155       4.7225      2.00000
    156       4.7233      2.00000
    157       4.7273      2.00000
    158       4.7555      2.00000
    159       4.8187      2.00000
    160       4.8236      2.00000
    161       4.8242      2.00000
    162       4.8432      2.00000
    163       4.9258      2.00000
    164       5.0673      2.00000
    165       5.1180      2.00000
    166       5.1188      2.00000
    167       5.2058      2.00000
    168       5.2070      2.00000
    169       5.2515      2.00000
    170       5.2530      2.00000
    171       5.3602      2.00000
    172       5.3616      2.00000
    173       5.4540      2.00000
    174       5.4549      2.00000
    175       5.5420      2.00000
    176       5.5428      2.00000
    177       5.6762      2.00000
    178       5.7785      2.00000
    179       5.8007      2.00000
    180       5.8755      0.43861
    181       5.9369      0.00000
    182       5.9647      0.00000
    183       6.0182      0.00000
    184       6.0260      0.00000
    185       6.0538      0.00000
    186       6.1357      0.00000
    187       6.1371      0.00000
    188       6.1589      0.00000
    189       6.1593      0.00000
    190       6.1754      0.00000
    191       6.2555      0.00000
    192       6.2562      0.00000
    193       6.2700      0.00000
    194       6.2830      0.00000
    195       6.3052      0.00000
    196       6.3064      0.00000
    197       6.3522      0.00000
    198       6.4603      0.00000
    199       6.4607      0.00000
    200       6.4734      0.00000
    201       6.4739      0.00000
    202       6.5849      0.00000
    203       6.6073      0.00000
    204       6.6096      0.00000
    205       6.6104      0.00000
    206       6.6447      0.00000
    207       6.6747      0.00000
    208       6.6755      0.00000
    209       6.7020      0.00000
    210       6.7030      0.00000
    211       6.7205      0.00000
    212       6.7214      0.00000
    213       6.7947      0.00000
    214       6.8043      0.00000
    215       6.8168      0.00000
    216       6.8427      0.00000


--------------------------------------------------------------------------------------------------------


 soft charge-density along one line, spin component           1
         0         1         2         3         4         5         6         7         8         9
 total charge-density along one line
 
 pseudopotential strength for first ion, spin component:           1
-29.049   0.000  -0.000  12.985  -0.000   0.000   0.001   0.001
  0.000 -29.102  -0.000  -0.000  13.024   0.000   0.000  -0.000
 -0.000  -0.000 -29.048   0.000   0.000  12.984   0.005   0.000
 12.985  -0.000   0.000  -0.856   0.000  -0.000  -0.001  -0.001
 -0.000  13.024   0.000   0.000  -0.880  -0.000  -0.000   0.000
  0.000   0.000  12.984  -0.000  -0.000  -0.855  -0.003  -0.000
  0.001   0.000   0.005  -0.001  -0.000  -0.003  -2.897  -0.000
  0.001  -0.000   0.000  -0.001   0.000  -0.000  -0.000  -2.922
  0.000   0.001  -0.001  -0.000  -0.001   0.001  -0.000   0.000
  0.000   0.001   0.001  -0.000  -0.001  -0.001  -0.000  -0.000
  0.006  -0.000   0.001  -0.003   0.000  -0.001  -0.000  -0.000
  0.000   0.000   0.001  -0.000  -0.000  -0.001   0.521   0.000
  0.000  -0.000   0.000  -0.000   0.000  -0.000   0.000   0.516
  0.000   0.000  -0.000  -0.000  -0.000   0.000  -0.000   0.000
  0.000   0.000   0.000  -0.000  -0.000  -0.000  -0.000  -0.000
  0.001  -0.000   0.000  -0.001   0.000  -0.000  -0.000  -0.000
  0.000  -0.000  -0.001  -0.000   0.000   0.000   0.000  -0.000
 -0.000   0.000   0.000   0.000  -0.000  -0.000  -0.000   0.000
 total augmentation occupancy for first ion, spin component:           1
  1.976  -0.000  -0.000   0.003  -0.000   0.000  -0.000  -0.000  -0.000   0.000  -0.016   0.000   0.000  -0.000   0.000   0.006
 -0.000   1.976   0.000  -0.000   0.001  -0.000   0.000   0.000  -0.000  -0.000  -0.000   0.000   0.000   0.000   0.000  -0.000
 -0.000   0.000   1.976   0.000   0.000   0.003  -0.016   0.000   0.000  -0.000  -0.000   0.007   0.000  -0.000   0.000   0.000
  0.003  -0.000   0.000   0.187  -0.000   0.001  -0.001  -0.001  -0.000   0.000  -0.068   0.001   0.001   0.000  -0.000   0.019
 -0.000   0.001   0.000  -0.000   0.172  -0.000   0.000  -0.000  -0.001  -0.000  -0.000  -0.000  -0.000   0.001   0.001   0.000
  0.000  -0.000   0.003   0.001  -0.000   0.187  -0.068   0.000   0.001  -0.001  -0.001   0.019  -0.000  -0.000   0.001   0.001
 -0.000   0.000  -0.016  -0.001   0.000  -0.068   0.593   0.000   0.001  -0.000  -0.001  -0.270  -0.000   0.001   0.000   0.001
 -0.000   0.000   0.000  -0.001  -0.000   0.000   0.000   0.475   0.000  -0.001  -0.000  -0.000  -0.241  -0.000   0.001   0.000
 -0.000  -0.000   0.000  -0.000  -0.001   0.001   0.001   0.000   0.643  -0.000  -0.000   0.001  -0.000  -0.282   0.000  -0.000
  0.000  -0.000  -0.000   0.000  -0.000  -0.001  -0.000  -0.001  -0.000   0.477   0.000   0.000   0.001   0.000  -0.242  -0.000
 -0.016  -0.000  -0.000  -0.068  -0.000  -0.001  -0.001  -0.000  -0.000   0.000   0.592   0.001   0.000  -0.000  -0.000  -0.269
  0.000   0.000   0.007   0.001  -0.000   0.019  -0.270  -0.000   0.001   0.000   0.001   0.143   0.000  -0.001  -0.000  -0.001
  0.000   0.000   0.000   0.001  -0.000  -0.000  -0.000  -0.241  -0.000   0.001   0.000   0.000   0.139   0.000  -0.001  -0.000
 -0.000   0.000  -0.000   0.000   0.001  -0.000   0.001  -0.000  -0.282   0.000  -0.000  -0.001   0.000   0.144  -0.000   0.000
  0.000   0.000   0.000  -0.000   0.001   0.001   0.000   0.001   0.000  -0.242  -0.000  -0.000  -0.001  -0.000   0.139   0.000
  0.006  -0.000   0.000   0.019   0.000   0.001   0.001   0.000  -0.000  -0.000  -0.269  -0.001  -0.000   0.000   0.000   0.142
 -0.000  -0.001  -0.001  -0.001  -0.002  -0.000   0.001   0.000   0.045  -0.000   0.001  -0.000  -0.000  -0.022   0.000  -0.000
  0.000  -0.001  -0.001  -0.000   0.000   0.000  -0.000  -0.000   0.013   0.000  -0.000   0.000   0.000  -0.005  -0.000   0.000


------------------------ aborting loop because EDIFF is reached ----------------------------------------




--------------------------------------------------------------------------------------------------------


    CHARGE:  VPU time  215.06: CPU time  215.70
    FORLOC:  VPU time    0.30: CPU time    0.30
    FORNL :  VPU time  675.12: CPU time  676.78
    STRESS:  VPU time 2156.58: CPU time 2161.97
    FORCOR:  VPU time    1.53: CPU time    1.53
    FORHAR:  VPU time    0.56: CPU time    0.56
    MIXING:  VPU time    0.06: CPU time    0.06


--------------------------------------------------------------------------------------------------------



  FREE ENERGIE OF THE ION-ELECTRON SYSTEM (eV)
  ---------------------------------------------------
  free  energy   TOTEN  =      -284.038211 eV

  energy  without entropy=     -284.035931  energy(sigma->0) =     -284.037071
 

  FORCE on cell =-STRESS in cart. coord.  units (eV/reduce length):
  Direction    X        Y        Z        XY       YZ       ZX
  --------------------------------------------------------------------------------------
  Alpha Z   2248.03   2248.03   2248.03
  Ewald    -9745.06  -9757.70  -9347.32    -10.48      0.00     -0.01
  Hartree   2311.01   2305.21   2476.63     -4.80      0.00     -0.01
  E(xc)    -1694.57  -1694.57  -1694.12     -0.00     -0.00     -0.00
  Local     2548.70   2566.94   2040.46     15.11     -0.00      0.02
  n-local   -863.09   -862.89   -846.37      0.18      0.00     -0.00
  augment   1840.02   1839.78   1813.38     -0.21      0.00     -0.00
  Kinetic   3352.37   3351.82   3307.65     -0.47      0.00     -0.00
  -------------------------------------------------------------------------------------
  Total       -2.59     -3.38     -1.66     -0.66      0.00     -0.00
  in kB       -6.61     -8.60     -4.23     -1.68      0.00     -0.00
  external pressure =       -6.48 kB  Pullay stress =        0.00 kB


 VOLUME and BASIS-vectors are now :
 -----------------------------------------------------------------------------
  energy-cutoff  :      500.00
  volume of cell :      628.63
      direct lattice vectors                 reciprocal lattice vectors
     8.820667100  0.024765440  0.000000000     0.113187820  0.064925977  0.000000000
    -4.388885871  7.651304610  0.000000000    -0.000366362  0.130486516  0.000000000
     0.000000000  0.000000000  9.299549210     0.000000000  0.000000000  0.107532094

  length of vectors
     8.820701866  8.820701867  9.299549210     0.130487030  0.130487030  0.107532094


 FORCES acting on ions
    electron-ion (+dipol)            ewald-force                    non-local-force                 convergence-correction
 -----------------------------------------------------------------------------------------------
   -.206E+01 -.961E-01 -.251E+01   0.214E+01 0.712E-01 0.256E+01   -.366E-01 0.236E-01 -.426E-02   -.429E-04 -.712E-05 -.254E-04
   0.105E+01 -.835E-01 -.400E+00   -.101E+01 0.645E-01 0.398E+00   -.470E-01 0.224E-01 0.562E-03   0.150E-04 0.940E-05 0.551E-05
   0.106E+01 -.938E-01 -.406E+00   -.102E+01 0.645E-01 0.403E+00   -.472E-01 0.250E-01 0.800E-03   0.278E-04 -.778E-05 -.510E-05
   0.136E+00 -.612E+00 -.405E+00   -.943E-01 0.591E+00 0.402E+00   -.440E-01 0.278E-01 0.799E-03   -.755E-05 -.317E-04 0.256E-05
   0.149E+00 0.427E+00 -.396E+00   -.106E+00 -.454E+00 0.393E+00   -.442E-01 0.194E-01 0.758E-03   0.104E-05 0.122E-04 0.229E-05
   0.325E+00 -.922E-01 -.142E+00   -.284E+00 0.680E-01 0.144E+00   -.415E-01 0.239E-01 -.319E-02   0.647E-05 -.279E-05 0.971E-05
   0.137E+00 -.618E+00 -.402E+00   -.980E-01 0.593E+00 0.399E+00   -.412E-01 0.252E-01 0.576E-03   -.254E-04 -.430E-05 0.606E-05
   0.324E+00 -.911E-01 -.144E+00   -.284E+00 0.669E-01 0.144E+00   -.411E-01 0.240E-01 -.130E-02   0.347E-04 0.768E-05 0.182E-04
   0.142E+00 0.430E+00 -.398E+00   -.103E+00 -.452E+00 0.396E+00   -.409E-01 0.224E-01 0.775E-03   -.988E-05 0.247E-04 -.528E-05
   0.452E-01 -.920E-01 0.438E+00   -.695E-03 0.678E-01 -.453E+00   -.414E-01 0.239E-01 0.163E-02   -.652E-05 -.578E-05 0.252E-04
   0.214E+00 -.928E-01 0.197E+00   -.173E+00 0.670E-01 -.198E+00   -.411E-01 0.245E-01 0.123E-02   -.361E-05 0.935E-05 -.561E-05
   0.214E+00 -.895E-01 0.198E+00   -.173E+00 0.670E-01 -.199E+00   -.411E-01 0.229E-01 0.134E-02   0.949E-05 -.289E-05 0.500E-05
   0.136E+00 -.137E+00 0.198E+00   -.950E-01 0.112E+00 -.199E+00   -.410E-01 0.243E-01 0.132E-02   -.114E-05 -.138E-04 -.256E-05
   0.138E+00 -.462E-01 0.195E+00   -.966E-01 0.230E-01 -.197E+00   -.409E-01 0.229E-01 0.146E-02   0.828E-05 -.453E-05 -.228E-05
   0.202E+00 -.915E-01 0.124E+00   -.158E+00 0.672E-01 -.121E+00   -.422E-01 0.239E-01 -.274E-02   -.713E-05 -.141E-05 -.978E-05
   0.137E+00 -.134E+00 0.197E+00   -.949E-01 0.112E+00 -.198E+00   -.412E-01 0.232E-01 0.122E-02   -.150E-04 0.700E-05 -.605E-05
   0.202E+00 -.913E-01 0.121E+00   -.158E+00 0.670E-01 -.121E+00   -.417E-01 0.241E-01 0.815E-03   0.119E-04 0.503E-05 -.183E-04
   0.138E+00 -.490E-01 0.196E+00   -.966E-01 0.226E-01 -.197E+00   -.410E-01 0.243E-01 0.146E-02   0.281E-05 0.743E-05 0.509E-05
   0.323E+00 -.388E+00 0.973E+00   -.373E+00 0.417E+00 -.973E+00   0.379E-01 -.224E-01 -.103E-01   -.174E-05 -.912E-06 0.130E-04
   0.549E-01 0.732E-01 0.183E-01   -.978E-01 -.485E-01 -.186E-01   0.421E-01 -.242E-01 0.594E-03   0.207E-04 0.508E-05 -.389E-05
   -.702E+00 -.225E-01 0.624E-02   0.661E+00 0.471E-01 -.822E-02   0.426E-01 -.229E-01 0.359E-02   -.188E-04 -.858E-05 -.188E-04
   -.504E+00 0.686E+00 0.500E+00   0.462E+00 -.667E+00 -.502E+00   0.406E-01 -.261E-01 -.310E-02   -.294E-05 0.406E-05 -.888E-06
   0.118E+00 0.283E+00 0.170E+00   -.162E+00 -.260E+00 -.175E+00   0.460E-01 -.217E-01 0.649E-02   0.129E-04 0.121E-04 0.117E-04
   -.157E+00 0.557E-01 -.812E-01   0.113E+00 -.304E-01 0.824E-01   0.435E-01 -.242E-01 -.177E-02   -.984E-05 -.975E-05 -.137E-04
   -.116E+00 -.498E-02 0.343E-01   0.736E-01 0.294E-01 -.357E-01   0.412E-01 -.242E-01 0.154E-02   0.362E-05 -.385E-05 0.149E-05
   -.146E+00 0.208E+00 0.420E-02   0.105E+00 -.184E+00 -.359E-02   0.407E-01 -.230E-01 -.389E-03   0.130E-04 0.943E-05 -.519E-05
   -.216E+00 -.648E-01 0.449E-01   0.174E+00 0.891E-01 -.467E-01   0.427E-01 -.250E-01 0.223E-02   -.168E-04 -.768E-05 -.936E-06
   -.697E+00 0.198E+00 -.335E-02   0.656E+00 -.174E+00 0.186E-02   0.425E-01 -.250E-01 0.348E-02   -.360E-04 0.138E-04 -.126E-04
   0.574E-01 0.113E+00 0.191E-01   -.100E+00 -.886E-01 -.197E-01   0.421E-01 -.237E-01 0.660E-03   0.340E-04 0.126E-04 0.383E-05
   0.320E+00 0.583E+00 0.987E+00   -.371E+00 -.564E+00 -.988E+00   0.389E-01 -.252E-01 -.984E-02   0.248E-05 0.728E-05 0.191E-04
   -.519E+00 -.498E+00 0.486E+00   0.478E+00 0.528E+00 -.487E+00   0.408E-01 -.217E-01 -.325E-02   -.108E-04 -.299E-04 0.941E-06
   -.150E+00 0.128E+00 -.798E-01   0.105E+00 -.105E+00 0.814E-01   0.438E-01 -.231E-01 -.207E-02   -.315E-05 0.408E-05 -.115E-04
   0.124E+00 -.107E+00 0.177E+00   -.167E+00 0.132E+00 -.182E+00   0.453E-01 -.252E-01 0.589E-02   0.144E-04 -.288E-04 0.135E-04
   -.149E+00 -.262E-01 0.305E-02   0.108E+00 0.511E-01 -.254E-02   0.407E-01 -.244E-01 -.300E-03   -.509E-06 -.116E-04 -.145E-05
   -.114E+00 0.190E+00 0.327E-01   0.717E-01 -.166E+00 -.339E-01   0.413E-01 -.233E-01 0.138E-02   0.235E-04 0.139E-04 0.518E-05
   -.216E+00 0.247E+00 0.457E-01   0.173E+00 -.222E+00 -.473E-01   0.428E-01 -.224E-01 0.219E-02   -.229E-04 0.181E-04 0.950E-06
 -----------------------------------------------------------------------------------------------
   0.111E-03 -.147E-03 -.313E-04   -.162E-12 0.484E-12 0.687E-13   -.887E-04 0.139E-03 0.296E-03   -.670E-06 -.115E-06 -.526E-07
 
 
 POSITION                                       TOTAL-FORCE (eV/Angst)
 -----------------------------------------------------------------------------------
     -0.00697      1.70583      1.15519         0.044632     -0.001317      0.046543
      2.94013      1.71410      1.16244        -0.008204      0.003472     -0.001846
      5.88035      1.72236      1.16244        -0.008279     -0.004280     -0.001842
     -1.46305      4.25628      1.16244        -0.002304      0.006743     -0.001848
      1.47717      4.26454      1.16244        -0.001606     -0.007957     -0.001698
      4.41739      4.27279      1.16244        -0.001190     -0.000359     -0.000836
     -2.92602      6.80672      1.16244        -0.002289     -0.000687     -0.001855
      0.01421      6.81497      1.16244        -0.001034     -0.000195     -0.000839
      2.95443      6.82323      1.16244        -0.001726      0.000074     -0.001695
     -0.00009      1.70585      5.81222         0.003179     -0.000310     -0.013235
      2.94013      1.71410      5.81222        -0.000368     -0.001408      0.000198
      5.88035      1.72236      5.81222        -0.000303      0.000417      0.000212
     -1.46305      4.25628      5.81222         0.000451     -0.001132      0.000204
      1.47717      4.26454      5.81222         0.000788     -0.000339      0.000244
      4.41739      4.27279      5.81222         0.001386     -0.000321      0.000997
     -2.92602      6.80672      5.81222         0.000439      0.001022      0.000197
      0.01421      6.81497      5.81222         0.001542     -0.000135      0.000997
      2.95443      6.82323      5.81222         0.000712     -0.002069      0.000250
      1.47735      0.85284      3.48733        -0.012106      0.006774     -0.010650
      4.41757      0.86110      3.48733        -0.000701      0.000443      0.000200
      7.35780      0.86935      3.48733         0.001350      0.001750      0.001580
      0.01439      3.40328      3.48733        -0.001056     -0.007233     -0.004703
      2.95461      3.41153      3.48733         0.001721      0.001382      0.001452
      5.89483      3.41979      3.48733        -0.000331      0.001085     -0.000570
     -1.44857      5.95371      3.48733        -0.001244      0.000216      0.000100
      1.49165      5.96197      3.48733        -0.001021      0.000744      0.000212
      4.43187      5.97022      3.48733         0.000462     -0.000690      0.000438
      1.47735      0.85284      8.13711         0.001272     -0.000925      0.001969
      4.41757      0.86110      8.13711        -0.000798      0.000290      0.000114
      7.35780      0.86935      8.13711        -0.012223     -0.006182     -0.011361
      0.01439      3.40328      8.13711        -0.000955      0.008311     -0.004792
      2.95461      3.41153      8.13711        -0.000349      0.000096     -0.000515
      5.89483      3.41979      8.13711         0.001794     -0.000144      0.001442
     -1.44857      5.95371      8.13711        -0.001150      0.000373      0.000206
      1.49165      5.96197      8.13711        -0.001030      0.000742      0.000222
      4.43187      5.97022      8.13711         0.000537      0.001748      0.000510
 -----------------------------------------------------------------------------------
    total drift:                                0.000022     -0.000009      0.000265


--------------------------------------------------------------------------------------------------------



 mean value of Nose-termostat <S>:     1.000 mean value of <T> :     0.000
 mean temperature <T/S>/<1/S>  :     0.000

     LOOP+:  VPU time********: CPU time********
  
  
 General timing and accounting informations for this job:
 ========================================================
  
                  Total CPU time used (sec):   105323.179
                            User time (sec):   102228.342
                          System time (sec):     3094.838
                         Elapsed time (sec):   105547.769
  
                   Maximum memory used (kb):    11611108.
                   Average memory used (kb):           0.
  
                          Minor page faults:      2422630
                          Major page faults:            0
                 Voluntary context switches:         1236
