32   
1    

1    
  0.0100000000000000   0.0000000000000000   0.0000000000000000
  -0.0133745700    0.0000000000    0.0000000000
   0.0034592800   -0.0000000000   -0.0000000000
  -0.0004887400    0.0000000000   -0.0000000000
  -0.0018216000    0.0000000000   -0.0000000000
  -0.0004887400    0.0000000000   -0.0000000000
  -0.0018216000   -0.0000000000   -0.0000000000
   0.0002682900   -0.0000000000   -0.0000000000
  -0.0001339700    0.0000000000   -0.0000000000
   0.0021857600    0.0030792800    0.0000000000
   0.0020528700   -0.0029041300   -0.0000000000
   0.0021857600   -0.0030792800   -0.0000000000
   0.0020528700    0.0029041300   -0.0000000000
   0.0002421000    0.0000132500   -0.0000000000
   0.0002414200   -0.0000118200    0.0000000000
   0.0002421000   -0.0000132500   -0.0000000000
   0.0002414200    0.0000118200   -0.0000000000
   0.0021857600   -0.0000000000    0.0030792800
   0.0020528700   -0.0000000000   -0.0029041300
   0.0002421000   -0.0000000000    0.0000132500
   0.0002414200    0.0000000000   -0.0000118200
   0.0021857600    0.0000000000   -0.0030792800
   0.0020528700    0.0000000000    0.0029041300
   0.0002421000   -0.0000000000   -0.0000132500
   0.0002414200    0.0000000000    0.0000118200
  -0.0017972900    0.0000035700    0.0000035700
   0.0006755500    0.0000025700    0.0000025700
  -0.0017972900   -0.0000035700    0.0000035700
   0.0006755500   -0.0000025700    0.0000025700
  -0.0017972900    0.0000035700   -0.0000035700
   0.0006755500    0.0000025700   -0.0000025700
  -0.0017972900   -0.0000035700   -0.0000035700
   0.0006755500   -0.0000025700   -0.0000025700
