32   
1    

1    
  0.0100000000000000   0.0000000000000000   0.0000000000000000
  -0.0269359000    0.0000000000   -0.0000000000
   0.0010162000    0.0000000000    0.0000000000
  -0.0002886900   -0.0000000000    0.0000000000
  -0.0004532600   -0.0000000000   -0.0000000000
  -0.0002886900   -0.0000000000   -0.0000000000
  -0.0004532600   -0.0000000000   -0.0000000000
  -0.0000150700    0.0000000000   -0.0000000000
  -0.0001493700   -0.0000000000   -0.0000000000
   0.0033035000    0.0038621100   -0.0000000000
   0.0031747600   -0.0036939000    0.0000000000
   0.0033035000   -0.0038621100   -0.0000000000
   0.0031747600    0.0036939000   -0.0000000000
   0.0002286000    0.0000613600   -0.0000000000
   0.0002278200   -0.0000612200   -0.0000000000
   0.0002286000   -0.0000613600   -0.0000000000
   0.0002278200    0.0000612200    0.0000000000
   0.0033035000    0.0000000000    0.0038621100
   0.0031747600    0.0000000000   -0.0036939000
   0.0002286000   -0.0000000000    0.0000613600
   0.0002278200   -0.0000000000   -0.0000612200
   0.0033035000   -0.0000000000   -0.0038621100
   0.0031747600   -0.0000000000    0.0036939000
   0.0002286000   -0.0000000000   -0.0000613600
   0.0002278200    0.0000000000    0.0000612200
  -0.0005972900   -0.0000040200   -0.0000040200
   0.0005546200    0.0000017200    0.0000017200
  -0.0005972900    0.0000040200   -0.0000040200
   0.0005546200   -0.0000017200    0.0000017200
  -0.0005972900   -0.0000040200    0.0000040200
   0.0005546200    0.0000017200   -0.0000017200
  -0.0005972900    0.0000040200    0.0000040200
   0.0005546200   -0.0000017200   -0.0000017200
