mesh: [    48,    48,    48 ]
nqpoint: 2600   
reciprocal_lattice:
- [   0.23320235,   0.00000000,   0.00000000 ] # a*
- [   0.00000000,   0.23320235,   0.00000000 ] # b*
- [   0.00000000,   0.00000000,   0.23320235 ] # c*
natom:   4      
lattice:
- [     4.288121525064935,     0.000000000000000,     0.000000000000000 ] # a
- [     0.000000000000000,     4.288121525064935,     0.000000000000000 ] # b
- [     0.000000000000000,     0.000000000000000,     4.288121525064935 ] # c
points:
- symbol: Ag # 1
  coordinates: [  0.000000000000000,  0.000000000000000,  0.000000000000000 ]
  mass: 107.868200
- symbol: Ag # 2
  coordinates: [  0.500000000000000,  0.500000000000000,  0.000000000000000 ]
  mass: 107.868200
- symbol: Ag # 3
  coordinates: [  0.500000000000000,  0.000000000000000,  0.500000000000000 ]
  mass: 107.868200
- symbol: Ag # 4
  coordinates: [  0.000000000000000,  0.500000000000000,  0.500000000000000 ]
  mass: 107.868200
phonon:
- q-position: [    0.0104167,    0.0104167,    0.0104167 ]
  weight: 8    
  band:
  - # 1
    frequency:     0.0634386755
  - # 2
    frequency:     0.0634386755
  - # 3
    frequency:     0.1232840897
  - # 4
    frequency:     2.4903502563
  - # 5
    frequency:     2.4903502563
  - # 6
    frequency:     2.4903502563
  - # 7
    frequency:     2.4918446377
  - # 8
    frequency:     2.4918446377
  - # 9
    frequency:     2.4918446377
  - # 10
    frequency:     3.5443213774
  - # 11
    frequency:     3.5443213774
  - # 12
    frequency:     3.5443213774

- q-position: [    0.0312500,    0.0104167,    0.0104167 ]
  weight: 24   
  band:
  - # 1
    frequency:     0.1252048148
  - # 2
    frequency:     0.1316169090
  - # 3
    frequency:     0.2283704087
  - # 4
    frequency:     2.4876902797
  - # 5
    frequency:     2.4881646101
  - # 6
    frequency:     2.4881646101
  - # 7
    frequency:     2.4891788473
  - # 8
    frequency:     2.4935957443
  - # 9
    frequency:     2.4935957443
  - # 10
    frequency:     3.5414113031
  - # 11
    frequency:     3.5414113031
  - # 12
    frequency:     3.5417224771

- q-position: [    0.0520833,    0.0104167,    0.0104167 ]
  weight: 24   
  band:
  - # 1
    frequency:     0.2042405805
  - # 2
    frequency:     0.2094344495
  - # 3
    frequency:     0.3507280695
  - # 4
    frequency:     2.4823731228
  - # 5
    frequency:     2.4838501163
  - # 6
    frequency:     2.4845445338
  - # 7
    frequency:     2.4845445338
  - # 8
    frequency:     2.4963833953
  - # 9
    frequency:     2.4963833953
  - # 10
    frequency:     3.5356092007
  - # 11
    frequency:     3.5356092007
  - # 12
    frequency:     3.5365147693

- q-position: [    0.0729167,    0.0104167,    0.0104167 ]
  weight: 24   
  band:
  - # 1
    frequency:     0.2849875762
  - # 2
    frequency:     0.2890145774
  - # 3
    frequency:     0.4775571369
  - # 4
    frequency:     2.4744043760
  - # 5
    frequency:     2.4758641406
  - # 6
    frequency:     2.4793375127
  - # 7
    frequency:     2.4793375127
  - # 8
    frequency:     2.5004327307
  - # 9
    frequency:     2.5004327307
  - # 10
    frequency:     3.5269510583
  - # 11
    frequency:     3.5269510583
  - # 12
    frequency:     3.5286786116

- q-position: [    0.0937500,    0.0104167,    0.0104167 ]
  weight: 24   
  band:
  - # 1
    frequency:     0.3657801729
  - # 2
    frequency:     0.3689877922
  - # 3
    frequency:     0.6056072649
  - # 4
    frequency:     2.4637924185
  - # 5
    frequency:     2.4652294537
  - # 6
    frequency:     2.4725650204
  - # 7
    frequency:     2.4725650204
  - # 8
    frequency:     2.5058295162
  - # 9
    frequency:     2.5058295162
  - # 10
    frequency:     3.5154905961
  - # 11
    frequency:     3.5154905961
  - # 12
    frequency:     3.5181849664

- q-position: [    0.1145833,    0.0104167,    0.0104167 ]
  weight: 24   
  band:
  - # 1
    frequency:     0.4462684979
  - # 2
    frequency:     0.4488916828
  - # 3
    frequency:     0.7335965499
  - # 4
    frequency:     2.4505484114
  - # 5
    frequency:     2.4519574158
  - # 6
    frequency:     2.4643125040
  - # 7
    frequency:     2.4643125040
  - # 8
    frequency:     2.5126281365
  - # 9
    frequency:     2.5126281365
  - # 10
    frequency:     3.5012989517
  - # 11
    frequency:     3.5012989517
  - # 12
    frequency:     3.5049959043

- q-position: [    0.1354167,    0.0104167,    0.0104167 ]
  weight: 24   
  band:
  - # 1
    frequency:     0.5263034712
  - # 2
    frequency:     0.5284913705
  - # 3
    frequency:     0.8608461878
  - # 4
    frequency:     2.4346862879
  - # 5
    frequency:     2.4360621979
  - # 6
    frequency:     2.4547002749
  - # 7
    frequency:     2.4547002749
  - # 8
    frequency:     2.5208780420
  - # 9
    frequency:     2.5208780420
  - # 10
    frequency:     3.4844642570
  - # 11
    frequency:     3.4844642570
  - # 12
    frequency:     3.4890652593

- q-position: [    0.1562500,    0.0104167,    0.0104167 ]
  weight: 24   
  band:
  - # 1
    frequency:     0.6057806056
  - # 2
    frequency:     0.6076306577
  - # 3
    frequency:     0.9869100677
  - # 4
    frequency:     2.4162227411
  - # 5
    frequency:     2.4175607634
  - # 6
    frequency:     2.4438748718
  - # 7
    frequency:     2.4438748718
  - # 8
    frequency:     2.5306291060
  - # 9
    frequency:     2.5306291060
  - # 10
    frequency:     3.4650911073
  - # 11
    frequency:     3.4650911073
  - # 12
    frequency:     3.4703394270

- q-position: [    0.1770833,    0.0104167,    0.0104167 ]
  weight: 24   
  band:
  - # 1
    frequency:     0.6846083049
  - # 2
    frequency:     0.6861866829
  - # 3
    frequency:     1.1114491652
  - # 4
    frequency:     2.3951772097
  - # 5
    frequency:     2.3964728468
  - # 6
    frequency:     2.4320052010
  - # 7
    frequency:     2.4320052010
  - # 8
    frequency:     2.5419316264
  - # 9
    frequency:     2.5419316264
  - # 10
    frequency:     3.4432999180
  - # 11
    frequency:     3.4432999180
  - # 12
    frequency:     3.4487582892

- q-position: [    0.1979167,    0.0104167,    0.0104167 ]
  weight: 24   
  band:
  - # 1
    frequency:     0.7626996870
  - # 2
    frequency:     0.7640529541
  - # 3
    frequency:     1.2341818487
  - # 4
    frequency:     2.3715718603
  - # 5
    frequency:     2.3728209289
  - # 6
    frequency:     2.4192797842
  - # 7
    frequency:     2.4192797842
  - # 8
    frequency:     2.5548346813
  - # 9
    frequency:     2.5548346813
  - # 10
    frequency:     3.4192261687
  - # 11
    frequency:     3.4192261687
  - # 12
    frequency:     3.4242562509

- q-position: [    0.2187500,    0.0104167,    0.0104167 ]
  weight: 24   
  band:
  - # 1
    frequency:     0.8399701286
  - # 2
    frequency:     0.8411320483
  - # 3
    frequency:     1.3548619458
  - # 4
    frequency:     2.3454315688
  - # 5
    frequency:     2.3466302099
  - # 6
    frequency:     2.4059041249
  - # 7
    frequency:     2.4059041249
  - # 8
    frequency:     2.5693838831
  - # 9
    frequency:     2.5693838831
  - # 10
    frequency:     3.3930195309
  - # 11
    frequency:     3.3930195309
  - # 12
    frequency:     3.3967633711

- q-position: [    0.2395833,    0.0104167,    0.0104167 ]
  weight: 24   
  band:
  - # 1
    frequency:     0.9163364719
  - # 2
    frequency:     0.9173321417
  - # 3
    frequency:     1.4732682964
  - # 4
    frequency:     2.3167838975
  - # 5
    frequency:     2.3179285803
  - # 6
    frequency:     2.3920978721
  - # 7
    frequency:     2.3920978721
  - # 8
    frequency:     2.5856189117
  - # 9
    frequency:     2.5856189117
  - # 10
    frequency:     3.3648428767
  - # 11
    frequency:     3.3648428767
  - # 12
    frequency:     3.3662065708

- q-position: [    0.2604167,    0.0104167,    0.0104167 ]
  weight: 24   
  band:
  - # 1
    frequency:     0.9917167811
  - # 2
    frequency:     0.9925652395
  - # 3
    frequency:     1.5891995271
  - # 4
    frequency:     2.2856590716
  - # 5
    frequency:     2.2867465893
  - # 6
    frequency:     2.3780916659
  - # 7
    frequency:     2.3780916659
  - # 8
    frequency:     2.6035710154
  - # 9
    frequency:     2.6035710154
  - # 10
    frequency:     3.3325108979
  - # 11
    frequency:     3.3348711666
  - # 12
    frequency:     3.3348711666

- q-position: [    0.2812500,    0.0104167,    0.0104167 ]
  weight: 24   
  band:
  - # 1
    frequency:     1.0660302976
  - # 2
    frequency:     1.0667462283
  - # 3
    frequency:     1.7024713756
  - # 4
    frequency:     2.2520899516
  - # 5
    frequency:     2.2531174117
  - # 6
    frequency:     2.3641236211
  - # 7
    frequency:     2.3641236211
  - # 8
    frequency:     2.6232606044
  - # 9
    frequency:     2.6232606044
  - # 10
    frequency:     3.2956008315
  - # 11
    frequency:     3.3032902149
  - # 12
    frequency:     3.3032902149

- q-position: [    0.3020833,    0.0104167,    0.0104167 ]
  weight: 24   
  band:
  - # 1
    frequency:     1.1391974730
  - # 2
    frequency:     1.1397923545
  - # 3
    frequency:     1.8129153223
  - # 4
    frequency:     2.2161120043
  - # 5
    frequency:     2.2170768121
  - # 6
    frequency:     2.3504354469
  - # 7
    frequency:     2.3504354469
  - # 8
    frequency:     2.6446950337
  - # 9
    frequency:     2.6446950337
  - # 10
    frequency:     3.2554016069
  - # 11
    frequency:     3.2702953300
  - # 12
    frequency:     3.2702953300

- q-position: [    0.3229167,    0.0104167,    0.0104167 ]
  weight: 24   
  band:
  - # 1
    frequency:     1.2111400320
  - # 2
    frequency:     1.2116229359
  - # 3
    frequency:     1.9203779144
  - # 4
    frequency:     2.1777632708
  - # 5
    frequency:     2.1786631084
  - # 6
    frequency:     2.3372682275
  - # 7
    frequency:     2.3372682275
  - # 8
    frequency:     2.6678666540
  - # 9
    frequency:     2.6678666540
  - # 10
    frequency:     3.2118405424
  - # 11
    frequency:     3.2360898326
  - # 12
    frequency:     3.2360898326

- q-position: [    0.3437500,    0.0104167,    0.0104167 ]
  weight: 24   
  band:
  - # 1
    frequency:     1.2817810477
  - # 2
    frequency:     1.2821592087
  - # 3
    frequency:     2.0247204539
  - # 4
    frequency:     2.1370843326
  - # 5
    frequency:     2.1379171323
  - # 6
    frequency:     2.3248579187
  - # 7
    frequency:     2.3248579187
  - # 8
    frequency:     2.6927511973
  - # 9
    frequency:     2.6927511973
  - # 10
    frequency:     3.1648483534
  - # 11
    frequency:     3.2008834524
  - # 12
    frequency:     3.2008834524

- q-position: [    0.3645833,    0.0104167,    0.0104167 ]
  weight: 24   
  band:
  - # 1
    frequency:     1.3510450213
  - # 2
    frequency:     1.3513242525
  - # 3
    frequency:     2.0941182746
  - # 4
    frequency:     2.0948821885
  - # 5
    frequency:     2.1258188705
  - # 6
    frequency:     2.3134306428
  - # 7
    frequency:     2.3134306428
  - # 8
    frequency:     2.7193065407
  - # 9
    frequency:     2.7193065407
  - # 10
    frequency:     3.1143604353
  - # 11
    frequency:     3.1648906094
  - # 12
    frequency:     3.1648906094

- q-position: [    0.3854167,    0.0104167,    0.0104167 ]
  weight: 24   
  band:
  - # 1
    frequency:     1.4188579613
  - # 2
    frequency:     1.4190429654
  - # 3
    frequency:     2.0489106460
  - # 4
    frequency:     2.0496040121
  - # 5
    frequency:     2.2235636708
  - # 6
    frequency:     2.3031978951
  - # 7
    frequency:     2.3031978951
  - # 8
    frequency:     2.7474718805
  - # 9
    frequency:     2.7474718805
  - # 10
    frequency:     3.0603181036
  - # 11
    frequency:     3.1283285914
  - # 12
    frequency:     3.1283285914

- q-position: [    0.4062500,    0.0104167,    0.0104167 ]
  weight: 24   
  band:
  - # 1
    frequency:     1.4851474623
  - # 2
    frequency:     1.4852420690
  - # 3
    frequency:     2.0015094196
  - # 4
    frequency:     2.0021307238
  - # 5
    frequency:     2.2943517984
  - # 6
    frequency:     2.2943517984
  - # 7
    frequency:     2.3178599018
  - # 8
    frequency:     2.7771673185
  - # 9
    frequency:     2.7771673185
  - # 10
    frequency:     3.0026697763
  - # 11
    frequency:     3.0914156477
  - # 12
    frequency:     3.0914156477

- q-position: [    0.4270833,    0.0104167,    0.0104167 ]
  weight: 24   
  band:
  - # 1
    frequency:     1.5498427817
  - # 2
    frequency:     1.5498501330
  - # 3
    frequency:     1.9519649473
  - # 4
    frequency:     1.9525127825
  - # 5
    frequency:     2.2870605701
  - # 6
    frequency:     2.2870605701
  - # 7
    frequency:     2.4086270857
  - # 8
    frequency:     2.8082938295
  - # 9
    frequency:     2.8082938295
  - # 10
    frequency:     2.9413720890
  - # 11
    frequency:     3.0543690474
  - # 12
    frequency:     3.0543690474

- q-position: [    0.4479167,    0.0104167,    0.0104167 ]
  weight: 24   
  band:
  - # 1
    frequency:     1.6127976113
  - # 2
    frequency:     1.6128749134
  - # 3
    frequency:     1.9003299154
  - # 4
    frequency:     1.9008029366
  - # 5
    frequency:     2.2814643719
  - # 6
    frequency:     2.2814643719
  - # 7
    frequency:     2.4957991011
  - # 8
    frequency:     2.8407334550
  - # 9
    frequency:     2.8407334550
  - # 10
    frequency:     2.8763909316
  - # 11
    frequency:     3.0174032566
  - # 12
    frequency:     3.0174032566

- q-position: [    0.4687500,    0.0104167,    0.0104167 ]
  weight: 24   
  band:
  - # 1
    frequency:     1.6740168868
  - # 2
    frequency:     1.6741766598
  - # 3
    frequency:     1.8466592963
  - # 4
    frequency:     1.8470561727
  - # 5
    frequency:     2.2776717228
  - # 6
    frequency:     2.2776717228
  - # 7
    frequency:     2.5793239918
  - # 8
    frequency:     2.8077023999
  - # 9
    frequency:     2.8743488457
  - # 10
    frequency:     2.8743488457
  - # 11
    frequency:     2.9807291101
  - # 12
    frequency:     2.9807291101

- q-position: [    0.4895833,    0.0104167,    0.0104167 ]
  weight: 24   
  band:
  - # 1
    frequency:     1.7334423197
  - # 2
    frequency:     1.7336827010
  - # 3
    frequency:     1.7910102993
  - # 4
    frequency:     1.7913296613
  - # 5
    frequency:     2.2757566385
  - # 6
    frequency:     2.2757566385
  - # 7
    frequency:     2.6591636914
  - # 8
    frequency:     2.7352936559
  - # 9
    frequency:     2.9089677127
  - # 10
    frequency:     2.9089677127
  - # 11
    frequency:     2.9445684094
  - # 12
    frequency:     2.9445684094

- q-position: [    0.0312500,    0.0312500,    0.0104167 ]
  weight: 24   
  band:
  - # 1
    frequency:     0.1511909891
  - # 2
    frequency:     0.1736300321
  - # 3
    frequency:     0.3064192944
  - # 4
    frequency:     2.4839568522
  - # 5
    frequency:     2.4855050060
  - # 6
    frequency:     2.4855050060
  - # 7
    frequency:     2.4909270363
  - # 8
    frequency:     2.4909270363
  - # 9
    frequency:     2.4973701723
  - # 10
    frequency:     3.5385047809
  - # 11
    frequency:     3.5388406671
  - # 12
    frequency:     3.5388406671

- q-position: [    0.0520833,    0.0312500,    0.0104167 ]
  weight: 48   
  band:
  - # 1
    frequency:     0.2115567084
  - # 2
    frequency:     0.2379487287
  - # 3
    frequency:     0.4106612664
  - # 4
    frequency:     2.4786866900
  - # 5
    frequency:     2.4801885840
  - # 6
    frequency:     2.4818759906
  - # 7
    frequency:     2.4855926458
  - # 8
    frequency:     2.4937183303
  - # 9
    frequency:     2.5018101541
  - # 10
    frequency:     3.5327097436
  - # 11
    frequency:     3.5330949829
  - # 12
    frequency:     3.5336893098

- q-position: [    0.0729167,    0.0312500,    0.0104167 ]
  weight: 48   
  band:
  - # 1
    frequency:     0.2857900859
  - # 2
    frequency:     0.3101945454
  - # 3
    frequency:     0.5252341605
  - # 4
    frequency:     2.4722209136
  - # 5
    frequency:     2.4723487946
  - # 6
    frequency:     2.4766520947
  - # 7
    frequency:     2.4775986148
  - # 8
    frequency:     2.4977760855
  - # 9
    frequency:     2.5069933018
  - # 10
    frequency:     3.5240621016
  - # 11
    frequency:     3.5245211913
  - # 12
    frequency:     3.5259372389

- q-position: [    0.0937500,    0.0312500,    0.0104167 ]
  weight: 48   
  band:
  - # 1
    frequency:     0.3642213948
  - # 2
    frequency:     0.3856989083
  - # 3
    frequency:     0.6446846585
  - # 4
    frequency:     2.4616103410
  - # 5
    frequency:     2.4648367401
  - # 6
    frequency:     2.4669539845
  - # 7
    frequency:     2.4698553558
  - # 8
    frequency:     2.5031849005
  - # 9
    frequency:     2.5131327803
  - # 10
    frequency:     3.5126154594
  - # 11
    frequency:     3.5131726811
  - # 12
    frequency:     3.5155549085

- q-position: [    0.1145833,    0.0312500,    0.0104167 ]
  weight: 48   
  band:
  - # 1
    frequency:     0.4438247703
  - # 2
    frequency:     0.4626226140
  - # 3
    frequency:     0.7664029554
  - # 4
    frequency:     2.4483679803
  - # 5
    frequency:     2.4536707709
  - # 6
    frequency:     2.4561167326
  - # 7
    frequency:     2.4615711036
  - # 8
    frequency:     2.5099984915
  - # 9
    frequency:     2.5204015742
  - # 10
    frequency:     3.4984408016
  - # 11
    frequency:     3.4991201472
  - # 12
    frequency:     3.5025037403

- q-position: [    0.1354167,    0.0312500,    0.0104167 ]
  weight: 48   
  band:
  - # 1
    frequency:     0.5235450531
  - # 2
    frequency:     0.5400993918
  - # 3
    frequency:     0.8889120642
  - # 4
    frequency:     2.4325077007
  - # 5
    frequency:     2.4377639326
  - # 6
    frequency:     2.4462249360
  - # 7
    frequency:     2.4519192051
  - # 8
    frequency:     2.5182657987
  - # 9
    frequency:     2.5289325189
  - # 10
    frequency:     3.4816260721
  - # 11
    frequency:     3.4824511680
  - # 12
    frequency:     3.4867368029

- q-position: [    0.1562500,    0.0312500,    0.0104167 ]
  weight: 48   
  band:
  - # 1
    frequency:     0.6029402151
  - # 2
    frequency:     0.6176507265
  - # 3
    frequency:     1.0112768290
  - # 4
    frequency:     2.4140461116
  - # 5
    frequency:     2.4192513342
  - # 6
    frequency:     2.4352522247
  - # 7
    frequency:     2.4410455785
  - # 8
    frequency:     2.5280362140
  - # 9
    frequency:     2.5388302915
  - # 10
    frequency:     3.4622756437
  - # 11
    frequency:     3.4632696742
  - # 12
    frequency:     3.4681996370

- q-position: [    0.1770833,    0.0312500,    0.0104167 ]
  weight: 48   
  band:
  - # 1
    frequency:     0.6817818642
  - # 2
    frequency:     0.6949740564
  - # 3
    frequency:     1.1328494183
  - # 4
    frequency:     2.3930025446
  - # 5
    frequency:     2.3981537046
  - # 6
    frequency:     2.4233310669
  - # 7
    frequency:     2.4291183982
  - # 8
    frequency:     2.5393595401
  - # 9
    frequency:     2.5501806935
  - # 10
    frequency:     3.4405096786
  - # 11
    frequency:     3.4416953054
  - # 12
    frequency:     3.4468312098

- q-position: [    0.1979167,    0.0312500,    0.0104167 ]
  weight: 48   
  band:
  - # 1
    frequency:     0.7599241044
  - # 2
    frequency:     0.7718554626
  - # 3
    frequency:     1.2531466594
  - # 4
    frequency:     2.3693990330
  - # 5
    frequency:     2.3744945924
  - # 6
    frequency:     2.4106258400
  - # 7
    frequency:     2.4163253829
  - # 8
    frequency:     2.5522843358
  - # 9
    frequency:     2.5630559653
  - # 10
    frequency:     3.4164633749
  - # 11
    frequency:     3.4178626542
  - # 12
    frequency:     3.4225649840

- q-position: [    0.2187500,    0.0312500,    0.0104167 ]
  weight: 48   
  band:
  - # 1
    frequency:     0.8372558281
  - # 2
    frequency:     0.8481296402
  - # 3
    frequency:     1.3717865720
  - # 4
    frequency:     2.3432602886
  - # 5
    frequency:     2.3483003204
  - # 6
    frequency:     2.3973256513
  - # 7
    frequency:     2.4028711934
  - # 8
    frequency:     2.5668556709
  - # 9
    frequency:     2.5775171089
  - # 10
    frequency:     3.3902860979
  - # 11
    frequency:     3.3919203946
  - # 12
    frequency:     3.3953300815

- q-position: [    0.2395833,    0.0312500,    0.0104167 ]
  weight: 48   
  band:
  - # 1
    frequency:     0.9136818297
  - # 2
    frequency:     0.9236599162
  - # 3
    frequency:     1.4884537521
  - # 4
    frequency:     2.3146136771
  - # 5
    frequency:     2.3195999378
  - # 6
    frequency:     2.3836386464
  - # 7
    frequency:     2.3889746271
  - # 8
    frequency:     2.5831126653
  - # 9
    frequency:     2.5936142993
  - # 10
    frequency:     3.3621403943
  - # 11
    frequency:     3.3640302914
  - # 12
    frequency:     3.3650525229

- q-position: [    0.2604167,    0.0312500,    0.0104167 ]
  weight: 48   
  band:
  - # 1
    frequency:     0.9891148165
  - # 2
    frequency:     0.9983275706
  - # 3
    frequency:     1.6028796753
  - # 4
    frequency:     2.2834891906
  - # 5
    frequency:     2.2884251731
  - # 6
    frequency:     2.3697870733
  - # 7
    frequency:     2.3748654963
  - # 8
    frequency:     2.6010859968
  - # 9
    frequency:     2.6113861841
  - # 10
    frequency:     3.3316565252
  - # 11
    frequency:     3.3322008863
  - # 12
    frequency:     3.3343660906

- q-position: [    0.2812500,    0.0312500,    0.0104167 ]
  weight: 48   
  band:
  - # 1
    frequency:     1.0634718613
  - # 2
    frequency:     1.0720258043
  - # 3
    frequency:     1.7148310957
  - # 4
    frequency:     2.2499194193
  - # 5
    frequency:     2.2548103875
  - # 6
    frequency:     2.3560026499
  - # 7
    frequency:     2.3607811470
  - # 8
    frequency:     2.6207955011
  - # 9
    frequency:     2.6308586062
  - # 10
    frequency:     3.2950658360
  - # 11
    frequency:     3.3006530456
  - # 12
    frequency:     3.3031122877

- q-position: [    0.3020833,    0.0312500,    0.0104167 ]
  weight: 48   
  band:
  - # 1
    frequency:     1.1366727805
  - # 2
    frequency:     1.1446561770
  - # 3
    frequency:     1.8241030140
  - # 4
    frequency:     2.2139395211
  - # 5
    frequency:     2.2187925285
  - # 6
    frequency:     2.3425219761
  - # 7
    frequency:     2.3469626153
  - # 8
    frequency:     2.6422479590
  - # 9
    frequency:     2.6520431005
  - # 10
    frequency:     3.2552050878
  - # 11
    frequency:     3.2676918464
  - # 12
    frequency:     3.2704627766

- q-position: [    0.3229167,    0.0312500,    0.0104167 ]
  weight: 48   
  band:
  - # 1
    frequency:     1.2086393916
  - # 2
    frequency:     1.2161264246
  - # 3
    frequency:     1.9305143073
  - # 4
    frequency:     2.1755871907
  - # 5
    frequency:     2.1804110850
  - # 6
    frequency:     2.3295818597
  - # 7
    frequency:     2.3336504458
  - # 8
    frequency:     2.6654351462
  - # 9
    frequency:     2.6749353969
  - # 10
    frequency:     3.2120011536
  - # 11
    frequency:     3.2335203022
  - # 12
    frequency:     3.2366193790

- q-position: [    0.3437500,    0.0312500,    0.0104167 ]
  weight: 48   
  band:
  - # 1
    frequency:     1.2792951879
  - # 2
    frequency:     1.2863490828
  - # 3
    frequency:     2.0339049514
  - # 4
    frequency:     2.1349026267
  - # 5
    frequency:     2.1397080431
  - # 6
    frequency:     2.3174145208
  - # 7
    frequency:     2.3210802263
  - # 8
    frequency:     2.6903322066
  - # 9
    frequency:     2.6995140808
  - # 10
    frequency:     3.1653844874
  - # 11
    frequency:     3.1983478928
  - # 12
    frequency:     3.2017902650

- q-position: [    0.3645833,    0.0312500,    0.0104167 ]
  weight: 48   
  band:
  - # 1
    frequency:     1.3485652184
  - # 2
    frequency:     1.3552405991
  - # 3
    frequency:     2.0919284978
  - # 4
    frequency:     2.0967278432
  - # 5
    frequency:     2.1341342066
  - # 6
    frequency:     2.3062426980
  - # 7
    frequency:     2.3094779194
  - # 8
    frequency:     2.7168963834
  - # 9
    frequency:     2.7257395045
  - # 10
    frequency:     3.1152904353
  - # 11
    frequency:     3.1623889005
  - # 12
    frequency:     3.1661882789

- q-position: [    0.3854167,    0.0312500,    0.0104167 ]
  weight: 48   
  band:
  - # 1
    frequency:     1.4163760708
  - # 2
    frequency:     1.4227207488
  - # 3
    frequency:     2.0467099074
  - # 4
    frequency:     2.0515173388
  - # 5
    frequency:     2.2310793928
  - # 6
    frequency:     2.2962747366
  - # 7
    frequency:     2.2990551004
  - # 8
    frequency:     2.7450661124
  - # 9
    frequency:     2.7535529814
  - # 10
    frequency:     3.0616605024
  - # 11
    frequency:     3.1258606972
  - # 12
    frequency:     3.1300292069

- q-position: [    0.4062500,    0.0312500,    0.0104167 ]
  weight: 48   
  band:
  - # 1
    frequency:     1.4826559057
  - # 2
    frequency:     1.4887122471
  - # 3
    frequency:     1.9992943558
  - # 4
    frequency:     2.0041257573
  - # 5
    frequency:     2.2876997757
  - # 6
    frequency:     2.2900042405
  - # 7
    frequency:     2.3246350181
  - # 8
    frequency:     2.7747604133
  - # 9
    frequency:     2.7828762073
  - # 10
    frequency:     3.0044435657
  - # 11
    frequency:     3.0889820874
  - # 12
    frequency:     3.0935300786

- q-position: [    0.4270833,    0.0312500,    0.0104167 ]
  weight: 48   
  band:
  - # 1
    frequency:     1.5473345182
  - # 2
    frequency:     1.5531404893
  - # 3
    frequency:     1.9497317001
  - # 4
    frequency:     1.9546046634
  - # 5
    frequency:     2.2806831798
  - # 6
    frequency:     2.2824941925
  - # 7
    frequency:     2.4147121124
  - # 8
    frequency:     2.8058783210
  - # 9
    frequency:     2.8136105977
  - # 10
    frequency:     2.9435970209
  - # 11
    frequency:     3.0519720463
  - # 12
    frequency:     3.0569077695

- q-position: [    0.4479167,    0.0312500,    0.0104167 ]
  weight: 48   
  band:
  - # 1
    frequency:     1.6103434110
  - # 2
    frequency:     1.6159333768
  - # 3
    frequency:     1.8980741095
  - # 4
    frequency:     1.9030079262
  - # 5
    frequency:     2.2753623814
  - # 6
    frequency:     2.2766660518
  - # 7
    frequency:     2.5012376669
  - # 8
    frequency:     2.8382973055
  - # 9
    frequency:     2.8456351559
  - # 10
    frequency:     2.8790878579
  - # 11
    frequency:     3.0150502515
  - # 12
    frequency:     3.0203789643

- q-position: [    0.4687500,    0.0312500,    0.0104167 ]
  weight: 48   
  band:
  - # 1
    frequency:     1.6716158732
  - # 2
    frequency:     1.6770212010
  - # 3
    frequency:     1.8443760178
  - # 4
    frequency:     1.8493916912
  - # 5
    frequency:     2.2718433027
  - # 6
    frequency:     2.2726295704
  - # 7
    frequency:     2.5841541167
  - # 8
    frequency:     2.8108936568
  - # 9
    frequency:     2.8718644124
  - # 10
    frequency:     2.8787936641
  - # 11
    frequency:     2.9784486200
  - # 12
    frequency:     2.9841677400

- q-position: [    0.4895833,    0.0312500,    0.0104167 ]
  weight: 48   
  band:
  - # 1
    frequency:     1.7310870598
  - # 2
    frequency:     1.7363365692
  - # 3
    frequency:     1.7886940692
  - # 4
    frequency:     1.7938143585
  - # 5
    frequency:     2.2701975175
  - # 6
    frequency:     2.2704602874
  - # 7
    frequency:     2.6634188198
  - # 8
    frequency:     2.7390035033
  - # 9
    frequency:     2.9062908335
  - # 10
    frequency:     2.9126885650
  - # 11
    frequency:     2.9426164771
  - # 12
    frequency:     2.9486100556

- q-position: [    0.0520833,    0.0520833,    0.0104167 ]
  weight: 24   
  band:
  - # 1
    frequency:     0.2455647047
  - # 2
    frequency:     0.2881190962
  - # 3
    frequency:     0.4991931053
  - # 4
    frequency:     2.4713060942
  - # 5
    frequency:     2.4765418308
  - # 6
    frequency:     2.4765418308
  - # 7
    frequency:     2.4883914305
  - # 8
    frequency:     2.4883914305
  - # 9
    frequency:     2.5083647138
  - # 10
    frequency:     3.5269287588
  - # 11
    frequency:     3.5280560935
  - # 12
    frequency:     3.5280560935

- q-position: [    0.0729167,    0.0520833,    0.0104167 ]
  weight: 48   
  band:
  - # 1
    frequency:     0.3024262093
  - # 2
    frequency:     0.3500028945
  - # 3
    frequency:     0.6011248541
  - # 4
    frequency:     2.4630223202
  - # 5
    frequency:     2.4685479035
  - # 6
    frequency:     2.4712845621
  - # 7
    frequency:     2.4804091363
  - # 8
    frequency:     2.4924662007
  - # 9
    frequency:     2.5154991026
  - # 10
    frequency:     3.5183020018
  - # 11
    frequency:     3.5196504212
  - # 12
    frequency:     3.5204718174

- q-position: [    0.0937500,    0.0520833,    0.0104167 ]
  weight: 48   
  band:
  - # 1
    frequency:     0.3713138883
  - # 2
    frequency:     0.4182090469
  - # 3
    frequency:     0.7103240125
  - # 4
    frequency:     2.4538674116
  - # 5
    frequency:     2.4579029733
  - # 6
    frequency:     2.4644399659
  - # 7
    frequency:     2.4697810601
  - # 8
    frequency:     2.4978992418
  - # 9
    frequency:     2.5232870227
  - # 10
    frequency:     3.5068828463
  - # 11
    frequency:     3.5085249814
  - # 12
    frequency:     3.5103115575

- q-position: [    0.1145833,    0.0520833,    0.0104167 ]
  weight: 48   
  band:
  - # 1
    frequency:     0.4457587215
  - # 2
    frequency:     0.4898719928
  - # 3
    frequency:     0.8236693283
  - # 4
    frequency:     2.4438281800
  - # 5
    frequency:     2.4446187076
  - # 6
    frequency:     2.4560931750
  - # 7
    frequency:     2.4565199321
  - # 8
    frequency:     2.5047429514
  - # 9
    frequency:     2.5318795786
  - # 10
    frequency:     3.4927419729
  - # 11
    frequency:     3.4947495348
  - # 12
    frequency:     3.4975353954

- q-position: [    0.1354167,    0.0520833,    0.0104167 ]
  weight: 48   
  band:
  - # 1
    frequency:     0.5226296936