# Thermal properties / unit cell (natom)

unit:
  temperature:   K
  free_energy:   kJ/mol
  entropy:       J/K/mol
  heat_capacity: J/K/mol

natom:     4
num_modes: 6144
num_integrated_modes: 6144

zero_point_energy:      14.5572232
high_T_entropy:        372.8810577

thermal_properties:
- temperature:         0.0000000
  free_energy:        14.5572232
  entropy:             0.0000000
  heat_capacity:       0.0000000
  energy:             14.5572232

- temperature:        10.0000000
  free_energy:        14.5571609
  entropy:             0.0315416
  heat_capacity:       0.1102198
  energy:             14.5574763

- temperature:        20.0000000
  free_energy:        14.5558660
  entropy:             0.2807252
  heat_capacity:       0.8693357
  energy:             14.5614805

- temperature:        30.0000000
  free_energy:        14.5498849
  entropy:             1.0343796
  heat_capacity:       3.4385506
  energy:             14.5809162

- temperature:        40.0000000
  free_energy:        14.5321727
  entropy:             2.6793479
  heat_capacity:       8.6711568
  energy:             14.6393466

- temperature:        50.0000000
  free_energy:        14.4927985
  entropy:             5.3647012
  heat_capacity:      15.9004891
  energy:             14.7610336

- temperature:        60.0000000
  free_energy:        14.4217924
  entropy:             8.9727761
  heat_capacity:      23.9826450
  energy:             14.9601589

- temperature:        70.0000000
  free_energy:        14.3110133
  entropy:            13.2799997
  heat_capacity:      32.0556911
  energy:             15.2406133

- temperature:        80.0000000
  free_energy:        14.1546145
  entropy:            18.0619836
  heat_capacity:      39.6277276
  energy:             15.5995732

- temperature:        90.0000000
  free_energy:        13.9488173
  entropy:            23.1324041
  heat_capacity:      46.4747618
  energy:             16.0307336

- temperature:       100.0000000
  free_energy:        13.6914817
  entropy:            28.3495391
  heat_capacity:      52.5347628
  energy:             16.5264356

- temperature:       110.0000000
  free_energy:        13.3816824
  entropy:            33.6109332
  heat_capacity:      57.8328966
  energy:             17.0788850

- temperature:       120.0000000
  free_energy:        13.0193562
  entropy:            38.8451394
  heat_capacity:      62.4352893
  energy:             17.6807730

- temperature:       130.0000000
  free_energy:        12.6050329
  entropy:            44.0039071
  heat_capacity:      66.4226819
  energy:             18.3255408

- temperature:       140.0000000
  free_energy:        12.1396356
  entropy:            49.0558084
  heat_capacity:      69.8765248
  energy:             19.0074488

- temperature:       150.0000000
  free_energy:        11.6243387
  entropy:            53.9813786
  heat_capacity:      72.8723408
  energy:             19.7215455

- temperature:       160.0000000
  free_energy:        11.0604667
  entropy:            58.7695403
  heat_capacity:      75.4771117
  energy:             20.4635932

- temperature:       170.0000000
  free_energy:        10.4494240
  entropy:            63.4150257
  heat_capacity:      77.7487644
  energy:             21.2299783

- temperature:       180.0000000
  free_energy:         9.7926464
  entropy:            67.9165393
  heat_capacity:      79.7366698
  energy:             22.0176235

- temperature:       190.0000000
  free_energy:         9.0915687
  entropy:            72.2754582
  heat_capacity:      81.4825635
  energy:             22.8239058

- temperature:       200.0000000
  free_energy:         8.3476022
  entropy:            76.4949177
  heat_capacity:      83.0215799
  energy:             23.6465858

- temperature:       210.0000000
  free_energy:         7.5621211
  entropy:            80.5791696
  heat_capacity:      84.3832512
  energy:             24.4837467

- temperature:       220.0000000
  free_energy:         6.7364532
  entropy:            84.5331349
  heat_capacity:      85.5924055
  energy:             25.3337428

- temperature:       230.0000000
  free_energy:         5.8718751
  entropy:            88.3620929
  heat_capacity:      86.6699455
  energy:             26.1951565

- temperature:       240.0000000
  free_energy:         4.9696099
  entropy:            92.0714675
  heat_capacity:      87.6335072
  energy:             27.0667621

- temperature:       250.0000000
  free_energy:         4.0308263
  entropy:            95.6666816
  heat_capacity:      88.4980108
  energy:             27.9474967

- temperature:       260.0000000
  free_energy:         3.0566391
  entropy:            99.1530596
  heat_capacity:      89.2761170
  energy:             28.8364346

- temperature:       270.0000000
  free_energy:         2.0481106
  entropy:           102.5357648
  heat_capacity:      89.9786042
  energy:             29.7327671

- temperature:       280.0000000
  free_energy:         1.0062528
  entropy:           105.8197595
  heat_capacity:      90.6146796
  energy:             30.6357854

- temperature:       290.0000000
  free_energy:        -0.0679713
  entropy:           109.0097832
  heat_capacity:      91.1922345
  energy:             31.5448658

- temperature:       300.0000000
  free_energy:        -1.1736447
  entropy:           112.1103416
  heat_capacity:      91.7180559
  energy:             32.4594578

- temperature:       310.0000000
  free_energy:        -2.3098942
  entropy:           115.1257041
  heat_capacity:      92.1980009
  energy:             33.3790741

- temperature:       320.0000000
  free_energy:        -3.4758883
  entropy:           118.0599066
  heat_capacity:      92.6371407
  energy:             34.3032818

- temperature:       330.0000000
  free_energy:        -4.6708345
  entropy:           120.9167580
  heat_capacity:      93.0398804
  energy:             35.2316956

- temperature:       340.0000000
  free_energy:        -5.8939776
  entropy:           123.6998487
  heat_capacity:      93.4100592
  energy:             36.1639710

- temperature:       350.0000000
  free_energy:        -7.1445969
  entropy:           126.4125612
  heat_capacity:      93.7510328
  energy:             37.0997995

- temperature:       360.0000000
  free_energy:        -8.4220049
  entropy:           129.0580805
  heat_capacity:      94.0657434
  energy:             38.0389041

- temperature:       370.0000000
  free_energy:        -9.7255446
  entropy:           131.6394055
  heat_capacity:      94.3567785
  energy:             38.9810355

- temperature:       380.0000000
  free_energy:       -11.0545884
  entropy:           134.1593601
  heat_capacity:      94.6264194
  energy:             39.9259684

- temperature:       390.0000000
  free_energy:       -12.4085361
  entropy:           136.6206035
  heat_capacity:      94.8766834
  energy:             40.8734993

- temperature:       400.0000000
  free_energy:       -13.7868132
  entropy:           139.0256416
  heat_capacity:      95.1093591
  energy:             41.8234435

- temperature:       410.0000000
  free_energy:       -15.1888695
  entropy:           141.3768357
  heat_capacity:      95.3260360
  energy:             42.7756332

- temperature:       420.0000000
  free_energy:       -16.6141778
  entropy:           143.6764129
  heat_capacity:      95.5281303
  energy:             43.7299156

- temperature:       430.0000000
  free_energy:       -18.0622327
  entropy:           145.9264746
  heat_capacity:      95.7169070
  energy:             44.6861514

- temperature:       440.0000000
  free_energy:       -19.5325489
  entropy:           148.1290046
  heat_capacity:      95.8934982
  energy:             45.6442131

- temperature:       450.0000000
  free_energy:       -21.0246606
  entropy:           150.2858772
  heat_capacity:      96.0589198
  energy:             46.6039841

- temperature:       460.0000000
  free_energy:       -22.5381202
  entropy:           152.3988641
  heat_capacity:      96.2140848
  energy:             47.5653573

- temperature:       470.0000000
  free_energy:       -24.0724972
  entropy:           154.4696417
  heat_capacity:      96.3598160
  energy:             48.5282344

- temperature:       480.0000000
  free_energy:       -25.6273776
  entropy:           156.4997965
  heat_capacity:      96.4968559
  energy:             49.4925247

- temperature:       490.0000000
  free_energy:       -27.2023627
  entropy:           158.4908317
  heat_capacity:      96.6258762
  energy:             50.4581448

- temperature:       500.0000000
  free_energy:       -28.7970686
  entropy:           160.4441722
  heat_capacity:      96.7474854
  energy:             51.4250175

- temperature:       510.0000000
  free_energy:       -30.4111250
  entropy:           162.3611699
  heat_capacity:      96.8622359
  energy:             52.3930716

- temperature:       520.0000000
  free_energy:       -32.0441751
  entropy:           164.2431081
  heat_capacity:      96.9706299
  energy:             53.3622411

- temperature:       530.0000000
  free_energy:       -33.6958744
  entropy:           166.0912056
  heat_capacity:      97.0731249
  energy:             54.3324646

- temperature:       540.0000000
  free_energy:       -35.3658903
  entropy:           167.9066215
  heat_capacity:      97.1701382
  energy:             55.3036853

- temperature:       550.0000000
  free_energy:       -37.0539016
  entropy:           169.6904580
  heat_capacity:      97.2620513
  energy:             56.2758503

- temperature:       560.0000000
  free_energy:       -38.7595977
  entropy:           171.4437646
  heat_capacity:      97.3492131
  energy:             57.2489105

- temperature:       570.0000000
  free_energy:       -40.4826784
  entropy:           173.1675408
  heat_capacity:      97.4319435
  energy:             58.2228198

- temperature:       580.0000000
  free_energy:       -42.2228533
  entropy:           174.8627394
  heat_capacity:      97.5105359
  energy:             59.1975356

- temperature:       590.0000000
  free_energy:       -43.9798410
  entropy:           176.5302689
  heat_capacity:      97.5852602
  energy:             60.1730177

- temperature:       600.0000000
  free_energy:       -45.7533693
  entropy:           178.1709967
  heat_capacity:      97.6563646
  energy:             61.1492287

- temperature:       610.0000000
  free_energy:       -47.5431744
  entropy:           179.7857508
  heat_capacity:      97.7240779
  energy:             62.1261337

- temperature:       620.0000000
  free_energy:       -49.3490004
  entropy:           181.3753227
  heat_capacity:      97.7886113
  energy:             63.1036997

- temperature:       630.0000000
  free_energy:       -51.1705994
  entropy:           182.9404688
  heat_capacity:      97.8501596
  energy:             64.0818959

- temperature:       640.0000000
  free_energy:       -53.0077308
  entropy:           184.4819129
  heat_capacity:      97.9089034
  energy:             65.0606935

- temperature:       650.0000000
  free_energy:       -54.8601610
  entropy:           186.0003480
  heat_capacity:      97.9650096
  energy:             66.0400652

- temperature:       660.0000000
  free_energy:       -56.7276632
  entropy:           187.4964374
  heat_capacity:      98.0186330
  energy:             67.0199854

- temperature:       670.0000000
  free_energy:       -58.6100173
  entropy:           188.9708170
  heat_capacity:      98.0699173
  energy:             68.0004301

- temperature:       680.0000000
  free_energy:       -60.5070092
  entropy:           190.4240966
  heat_capacity:      98.1189960
  energy:             68.9813764

- temperature:       690.0000000
  free_energy:       -62.4184309
  entropy:           191.8568608
  heat_capacity:      98.1659932
  energy:             69.9628031

- temperature:       700.0000000
  free_energy:       -64.3440800
  entropy:           193.2696710
  heat_capacity:      98.2110245
  energy:             70.9446897

- temperature:       710.0000000
  free_energy:       -66.2837596
  entropy:           194.6630661
  heat_capacity:      98.2541976
  energy:             71.9270174

- temperature:       720.0000000
  free_energy:       -68.2372783
  entropy:           196.0375641
  heat_capacity:      98.2956130
  energy:             72.9097678

- temperature:       730.0000000
  free_energy:       -70.2044496
  entropy:           197.3936625
  heat_capacity:      98.3353643
  energy:             73.8929241

- temperature:       740.0000000
  free_energy:       -72.1850918
  entropy:           198.7318401
  heat_capacity:      98.3735393
  energy:             74.8764699

- temperature:       750.0000000
  free_energy:       -74.1790282
  entropy:           200.0525574
  heat_capacity:      98.4102198
  energy:             75.8603899

- temperature:       760.0000000
  free_energy:       -76.1860862
  entropy:           201.3562576
  heat_capacity:      98.4454827
  energy:             76.8446695

- temperature:       770.0000000
  free_energy:       -78.2060980
  entropy:           202.6433676
  heat_capacity:      98.4793997
  energy:             77.8292950

- temperature:       780.0000000
  free_energy:       -80.2388997
  entropy:           203.9142986
  heat_capacity:      98.5120383
  energy:             78.8142533

- temperature:       790.0000000
  free_energy:       -82.2843314
  entropy:           205.1694470
  heat_capacity:      98.5434617
  energy:             79.7995318

- temperature:       800.0000000
  free_energy:       -84.3422373
  entropy:           206.4091949
  heat_capacity:      98.5737293
  energy:             80.7851186

- temperature:       810.0000000
  free_energy:       -86.4124652
  entropy:           207.6339109
  heat_capacity:      98.6028969
  energy:             81.7710027

- temperature:       820.0000000
  free_energy:       -88.4948666
  entropy:           208.8439508
  heat_capacity:      98.6310170
  energy:             82.7571731

- temperature:       830.0000000
  free_energy:       -90.5892964
  entropy:           210.0396579
  heat_capacity:      98.6581390
  energy:             83.7436197

- temperature:       840.0000000
  free_energy:       -92.6956130
  entropy:           211.2213640
  heat_capacity:      98.6843096
  energy:             84.7303327

- temperature:       850.0000000
  free_energy:       -94.8136781
  entropy:           212.3893893
  heat_capacity:      98.7095724
  energy:             85.7173029

- temperature:       860.0000000
  free_energy:       -96.9433563
  entropy:           213.5440436
  heat_capacity:      98.7339690
  energy:             86.7045213

- temperature:       870.0000000
  free_energy:       -99.0845154
  entropy:           214.6856263
  heat_capacity:      98.7575384
  energy:             87.6919795

- temperature:       880.0000000
  free_energy:      -101.2370262
  entropy:           215.8144268
  heat_capacity:      98.7803173
  energy:             88.6796694

- temperature:       890.0000000
  free_energy:      -103.4007622
  entropy:           216.9307253
  heat_capacity:      98.8023408
  energy:             89.6675833

- temperature:       900.0000000
  free_energy:      -105.5755999
  entropy:           218.0347930
  heat_capacity:      98.8236418
  energy:             90.6557138

- temperature:       910.0000000
  free_energy:      -107.7614182
  entropy:           219.1268924
  heat_capacity:      98.8442514
  energy:             91.6440538

- temperature:       920.0000000
  free_energy:      -109.9580987
  entropy:           220.2072776
  heat_capacity:      98.8641992
  energy:             92.6325966

- temperature:       930.0000000
  free_energy:      -112.1655255
  entropy:           221.2761949
  heat_capacity:      98.8835131
  energy:             93.6213357

- temperature:       940.0000000
  free_energy:      -114.3835852
  entropy:           222.3338830
  heat_capacity:      98.9022197
  energy:             94.6102649

- temperature:       950.0000000
  free_energy:      -116.6121665
  entropy:           223.3805734
  heat_capacity:      98.9203440
  energy:             95.5993782

- temperature:       960.0000000
  free_energy:      -118.8511607
  entropy:           224.4164902
  heat_capacity:      98.9379100
  energy:             96.5886699

- temperature:       970.0000000
  free_energy:      -121.1004612
  entropy:           225.4418513
  heat_capacity:      98.9549404
  energy:             97.5781346

- temperature:       980.0000000
  free_energy:      -123.3599633
  entropy:           226.4568676
  heat_capacity:      98.9714565
  energy:             98.5677670

- temperature:       990.0000000
  free_energy:      -125.6295647
  entropy:           227.4617442
  heat_capacity:      98.9874789
  energy:             99.5575621

- temperature:      1000.0000000
  free_energy:      -127.9091650
  entropy:           228.4566800
  heat_capacity:      99.0030270
  energy:            100.5475150

- temperature:      1010.0000000
  free_energy:      -130.1986658
  entropy:           229.4418682
  heat_capacity:      99.0181194
  energy:            101.5376211

- temperature:      1020.0000000
  free_energy:      -132.4979705
  entropy:           230.4174965
  heat_capacity:      99.0327735
  energy:            102.5278759

- temperature:      1030.0000000
  free_energy:      -134.8069845
  entropy:           231.3837472
  heat_capacity:      99.0470063
  energy:            103.5182751

- temperature:      1040.0000000
  free_energy:      -137.1256148
  entropy:           232.3407976
  heat_capacity:      99.0608336
  energy:            104.5088147

- temperature:      1050.0000000
  free_energy:      -139.4537704
  entropy:           233.2888199
  heat_capacity:      99.0742707
  energy:            105.4994905

- temperature:      1060.0000000
  free_energy:      -141.7913617
  entropy:           234.2279816
  heat_capacity:      99.0873320
  energy:            106.4902988

- temperature:      1070.0000000
  free_energy:      -144.1383010
  entropy:           235.1584457
  heat_capacity:      99.1000316
  energy:            107.4812359

- temperature:      1080.0000000
  free_energy:      -146.4945021
  entropy:           236.0803708
  heat_capacity:      99.1123825
  energy:            108.4722983

- temperature:      1090.0000000
  free_energy:      -148.8598805
  entropy:           236.9939110
  heat_capacity:      99.1243974
  energy:            109.4634825

- temperature:      1100.0000000
  free_energy:      -151.2343529
  entropy:           237.8992164
  heat_capacity:      99.1360884
  energy:            110.4547852

- temperature:      1110.0000000
  free_energy:      -153.6178378
  entropy:           238.7964334
  heat_capacity:      99.1474670
  energy:            111.4462032

- temperature:      1120.0000000
  free_energy:      -156.0102551
  entropy:           239.6857041
  heat_capacity:      99.1585441
  energy:            112.4377335

- temperature:      1130.0000000
  free_energy:      -158.4115259
  entropy:           240.5671673
  heat_capacity:      99.1693304
  energy:            113.4293731

- temperature:      1140.0000000
  free_energy:      -160.8215729
  entropy:           241.4409579
  heat_capacity:      99.1798359
  energy:            114.4211192

- temperature:      1150.0000000
  free_energy:      -163.2403199
  entropy:           242.3072077
  heat_capacity:      99.1900702
  energy:            115.4129689

- temperature:      1160.0000000
  free_energy:      -165.6676923
  entropy:           243.1660448
  heat_capacity:      99.2000426
  energy:            116.4049197

- temperature:      1170.0000000
  free_energy:      -168.1036165
  entropy:           244.0175944
  heat_capacity:      99.2097620
  energy:            117.3969689

- temperature:      1180.0000000
  free_energy:      -170.5480203
  entropy:           244.8619783
  heat_capacity:      99.2192368
  energy:            118.3891141

- temperature:      1190.0000000
  free_energy:      -173.0008326
  entropy:           245.6993155
  heat_capacity:      99.2284751
  energy:            119.3813529

- temperature:      1200.0000000
  free_energy:      -175.4619835
  entropy:           246.5297220
  heat_capacity:      99.2374848
  energy:            120.3736829

- temperature:      1210.0000000
  free_energy:      -177.9314043
  entropy:           247.3533109
  heat_capacity:      99.2462732
  energy:            121.3661018

- temperature:      1220.0000000
  free_energy:      -180.4090274
  entropy:           248.1701926
  heat_capacity:      99.2548477
  energy:            122.3586076

- temperature:      1230.0000000
  free_energy:      -182.8947862
  entropy:           248.9804750
  heat_capacity:      99.2632150
  energy:            123.3511981

- temperature:      1240.0000000
  free_energy:      -185.3886152
  entropy:           249.7842633
  heat_capacity:      99.2713818
  energy:            124.3438713

- temperature:      1250.0000000
  free_energy:      -187.8904501
  entropy:           250.5816602
  heat_capacity:      99.2793544
  energy:            125.3366251

- temperature:      1260.0000000
  free_energy:      -190.4002275
  entropy:           251.3727660
  heat_capacity:      99.2871389
  energy:            126.3294577

- temperature:      1270.0000000
  free_energy:      -192.9178848
  entropy:           252.1576788
  heat_capacity:      99.2947412
  energy:            127.3223673

- temperature:      1280.0000000
  free_energy:      -195.4433607
  entropy:           252.9364943
  heat_capacity:      99.3021670
  energy:            128.3153520

- temperature:      1290.0000000
  free_energy:      -197.9765947
  entropy:           253.7093060
  heat_capacity:      99.3094215
  energy:            129.3084100

- temperature:      1300.0000000
  free_energy:      -200.5175271
  entropy:           254.4762053
  heat_capacity:      99.3165102
  energy:            130.3015398

- temperature:      1310.0000000
  free_energy:      -203.0660994
  entropy:           255.2372817
  heat_capacity:      99.3234379
  energy:            131.2947397

- temperature:      1320.0000000
  free_energy:      -205.6222536
  entropy:           255.9926225
  heat_capacity:      99.3302095
  energy:            132.2880081

- temperature:      1330.0000000
  free_energy:      -208.1859330
  entropy:           256.7423131
  heat_capacity:      99.3368296
  energy:            133.2813434

- temperature:      1340.0000000
  free_energy:      -210.7570813
  entropy:           257.4864370
  heat_capacity:      99.3433028
  energy:            134.2747442

- temperature:      1350.0000000
  free_energy:      -213.3356434
  entropy:           258.2250759
  heat_capacity:      99.3496333
  energy:            135.2682090

- temperature:      1360.0000000
  free_energy:      -215.9215648
  entropy:           258.9583097
  heat_capacity:      99.3558253
  energy:            136.2617364

- temperature:      1370.0000000
  free_energy:      -218.5147919
  entropy:           259.6862167
  heat_capacity:      99.3618828
  energy:            137.2553250

- temperature:      1380.0000000
  free_energy:      -221.1152717
  entropy:           260.4088734
  heat_capacity:      99.3678097
  energy:            138.2489736

- temperature:      1390.0000000
  free_energy:      -223.7229521
  entropy:           261.1263546
  heat_capacity:      99.3736097
  energy:            139.2426808

- temperature:      1400.0000000
  free_energy:      -226.3377818
  entropy:           261.8387337
  heat_capacity:      99.3792863
  energy:            140.2364454

- temperature:      1410.0000000
  free_energy:      -228.9597100
  entropy:           262.5460824
  heat_capacity:      99.3848431
  energy:            141.2302661

- temperature:      1420.0000000
  free_energy:      -231.5886869
  entropy:           263.2484709
  heat_capacity:      99.3902834
  energy:            142.2241419

- temperature:      1430.0000000
  free_energy:      -234.2246631
  entropy:           263.9459682
  heat_capacity:      99.3956105
  energy:            143.2180714

- temperature:      1440.0000000
  free_energy:      -236.8675902
  entropy:           264.6386416
  heat_capacity:      99.4008274
  energy:            144.2120537

- temperature:      1450.0000000
  free_energy:      -239.5174201
  entropy:           265.3265570
  heat_capacity:      99.4059371
  energy:            145.2060876

- temperature:      1460.0000000
  free_energy:      -242.1741057
  entropy:           266.0097793
  heat_capacity:      99.4109426
  energy:            146.2001721

- temperature:      1470.0000000
  free_energy:      -244.8376002
  entropy:           266.6883717
  heat_capacity:      99.4158468
  energy:            147.1943061

- temperature:      1480.0000000
  free_energy:      -247.5078579
  entropy:           267.3623963
  heat_capacity:      99.4206522
  energy:            148.1884887

- temperature:      1490.0000000
  free_energy:      -250.1848331
  entropy:           268.0319141
  heat_capacity:      99.4253615
  energy:            149.1827188

- temperature:      1500.0000000
  free_energy:      -252.8684813
  entropy:           268.6969846
  heat_capacity:      99.4299773
  energy:            150.1769956

- temperature:      1510.0000000
  free_energy:      -255.5587582
  entropy:           269.3576664
  heat_capacity:      99.4345021
  energy:            151.1713181

- temperature:      1520.0000000
  free_energy:      -258.2556202
  entropy:           270.0140168
  heat_capacity:      99.4389382
  energy:            152.1656854

- temperature:      1530.0000000
  free_energy:      -260.9590243
  entropy:           270.6660921
  heat_capacity:      99.4432879
  energy:            153.1600966

- temperature:      1540.0000000
  free_energy:      -263.6689280
  entropy:           271.3139473
  heat_capacity:      99.4475534
  energy:            154.1545508

- temperature:      1550.0000000
  free_energy:      -266.3852894
  entropy:           271.9576366
  heat_capacity:      99.4517369
  energy:            155.1490474

- temperature:      1560.0000000
  free_energy:      -269.1080670
  entropy:           272.5972130
  heat_capacity:      99.4558405
  energy:            156.1435853

- temperature:      1570.0000000
  free_energy:      -271.8372201
  entropy:           273.2327287
  heat_capacity:      99.4598662
  energy:            157.1381639

- temperature:      1580.0000000
  free_energy:      -274.5727082
  entropy:           273.8642346
  heat_capacity:      99.4638159
  energy:            158.1327824

- temperature:      1590.0000000
  free_energy:      -277.3144916
  entropy:           274.4917809
  heat_capacity:      99.4676916
  energy:            159.1274400

- temperature:      1600.0000000
  free_energy:      -280.0625308
  entropy:           275.1154167
  heat_capacity:      99.4714951
  energy:            160.1221360

- temperature:      1610.0000000
  free_energy:      -282.8167870
  entropy:           275.7351905
  heat_capacity:      99.4752282
  energy:            161.1168696

- temperature:      1620.0000000
  free_energy:      -285.5772219
  entropy:           276.3511495
  heat_capacity:      99.4788926
  energy:            162.1116403

- temperature:      1630.0000000
  free_energy:      -288.3437975
  entropy:           276.9633403
  heat_capacity:      99.4824899
  energy:            163.1064473

- temperature:      1640.0000000
  free_energy:      -291.1164763
  entropy:           277.5718086
  heat_capacity:      99.4860219
  energy:            164.1012899

- temperature:      1650.0000000
  free_energy:      -293.8952214
  entropy:           278.1765993
  heat_capacity:      99.4894900
  energy:            165.0961675

- temperature:      1660.0000000
  free_energy:      -296.6799962
  entropy:           278.7777564
  heat_capacity:      99.4928958
  energy:            166.0910795

- temperature:      1670.0000000
  free_energy:      -299.4707645
  entropy:           279.3753232
  heat_capacity:      99.4962408
  energy:            167.0860252

- temperature:      1680.0000000
  free_energy:      -302.2674908
  entropy:           279.9693422
  heat_capacity:      99.4995265
  energy:            168.0810041

- temperature:      1690.0000000
  free_energy:      -305.0701397
  entropy:           280.5598552
  heat_capacity:      99.5027541
  energy:            169.0760155

- temperature:      1700.0000000
  free_energy:      -307.8786764
  entropy:           281.1469031
  heat_capacity:      99.5059251
  energy:            170.0710590

- temperature:      1710.0000000
  free_energy:      -310.6930663
  entropy:           281.7305264
  heat_capacity:      99.5090408
  energy:            171.0661339

- temperature:      1720.0000000
  free_energy:      -313.5132756
  entropy:           282.3107647
  heat_capacity:      99.5121025
  energy:            172.0612396

- temperature:      1730.0000000
  free_energy:      -316.3392705
  entropy:           282.8876568
  heat_capacity:      99.5151114
  energy:            173.0563757

- temperature:      1740.0000000
  free_energy:      -319.1710177
  entropy:           283.4612410
  heat_capacity:      99.5180687
  energy:            174.0515417

- temperature:      1750.0000000
  free_energy:      -322.0084844
  entropy:           284.0315551
  heat_capacity:      99.5209756
  energy:            175.0467369

- temperature:      1760.0000000
  free_energy:      -324.8516380
  entropy:           284.5986358
  heat_capacity:      99.5238332
  energy:            176.0419610

- temperature:      1770.0000000
  free_energy:      -327.7004465
  entropy:           285.1625197
  heat_capacity:      99.5266426
  energy:            177.0372135

- temperature:      1780.0000000
  free_energy:      -330.5548779
  entropy:           285.7232425
  heat_capacity:      99.5294050