<?xml version="1.0" encoding="ISO-8859-1"?>
<modeling>
 <generator>
  <i name="program" type="string">vasp</i>
  <i name="version" type="string">4.6.28 </i>
  <i name="subversion" type="string">25Jul05 complex  parallel</i>
  <i name="platform" type="string">LinuxIFC</i>
  <i name="date" type="string">2016 10 19</i>
  <i name="time" type="string">17:27:07</i>
 </generator>
 <incar>
  <i type="string" name="PREC">accurate</i>
  <i type="int" name="IALGO">    38</i>
  <i name="EDIFF">      0.00000001</i>
  <i type="int" name="IBRION">    -1</i>
  <i name="ENCUT">    500.00000000</i>
  <i type="logical" name="LREAL"> F  </i>
  <i type="int" name="ISMEAR">     0</i>
  <i name="SIGMA">      0.01000000</i>
  <i type="logical" name="LWAVE"> F  </i>
  <i type="logical" name="LCHARG"> F  </i>
 </incar>
 <kpoints>
  <generation param="Auto">
   <i name="subdivisionlength">     50.00000000</i>
   <v type="int" name="divisions">       6       6       6</v>
   <v name="usershift">      0.00000000      0.00000000      0.00000000</v>
   <v name="genvec1">      0.16666667      0.00000000      0.00000000</v>
   <v name="genvec2">      0.00000000      0.16666667      0.00000000</v>
   <v name="genvec3">      0.00000000      0.00000000      0.16666667</v>
   <v name="shift">      0.00000000      0.00000000      0.00000000</v>
  </generation>
  <varray name="kpointlist" >
   <v>       0.00000000      0.00000000      0.00000000</v>
   <v>       0.16666667      0.00000000      0.00000000</v>
   <v>       0.33333333      0.00000000      0.00000000</v>
   <v>       0.50000000      0.00000000      0.00000000</v>
   <v>       0.00000000      0.16666667      0.00000000</v>
   <v>       0.16666667      0.16666667      0.00000000</v>
   <v>       0.33333333      0.16666667      0.00000000</v>
   <v>       0.50000000      0.16666667      0.00000000</v>
   <v>       0.00000000      0.33333333      0.00000000</v>
   <v>       0.16666667      0.33333333      0.00000000</v>
   <v>       0.33333333      0.33333333      0.00000000</v>
   <v>       0.50000000      0.33333333      0.00000000</v>
   <v>       0.00000000      0.50000000      0.00000000</v>
   <v>       0.16666667      0.50000000      0.00000000</v>
   <v>       0.33333333      0.50000000      0.00000000</v>
   <v>       0.50000000      0.50000000      0.00000000</v>
   <v>       0.00000000      0.16666667      0.16666667</v>
   <v>       0.16666667      0.16666667      0.16666667</v>
   <v>       0.33333333      0.16666667      0.16666667</v>
   <v>       0.50000000      0.16666667      0.16666667</v>
   <v>       0.00000000      0.33333333      0.16666667</v>
   <v>       0.16666667      0.33333333      0.16666667</v>
   <v>       0.33333333      0.33333333      0.16666667</v>
   <v>       0.50000000      0.33333333      0.16666667</v>
   <v>       0.00000000      0.50000000      0.16666667</v>
   <v>       0.16666667      0.50000000      0.16666667</v>
   <v>       0.33333333      0.50000000      0.16666667</v>
   <v>       0.50000000      0.50000000      0.16666667</v>
   <v>       0.00000000      0.33333333      0.33333333</v>
   <v>       0.16666667      0.33333333      0.33333333</v>
   <v>       0.33333333      0.33333333      0.33333333</v>
   <v>       0.50000000      0.33333333      0.33333333</v>
   <v>       0.00000000      0.50000000      0.33333333</v>
   <v>       0.16666667      0.50000000      0.33333333</v>
   <v>       0.33333333      0.50000000      0.33333333</v>
   <v>       0.50000000      0.50000000      0.33333333</v>
   <v>       0.00000000      0.50000000      0.50000000</v>
   <v>       0.16666667      0.50000000      0.50000000</v>
   <v>       0.33333333      0.50000000      0.50000000</v>
   <v>       0.50000000      0.50000000      0.50000000</v>
  </varray>
  <varray name="weights" >
   <v>       0.00462963</v>
   <v>       0.00925926</v>
   <v>       0.00925926</v>
   <v>       0.00462963</v>
   <v>       0.01851852</v>
   <v>       0.03703704</v>
   <v>       0.03703704</v>
   <v>       0.01851852</v>
   <v>       0.01851852</v>
   <v>       0.03703704</v>
   <v>       0.03703704</v>
   <v>       0.01851852</v>
   <v>       0.00925926</v>
   <v>       0.01851852</v>
   <v>       0.01851852</v>
   <v>       0.00925926</v>
   <v>       0.01851852</v>
   <v>       0.03703704</v>
   <v>       0.03703704</v>
   <v>       0.01851852</v>
   <v>       0.03703704</v>
   <v>       0.07407407</v>
   <v>       0.07407407</v>
   <v>       0.03703704</v>
   <v>       0.01851852</v>
   <v>       0.03703704</v>
   <v>       0.03703704</v>
   <v>       0.01851852</v>
   <v>       0.01851852</v>
   <v>       0.03703704</v>
   <v>       0.03703704</v>
   <v>       0.01851852</v>
   <v>       0.01851852</v>
   <v>       0.03703704</v>
   <v>       0.03703704</v>
   <v>       0.01851852</v>
   <v>       0.00462963</v>
   <v>       0.00925926</v>
   <v>       0.00925926</v>
   <v>       0.00462963</v>
  </varray>
 </kpoints>
 <parameters>
  <separator name="general" >
   <i type="string" name="SYSTEM">unknown system</i>
   <i type="logical" name="LCOMPAT"> F  </i>
  </separator>
  <separator name="electronic" >
   <i type="string" name="PREC">accura</i>
   <i name="ENMAX">    500.00000000</i>
   <i name="ENAUG">    291.05200000</i>
   <i name="EDIFF">      0.00000001</i>
   <i type="int" name="IALGO">    38</i>
   <i type="int" name="IWAVPR">    10</i>
   <i type="int" name="NBANDS">    65</i>
   <i name="NELECT">     96.00000000</i>
   <separator name="electronic smearing" >
    <i type="int" name="ISMEAR">     0</i>
    <i name="SIGMA">      0.01000000</i>
   </separator>
   <separator name="electronic projectors" >
    <i type="logical" name="LREAL"> F  </i>
    <v name="ROPT">      0.00000000</v>
    <i type="int" name="LMAXPAW">  -100</i>
    <i type="int" name="LMAXMIX">     2</i>
   </separator>
   <separator name="electronic startup" >
    <i type="int" name="ISTART">     0</i>
    <i type="int" name="ICHARG">     2</i>
    <i type="int" name="INIWAV">     1</i>
   </separator>
   <separator name="electronic spin" >
    <i type="int" name="ISPIN">     1</i>
    <i type="logical" name="LNONCOLLINEAR"> F  </i>
    <v name="MAGMOM">      1.00000000      1.00000000      1.00000000      1.00000000      1.00000000      1.00000000      1.00000000      1.00000000      1.00000000      1.00000000      1.00000000      1.00000000      1.00000000      1.00000000      1.00000000      1.00000000      1.00000000      1.00000000      1.00000000      1.00000000
      1.00000000      1.00000000      1.00000000      1.00000000      1.00000000      1.00000000      1.00000000      1.00000000      1.00000000      1.00000000      1.00000000      1.00000000</v>
    <i name="NUPDOWN">     -1.00000000</i>
    <i type="logical" name="LSORBIT"> F  </i>
    <v name="SAXIS">      0.00000000      0.00000000      1.00000000</v>
    <i type="logical" name="LSPIRAL"> F  </i>
    <v name="QSPIRAL">      0.00000000      0.00000000      0.00000000</v>
    <i type="logical" name="LZEROZ"> F  </i>
   </separator>
   <separator name="electronic exchange-correlation" >
    <i type="string" name="GGA">--</i>
    <i type="int" name="VOSKOWN">     0</i>
    <i type="logical" name="LASPH"> F  </i>
    <i type="logical" name="LMETAGGA"> F  </i>
    <i type="string" name="GGA2">--</i>
   </separator>
   <separator name="electronic convergence" >
    <i type="int" name="NELM">    60</i>
    <i type="int" name="NELMDL">     0</i>
    <i type="int" name="NELMIN">     2</i>
    <i name="ENINI">    500.00000000</i>
    <separator name="electronic convergence detail" >
     <i type="logical" name="LDIAG"> T  </i>
     <i name="WEIMIN">      0.00000000</i>
     <i name="EBREAK">      0.00000000</i>
     <i name="DEPER">      0.30000000</i>
     <i type="int" name="NRMM">     4</i>
     <i name="TIME">      0.10000000</i>
    </separator>
   </separator>
   <separator name="electronic mixer" >
    <i name="AMIX">      0.40000000</i>
    <i name="BMIX">      1.00000000</i>
    <i name="AMIN">      0.10000000</i>
    <i name="AMIX_MAG">      1.60000000</i>
    <i name="BMIX_MAG">      1.00000000</i>
    <separator name="electronic mixer details" >
     <i type="int" name="IMIX">     4</i>
     <i type="int" name="MAXMIX">   -45</i>
     <i name="WC">    100.00000000</i>
     <i type="int" name="INIMIX">     1</i>
     <i type="int" name="MIXPRE">     1</i>
     <i type="int" name="MREMOVE">     5</i>
    </separator>
   </separator>
   <separator name="electronic dipolcorrection" >
    <i type="int" name="IDIPOL">     0</i>
    <i type="logical" name="LDIPOL"> F  </i>
    <v name="DIPOL">   -100.00000000</v>
    <i name="EFIELD">      0.00000000</i>
   </separator>
  </separator>
  <separator name="grids" >
   <i type="int" name="NGX">    60</i>
   <i type="int" name="NGY">    60</i>
   <i type="int" name="NGZ">    60</i>
   <i type="int" name="NGXF">   120</i>
   <i type="int" name="NGYF">   120</i>
   <i type="int" name="NGZF">   120</i>
   <i type="logical" name="ADDGRID"> F  </i>
  </separator>
  <separator name="ionic" >
   <i type="int" name="NSW">     0</i>
   <i type="int" name="IBRION">    -1</i>
   <i type="int" name="ISIF">     2</i>
   <i name="PSTRESS">      0.00000000</i>
   <i name="EDIFFG">      0.00000010</i>
   <i type="int" name="NFREE">     0</i>
   <i name="POTIM">      0.50000000</i>
   <i name="SMASS">     -3.00000000</i>
  </separator>
  <separator name="ionic md" >
   <i name="TEBEG">      0.00010000</i>
   <i name="TEEND">      0.00010000</i>
   <i type="int" name="NBLOCK">     1</i>
   <i type="int" name="KBLOCK">     1</i>
   <i type="int" name="NPACO">   256</i>
   <i name="APACO">     16.00000000</i>
  </separator>
  <separator name="symmetry" >
   <i type="int" name="ISYM">     2</i>
   <i name="SYMPREC">      0.00001000</i>
  </separator>
  <separator name="dos" >
   <i type="logical" name="LORBIT"> F  </i>
   <v name="RWIGS">     -1.00000000</v>
   <i type="int" name="NEDOS">   301</i>
   <i name="EMIN">     10.00000000</i>
   <i name="EMAX">    -10.00000000</i>
  </separator>
  <separator name="writing" >
   <i type="int" name="NWRITE">     2</i>
   <i type="logical" name="LWAVE"> F  </i>
   <i type="logical" name="LCHARG"> F  </i>
   <i type="logical" name="LPARD"> F  </i>
   <i type="logical" name="LVTOT"> F  </i>
   <i type="logical" name="LELF"> F  </i>
   <i type="logical" name="LOPTICS"> F  </i>
   <i name="STM">      0.00000000</i>
  </separator>
  <separator name="performance" >
   <i type="int" name="NPAR">     8</i>
   <i type="int" name="NSIM">     4</i>
   <i type="int" name="NBLK">   256</i>
   <i type="logical" name="LPLANE"> T  </i>
   <i type="logical" name="LCRITICAL_MEM"> F  </i>
   <i type="logical" name="LSCALAPACK"> F  </i>
   <i type="logical" name="LSCALU"> F  </i>
   <i type="logical" name="LASYNC"> F  </i>
  </separator>
  <separator name="miscellaneous" >
   <i type="int" name="IDIOT">     3</i>
   <i type="logical" name="LMUSIC"> F  </i>
   <v name="POMASS">     26.98200000</v>
   <i type="logical" name="LCORR"> T  </i>
  </separator>
  <i type="logical" name="LREAL_COMPAT"> F  </i>
  <i type="logical" name="GGA_COMPAT"> T  </i>
  <i type="logical" name="LBERRY"> F  </i>
  <i type="int" name="ICORELEVEL">     0</i>
  <i type="logical" name="LDAU"> F  </i>
  <i type="int" name="I_CONSTRAINED_M">     0</i>
 </parameters>
 <atominfo>
  <atoms>      32</atoms>
  <types>       1</types>
  <array name="atoms" >
   <dimension dim="1">ion</dimension>
   <field type="string">element</field>
   <field type="int">atomtype</field>
   <set>
    <rc><c>Al</c><c>   1</c></rc>
    <rc><c>Al</c><c>   1</c></rc>
    <rc><c>Al</c><c>   1</c></rc>
    <rc><c>Al</c><c>   1</c></rc>
    <rc><c>Al</c><c>   1</c></rc>
    <rc><c>Al</c><c>   1</c></rc>
    <rc><c>Al</c><c>   1</c></rc>
    <rc><c>Al</c><c>   1</c></rc>
    <rc><c>Al</c><c>   1</c></rc>
    <rc><c>Al</c><c>   1</c></rc>
    <rc><c>Al</c><c>   1</c></rc>
    <rc><c>Al</c><c>   1</c></rc>
    <rc><c>Al</c><c>   1</c></rc>
    <rc><c>Al</c><c>   1</c></rc>
    <rc><c>Al</c><c>   1</c></rc>
    <rc><c>Al</c><c>   1</c></rc>
    <rc><c>Al</c><c>   1</c></rc>
    <rc><c>Al</c><c>   1</c></rc>
    <rc><c>Al</c><c>   1</c></rc>
    <rc><c>Al</c><c>   1</c></rc>
    <rc><c>Al</c><c>   1</c></rc>
    <rc><c>Al</c><c>   1</c></rc>
    <rc><c>Al</c><c>   1</c></rc>
    <rc><c>Al</c><c>   1</c></rc>
    <rc><c>Al</c><c>   1</c></rc>
    <rc><c>Al</c><c>   1</c></rc>
    <rc><c>Al</c><c>   1</c></rc>
    <rc><c>Al</c><c>   1</c></rc>
    <rc><c>Al</c><c>   1</c></rc>
    <rc><c>Al</c><c>   1</c></rc>
    <rc><c>Al</c><c>   1</c></rc>
    <rc><c>Al</c><c>   1</c></rc>
   </set>
  </array>
  <array name="atomtypes" >
   <dimension dim="1">type</dimension>
   <field type="int">atomspertype</field>
   <field type="string">element</field>
   <field>mass</field>
   <field>valence</field>
   <field type="string">pseudopotential</field>
   <set>
    <rc><c>  32</c><c>Al</c><c>     26.98200000</c><c>      3.00000000</c><c> PAW_PBE Al 04Jan2001                   </c></rc>
   </set>
  </array>
 </atominfo>
 <structure name="initialpos" >
  <crystal>
   <varray name="basis" >
    <v>       8.07461274      0.00000000      0.00000000</v>
    <v>       0.00000000      8.07461274      0.00000000</v>
    <v>       0.00000000      0.00000000      8.07461274</v>
   </varray>
   <i name="volume">    526.45967079</i>
   <varray name="rec_basis" >
    <v>       0.12384495      0.00000000      0.00000000</v>
    <v>       0.00000000      0.12384495      0.00000000</v>
    <v>       0.00000000      0.00000000      0.12384495</v>
   </varray>
  </crystal>
  <varray name="positions" >
   <v>       0.25123845      0.25000000      0.00000000</v>
   <v>       0.75000000      0.25000000      0.00000000</v>
   <v>       0.25000000      0.75000000      0.00000000</v>
   <v>       0.75000000      0.75000000      0.00000000</v>
   <v>       0.25000000      0.25000000      0.50000000</v>
   <v>       0.75000000      0.25000000      0.50000000</v>
   <v>       0.25000000      0.75000000      0.50000000</v>
   <v>       0.75000000      0.75000000      0.50000000</v>
   <v>       0.25000000      0.00000000      0.25000000</v>
   <v>       0.75000000      0.00000000      0.25000000</v>
   <v>       0.25000000      0.50000000      0.25000000</v>
   <v>       0.75000000      0.50000000      0.25000000</v>
   <v>       0.25000000      0.00000000      0.75000000</v>
   <v>       0.75000000      0.00000000      0.75000000</v>
   <v>       0.25000000      0.50000000      0.75000000</v>
   <v>       0.75000000      0.50000000      0.75000000</v>
   <v>       0.00000000      0.25000000      0.25000000</v>
   <v>       0.50000000      0.25000000      0.25000000</v>
   <v>       0.00000000      0.75000000      0.25000000</v>
   <v>       0.50000000      0.75000000      0.25000000</v>
   <v>       0.00000000      0.25000000      0.75000000</v>
   <v>       0.50000000      0.25000000      0.75000000</v>
   <v>       0.00000000      0.75000000      0.75000000</v>
   <v>       0.50000000      0.75000000      0.75000000</v>
   <v>       0.00000000      0.00000000      0.00000000</v>
   <v>       0.50000000      0.00000000      0.00000000</v>
   <v>       0.00000000      0.50000000      0.00000000</v>
   <v>       0.50000000      0.50000000      0.00000000</v>
   <v>       0.00000000      0.00000000      0.50000000</v>
   <v>       0.50000000      0.00000000      0.50000000</v>
   <v>       0.00000000      0.50000000      0.50000000</v>
   <v>       0.50000000      0.50000000      0.50000000</v>
  </varray>
 </structure>
 <calculation>
  <scstep>
   <time name="dav">   19.56   19.61</time>
   <time name="total">   19.70   19.76</time>
   <energy>
    <i name="alphaZ">     -6.53311864</i>
    <i name="ewald">  -2354.79383508</i>
    <i name="hartreedc">     -3.21085913</i>
    <i name="XCdc">   -839.50335709</i>
    <i name="pawpsdc">   1137.73615723</i>
    <i name="pawaedc">   -115.16745734</i>
    <i name="eentropy">     -0.00052680</i>
    <i name="bandstr">    588.01214299</i>
    <i name="atom">   1713.22913220</i>
    <i name="e_fr_energy">    119.76827834</i>
    <i name="e_wo_entrp">    119.76880515</i>
    <i name="e_0_energy">    119.76854175</i>
   </energy>
  </scstep>
  <scstep>
   <time name="dav">   21.94   21.97</time>
   <time name="total">   21.94   21.98</time>
   <energy>
    <i name="e_fr_energy">   -107.31362168</i>
    <i name="e_wo_entrp">   -107.31294351</i>
    <i name="e_0_energy">   -107.31328260</i>
   </energy>
  </scstep>
  <scstep>
   <time name="dav">   23.03   23.07</time>
   <time name="total">   23.04   23.07</time>
   <energy>
    <i name="e_fr_energy">   -120.25618634</i>
    <i name="e_wo_entrp">   -120.25589548</i>
    <i name="e_0_energy">   -120.25604091</i>
   </energy>
  </scstep>
  <scstep>
   <time name="dav">   21.80   21.84</time>
   <time name="total">   21.80   21.85</time>
   <energy>
    <i name="e_fr_energy">   -120.49056502</i>
    <i name="e_wo_entrp">   -120.49020466</i>
    <i name="e_0_energy">   -120.49038484</i>
   </energy>
  </scstep>
  <scstep>
   <time name="dav">   21.93   22.01</time>
   <time name="total">   23.26   23.34</time>
   <energy>
    <i name="e_fr_energy">   -120.49338703</i>
    <i name="e_wo_entrp">   -120.49302737</i>
    <i name="e_0_energy">   -120.49320720</i>
   </energy>
  </scstep>
  <scstep>
   <time name="dav">   21.43   21.51</time>
   <time name="total">   22.89   22.97</time>
   <energy>
    <i name="e_fr_energy">   -120.06933990</i>
    <i name="e_wo_entrp">   -120.06897062</i>
    <i name="e_0_energy">   -120.06915526</i>
   </energy>
  </scstep>
  <scstep>
   <time name="dav">   20.89   20.96</time>
   <time name="total">   22.28   22.36</time>
   <energy>
    <i name="e_fr_energy">   -119.76019854</i>
    <i name="e_wo_entrp">   -119.75967219</i>
    <i name="e_0_energy">   -119.75993536</i>
   </energy>
  </scstep>
  <scstep>
   <time name="dav">   21.91   21.99</time>
   <time name="total">   23.32   23.41</time>
   <energy>
    <i name="e_fr_energy">   -119.76031075</i>
    <i name="e_wo_entrp">   -119.75977625</i>
    <i name="e_0_energy">   -119.76004350</i>
   </energy>
  </scstep>
  <scstep>
   <time name="dav">   21.68   21.72</time>
   <time name="total">   23.10   23.14</time>
   <energy>
    <i name="e_fr_energy">   -119.76033949</i>
    <i name="e_wo_entrp">   -119.75979480</i>
    <i name="e_0_energy">   -119.76006715</i>
   </energy>
  </scstep>
  <scstep>
   <time name="dav">   21.79   21.83</time>
   <time name="total">   23.21   23.26</time>
   <energy>
    <i name="e_fr_energy">   -119.76034115</i>
    <i name="e_wo_entrp">   -119.75979593</i>
    <i name="e_0_energy">   -119.76006854</i>
   </energy>
  </scstep>
  <scstep>
   <time name="dav">   21.82   21.87</time>
   <time name="total">   23.26   23.30</time>
   <energy>
    <i name="e_fr_energy">   -119.76033824</i>
    <i name="e_wo_entrp">   -119.75979287</i>
    <i name="e_0_energy">   -119.76006556</i>
   </energy>
  </scstep>
  <scstep>
   <time name="dav">   17.17   17.20</time>
   <time name="total">   18.56   18.60</time>
   <energy>
    <i name="e_fr_energy">   -119.76033718</i>
    <i name="e_wo_entrp">   -119.75979173</i>
    <i name="e_0_energy">   -119.76006445</i>
   </energy>
  </scstep>
  <scstep>
   <time name="dav">   14.75   14.80</time>
   <time name="total">   16.17   16.23</time>
   <energy>
    <i name="e_fr_energy">   -119.76033697</i>
    <i name="e_wo_entrp">   -119.75979153</i>
    <i name="e_0_energy">   -119.76006425</i>
   </energy>
  </scstep>
  <scstep>
   <time name="dav">   14.55   14.59</time>
   <time name="total">   14.69   14.73</time>
   <energy>
    <i name="alphaZ">     -6.53311864</i>
    <i name="ewald">  -2354.79383508</i>
    <i name="hartreedc">     -3.33049394</i>
    <i name="XCdc">   -835.97601204</i>
    <i name="pawpsdc">   1141.37624971</i>
    <i name="pawaedc">   -119.21491318</i>
    <i name="eentropy">     -0.00054544</i>
    <i name="bandstr">    345.48319943</i>
    <i name="atom">   1713.22913220</i>
    <i name="e_fr_energy">   -119.76033696</i>
    <i name="e_wo_entrp">   -119.75979152</i>
    <i name="e_0_energy">   -119.76006424</i>
   </energy>
  </scstep>
  <structure>
   <crystal>
    <varray name="basis" >
     <v>       8.07461274      0.00000000      0.00000000</v>
     <v>       0.00000000      8.07461274      0.00000000</v>
     <v>       0.00000000      0.00000000      8.07461274</v>
    </varray>
    <i name="volume">    526.45967079</i>
    <varray name="rec_basis" >
     <v>       0.12384495      0.00000000      0.00000000</v>
     <v>       0.00000000      0.12384495      0.00000000</v>
     <v>       0.00000000      0.00000000      0.12384495</v>
    </varray>
   </crystal>
   <varray name="positions" >
    <v>       0.25123845      0.25000000      0.00000000</v>
    <v>       0.75000000      0.25000000      0.00000000</v>
    <v>       0.25000000      0.75000000      0.00000000</v>
    <v>       0.75000000      0.75000000      0.00000000</v>
    <v>       0.25000000      0.25000000      0.50000000</v>
    <v>       0.75000000      0.25000000      0.50000000</v>
    <v>       0.25000000      0.75000000      0.50000000</v>
    <v>       0.75000000      0.75000000      0.50000000</v>
    <v>       0.25000000      0.00000000      0.25000000</v>
    <v>       0.75000000      0.00000000      0.25000000</v>
    <v>       0.25000000      0.50000000      0.25000000</v>
    <v>       0.75000000      0.50000000      0.25000000</v>
    <v>       0.25000000      0.00000000      0.75000000</v>
    <v>       0.75000000      0.00000000      0.75000000</v>
    <v>       0.25000000      0.50000000      0.75000000</v>
    <v>       0.75000000      0.50000000      0.75000000</v>
    <v>       0.00000000      0.25000000      0.25000000</v>
    <v>       0.50000000      0.25000000      0.25000000</v>
    <v>       0.00000000      0.75000000      0.25000000</v>
    <v>       0.50000000      0.75000000      0.25000000</v>
    <v>       0.00000000      0.25000000      0.75000000</v>
    <v>       0.50000000      0.25000000      0.75000000</v>
    <v>       0.00000000      0.75000000      0.75000000</v>
    <v>       0.50000000      0.75000000      0.75000000</v>
    <v>       0.00000000      0.00000000      0.00000000</v>
    <v>       0.50000000      0.00000000      0.00000000</v>
    <v>       0.00000000      0.50000000      0.00000000</v>
    <v>       0.50000000      0.50000000      0.00000000</v>
    <v>       0.00000000      0.00000000      0.50000000</v>
    <v>       0.50000000      0.00000000      0.50000000</v>
    <v>       0.00000000      0.50000000      0.50000000</v>
    <v>       0.50000000      0.50000000      0.50000000</v>
   </varray>
  </structure>
  <varray name="forces" >
   <v>      -0.04470342      0.00000000      0.00000000</v>
   <v>       0.00351545     -0.00000000     -0.00000000</v>
   <v>       0.00012819      0.00000000      0.00000000</v>
   <v>      -0.00055753     -0.00000000      0.00000000</v>
   <v>       0.00012819      0.00000000      0.00000000</v>
   <v>      -0.00055753      0.00000000      0.00000000</v>
   <v>      -0.00102643      0.00000000      0.00000000</v>
   <v>      -0.00185281      0.00000000     -0.00000000</v>
   <v>      -0.00180868     -0.00000524      0.00000524</v>
   <v>      -0.00037448      0.00004387     -0.00004387</v>
   <v>      -0.00180868      0.00000524      0.00000524</v>
   <v>      -0.00037448     -0.00004387     -0.00004387</v>
   <v>      -0.00180868     -0.00000524     -0.00000524</v>
   <v>      -0.00037448      0.00004387      0.00004387</v>
   <v>      -0.00180868      0.00000524     -0.00000524</v>
   <v>      -0.00037448     -0.00004387      0.00004387</v>
   <v>       0.00577724     -0.00000000     -0.00671679</v>
   <v>       0.00600068     -0.00000000      0.00695394</v>
   <v>       0.00084850     -0.00000000      0.00050089</v>
   <v>       0.00078821     -0.00000000     -0.00048093</v>
   <v>       0.00577724      0.00000000      0.00671679</v>
   <v>       0.00600068      0.00000000     -0.00695394</v>
   <v>       0.00084850     -0.00000000     -0.00050089</v>
   <v>       0.00078821     -0.00000000      0.00048093</v>
   <v>       0.00577724      0.00671679      0.00000000</v>
   <v>       0.00600068     -0.00695394      0.00000000</v>
   <v>       0.00577724     -0.00671679     -0.00000000</v>
   <v>       0.00600068      0.00695394     -0.00000000</v>
   <v>       0.00084850     -0.00050089      0.00000000</v>
   <v>       0.00078821      0.00048093      0.00000000</v>
   <v>       0.00084850      0.00050089      0.00000000</v>
   <v>       0.00078821     -0.00048093      0.00000000</v>
  </varray>
  <varray name="stress" >
   <v>       0.00950638     -0.00000000      0.00000000</v>
   <v>      -0.00000000     -0.00992979      0.00000000</v>
   <v>       0.00000000      0.00000000     -0.00992979</v>
  </varray>
  <energy>
   <i name="e_fr_energy">   -119.76033696</i>
   <i name="e_wo_entrp">   -119.76006424</i>
   <i name="e_0_energy">     -0.00054544</i>
  </energy>
  <eigenvalues>
   <array>
    <dimension dim="1">band</dimension>
    <dimension dim="2">kpoint</dimension>
    <dimension dim="3">spin</dimension>
    <field>eigene</field>
    <field>occ</field>
    <set>
     <set comment="spin 1">
      <set comment="kpoint 1">
       <r>  -3.1243  1.0000</r>
       <r>  -0.8755  1.0000</r>
       <r>  -0.8718  1.0000</r>
       <r>  -0.8718  1.0000</r>
       <r>  -0.8718  1.0000</r>
       <r>  -0.8718  1.0000</r>
       <r>  -0.8681  1.0000</r>
       <r>   1.3392  1.0000</r>
       <r>   1.3436  1.0000</r>
       <r>   1.3436  1.0000</r>
       <r>   1.3452  1.0000</r>
       <r>   1.3454  1.0000</r>
       <r>   1.3454  1.0000</r>
       <r>   1.3454  1.0000</r>
       <r>   1.3454  1.0000</r>
       <r>   1.3456  1.0000</r>
       <r>   1.3472  1.0000</r>
       <r>   1.3472  1.0000</r>
       <r>   1.3517  1.0000</r>
       <r>   3.4258  1.0000</r>
       <r>   3.4259  1.0000</r>
       <r>   3.4259  1.0000</r>
       <r>   3.4259  1.0000</r>
       <r>   3.6464  1.0000</r>
       <r>   3.6464  1.0000</r>
       <r>   3.6464  1.0000</r>
       <r>   3.6464  1.0000</r>
       <r>   5.0993  1.0000</r>
       <r>   5.0993  1.0000</r>
       <r>   5.0993  1.0000</r>
       <r>   6.4292  1.0000</r>
       <r>   6.4292  1.0000</r>
       <r>   6.4292  1.0000</r>
       <r>   7.1760  1.0000</r>
       <r>   7.1760  1.0000</r>
       <r>   7.1803  1.0000</r>
       <r>   7.1803  1.0000</r>
       <r>   7.1804  1.0000</r>
       <r>   7.1804  1.0000</r>
       <r>   7.1804  1.0000</r>
       <r>   7.1805  1.0000</r>
       <r>   7.1805  1.0000</r>
       <r>   7.1805  1.0000</r>
       <r>   7.1849  1.0000</r>
       <r>   7.1849  1.0000</r>
       <r>   8.1913  0.0000</r>
       <r>   8.1954  0.0000</r>
       <r>   8.1954  0.0000</r>
       <r>   8.1954  0.0000</r>
       <r>   8.1954  0.0000</r>
       <r>   8.1995  0.0000</r>
       <r>   9.1520  0.0000</r>
       <r>   9.1530  0.0000</r>
       <r>   9.1530  0.0000</r>
       <r>   9.1530  0.0000</r>
       <r>   9.1531  0.0000</r>
       <r>   9.1541  0.0000</r>
       <r>   9.2640  0.0000</r>
       <r>   9.2640  0.0000</r>
       <r>   9.2656  0.0000</r>
       <r>   9.2679  0.0000</r>
       <r>   9.2680  0.0000</r>
       <r>   9.2680  0.0000</r>
       <r>   9.2680  0.0000</r>
       <r>   9.2681  0.0000</r>
       <r>   9.2682  0.0000</r>
       <r>   9.2705  0.0000</r>
       <r>   9.2722  0.0000</r>
       <r>   9.2722  0.0000</r>
       <r>  10.7902  0.0000</r>
       <r>  10.7923  0.0000</r>
       <r>  10.7930  0.0000</r>
      </set>
      <set comment="kpoint 2">
       <r>  -3.0613  1.0000</r>
       <r>  -1.5562  1.0000</r>
       <r>  -0.8098  1.0000</r>
       <r>  -0.8098  1.0000</r>
       <r>  -0.8098  1.0000</r>
       <r>  -0.8098  1.0000</r>
       <r>  -0.0676  1.0000</r>
       <r>   0.6717  1.0000</r>
       <r>   0.6717  1.0000</r>
       <r>   0.6717  1.0000</r>
       <r>   0.6717  1.0000</r>
       <r>   1.4065  1.0000</r>
       <r>   1.4065  1.0000</r>
       <r>   1.4065  1.0000</r>
       <r>   1.4065  1.0000</r>
       <r>   2.1370  1.0000</r>
       <r>   2.1370  1.0000</r>
       <r>   2.1370  1.0000</r>
       <r>   2.1370  1.0000</r>
       <r>   2.8623  1.0000</r>
       <r>   2.8623  1.0000</r>
       <r>   2.8623  1.0000</r>
       <r>   2.8623  1.0000</r>
       <r>   4.2309  1.0000</r>
       <r>   4.3268  1.0000</r>
       <r>   4.3268  1.0000</r>
       <r>   4.3268  1.0000</r>
       <r>   4.3268  1.0000</r>
       <r>   5.1570  1.0000</r>
       <r>   5.1570  1.0000</r>
       <r>   6.3457  1.0000</r>
       <r>   6.3457  1.0000</r>
       <r>   6.3457  1.0000</r>
       <r>   6.3457  1.0000</r>
       <r>   6.4901  1.0000</r>
       <r>   6.4902  1.0000</r>
       <r>   6.5437  1.0000</r>
       <r>   6.5437  1.0000</r>
       <r>   7.2383  1.0000</r>
       <r>   7.2383  1.0000</r>
       <r>   7.2383  1.0000</r>
       <r>   7.2384  1.0000</r>
       <r>   7.4068  1.0000</r>
       <r>   7.8641  1.0000</r>
       <r>   7.8641  1.0000</r>
       <r>   7.9338  1.0000</r>
       <r>   7.9338  1.0000</r>
       <r>   8.4814  0.0000</r>
       <r>   8.4814  0.0000</r>
       <r>   8.4814  0.0000</r>
       <r>   8.4814  0.0000</r>
       <r>   8.5883  0.0000</r>
       <r>   8.5883  0.0000</r>
       <r>   8.5883  0.0000</r>
       <r>   8.5884  0.0000</r>
       <r>   8.6297  0.0000</r>
       <r>   8.6297  0.0000</r>
       <r>   8.6297  0.0000</r>
       <r>   8.6297  0.0000</r>
       <r>   9.5924  0.0000</r>
       <r>   9.5924  0.0000</r>
       <r>   9.7621  0.0000</r>
       <r>   9.7621  0.0000</r>
       <r>   9.7621  0.0000</r>
       <r>   9.7621  0.0000</r>
       <r>  10.0229  0.0000</r>
       <r>  10.0229  0.0000</r>
       <r>  10.0229  0.0000</r>
       <r>  10.0229  0.0000</r>
       <r>  10.1485  0.0000</r>
       <r>  10.1485  0.0000</r>
       <r>  10.1485  0.0000</r>
      </set>
      <set comment="kpoint 3">
       <r>  -2.8722  1.0000</r>
       <r>  -2.1187  1.0000</r>
       <r>  -0.6238  1.0000</r>
       <r>  -0.6237  1.0000</r>
       <r>  -0.6237  1.0000</r>
       <r>  -0.6237  1.0000</r>
       <r>   0.1179  1.0000</r>
       <r>   0.1180  1.0000</r>
       <r>   0.1180  1.0000</r>
       <r>   0.1180  1.0000</r>
       <r>   0.8536  1.0000</r>
       <r>   1.5897  1.0000</r>
       <r>   1.5897  1.0000</r>
       <r>   1.5897  1.0000</r>
       <r>   1.5897  1.0000</r>
       <r>   2.3197  1.0000</r>
       <r>   2.3197  1.0000</r>
       <r>   2.3197  1.0000</r>
       <r>   2.3197  1.0000</r>
       <r>   3.0251  1.0000</r>
       <r>   3.0434  1.0000</r>
       <r>   3.0434  1.0000</r>
       <r>   3.0434  1.0000</r>
       <r>   3.0435  1.0000</r>
       <r>   5.1737  1.0000</r>
       <r>   5.1737  1.0000</r>
       <r>   5.1738  1.0000</r>
       <r>   5.1738  1.0000</r>
       <r>   5.2191  1.0000</r>
       <r>   5.2191  1.0000</r>
       <r>   5.2191  1.0000</r>
       <r>   5.2191  1.0000</r>
       <r>   5.3302  1.0000</r>
       <r>   5.3302  1.0000</r>
       <r>   6.0232  1.0000</r>
       <r>   6.0232  1.0000</r>
       <r>   6.6720  1.0000</r>
       <r>   6.6720  1.0000</r>
       <r>   7.3257  1.0000</r>
       <r>   7.3257  1.0000</r>
       <r>   7.3257  1.0000</r>
       <r>   7.3258  1.0000</r>
       <r>   7.3797  1.0000</r>
       <r>   7.3798  1.0000</r>
       <r>   7.4121  1.0000</r>
       <r>   7.4121  1.0000</r>
       <r>   7.4122  1.0000</r>
       <r>   7.4122  1.0000</r>
       <r>   8.1076  0.0000</r>
       <r>   8.1076  0.0000</r>
       <r>   8.1077  0.0000</r>
       <r>   8.1077  0.0000</r>
       <r>   8.8040  0.0000</r>
       <r>   8.8040  0.0000</r>
       <r>   8.8664  0.0000</r>
       <r>   8.8664  0.0000</r>
       <r>   8.8664  0.0000</r>
       <r>   8.8664  0.0000</r>
       <r>   8.9398  0.0000</r>
       <r>   9.6131  0.0000</r>
       <r>   9.6131  0.0000</r>
       <r>   9.6131  0.0000</r>
       <r>   9.6131  0.0000</r>
       <r>  10.3972  0.0000</r>
       <r>  10.3972  0.0000</r>
       <r>  10.8932  0.0000</r>
       <r>  10.8932  0.0000</r>
       <r>  10.8943  0.0000</r>
       <r>  10.8943  0.0000</r>
       <r>  10.8959  0.0000</r>
       <r>  10.8959  0.0000</r>
       <r>  11.1556  0.0000</r>
      </set>
      <set comment="kpoint 4">
       <r>  -2.5592  1.0000</r>
       <r>  -2.5564  1.0000</r>
       <r>  -0.3182  1.0000</r>
       <r>  -0.3151  1.0000</r>
       <r>  -0.3151  1.0000</r>
       <r>  -0.3143  1.0000</r>
       <r>  -0.3142  1.0000</r>
       <r>  -0.3134  1.0000</r>
       <r>  -0.3134  1.0000</r>
       <r>  -0.3103  1.0000</r>
       <r>   1.8855  1.0000</r>
       <r>   1.8878  1.0000</r>
       <r>   1.8929  1.0000</r>
       <r>   1.8933  1.0000</r>
       <r>   1.8933  1.0000</r>
       <r>   1.8940  1.0000</r>
       <r>   1.8950  1.0000</r>
       <r>   1.8957  1.0000</r>
       <r>   1.8957  1.0000</r>
       <r>   1.8981  1.0000</r>
       <r>   4.0587  1.0000</r>
       <r>   4.0587  1.0000</r>
       <r>   4.0587  1.0000</r>
       <r>   4.0593  1.0000</r>
       <r>   4.0597  1.0000</r>
       <r>   4.0603  1.0000</r>
       <r>   4.0603  1.0000</r>
       <r>   4.0603  1.0000</r>
       <r>   5.6173  1.0000</r>
       <r>   5.6173  1.0000</r>
       <r>   5.6203  1.0000</r>
       <r>   5.6203  1.0000</r>
       <r>   6.2222  1.0000</r>
       <r>   6.2222  1.0000</r>
       <r>   6.2227  1.0000</r>
       <r>   6.2231  1.0000</r>
       <r>   6.2234  1.0000</r>
       <r>   6.2238  1.0000</r>
       <r>   6.2243  1.0000</r>
       <r>   6.2243  1.0000</r>
       <r>   6.9696  1.0000</r>
       <r>   6.9706  1.0000</r>
       <r>   6.9723  1.0000</r>
       <r>   6.9734  1.0000</r>
       <r>   7.6995  1.0000</r>
       <r>   7.6995  1.0000</r>
       <r>   7.7004  1.0000</r>
       <r>   7.7018  1.0000</r>
       <r>   7.7019  1.0000</r>
       <r>   7.7033  1.0000</r>
       <r>   7.7042  1.0000</r>
       <r>   7.7042  1.0000</r>
       <r>   9.1859  0.0000</r>
       <r>   9.1869  0.0000</r>
       <r>   9.1869  0.0000</r>
       <r>   9.1871  0.0000</r>
       <r>   9.1892  0.0000</r>
       <r>   9.1893  0.0000</r>
       <r>   9.1893  0.0000</r>
       <r>   9.1903  0.0000</r>
       <r>   9.7900  0.0000</r>
       <r>   9.7900  0.0000</r>
       <r>   9.7923  0.0000</r>
       <r>   9.7923  0.0000</r>
       <r>  10.6214  0.0000</r>
       <r>  10.6227  0.0000</r>
       <r>  11.3231  0.0000</r>
       <r>  11.3236  0.0000</r>
       <r>  11.3250  0.0000</r>
       <r>  11.3254  0.0000</r>
       <r>  11.8812  0.0000</r>
       <r>  11.8827  0.0000</r>
      </set>
      <set comment="kpoint 5">
       <r>  -3.0613  1.0000</r>
       <r>  -1.5562  1.0000</r>
       <r>  -0.8126  1.0000</r>
       <r>  -0.8098  1.0000</r>
       <r>  -0.8097  1.0000</r>
       <r>  -0.8069  1.0000</r>
       <r>  -0.0676  1.0000</r>
       <r>   0.6688  1.0000</r>
       <r>   0.6717  1.0000</r>
       <r>   0.6717  1.0000</r>
       <r>   0.6746  1.0000</r>
       <r>   1.4044  1.0000</r>
       <r>   1.4054  1.0000</r>
       <r>   1.4077  1.0000</r>
       <r>   1.4087  1.0000</r>
       <r>   2.1341  1.0000</r>
       <r>   2.1370  1.0000</r>
       <r>   2.1370  1.0000</r>
       <r>   2.1399  1.0000</r>
       <r>   2.8601  1.0000</r>
       <r>   2.8611  1.0000</r>
       <r>   2.8634  1.0000</r>
       <r>   2.8644  1.0000</r>
       <r>   4.2309  1.0000</r>
       <r>   4.3246  1.0000</r>
       <r>   4.3257  1.0000</r>
       <r>   4.3280  1.0000</r>
       <r>   4.3290  1.0000</r>
       <r>   5.1570  1.0000</r>
       <r>   5.1570  1.0000</r>
       <r>   6.3426  1.0000</r>
       <r>   6.3457  1.0000</r>
       <r>   6.3457  1.0000</r>
       <r>   6.3488  1.0000</r>
       <r>   6.4901  1.0000</r>
       <r>   6.4901  1.0000</r>
       <r>   6.5437  1.0000</r>
       <r>   6.5437  1.0000</r>
       <r>   7.2356  1.0000</r>
       <r>   7.2384  1.0000</r>
       <r>   7.2384  1.0000</r>
       <r>   7.2411  1.0000</r>
       <r>   7.4068  1.0000</r>
       <r>   7.8641  1.0000</r>
       <r>   7.8641  1.0000</r>
       <r>   7.9338  1.0000</r>
       <r>   7.9338  1.0000</r>
       <r>   8.4789  0.0000</r>
       <r>   8.4803  0.0000</r>
       <r>   8.4826  0.0000</r>
       <r>   8.4840  0.0000</r>
       <r>   8.5858  0.0000</r>
       <r>   8.5883  0.0000</r>
       <r>   8.5883  0.0000</r>
       <r>   8.5908  0.0000</r>
       <r>   8.6269  0.0000</r>
       <r>   8.6297  0.0000</r>
       <r>   8.6298  0.0000</r>
       <r>   8.6324  0.0000</r>
       <r>   9.5924  0.0000</r>
       <r>   9.5924  0.0000</r>
       <r>   9.7603  0.0000</r>
       <r>   9.7620  0.0000</r>
       <r>   9.7621  0.0000</r>
       <r>   9.7639  0.0000</r>
       <r>  10.0201  0.0000</r>
       <r>  10.0229  0.0000</r>
       <r>  10.0229  0.0000</r>
       <r>  10.0257  0.0000</r>
       <r>  10.1470  0.0000</r>
       <r>  10.1485  0.0000</r>
       <r>  10.1502  0.0000</r>
      </set>
      <set comment="kpoint 6">
       <r>  -2.9982  1.0000</r>
       <r>  -1.4950  1.0000</r>
       <r>  -1.4927  1.0000</r>
       <r>  -0.7477  1.0000</r>
       <r>  -0.7477  1.0000</r>
       <r>  -0.0076  1.0000</r>
       <r>  -0.0057  1.0000</r>
       <r>  -0.0039  1.0000</r>
       <r>   0.7315  1.0000</r>
       <r>   0.7324  1.0000</r>
       <r>   0.7338  1.0000</r>
       <r>   0.7347  1.0000</r>
       <r>   1.4666  1.0000</r>
       <r>   1.4676  1.0000</r>
       <r>   2.1955  1.0000</r>
       <r>   2.1967  1.0000</r>
       <r>   2.1980  1.0000</r>
       <r>   2.1981  1.0000</r>
       <r>   2.1993  1.0000</r>
       <r>   2.2004  1.0000</r>
       <r>   2.9240  1.0000</r>
       <r>   3.5425  1.0000</r>
       <r>   3.5425  1.0000</r>
       <r>   3.7696  1.0000</r>
       <r>   3.7696  1.0000</r>
       <r>   4.2897  1.0000</r>
       <r>   4.2906  1.0000</r>
       <r>   5.1012  1.0000</r>
       <r>   5.1012  1.0000</r>
       <r>   5.2147  1.0000</r>
       <r>   5.7040  1.0000</r>
       <r>   5.7064  1.0000</r>
       <r>   6.3023  1.0000</r>
       <r>   6.3023  1.0000</r>
       <r>   6.5279  1.0000</r>
       <r>   6.5279  1.0000</r>
       <r>   6.5507  1.0000</r>
       <r>   6.6002  1.0000</r>
       <r>   6.6029  1.0000</r>
       <r>   7.0750  1.0000</r>
       <r>   7.0769  1.0000</r>
       <r>   7.4653  1.0000</r>
       <r>   7.4663  1.0000</r>
       <r>   7.8355  1.0000</r>
       <r>   7.8365  1.0000</r>
       <r>   7.8379  1.0000</r>
       <r>   7.8389  1.0000</r>
       <r>   7.9895  0.9517</r>
       <r>   7.9917  0.9110</r>
       <r>   7.9940  0.8487</r>
       <r>   8.0530  0.0000</r>
       <r>   8.0546  0.0000</r>
       <r>   8.7263  0.0000</r>
       <r>   8.7288  0.0000</r>
       <r>   9.2394  0.0000</r>
       <r>   9.2405  0.0000</r>
       <r>   9.2407  0.0000</r>
       <r>   9.2417  0.0000</r>
       <r>   9.3091  0.0000</r>
       <r>   9.3091  0.0000</r>
       <r>   9.3833  0.0000</r>
       <r>   9.3852  0.0000</r>
       <r>   9.5011  0.0000</r>
       <r>   9.7346  0.0000</r>
       <r>   9.7353  0.0000</r>
       <r>  10.0201  0.0000</r>
       <r>  10.0201  0.0000</r>
       <r>  10.4254  0.0000</r>
       <r>  10.4275  0.0000</r>
       <r>  10.7779  0.0000</r>
       <r>  10.9007  0.0000</r>
       <r>  10.9008  0.0000</r>
      </set>
      <set comment="kpoint 7">
       <r>  -2.8093  1.0000</r>
       <r>  -2.0561  1.0000</r>
       <r>  -1.3069  1.0000</r>
       <r>  -0.5631  1.0000</r>
       <r>  -0.5618  1.0000</r>
       <r>  -0.5603  1.0000</r>
       <r>   0.1779  1.0000</r>
       <r>   0.1796  1.0000</r>
       <r>   0.1807  1.0000</r>
       <r>   0.9137  1.0000</r>
       <r>   0.9166  1.0000</r>
       <r>   0.9172  1.0000</r>
       <r>   0.9183  1.0000</r>
       <r>   1.6511  1.0000</r>
       <r>   1.6511  1.0000</r>
       <r>   2.3779  1.0000</r>
       <r>   2.3798  1.0000</r>
       <r>   2.3800  1.0000</r>
       <r>   3.0852  1.0000</r>
       <r>   3.1015  1.0000</r>
       <r>   3.1020  1.0000</r>
       <r>   3.1041  1.0000</r>
       <r>   3.1048  1.0000</r>
       <r>   3.8247  1.0000</r>
       <r>   4.4678  1.0000</r>
       <r>   4.5219  1.0000</r>
       <r>   4.5653  1.0000</r>
       <r>   4.5653  1.0000</r>
       <r>   5.1765  1.0000</r>
       <r>   5.2290  1.0000</r>
       <r>   5.2290  1.0000</r>
       <r>   5.3879  1.0000</r>
       <r>   5.9348  1.0000</r>
       <r>   5.9922  1.0000</r>
       <r>   5.9922  1.0000</r>
       <r>   6.0810  1.0000</r>
       <r>   6.6079  1.0000</r>
       <r>   6.6080  1.0000</r>
       <r>   6.6764  1.0000</r>
       <r>   6.6765  1.0000</r>
       <r>   6.7310  1.0000</r>
       <r>   6.7751  1.0000</r>
       <r>   7.3091  1.0000</r>
       <r>   7.3091  1.0000</r>
       <r>   7.3866  1.0000</r>
       <r>   7.4700  1.0000</r>
       <r>   7.6420  1.0000</r>
       <r>   8.0903  0.0000</r>
       <r>   8.0903  0.0000</r>
       <r>   8.0980  0.0000</r>
       <r>   8.1658  0.0000</r>
       <r>   8.2403  0.0000</r>
       <r>   8.3211  0.0000</r>
       <r>   8.8604  0.0000</r>
       <r>   8.8636  0.0000</r>
       <r>   8.9647  0.0000</r>
       <r>   8.9969  0.0000</r>
       <r>   9.5383  0.0000</r>
       <r>   9.7626  0.0000</r>
       <r>   9.7626  0.0000</r>
       <r>  10.1078  0.0000</r>
       <r>  10.1128  0.0000</r>
       <r>  10.1130  0.0000</r>
       <r>  10.2556  0.0000</r>
       <r>  10.3655  0.0000</r>
       <r>  10.4698  0.0000</r>
       <r>  10.5171  0.0000</r>
       <r>  10.5171  0.0000</r>
       <r>  10.6089  0.0000</r>
       <r>  10.9531  0.0000</r>
       <r>  11.2329  0.0000</r>
       <r>  11.2353  0.0000</r>
      </set>
      <set comment="kpoint 8">
       <r>  -2.4964  1.0000</r>
       <r>  -2.4935  1.0000</r>
       <r>  -0.9973  1.0000</r>
       <r>  -0.9945  1.0000</r>
       <r>  -0.2544  1.0000</r>
       <r>  -0.2533  1.0000</r>
       <r>  -0.2516  1.0000</r>
       <r>  -0.2504  1.0000</r>
       <r>   0.4854  1.0000</r>
       <r>   0.4882  1.0000</r>
       <r>   1.2214  1.0000</r>
       <r>   1.2226  1.0000</r>
       <r>   1.2243  1.0000</r>
       <r>   1.2254  1.0000</r>
       <r>   1.9478  1.0000</r>
       <r>   1.9491  1.0000</r>
       <r>   2.6803  1.0000</r>
       <r>   2.6815  1.0000</r>
       <r>   2.6832  1.0000</r>
       <r>   2.6844  1.0000</r>
       <r>   3.3992  1.0000</r>
       <r>   3.4006  1.0000</r>
       <r>   4.1178  1.0000</r>
       <r>   4.1182  1.0000</r>
       <r>   4.1191  1.0000</r>
       <r>   4.1195  1.0000</r>
       <r>   4.7621  1.0000</r>
       <r>   4.7651  1.0000</r>
       <r>   4.8324  1.0000</r>
       <r>   4.8337  1.0000</r>
       <r>   5.5695  1.0000</r>
       <r>   5.5697  1.0000</r>
       <r>   5.5709  1.0000</r>
       <r>   5.5711  1.0000</r>
       <r>   5.6751  1.0000</r>
       <r>   5.6781  1.0000</r>
       <r>   6.8964  1.0000</r>
       <r>   6.8976  1.0000</r>
       <r>   6.8993  1.0000</r>
       <r>   6.9005  1.0000</r>
       <r>   6.9917  1.0000</r>
       <r>   6.9919  1.0000</r>
       <r>   6.9931  1.0000</r>
       <r>   6.9933  1.0000</r>
       <r>   7.0234  1.0000</r>
       <r>   7.0261  1.0000</r>
       <r>   7.0631  1.0000</r>
       <r>   7.0661  1.0000</r>
       <r>   7.9301  1.0000</r>
       <r>   7.9330  1.0000</r>
       <r>   8.4542  0.0000</r>
       <r>   8.4573  0.0000</r>
       <r>   8.5423  0.0000</r>
       <r>   8.5450  0.0000</r>
       <r>   9.0274  0.0000</r>
       <r>   9.0292  0.0000</r>
       <r>   9.8481  0.0000</r>
       <r>   9.8504  0.0000</r>
       <r>   9.9285  0.0000</r>
       <r>   9.9315  0.0000</r>
       <r>  10.0934  0.0000</r>
       <r>  10.0942  0.0000</r>
       <r>  10.0964  0.0000</r>
       <r>  10.0971  0.0000</r>
       <r>  10.6754  0.0000</r>
       <r>  10.6767  0.0000</r>
       <r>  11.0935  0.0000</r>
       <r>  11.0937  0.0000</r>
       <r>  11.0954  0.0000</r>
       <r>  11.0955  0.0000</r>
       <r>  11.2426  0.0000</r>
       <r>  11.2450  0.0000</r>
      </set>
      <set comment="kpoint 9">
       <r>  -2.8722  1.0000</r>
       <r>  -2.1187  1.0000</r>
       <r>  -0.6266  1.0000</r>
       <r>  -0.6237  1.0000</r>
       <r>  -0.6237  1.0000</r>
       <r>  -0.6209  1.0000</r>
       <r>   0.1151  1.0000</r>
       <r>   0.1179  1.0000</r>
       <r>   0.1180  1.0000</r>
       <r>   0.1208  1.0000</r>
       <r>   0.8536  1.0000</r>
       <r>   1.5876  1.0000</r>
       <r>   1.5886  1.0000</r>
       <r>   1.5909  1.0000</r>
       <r>   1.5919  1.0000</r>
       <r>   2.3175  1.0000</r>
       <r>   2.3185  1.0000</r>
       <r>   2.3209  1.0000</r>
       <r>   2.3219  1.0000</r>
       <r>   3.0251  1.0000</r>
       <r>   3.0405  1.0000</r>
       <r>   3.0434  1.0000</r>
       <r>   3.0434  1.0000</r>
       <r>   3.0464  1.0000</r>
       <r>   5.1707  1.0000</r>
       <r>   5.1738  1.0000</r>
       <r>   5.1738  1.0000</r>
       <r>   5.1768  1.0000</r>
       <r>   5.2169  1.0000</r>
       <r>   5.2179  1.0000</r>
       <r>   5.2203  1.0000</r>
       <r>   5.2213  1.0000</r>
       <r>   5.3301  1.0000</r>
       <r>   5.3302  1.0000</r>
       <r>   6.0232  1.0000</r>
       <r>   6.0233  1.0000</r>
       <r>   6.6720  1.0000</r>
       <r>   6.6720  1.0000</r>
       <r>   7.3234  1.0000</r>
       <r>   7.3246  1.0000</r>
       <r>   7.3269  1.0000</r>
       <r>   7.3281  1.0000</r>
       <r>   7.3796  1.0000</r>
       <r>   7.3797  1.0000</r>
       <r>   7.4094  1.0000</r>
       <r>   7.4121  1.0000</r>
       <r>   7.4123  1.0000</r>
       <r>   7.4149  1.0000</r>
       <r>   8.1049  0.0000</r>
       <r>   8.1077  0.0000</r>
       <r>   8.1077  0.0000</r>
       <r>   8.1104  0.0000</r>
       <r>   8.8039  0.0000</r>
       <r>   8.8040  0.0000</r>
       <r>   8.8641  0.0000</r>
       <r>   8.8664  0.0000</r>
       <r>   8.8664  0.0000</r>
       <r>   8.8687  0.0000</r>
       <r>   8.9398  0.0000</r>
       <r>   9.6109  0.0000</r>
       <r>   9.6131  0.0000</r>
       <r>   9.6131  0.0000</r>
       <r>   9.6153  0.0000</r>
       <r>  10.3972  0.0000</r>
       <r>  10.3972  0.0000</r>
       <r>  10.8914  0.0000</r>
       <r>  10.8943  0.0000</r>
       <r>  10.8943  0.0000</r>
       <r>  10.8948  0.0000</r>
       <r>  10.8948  0.0000</r>
       <r>  10.8972  0.0000</r>
       <r>  11.1542  0.0000</r>
      </set>
      <set comment="kpoint 10">
       <r>  -2.8093  1.0000</r>
       <r>  -2.0561  1.0000</r>
       <r>  -1.3069  1.0000</r>
       <r>  -0.5631  1.0000</r>
       <r>  -0.5618  1.0000</r>
       <r>  -0.5603  1.0000</r>
       <r>   0.1779  1.0000</r>
       <r>   0.1796  1.0000</r>
       <r>   0.1807  1.0000</r>
       <r>   0.9140  1.0000</r>
       <r>   0.9160  1.0000</r>
       <r>   0.9172  1.0000</r>
       <r>   0.9187  1.0000</r>
       <r>   1.6511  1.0000</r>
       <r>   1.6511  1.0000</r>
       <r>   2.3774  1.0000</r>
       <r>   2.3798  1.0000</r>
       <r>   2.3806  1.0000</r>
       <r>   3.0852  1.0000</r>
       <r>   3.1022  1.0000</r>
       <r>   3.1024  1.0000</r>
       <r>   3.1038  1.0000</r>
       <r>   3.1041  1.0000</r>
       <r>   3.8247  1.0000</r>
       <r>   4.4679  1.0000</r>
       <r>   4.5219  1.0000</r>
       <r>   4.5653  1.0000</r>
       <r>   4.5653  1.0000</r>
       <r>   5.1765  1.0000</r>
       <r>   5.2290  1.0000</r>
       <r>   5.2290  1.0000</r>
       <r>   5.3879  1.0000</r>
       <r>   5.9349  1.0000</r>
       <r>   5.9922  1.0000</r>
       <r>   5.9922  1.0000</r>
       <r>   6.0810  1.0000</r>
       <r>   6.6080  1.0000</r>
       <r>   6.6080  1.0000</r>
       <r>   6.6764  1.0000</r>
       <r>   6.6764  1.0000</r>
       <r>   6.7310  1.0000</r>
       <r>   6.7751  1.0000</r>
       <r>   7.3091  1.0000</r>
       <r>   7.3091  1.0000</r>
       <r>   7.3866  1.0000</r>
       <r>   7.4700  1.0000</r>
       <r>   7.6420  1.0000</r>
       <r>   8.0903  0.0000</r>
       <r>   8.0903  0.0000</r>
       <r>   8.0980  0.0000</r>
       <r>   8.1658  0.0000</r>
       <r>   8.2403  0.0000</r>
       <r>   8.3211  0.0000</r>
       <r>   8.8612  0.0000</r>
       <r>   8.8628  0.0000</r>
       <r>   8.9647  0.0000</r>
       <r>   8.9969  0.0000</r>
       <r>   9.5382  0.0000</r>
       <r>   9.7626  0.0000</r>
       <r>   9.7626  0.0000</r>
       <r>  10.1079  0.0000</r>
       <r>  10.1128  0.0000</r>
       <r>  10.1128  0.0000</r>
       <r>  10.2556  0.0000</r>
       <r>  10.3655  0.0000</r>
       <r>  10.4698  0.0000</r>
       <r>  10.5171  0.0000</r>
       <r>  10.5171  0.0000</r>
       <r>  10.6089  0.0000</r>
       <r>  10.9531  0.0000</r>
       <r>  11.2329  0.0000</r>
       <r>  11.2468  0.0000</r>
      </set>
      <set comment="kpoint 11">
       <r>  -2.6206  1.0000</r>
       <r>  -1.8696  1.0000</r>
       <r>  -1.8672  1.0000</r>
       <r>  -1.1202  1.0000</r>
       <r>  -0.3761  1.0000</r>
       <r>  -0.3761  1.0000</r>
       <r>   0.3627  1.0000</r>
       <r>   0.3637  1.0000</r>
       <r>   0.3651  1.0000</r>
       <r>   0.3660  1.0000</r>
       <r>   1.0971  1.0000</r>
       <r>   1.0993  1.0000</r>
       <r>   1.1011  1.0000</r>
       <r>   1.1019  1.0000</r>
       <r>   1.8307  1.0000</r>
       <r>   1.8318  1.0000</r>
       <r>   3.2652  1.0000</r>
       <r>   3.2662  1.0000</r>
       <r>   3.2822  1.0000</r>
       <r>   3.2831  1.0000</r>
       <r>   3.2845  1.0000</r>
       <r>   3.2855  1.0000</r>
       <r>   3.8923  1.0000</r>
       <r>   3.8923  1.0000</r>
       <r>   3.9839  1.0000</r>
       <r>   3.9863  1.0000</r>
       <r>   4.1370  1.0000</r>
       <r>   4.1370  1.0000</r>
       <r>   4.7177  1.0000</r>
       <r>   5.2842  1.0000</r>
       <r>   5.2842  1.0000</r>
       <r>   5.5599  1.0000</r>
       <r>   5.5608  1.0000</r>
       <r>   5.5620  1.0000</r>
       <r>   6.1429  1.0000</r>
       <r>   6.1439  1.0000</r>
       <r>   6.1453  1.0000</r>
       <r>   6.1463  1.0000</r>
       <r>   6.2532  1.0000</r>
       <r>   6.2558  1.0000</r>
       <r>   6.7722  1.0000</r>
       <r>   6.7741  1.0000</r>
       <r>   6.8792  1.0000</r>
       <r>   6.8792  1.0000</r>
       <r>   6.9036  1.0000</r>
       <r>   6.9488  1.0000</r>
       <r>   7.7494  1.0000</r>
       <r>   7.7507  1.0000</r>
       <r>   8.4291  0.0000</r>
       <r>   8.9663  0.0000</r>
       <r>   8.9674  0.0000</r>
       <r>   8.9675  0.0000</r>
       <r>   8.9685  0.0000</r>
       <r>   8.9745  0.0000</r>
       <r>   9.0349  0.0000</r>
       <r>   9.0376  0.0000</r>
       <r>   9.1658  0.0000</r>
       <r>   9.1670  0.0000</r>
       <r>   9.7320  0.0000</r>
       <r>   9.7339  0.0000</r>
       <r>   9.7443  0.0000</r>
       <r>   9.7467  0.0000</r>
       <r>  10.7373  0.0000</r>
       <r>  10.7381  0.0000</r>
       <r>  11.0314  0.0000</r>
       <r>  11.0315  0.0000</r>
       <r>  11.0354  0.0000</r>
       <r>  11.0355  0.0000</r>
       <r>  11.1267  0.0000</r>
       <r>  11.1287  0.0000</r>
       <r>  11.2060  0.0000</r>
       <r>  11.2064  0.0000</r>
      </set>
      <set comment="kpoint 12">
       <r>  -2.3081  1.0000</r>
       <r>  -2.3053  1.0000</r>
       <r>  -1.5576  1.0000</r>
       <r>  -1.5548  1.0000</r>
       <r>  -0.0691  1.0000</r>
       <r>  -0.0680  1.0000</r>
       <r>  -0.0663  1.0000</r>
       <r>  -0.0651  1.0000</r>
       <r>   0.6698  1.0000</r>
       <r>   0.6710  1.0000</r>
       <r>   0.6727  1.0000</r>
       <r>   0.6738  1.0000</r>
       <r>   1.4029  1.0000</r>
       <r>   1.4058  1.0000</r>
       <r>   2.1301  1.0000</r>
       <r>   2.1314  1.0000</r>
       <r>   2.8568  1.0000</r>
       <r>   2.8581  1.0000</r>
       <r>   3.5645  1.0000</r>
       <r>   3.5674  1.0000</r>
       <r>   3.5790  1.0000</r>
       <r>   3.5803  1.0000</r>
       <r>   3.5819  1.0000</r>
       <r>   3.5832  1.0000</r>
       <r>   4.2926  1.0000</r>
       <r>   4.2931  1.0000</r>
       <r>   4.2939  1.0000</r>
       <r>   4.2943  1.0000</r>
       <r>   5.0377  1.0000</r>
       <r>   5.0378  1.0000</r>
       <r>   5.0391  1.0000</r>
       <r>   5.0392  1.0000</r>
       <r>   5.7126  1.0000</r>
       <r>   5.7139  1.0000</r>
       <r>   5.7328  1.0000</r>
       <r>   5.7337  1.0000</r>
       <r>   5.7356  1.0000</r>
       <r>   5.7366  1.0000</r>
       <r>   5.8484  1.0000</r>
       <r>   5.8514  1.0000</r>
       <r>   6.5421  1.0000</r>
       <r>   6.5452  1.0000</r>
       <r>   7.1433  1.0000</r>
       <r>   7.1458  1.0000</r>
       <r>   7.8740  1.0000</r>
       <r>   7.8742  1.0000</r>
       <r>   7.8755  1.0000</r>
       <r>   7.8757  1.0000</r>
       <r>   7.9476  1.0000</r>
       <r>   7.9488  1.0000</r>
       <r>   8.0135  0.0420</r>
       <r>   8.0161  0.0179</r>
       <r>   9.3250  0.0000</r>
       <r>   9.3281  0.0000</r>
       <r>   9.4366  0.0000</r>
       <r>   9.4395  0.0000</r>
       <r>   9.9518  0.0000</r>
       <r>   9.9518  0.0000</r>
       <r>   9.9534  0.0000</r>
       <r>   9.9534  0.0000</r>
       <r>  10.0225  0.0000</r>
       <r>  10.0248  0.0000</r>
       <r>  10.7082  0.0000</r>
       <r>  10.7113  0.0000</r>
       <r>  10.7198  0.0000</r>
       <r>  10.7221  0.0000</r>
       <r>  10.8310  0.0000</r>
       <r>  10.8320  0.0000</r>
       <r>  11.4172  0.0000</r>
       <r>  11.4203  0.0000</r>
       <r>  11.5659  0.0000</r>
       <r>  11.5676  0.0000</r>
      </set>
      <set comment="kpoint 13">
       <r>  -2.5578  1.0000</r>
       <r>  -2.5578  1.0000</r>
       <r>  -0.3195  1.0000</r>
       <r>  -0.3148  1.0000</r>
       <r>  -0.3142  1.0000</r>
       <r>  -0.3142  1.0000</r>
       <r>  -0.3142  1.0000</r>
       <r>  -0.3142  1.0000</r>
       <r>  -0.3137  1.0000</r>
       <r>  -0.3091  1.0000</r>
       <r>   1.8863  1.0000</r>
       <r>   1.8875  1.0000</r>
       <r>   1.8917  1.0000</r>
       <r>   1.8925  1.0000</r>
       <r>   1.8940  1.0000</r>
       <r>   1.8942  1.0000</r>
       <r>   1.8948  1.0000</r>
       <r>   1.8952  1.0000</r>
       <r>   1.8966  1.0000</r>
       <r>   1.8987  1.0000</r>
       <r>   4.0563  1.0000</r>
       <r>   4.0568  1.0000</r>
       <r>   4.0595  1.0000</r>
       <r>   4.0595  1.0000</r>
       <r>   4.0595  1.0000</r>
       <r>   4.0595  1.0000</r>
       <r>   4.0622  1.0000</r>
       <r>   4.0627  1.0000</r>
       <r>   5.6188  1.0000</r>
       <r>   5.6188  1.0000</r>
       <r>   5.6188  1.0000</r>
       <r>   5.6188  1.0000</r>
       <r>   6.2202  1.0000</r>
       <r>   6.2217  1.0000</r>
       <r>   6.2219  1.0000</r>
       <r>   6.2222  1.0000</r>
       <r>   6.2243  1.0000</r>
       <r>   6.2246  1.0000</r>
       <r>   6.2248  1.0000</r>
       <r>   6.2263  1.0000</r>
       <r>   6.9714  1.0000</r>
       <r>   6.9715  1.0000</r>
       <r>   6.9715  1.0000</r>
       <r>   6.9715  1.0000</r>
       <r>   7.6969  1.0000</r>
       <r>   7.7014  1.0000</r>
       <r>   7.7019  1.0000</r>
       <r>   7.7019  1.0000</r>
       <r>   7.7019  1.0000</r>
       <r>   7.7019  1.0000</r>
       <r>   7.7024  1.0000</r>
       <r>   7.7069  1.0000</r>
       <r>   9.1841  0.0000</r>
       <r>   9.1876  0.0000</r>
       <r>   9.1881  0.0000</r>
       <r>   9.1881  0.0000</r>
       <r>   9.1881  0.0000</r>
       <r>   9.1881  0.0000</r>
       <r>   9.1886  0.0000</r>
       <r>   9.1921  0.0000</r>
       <r>   9.7911  0.0000</r>
       <r>   9.7911  0.0000</r>
       <r>   9.7911  0.0000</r>
       <r>   9.7912  0.0000</r>
       <r>  10.6220  0.0000</r>
       <r>  10.6220  0.0000</r>
       <r>  11.3242  0.0000</r>
       <r>  11.3242  0.0000</r>
       <r>  11.3243  0.0000</r>
       <r>  11.3243  0.0000</r>
       <r>  11.8817  0.0000</r>
       <r>  11.8823  0.0000</r>
      </set>
      <set comment="kpoint 14">
       <r>  -2.4950  1.0000</r>
       <r>  -2.4949  1.0000</r>
       <r>  -0.9959  1.0000</r>
       <r>  -0.9959  1.0000</r>
       <r>  -0.2524  1.0000</r>
       <r>  -0.2524  1.0000</r>
       <r>  -0.2524  1.0000</r>
       <r>  -0.2524  1.0000</r>
       <r>   0.4868  1.0000</r>
       <r>   0.4868  1.0000</r>
       <r>   1.2234  1.0000</r>
       <r>   1.2235  1.0000</r>
       <r>   1.2235  1.0000</r>
       <r>   1.2235  1.0000</r>
       <r>   1.9484  1.0000</r>
       <r>   1.9484  1.0000</r>
       <r>   2.6823  1.0000</r>
       <r>   2.6823  1.0000</r>
       <r>   2.6823  1.0000</r>
       <r>   2.6824  1.0000</r>
       <r>   3.3999  1.0000</r>
       <r>   3.3999  1.0000</r>
       <r>   4.1186  1.0000</r>
       <r>   4.1186  1.0000</r>
       <r>   4.1186  1.0000</r>
       <r>   4.1186  1.0000</r>
       <r>   4.7636  1.0000</r>
       <r>   4.7636  1.0000</r>
       <r>   4.8330  1.0000</r>
       <r>   4.8330  1.0000</r>
       <r>   5.5703  1.0000</r>
       <r>   5.5703  1.0000</r>
       <r>   5.5703  1.0000</r>
       <r>   5.5703  1.0000</r>
       <r>   5.6766  1.0000</r>
       <r>   5.6766  1.0000</r>
       <r>   6.8984  1.0000</r>
       <r>   6.8984  1.0000</r>
       <r>   6.8984  1.0000</r>
       <r>   6.8985  1.0000</r>
       <r>   6.9925  1.0000</r>
       <r>   6.9925  1.0000</r>
       <r>   6.9925  1.0000</r>
       <r>   6.9925  1.0000</r>
       <r>   7.0247  1.0000</r>
       <r>   7.0248  1.0000</r>
       <r>   7.0646  1.0000</r>
       <r>   7.0647  1.0000</r>
       <r>   7.9316  1.0000</r>
       <r>   7.9316  1.0000</r>
       <r>   8.4558  0.0000</r>
       <r>   8.4558  0.0000</r>
       <r>   8.5436  0.0000</r>
       <r>   8.5436  0.0000</r>
       <r>   9.0283  0.0000</r>
       <r>   9.0283  0.0000</r>
       <r>   9.8493  0.0000</r>
       <r>   9.8493  0.0000</r>
       <r>   9.9299  0.0000</r>
       <r>   9.9300  0.0000</r>
       <r>  10.0953  0.0000</r>
       <r>  10.0953  0.0000</r>
       <r>  10.0953  0.0000</r>
       <r>  10.0953  0.0000</r>
       <r>  10.6761  0.0000</r>
       <r>  10.6761  0.0000</r>
       <r>  11.0945  0.0000</r>
       <r>  11.0945  0.0000</r>
       <r>  11.0945  0.0000</r>
       <r>  11.0946  0.0000</r>
       <r>  11.2437  0.0000</r>
       <r>  11.2439  0.0000</r>
      </set>
      <set comment="kpoint 15">
       <r>  -2.3067  1.0000</r>
       <r>  -2.3067  1.0000</r>
       <r>  -1.5562  1.0000</r>
       <r>  -1.5562  1.0000</r>
       <r>  -0.0671  1.0000</r>
       <r>  -0.0671  1.0000</r>
       <r>  -0.0671  1.0000</r>
       <r>  -0.0671  1.0000</r>
       <r>   0.6718  1.0000</r>
       <r>   0.6718  1.0000</r>
       <r>   0.6718  1.0000</r>
       <r>   0.6718  1.0000</r>
       <r>   1.4043  1.0000</r>
       <r>   1.4044  1.0000</r>
       <r>   2.1307  1.0000</r>
       <r>   2.1307  1.0000</r>
       <r>   2.8574  1.0000</r>
       <r>   2.8574  1.0000</r>
       <r>   3.5659  1.0000</r>
       <r>   3.5660  1.0000</r>
       <r>   3.5811  1.0000</r>
       <r>   3.5811  1.0000</r>
       <r>   3.5811  1.0000</r>
       <r>   3.5811  1.0000</r>
       <r>   4.2935  1.0000</r>
       <r>   4.2935  1.0000</r>
       <r>   4.2935  1.0000</r>
       <r>   4.2935  1.0000</r>
       <r>   5.0385  1.0000</r>
       <r>   5.0385  1.0000</r>
       <r>   5.0385  1.0000</r>
       <r>   5.0385  1.0000</r>
       <r>   5.7132  1.0000</r>
       <r>   5.7133  1.0000</r>
       <r>   5.7346  1.0000</r>
       <r>   5.7347  1.0000</r>
       <r>   5.7347  1.0000</r>
       <r>   5.7347  1.0000</r>
       <r>   5.8499  1.0000</r>
       <r>   5.8499  1.0000</r>
       <r>   6.5437  1.0000</r>
       <r>   6.5437  1.0000</r>
       <r>   7.1446  1.0000</r>
       <r>   7.1446  1.0000</r>
       <r>   7.8748  1.0000</r>
       <r>   7.8749  1.0000</r>
       <r>   7.8749  1.0000</r>
       <r>   7.8749  1.0000</r>
       <r>   7.9482  1.0000</r>
       <r>   7.9482  1.0000</r>
       <r>   8.0148  0.0279</r>
       <r>   8.0148  0.0278</r>
       <r>   9.3265  0.0000</r>
       <r>   9.3265  0.0000</r>
       <r>   9.4380  0.0000</r>
       <r>   9.4380  0.0000</r>
       <r>   9.9526  0.0000</r>
       <r>   9.9526  0.0000</r>
       <r>   9.9526  0.0000</r>
       <r>   9.9526  0.0000</r>
       <r>  10.0237  0.0000</r>
       <r>  10.0237  0.0000</r>
       <r>  10.7098  0.0000</r>
       <r>  10.7098  0.0000</r>
       <r>  10.7210  0.0000</r>
       <r>  10.7210  0.0000</r>
       <r>  10.8315  0.0000</r>
       <r>  10.8315  0.0000</r>
       <r>  11.4186  0.0000</r>
       <r>  11.4189  0.0000</r>
       <r>  11.5633  0.0000</r>
       <r>  11.5656  0.0000</r>
      </set>
      <set comment="kpoint 16">
       <r>  -1.9961  1.0000</r>
       <r>  -1.9937  1.0000</r>
       <r>  -1.9933  1.0000</r>
       <r>  -1.9909  1.0000</r>
       <r>   0.2376  1.0000</r>
       <r>   0.2397  1.0000</r>
       <r>   0.2409  1.0000</r>
       <r>   0.2411  1.0000</r>
       <r>   0.2414  1.0000</r>
       <r>   0.2416  1.0000</r>
       <r>   0.2428  1.0000</r>
       <r>   0.2449  1.0000</r>
       <r>   2.4301  1.0000</r>
       <r>   2.4319  1.0000</r>
       <r>   2.4336  1.0000</r>
       <r>   2.4339  1.0000</r>
       <r>   2.4341  1.0000</r>
       <r>   2.4344  1.0000</r>
       <r>   2.4360  1.0000</r>
       <r>   2.4379  1.0000</r>
       <r>   4.4713  1.0000</r>
       <r>   4.4728  1.0000</r>
       <r>   4.4735  1.0000</r>
       <r>   4.4741  1.0000</r>
       <r>   4.4741  1.0000</r>
       <r>   4.4747  1.0000</r>
       <r>   4.4754  1.0000</r>
       <r>   4.4769  1.0000</r>
       <r>   4.7387  1.0000</r>
       <r>   4.7389  1.0000</r>
       <r>   4.7398  1.0000</r>
       <r>   4.7407  1.0000</r>
       <r>   4.7407  1.0000</r>
       <r>   4.7416  1.0000</r>
       <r>   4.7426  1.0000</r>
       <r>   4.7427  1.0000</r>
       <r>   6.1360  1.0000</r>
       <r>   6.1386  1.0000</r>
       <r>   6.1390  1.0000</r>
       <r>   6.1417  1.0000</r>
       <r>   6.6632  1.0000</r>
       <r>   6.6641  1.0000</r>
       <r>   6.6652  1.0000</r>
       <r>   6.6661  1.0000</r>
       <r>   7.6365  1.0000</r>
       <r>   7.6377  1.0000</r>
       <r>   7.6387  1.0000</r>
       <r>   7.6399  1.0000</r>
       <r>   8.8635  0.0000</r>
       <r>   8.8644  0.0000</r>
       <r>   8.8645  0.0000</r>
       <r>   8.8648  0.0000</r>
       <r>   8.8657  0.0000</r>
       <r>   8.8660  0.0000</r>
       <r>   8.8662  0.0000</r>
       <r>   8.8671  0.0000</r>
       <r>  10.3086  0.0000</r>
       <r>  10.3124  0.0000</r>
       <r>  10.3139  0.0000</r>
       <r>  10.3142  0.0000</r>
       <r>  10.3143  0.0000</r>
       <r>  10.3146  0.0000</r>
       <r>  10.3160  0.0000</r>
       <r>  10.3198  0.0000</r>
       <r>  11.0243  0.0000</r>
       <r>  11.0260  0.0000</r>
       <r>  11.0275  0.0000</r>
       <r>  11.0277  0.0000</r>
       <r>  11.0280  0.0000</r>
       <r>  11.0281  0.0000</r>
       <r>  11.0297  0.0000</r>
       <r>  11.0313  0.0000</r>
      </set>
      <set comment="kpoint 17">
       <r>  -2.9982  1.0000</r>
       <r>  -1.4938  1.0000</r>
       <r>  -1.4938  1.0000</r>
       <r>  -0.7494  1.0000</r>
       <r>  -0.7461  1.0000</r>
       <r>  -0.0059  1.0000</r>
       <r>  -0.0059  1.0000</r>
       <r>  -0.0053  1.0000</r>
       <r>   0.7305  1.0000</r>
       <r>   0.7324  1.0000</r>
       <r>   0.7338  1.0000</r>
       <r>   0.7358  1.0000</r>
       <r>   1.4671  1.0000</r>
       <r>   1.4671  1.0000</r>
       <r>   2.1950  1.0000</r>
       <r>   2.1970  1.0000</r>
       <r>   2.1971  1.0000</r>
       <r>   2.1985  1.0000</r>
       <r>   2.1998  1.0000</r>
       <r>   2.2008  1.0000</r>
       <r>   2.9240  1.0000</r>
       <r>   3.5425  1.0000</r>
       <r>   3.5425  1.0000</r>
       <r>   3.7696  1.0000</r>
       <r>   3.7696  1.0000</r>
       <r>   4.2902  1.0000</r>
       <r>   4.2902  1.0000</r>
       <r>   5.0995  1.0000</r>
       <r>   5.1029  1.0000</r>
       <r>   5.2147  1.0000</r>
       <r>   5.7052  1.0000</r>
       <r>   5.7052  1.0000</r>
       <r>   6.3023  1.0000</r>
       <r>   6.3023  1.0000</r>
       <r>   6.5279  1.0000</r>
       <r>   6.5279  1.0000</r>
       <r>   6.5507  1.0000</r>
       <r>   6.6015  1.0000</r>
       <r>   6.6016  1.0000</r>
       <r>   7.0759  1.0000</r>
       <r>   7.0759  1.0000</r>
       <r>   7.4658  1.0000</r>
       <r>   7.4658  1.0000</r>
       <r>   7.8343  1.0000</r>
       <r>   7.8364  1.0000</r>
       <r>   7.8380  1.0000</r>
       <r>   7.8400  1.0000</r>
       <r>   7.9917  0.9124</r>
       <r>   7.9918  0.9105</r>
       <r>   7.9918  0.9100</r>
       <r>   8.0538  0.0000</r>
       <r>   8.0538  0.0000</r>
       <r>   8.7275  0.0000</r>
       <r>   8.7275  0.0000</r>
       <r>   9.2383  0.0000</r>
       <r>   9.2391  0.0000</r>
       <r>   9.2421  0.0000</r>
       <r>   9.2428  0.0000</r>
       <r>   9.3090  0.0000</r>
       <r>   9.3090  0.0000</r>
       <r>   9.3843  0.0000</r>
       <r>   9.3843  0.0000</r>
       <r>   9.5011  0.0000</r>
       <r>   9.7349  0.0000</r>
       <r>   9.7349  0.0000</r>
       <r>  10.0201  0.0000</r>
       <r>  10.0201  0.0000</r>
       <r>  10.4264  0.0000</r>
       <r>  10.4265  0.0000</r>
       <r>  10.7779  0.0000</r>
       <r>  10.9007  0.0000</r>
       <r>  10.9007  0.0000</r>
      </set>
      <set comment="kpoint 18">
       <r>  -2.9352  1.0000</r>
       <r>  -1.4332  1.0000</r>
       <r>  -1.4315  1.0000</r>
       <r>  -1.4298  1.0000</r>
       <r>   0.0526  1.0000</r>
       <r>   0.0555  1.0000</r>
       <r>   0.0557  1.0000</r>
       <r>   0.0565  1.0000</r>
       <r>   0.0566  1.0000</r>
       <r>   0.0595  1.0000</r>
       <r>   1.5250  1.0000</r>
       <r>   1.5271  1.0000</r>
       <r>   1.5279  1.0000</r>
       <r>   1.5282  1.0000</r>
       <r>   1.5292  1.0000</r>
       <r>   1.5293  1.0000</r>
       <r>   1.5317  1.0000</r>
       <r>   2.9807  1.0000</r>
       <r>   2.9819  1.0000</r>
       <r>   2.9824  1.0000</r>
       <r>   2.9835  1.0000</r>
       <r>   2.9846  1.0000</r>
       <r>   2.9864  1.0000</r>
       <r>   4.3488  1.0000</r>
       <r>   4.3494  1.0000</r>
       <r>   4.3501  1.0000</r>
       <r>   4.4459  1.0000</r>
       <r>   4.4466  1.0000</r>
       <r>   4.4473  1.0000</r>
       <r>   5.7580  1.0000</r>
       <r>   5.7595  1.0000</r>
       <r>   5.7608  1.0000</r>
       <r>   5.7608  1.0000</r>
       <r>   5.7622  1.0000</r>
       <r>   5.7637  1.0000</r>
       <r>   5.8751  1.0000</r>
       <r>   7.1768  1.0000</r>
       <r>   7.1772  1.0000</r>
       <r>   7.1787  1.0000</r>
       <r>   7.1788  1.0000</r>
       <r>   7.1801  1.0000</r>
       <r>   7.1806  1.0000</r>
       <r>   7.1907  1.0000</r>
       <r>   7.1924  1.0000</r>
       <r>   7.1941  1.0000</r>
       <r>   7.5237  1.0000</r>
       <r>   7.5244  1.0000</r>
       <r>   7.5251  1.0000</r>
       <r>   8.5954  0.0000</r>
       <r>   8.5963  0.0000</r>
       <r>   8.5974  0.0000</r>
       <r>   8.5974  0.0000</r>
       <r>   8.5986  0.0000</r>
       <r>   8.5994  0.0000</r>
       <r>   8.9361  0.0000</r>
       <r>   8.9370  0.0000</r>
       <r>   8.9381  0.0000</r>
       <r>   8.9381  0.0000</r>
       <r>   8.9392  0.0000</r>
       <r>   8.9401  0.0000</r>
       <r>   9.9973  0.0000</r>
       <r>   9.9983  0.0000</r>
       <r>   9.9992  0.0000</r>
       <r>  10.4062  0.0000</r>
       <r>  10.4070  0.0000</r>
       <r>  10.4079  0.0000</r>
       <r>  10.5034  0.0000</r>
       <r>  10.5044  0.0000</r>
       <r>  10.5054  0.0000</r>
       <r>  10.5054  0.0000</r>
       <r>  10.5063  0.0000</r>
       <r>  10.5073  0.0000</r>
      </set>
      <set comment="kpoint 19">
       <r>  -2.7464  1.0000</r>
       <r>  -1.9935  1.0000</r>
       <r>  -1.2447  1.0000</r>
       <r>  -1.2447  1.0000</r>
       <r>  -0.4997  1.0000</r>
       <r>  -0.4997  1.0000</r>
       <r>   0.2406  1.0000</r>
       <r>   0.2406  1.0000</r>
       <r>   0.2414  1.0000</r>
       <r>   0.9749  1.0000</r>
       <r>   0.9778  1.0000</r>
       <r>   0.9784  1.0000</r>
       <r>   0.9795  1.0000</r>
       <r>   1.7112  1.0000</r>
       <r>   1.7112  1.0000</r>
       <r>   2.4378  1.0000</r>
       <r>   2.4384  1.0000</r>
       <r>   2.4408  1.0000</r>
       <r>   2.4414  1.0000</r>
       <r>   3.1454  1.0000</r>
       <r>   3.1647  1.0000</r>
       <r>   3.7757  1.0000</r>
       <r>   3.8840  1.0000</r>
       <r>   3.8840  1.0000</r>
       <r>   4.0149  1.0000</r>
       <r>   4.5270  1.0000</r>
       <r>   4.5270  1.0000</r>
       <r>   4.5807  1.0000</r>
       <r>   4.5807  1.0000</r>
       <r>   5.2348  1.0000</r>
       <r>   5.2348  1.0000</r>
       <r>   5.3379  1.0000</r>
       <r>   5.3379  1.0000</r>
       <r>   5.8493  1.0000</r>
       <r>   5.8493  1.0000</r>
       <r>   6.0265  1.0000</r>
       <r>   6.1083  1.0000</r>
       <r>   6.1083  1.0000</r>
       <r>   6.6645  1.0000</r>
       <r>   6.6645  1.0000</r>
       <r>   6.7629  1.0000</r>
       <r>   7.3627  1.0000</r>
       <r>   7.3627  1.0000</r>
       <r>   7.4426  1.0000</r>
       <r>   7.4426  1.0000</r>
       <r>   7.6981  1.0000</r>
       <r>   7.6981  1.0000</r>
       <r>   7.9836  0.9938</r>
       <r>   7.9836  0.9938</r>
       <r>   8.0698  0.0000</r>
       <r>   8.0698  0.0000</r>
       <r>   8.5095  0.0000</r>
       <r>   8.5095  0.0000</r>
       <r>   8.8527  0.0000</r>
       <r>   9.0526  0.0000</r>
       <r>   9.1556  0.0000</r>
       <r>   9.1556  0.0000</r>
       <r>   9.4709  0.0000</r>
       <r>   9.4709  0.0000</r>
       <r>   9.8781  0.0000</r>
       <r>   9.8781  0.0000</r>
       <r>  10.1685  0.0000</r>
       <r>  10.1685  0.0000</r>
       <r>  10.2285  0.0000</r>
       <r>  10.2285  0.0000</r>
       <r>  10.8684  0.0000</r>
       <r>  10.8685  0.0000</r>
       <r>  10.8861  0.0000</r>
       <r>  10.8861  0.0000</r>
       <r>  11.2589  0.0000</r>
       <r>  11.2592  0.0000</r>
       <r>  11.3216  0.0000</r>
      </set>
      <set comment="kpoint 20">
       <r>  -2.4336  1.0000</r>
       <r>  -2.4308  1.0000</r>
       <r>  -0.9362  1.0000</r>
       <r>  -0.9342  1.0000</r>
       <r>  -0.9334  1.0000</r>
       <r>  -0.9314  1.0000</r>
       <r>   0.5456  1.0000</r>
       <r>   0.5478  1.0000</r>
       <r>   0.5479  1.0000</r>
       <r>   0.5487  1.0000</r>
       <r>   0.5499  1.0000</r>
       <r>   0.5513  1.0000</r>
       <r>   2.0079  1.0000</r>
       <r>   2.0095  1.0000</r>
       <r>   2.0144  1.0000</r>
       <r>   2.0146  1.0000</r>
       <r>   2.0169  1.0000</r>
       <r>   2.0178  1.0000</r>
       <r>   3.4589  1.0000</r>
       <r>   3.4594  1.0000</r>
       <r>   3.4603  1.0000</r>
       <r>   3.4604  1.0000</r>
       <r>   3.4615  1.0000</r>
       <r>   3.4640  1.0000</r>
       <r>   4.8208  1.0000</r>
       <r>   4.8212  1.0000</r>
       <r>   4.8238  1.0000</r>
       <r>   4.8241  1.0000</r>
       <r>   4.8877  1.0000</r>
       <r>   4.8880  1.0000</r>
       <r>   4.8889  1.0000</r>
       <r>   4.8893  1.0000</r>
       <r>   4.9184  1.0000</r>
       <r>   4.9198  1.0000</r>
       <r>   6.2551  1.0000</r>
       <r>   6.2571  1.0000</r>
       <r>   6.2580  1.0000</r>
       <r>   6.2600  1.0000</r>
       <r>   6.3400  1.0000</r>
       <r>   6.3407  1.0000</r>
       <r>   6.3414  1.0000</r>
       <r>   6.3421  1.0000</r>
       <r>   7.6564  1.0000</r>
       <r>   7.6571  1.0000</r>
       <r>   7.6594  1.0000</r>
       <r>   7.6601  1.0000</r>
       <r>   7.7586  1.0000</r>
       <r>   7.7601  1.0000</r>
       <r>   7.9721  1.0000</r>
       <r>   7.9728  1.0000</r>
       <r>   7.9749  0.9999</r>
       <r>   7.9756  0.9999</r>
       <r>   9.0979  0.0000</r>
       <r>   9.0985  0.0000</r>
       <r>   9.0997  0.0000</r>
       <r>   9.1002  0.0000</r>
       <r>   9.4597  0.0000</r>
       <r>   9.4605  0.0000</r>
       <r>   9.4626  0.0000</r>
       <r>   9.4634  0.0000</r>
       <r>  10.4529  0.0000</r>
       <r>  10.4536  0.0000</r>
       <r>  10.4547  0.0000</r>
       <r>  10.4554  0.0000</r>
       <r>  10.7215  0.0000</r>
       <r>  10.7227  0.0000</r>
       <r>  10.8130  0.0000</r>
       <r>  10.8151  0.0000</r>
       <r>  10.8161  0.0000</r>
       <r>  10.8183  0.0000</r>
       <r>  11.8011  0.0000</r>
       <r>  11.8050  0.0000</r>
      </set>
      <set comment="kpoint 21">
       <r>  -2.8093  1.0000</r>
       <r>  -2.0561  1.0000</r>
       <r>  -1.3069  1.0000</r>
       <r>  -0.5639  1.0000</r>
       <r>  -0.5617  1.0000</r>
       <r>  -0.5596  1.0000</r>
       <r>   0.1773  1.0000</r>
       <r>   0.1793  1.0000</r>
       <r>   0.1817  1.0000</r>
       <r>   0.9140  1.0000</r>
       <r>   0.9160  1.0000</r>
       <r>   0.9167  1.0000</r>
       <r>   0.9192  1.0000</r>
       <r>   1.6494  1.0000</r>
       <r>   1.6527  1.0000</r>
       <r>   2.3776  1.0000</r>
       <r>   2.3786  1.0000</r>
       <r>   2.3816  1.0000</r>
       <r>   3.0852  1.0000</r>
       <r>   3.1008  1.0000</r>
       <r>   3.1021  1.0000</r>
       <r>   3.1041  1.0000</r>
       <r>   3.1054  1.0000</r>
       <r>   3.8247  1.0000</r>
       <r>   4.4679  1.0000</r>
       <r>   4.5219  1.0000</r>
       <r>   4.5636  1.0000</r>
       <r>   4.5670  1.0000</r>
       <r>   5.1765  1.0000</r>
       <r>   5.2273  1.0000</r>
       <r>   5.2307  1.0000</r>
       <r>   5.3879  1.0000</r>
       <r>   5.9348  1.0000</r>
       <r>   5.9905  1.0000</r>
       <r>   5.9939  1.0000</r>
       <r>   6.0811  1.0000</r>
       <r>   6.6062  1.0000</r>
       <r>   6.6097  1.0000</r>
       <r>   6.6747  1.0000</r>
       <r>   6.6782  1.0000</r>
       <r>   6.7310  1.0000</r>
       <r>   6.7752  1.0000</r>
       <r>   7.3073  1.0000</r>
       <r>   7.3109  1.0000</r>
       <r>   7.3865  1.0000</r>
       <r>   7.4701  1.0000</r>
       <r>   7.6420  1.0000</r>
       <r>   8.0885  0.0000</r>
       <r>   8.0921  0.0000</r>
       <r>   8.0980  0.0000</r>
       <r>   8.1658  0.0000</r>
       <r>   8.2403  0.0000</r>
       <r>   8.3211  0.0000</r>
       <r>   8.8619  0.0000</r>
       <r>   8.8620  0.0000</r>
       <r>   8.9647  0.0000</r>
       <r>   8.9969  0.0000</r>
       <r>   9.5382  0.0000</r>
       <r>   9.7612  0.0000</r>
       <r>   9.7640  0.0000</r>
       <r>  10.1079  0.0000</r>
       <r>  10.1109  0.0000</r>
       <r>  10.1147  0.0000</r>
       <r>  10.2556  0.0000</r>
       <r>  10.3655  0.0000</r>
       <r>  10.4698  0.0000</r>
       <r>  10.5155  0.0000</r>
       <r>  10.5187  0.0000</r>
       <r>  10.6089  0.0000</r>
       <r>  10.9531  0.0000</r>
       <r>  11.2330  0.0000</r>
       <r>  11.2357  0.0000</r>
      </set>
      <set comment="kpoint 22">
       <r>  -2.7464  1.0000</r>
       <r>  -1.9935  1.0000</r>
       <r>  -1.2458  1.0000</r>
       <r>  -1.2435  1.0000</r>
       <r>  -0.5009  1.0000</r>
       <r>  -0.4985  1.0000</r>
       <r>   0.2390  1.0000</r>
       <r>   0.2409  1.0000</r>
       <r>   0.2427  1.0000</r>
       <r>   0.9757  1.0000</r>
       <r>   0.9767  1.0000</r>
       <r>   0.9782  1.0000</r>
       <r>   0.9801  1.0000</r>
       <r>   1.7107  1.0000</r>
       <r>   1.7117  1.0000</r>
       <r>   2.4375  1.0000</r>
       <r>   2.4396  1.0000</r>
       <r>   2.4402  1.0000</r>
       <r>   2.4411  1.0000</r>
       <r>   3.1455  1.0000</r>
       <r>   3.1647  1.0000</r>
       <r>   3.7757  1.0000</r>
       <r>   3.8828  1.0000</r>
       <r>   3.8852  1.0000</r>
       <r>   4.0149  1.0000</r>
       <r>   4.5266  1.0000</r>
       <r>   4.5275  1.0000</r>
       <r>   4.5794  1.0000</r>
       <r>   4.5819  1.0000</r>
       <r>   5.2344  1.0000</r>
       <r>   5.2353  1.0000</r>
       <r>   5.3373  1.0000</r>
       <r>   5.3384  1.0000</r>
       <r>   5.8481  1.0000</r>
       <r>   5.8504  1.0000</r>
       <r>   6.0265  1.0000</r>
       <r>   6.1071  1.0000</r>
       <r>   6.1096  1.0000</r>
       <r>   6.6633  1.0000</r>
       <r>   6.6657  1.0000</r>
       <r>   6.7629  1.0000</r>
       <r>   7.3621  1.0000</r>
       <r>   7.3634  1.0000</r>
       <r>   7.4420  1.0000</r>
       <r>   7.4432  1.0000</r>
       <r>   7.6976  1.0000</r>
       <r>   7.6987  1.0000</r>
       <r>   7.9828  0.9955</r>
       <r>   7.9844  0.9915</r>
       <r>   8.0691  0.0000</r>
       <r>   8.0704  0.0000</r>
       <r>   8.5094  0.0000</r>
       <r>   8.5096  0.0000</r>
       <r>   8.8527  0.0000</r>
       <r>   9.0526  0.0000</r>
       <r>   9.1549  0.0000</r>
       <r>   9.1563  0.0000</r>
       <r>   9.4697  0.0000</r>
       <r>   9.4722  0.0000</r>
       <r>   9.8774  0.0000</r>
       <r>   9.8787  0.0000</r>
       <r>  10.1681  0.0000</r>
       <r>  10.1690  0.0000</r>
       <r>  10.2272  0.0000</r>
       <r>  10.2298  0.0000</r>
       <r>  10.8678  0.0000</r>
       <r>  10.8691  0.0000</r>
       <r>  10.8852  0.0000</r>
       <r>  10.8870  0.0000</r>
       <r>  11.2580  0.0000</r>
       <r>  11.2605  0.0000</r>
       <r>  11.3216  0.0000</r>
      </set>
      <set comment="kpoint 23">
       <r>  -2.5578  1.0000</r>
       <r>  -1.8071  1.0000</r>
       <r>  -1.8047  1.0000</r>
       <r>  -1.0590  1.0000</r>
       <r>  -1.0571  1.0000</r>
       <r>  -0.3152  1.0000</r>
       <r>  -0.3129  1.0000</r>
       <r>   0.4251  1.0000</r>
       <r>   0.4264  1.0000</r>
       <r>   1.1579  1.0000</r>
       <r>   1.1603  1.0000</r>
       <r>   1.1611  1.0000</r>
       <r>   1.1635  1.0000</r>
       <r>   1.8913  1.0000</r>
       <r>   1.8924  1.0000</r>
       <r>   1.8947  1.0000</r>
       <r>   2.6192  1.0000</r>
       <r>   2.6216  1.0000</r>
       <r>   3.3253  1.0000</r>
       <r>   3.3263  1.0000</r>
       <r>   3.3407  1.0000</r>
       <r>   3.3417  1.0000</r>
       <r>   4.0435  1.0000</r>
       <r>   4.0459  1.0000</r>
       <r>   4.0583  1.0000</r>
       <r>   4.0607  1.0000</r>
       <r>   4.7042  1.0000</r>
       <r>   4.7539  1.0000</r>
       <r>   4.7548  1.0000</r>
       <r>   4.7732  1.0000</r>
       <r>   4.8041  1.0000</r>
       <r>   4.8051  1.0000</r>
       <r>   5.4063  1.0000</r>
       <r>   5.4089  1.0000</r>
       <r>   5.4964  1.0000</r>
       <r>   5.4988  1.0000</r>
       <r>   6.1402  1.0000</r>
       <r>   6.2049  1.0000</r>
       <r>   6.2060  1.0000</r>
       <r>   6.2271  1.0000</r>
       <r>   6.8905  1.0000</r>
       <r>   6.8918  1.0000</r>
       <r>   6.9100  1.0000</r>
       <r>   6.9125  1.0000</r>
       <r>   7.6468  1.0000</r>
       <r>   7.8549  1.0000</r>
       <r>   8.2282  0.0000</r>
       <r>   8.2308  0.0000</r>
       <r>   8.3212  0.0000</r>
       <r>   8.3224  0.0000</r>
       <r>   8.6442  0.0000</r>
       <r>   8.6461  0.0000</r>
       <r>   8.9431  0.0000</r>
       <r>   8.9445  0.0000</r>
       <r>   9.0472  0.0000</r>
       <r>   9.2103  0.0000</r>
       <r>   9.2116  0.0000</r>
       <r>   9.3498  0.0000</r>
       <r>   9.7265  0.0000</r>
       <r>   9.7277  0.0000</r>
       <r>   9.9298  0.0000</r>
       <r>   9.9314  0.0000</r>
       <r>  10.3564  0.0000</r>
       <r>  10.3575  0.0000</r>
       <r>  10.3945  0.0000</r>
       <r>  10.6315  0.0000</r>
       <r>  10.6324  0.0000</r>
       <r>  11.0077  0.0000</r>
       <r>  11.0104  0.0000</r>
       <r>  11.3689  0.0000</r>
       <r>  11.3700  0.0000</r>
       <r>  11.5187  0.0000</r>
      </set>
      <set comment="kpoint 24">
       <r>  -2.2454  1.0000</r>
       <r>  -2.2426  1.0000</r>
       <r>  -1.4952  1.0000</r>
       <r>  -1.4924  1.0000</r>
       <r>  -0.7490  1.0000</r>
       <r>  -0.7462  1.0000</r>
       <r>  -0.0066  1.0000</r>
       <r>  -0.0038  1.0000</r>
       <r>   0.7311  1.0000</r>
       <r>   0.7339  1.0000</r>
       <r>   1.4639  1.0000</r>
       <r>   1.4660  1.0000</r>
       <r>   1.4667  1.0000</r>
       <r>   1.4688  1.0000</r>
       <r>   2.1908  1.0000</r>
       <r>   2.1921  1.0000</r>
[...]
       <r>   7.1446  1.0000</r>
       <r>   7.8728  1.0000</r>
       <r>   7.8734  1.0000</r>
       <r>   7.8763  1.0000</r>
       <r>   7.8769  1.0000</r>
       <r>   7.9482  1.0000</r>
       <r>   7.9482  1.0000</r>
       <r>   8.0148  0.0280</r>
       <r>   8.0148  0.0279</r>
       <r>   9.3264  0.0000</r>
       <r>   9.3265  0.0000</r>
       <r>   9.4380  0.0000</r>
       <r>   9.4381  0.0000</r>
       <r>   9.9505  0.0000</r>
       <r>   9.9510  0.0000</r>
       <r>   9.9542  0.0000</r>
       <r>   9.9546  0.0000</r>
       <r>  10.0237  0.0000</r>
       <r>  10.0237  0.0000</r>
       <r>  10.7094  0.0000</r>
       <r>  10.7097  0.0000</r>
       <r>  10.7210  0.0000</r>
       <r>  10.7213  0.0000</r>
       <r>  10.8315  0.0000</r>
       <r>  10.8315  0.0000</r>
       <r>  11.4187  0.0000</r>
       <r>  11.4193  0.0000</r>
       <r>  11.5630  0.0000</r>
       <r>  11.5648  0.0000</r>
      </set>
      <set comment="kpoint 34">
       <r>  -2.2440  1.0000</r>
       <r>  -2.2440  1.0000</r>
       <r>  -1.4938  1.0000</r>
       <r>  -1.4938  1.0000</r>
       <r>  -0.7476  1.0000</r>
       <r>  -0.7476  1.0000</r>
       <r>  -0.0052  1.0000</r>
       <r>  -0.0052  1.0000</r>
       <r>   0.7325  1.0000</r>
       <r>   0.7325  1.0000</r>
       <r>   1.4650  1.0000</r>
       <r>   1.4654  1.0000</r>
       <r>   1.4673  1.0000</r>
       <r>   1.4677  1.0000</r>
       <r>   2.1914  1.0000</r>
       <r>   2.1914  1.0000</r>
       <r>   2.9177  1.0000</r>
       <r>   2.9178  1.0000</r>
       <r>   2.9223  1.0000</r>
       <r>   2.9223  1.0000</r>
       <r>   3.6258  1.0000</r>
       <r>   3.6259  1.0000</r>
       <r>   3.6393  1.0000</r>
       <r>   3.6394  1.0000</r>
       <r>   4.2415  1.0000</r>
       <r>   4.2415  1.0000</r>
       <r>   4.5005  1.0000</r>
       <r>   4.5005  1.0000</r>
       <r>   4.9374  1.0000</r>
       <r>   4.9374  1.0000</r>
       <r>   4.9988  1.0000</r>
       <r>   4.9988  1.0000</r>
       <r>   5.2128  1.0000</r>
       <r>   5.2128  1.0000</r>
       <r>   5.6181  1.0000</r>
       <r>   5.6182  1.0000</r>
       <r>   5.8073  1.0000</r>
       <r>   5.8073  1.0000</r>
       <r>   5.8839  1.0000</r>
       <r>   5.8839  1.0000</r>
       <r>   6.4977  1.0000</r>
       <r>   6.4977  1.0000</r>
       <r>   7.2257  1.0000</r>
       <r>   7.2257  1.0000</r>
       <r>   7.7842  1.0000</r>
       <r>   7.7842  1.0000</r>
       <r>   8.3268  0.0000</r>
       <r>   8.3269  0.0000</r>
       <r>   8.5312  0.0000</r>
       <r>   8.5312  0.0000</r>
       <r>   8.6387  0.0000</r>
       <r>   8.6387  0.0000</r>
       <r>   8.9370  0.0000</r>
       <r>   8.9370  0.0000</r>
       <r>   9.1468  0.0000</r>
       <r>   9.1468  0.0000</r>
       <r>   9.3092  0.0000</r>
       <r>   9.3092  0.0000</r>
       <r>   9.6184  0.0000</r>
       <r>   9.6184  0.0000</r>
       <r>   9.9270  0.0000</r>
       <r>   9.9270  0.0000</r>
       <r>  10.5398  0.0000</r>
       <r>  10.5398  0.0000</r>
       <r>  10.7091  0.0000</r>
       <r>  10.7091  0.0000</r>
       <r>  10.9540  0.0000</r>
       <r>  10.9540  0.0000</r>
       <r>  10.9936  0.0000</r>
       <r>  10.9936  0.0000</r>
       <r>  11.3957  0.0000</r>
       <r>  11.3957  0.0000</r>
      </set>
      <set comment="kpoint 35">
       <r>  -2.0561  1.0000</r>
       <r>  -2.0561  1.0000</r>
       <r>  -1.3091  1.0000</r>
       <r>  -1.3071  1.0000</r>
       <r>  -1.3067  1.0000</r>
       <r>  -1.3047  1.0000</r>
       <r>  -0.5616  1.0000</r>
       <r>  -0.5616  1.0000</r>
       <r>   1.6463  1.0000</r>
       <r>   1.6483  1.0000</r>
       <r>   1.6486  1.0000</r>
       <r>   1.6506  1.0000</r>
       <r>   2.3726  1.0000</r>
       <r>   2.3732  1.0000</r>
       <r>   2.3776  1.0000</r>
       <r>   2.3780  1.0000</r>
       <r>   2.3784  1.0000</r>
       <r>   2.3794  1.0000</r>
       <r>   3.0974  1.0000</r>
       <r>   3.0975  1.0000</r>
       <r>   3.0998  1.0000</r>
       <r>   3.0999  1.0000</r>
       <r>   3.8044  1.0000</r>
       <r>   3.8052  1.0000</r>
       <r>   3.8055  1.0000</r>
       <r>   3.8060  1.0000</r>
       <r>   3.8155  1.0000</r>
       <r>   3.8159  1.0000</r>
       <r>   4.5143  1.0000</r>
       <r>   4.5162  1.0000</r>
       <r>   4.5166  1.0000</r>
       <r>   4.5186  1.0000</r>
       <r>   5.2805  1.0000</r>
       <r>   5.2805  1.0000</r>
       <r>   5.9841  1.0000</r>
       <r>   5.9841  1.0000</r>
       <r>   5.9866  1.0000</r>
       <r>   5.9866  1.0000</r>
       <r>   6.6920  1.0000</r>
       <r>   6.6929  1.0000</r>
       <r>   6.6931  1.0000</r>
       <r>   6.6940  1.0000</r>
       <r>   7.3763  1.0000</r>
       <r>   7.3774  1.0000</r>
       <r>   7.3776  1.0000</r>
       <r>   7.3786  1.0000</r>
       <r>   8.0578  0.0000</r>
       <r>   8.0586  0.0000</r>
       <r>   8.0591  0.0000</r>
       <r>   8.0598  0.0000</r>
       <r>   8.7788  0.0000</r>
       <r>   8.7789  0.0000</r>
       <r>   8.7813  0.0000</r>
       <r>   8.7814  0.0000</r>
       <r>   9.4455  0.0000</r>
       <r>   9.4456  0.0000</r>
       <r>   9.5143  0.0000</r>
       <r>   9.5143  0.0000</r>
       <r>   9.7461  0.0000</r>
       <r>   9.7465  0.0000</r>
       <r>   9.7468  0.0000</r>
       <r>   9.7473  0.0000</r>
       <r>  10.4374  0.0000</r>
       <r>  10.4385  0.0000</r>
       <r>  10.4386  0.0000</r>
       <r>  10.4397  0.0000</r>
       <r>  11.1235  0.0000</r>
       <r>  11.1235  0.0000</r>
       <r>  11.5753  0.0000</r>
       <r>  11.5762  0.0000</r>
       <r>  11.5765  0.0000</r>
       <r>  11.5774  0.0000</r>
      </set>
      <set comment="kpoint 36">
       <r>  -1.7460  1.0000</r>
       <r>  -1.7437  1.0000</r>
       <r>  -1.7432  1.0000</r>
       <r>  -1.7409  1.0000</r>
       <r>  -0.9985  1.0000</r>
       <r>  -0.9961  1.0000</r>
       <r>  -0.9956  1.0000</r>
       <r>  -0.9933  1.0000</r>
       <r>   1.9504  1.0000</r>
       <r>   1.9528  1.0000</r>
       <r>   1.9532  1.0000</r>
       <r>   1.9556  1.0000</r>
       <r>   2.6722  1.0000</r>
       <r>   2.6740  1.0000</r>
       <r>   2.6757  1.0000</r>
       <r>   2.6760  1.0000</r>
       <r>   2.6762  1.0000</r>
       <r>   2.6764  1.0000</r>
       <r>   2.6781  1.0000</r>
       <r>   2.6800  1.0000</r>
       <r>   3.3951  1.0000</r>
       <r>   3.3970  1.0000</r>
       <r>   3.3986  1.0000</r>
       <r>   3.3989  1.0000</r>
       <r>   3.3991  1.0000</r>
       <r>   3.3994  1.0000</r>
       <r>   3.4010  1.0000</r>
       <r>   3.4029  1.0000</r>
       <r>   4.1008  1.0000</r>
       <r>   4.1032  1.0000</r>
       <r>   4.1037  1.0000</r>
       <r>   4.1061  1.0000</r>
       <r>   6.2745  1.0000</r>
       <r>   6.2763  1.0000</r>
       <r>   6.2782  1.0000</r>
       <r>   6.2784  1.0000</r>
       <r>   6.2786  1.0000</r>
       <r>   6.2788  1.0000</r>
       <r>   6.2806  1.0000</r>
       <r>   6.2825  1.0000</r>
       <r>   6.9733  1.0000</r>
       <r>   6.9746  1.0000</r>
       <r>   6.9747  1.0000</r>
       <r>   6.9760  1.0000</r>
       <r>   7.6865  1.0000</r>
       <r>   7.6878  1.0000</r>
       <r>   7.6880  1.0000</r>
       <r>   7.6892  1.0000</r>
       <r>   8.3607  0.0000</r>
       <r>   8.3629  0.0000</r>
       <r>   8.3648  0.0000</r>
       <r>   8.3650  0.0000</r>
       <r>   8.3652  0.0000</r>
       <r>   8.3654  0.0000</r>
       <r>   8.3672  0.0000</r>
       <r>   8.3694  0.0000</r>
       <r>  10.0310  0.0000</r>
       <r>  10.0332  0.0000</r>
       <r>  10.0339  0.0000</r>
       <r>  10.0360  0.0000</r>
       <r>  10.4958  0.0000</r>
       <r>  10.4970  0.0000</r>
       <r>  10.4974  0.0000</r>
       <r>  10.4986  0.0000</r>
       <r>  11.3992  0.0000</r>
       <r>  11.4001  0.0000</r>
       <r>  11.4003  0.0000</r>
       <r>  11.4015  0.0000</r>
       <r>  11.4018  0.0000</r>
       <r>  11.4029  0.0000</r>
       <r>  11.4032  0.0000</r>
       <r>  11.4041  0.0000</r>
      </set>
      <set comment="kpoint 37">
       <r>  -1.9935  1.0000</r>
       <r>  -1.9935  1.0000</r>
       <r>  -1.9935  1.0000</r>
       <r>  -1.9935  1.0000</r>
       <r>   0.2361  1.0000</r>
       <r>   0.2406  1.0000</r>
       <r>   0.2406  1.0000</r>
       <r>   0.2410  1.0000</r>
       <r>   0.2414  1.0000</r>
       <r>   0.2419  1.0000</r>
       <r>   0.2419  1.0000</r>
       <r>   0.2463  1.0000</r>
       <r>   2.4340  1.0000</r>
       <r>   2.4340  1.0000</r>
       <r>   2.4340  1.0000</r>
       <r>   2.4340  1.0000</r>
       <r>   2.4340  1.0000</r>
       <r>   2.4340  1.0000</r>
       <r>   2.4340  1.0000</r>
       <r>   2.4340  1.0000</r>
       <r>   4.4726  1.0000</r>
       <r>   4.4726  1.0000</r>
       <r>   4.4740  1.0000</r>
       <r>   4.4741  1.0000</r>
       <r>   4.4741  1.0000</r>
       <r>   4.4741  1.0000</r>
       <r>   4.4756  1.0000</r>
       <r>   4.4756  1.0000</r>
       <r>   4.7391  1.0000</r>
       <r>   4.7391  1.0000</r>
       <r>   4.7407  1.0000</r>
       <r>   4.7407  1.0000</r>
       <r>   4.7407  1.0000</r>
       <r>   4.7408  1.0000</r>
       <r>   4.7424  1.0000</r>
       <r>   4.7424  1.0000</r>
       <r>   6.1388  1.0000</r>
       <r>   6.1388  1.0000</r>
       <r>   6.1388  1.0000</r>
       <r>   6.1389  1.0000</r>
       <r>   6.6646  1.0000</r>
       <r>   6.6647  1.0000</r>
       <r>   6.6647  1.0000</r>
       <r>   6.6647  1.0000</r>
       <r>   7.6382  1.0000</r>
       <r>   7.6382  1.0000</r>
       <r>   7.6382  1.0000</r>
       <r>   7.6382  1.0000</r>
       <r>   8.8630  0.0000</r>
       <r>   8.8630  0.0000</r>
       <r>   8.8635  0.0000</r>
       <r>   8.8645  0.0000</r>
       <r>   8.8661  0.0000</r>
       <r>   8.8671  0.0000</r>
       <r>   8.8676  0.0000</r>
       <r>   8.8676  0.0000</r>
       <r>  10.3142  0.0000</r>
       <r>  10.3142  0.0000</r>
       <r>  10.3142  0.0000</r>
       <r>  10.3142  0.0000</r>
       <r>  10.3142  0.0000</r>
       <r>  10.3142  0.0000</r>
       <r>  10.3142  0.0000</r>
       <r>  10.3143  0.0000</r>
       <r>  11.0278  0.0000</r>
       <r>  11.0278  0.0000</r>
       <r>  11.0278  0.0000</r>
       <r>  11.0278  0.0000</r>
       <r>  11.0278  0.0000</r>
       <r>  11.0278  0.0000</r>
       <r>  11.0279  0.0000</r>
       <r>  11.0279  0.0000</r>
      </set>
      <set comment="kpoint 38">
       <r>  -1.9310  1.0000</r>
       <r>  -1.9309  1.0000</r>
       <r>  -1.9309  1.0000</r>
       <r>  -1.9309  1.0000</r>
       <r>  -0.4378  1.0000</r>
       <r>  -0.4378  1.0000</r>
       <r>  -0.4378  1.0000</r>
       <r>  -0.4378  1.0000</r>
       <r>   1.0391  1.0000</r>
       <r>   1.0391  1.0000</r>
       <r>   1.0391  1.0000</r>
       <r>   1.0391  1.0000</r>
       <r>   2.4945  1.0000</r>
       <r>   2.4945  1.0000</r>
       <r>   2.4945  1.0000</r>
       <r>   2.4945  1.0000</r>
       <r>   2.4945  1.0000</r>
       <r>   2.4945  1.0000</r>
       <r>   2.4945  1.0000</r>
       <r>   2.4945  1.0000</r>
       <r>   3.9349  1.0000</r>
       <r>   3.9349  1.0000</r>
       <r>   3.9351  1.0000</r>
       <r>   3.9351  1.0000</r>
       <r>   3.9351  1.0000</r>
       <r>   3.9351  1.0000</r>
       <r>   3.9353  1.0000</r>
       <r>   3.9353  1.0000</r>
       <r>   5.2897  1.0000</r>
       <r>   5.2897  1.0000</r>
       <r>   5.2897  1.0000</r>
       <r>   5.2897  1.0000</r>
       <r>   5.3952  1.0000</r>
       <r>   5.3952  1.0000</r>
       <r>   5.3956  1.0000</r>
       <r>   5.3956  1.0000</r>
       <r>   5.3956  1.0000</r>
       <r>   5.3956  1.0000</r>
       <r>   5.3960  1.0000</r>
       <r>   5.3960  1.0000</r>
       <r>   6.7855  1.0000</r>
       <r>   6.7855  1.0000</r>
       <r>   6.7856  1.0000</r>
       <r>   6.7856  1.0000</r>
       <r>   8.2189  0.0000</r>
       <r>   8.2189  0.0000</r>
       <r>   8.2189  0.0000</r>
       <r>   8.2189  0.0000</r>
       <r>   8.5341  0.0000</r>
       <r>   8.5341  0.0000</r>
       <r>   8.5341  0.0000</r>
       <r>   8.5341  0.0000</r>
       <r>   9.5095  0.0000</r>
       <r>   9.5095  0.0000</r>
       <r>   9.5100  0.0000</r>
       <r>   9.5100  0.0000</r>
       <r>   9.5100  0.0000</r>
       <r>   9.5100  0.0000</r>
       <r>   9.5104  0.0000</r>
       <r>   9.5104  0.0000</r>
       <r>   9.6256  0.0000</r>
       <r>   9.6256  0.0000</r>
       <r>   9.6256  0.0000</r>
       <r>   9.6256  0.0000</r>
       <r>  11.2001  0.0000</r>
       <r>  11.2001  0.0000</r>
       <r>  11.2009  0.0000</r>
       <r>  11.2009  0.0000</r>
       <r>  11.2009  0.0000</r>
       <r>  11.2010  0.0000</r>
       <r>  11.2018  0.0000</r>
       <r>  11.2018  0.0000</r>
      </set>
      <set comment="kpoint 39">
       <r>  -1.7435  1.0000</r>
       <r>  -1.7434  1.0000</r>
       <r>  -1.7434  1.0000</r>
       <r>  -1.7434  1.0000</r>
       <r>  -0.9959  1.0000</r>
       <r>  -0.9959  1.0000</r>
       <r>  -0.9959  1.0000</r>
       <r>  -0.9959  1.0000</r>
       <r>   1.9530  1.0000</r>
       <r>   1.9530  1.0000</r>
       <r>   1.9530  1.0000</r>
       <r>   1.9530  1.0000</r>
       <r>   2.6760  1.0000</r>
       <r>   2.6760  1.0000</r>
       <r>   2.6760  1.0000</r>
       <r>   2.6761  1.0000</r>
       <r>   2.6761  1.0000</r>
       <r>   2.6761  1.0000</r>
       <r>   2.6761  1.0000</r>
       <r>   2.6761  1.0000</r>
       <r>   3.3989  1.0000</r>
       <r>   3.3989  1.0000</r>
       <r>   3.3990  1.0000</r>
       <r>   3.3990  1.0000</r>
       <r>   3.3990  1.0000</r>
       <r>   3.3990  1.0000</r>
       <r>   3.3991  1.0000</r>
       <r>   3.3991  1.0000</r>
       <r>   4.1035  1.0000</r>
       <r>   4.1035  1.0000</r>
       <r>   4.1035  1.0000</r>
       <r>   4.1035  1.0000</r>
       <r>   6.2782  1.0000</r>
       <r>   6.2782  1.0000</r>
       <r>   6.2785  1.0000</r>
       <r>   6.2785  1.0000</r>
       <r>   6.2785  1.0000</r>
       <r>   6.2785  1.0000</r>
       <r>   6.2788  1.0000</r>
       <r>   6.2788  1.0000</r>
       <r>   6.9746  1.0000</r>
       <r>   6.9746  1.0000</r>
       <r>   6.9746  1.0000</r>
       <r>   6.9746  1.0000</r>
       <r>   7.6879  1.0000</r>
       <r>   7.6879  1.0000</r>
       <r>   7.6879  1.0000</r>
       <r>   7.6879  1.0000</r>
       <r>   8.3647  0.0000</r>
       <r>   8.3647  0.0000</r>
       <r>   8.3651  0.0000</r>
       <r>   8.3651  0.0000</r>
       <r>   8.3651  0.0000</r>
       <r>   8.3651  0.0000</r>
       <r>   8.3654  0.0000</r>
       <r>   8.3654  0.0000</r>
       <r>  10.0335  0.0000</r>
       <r>  10.0335  0.0000</r>
       <r>  10.0335  0.0000</r>
       <r>  10.0335  0.0000</r>
       <r>  10.4972  0.0000</r>
       <r>  10.4972  0.0000</r>
       <r>  10.4972  0.0000</r>
       <r>  10.4972  0.0000</r>
       <r>  11.4011  0.0000</r>
       <r>  11.4011  0.0000</r>
       <r>  11.4016  0.0000</r>
       <r>  11.4016  0.0000</r>
       <r>  11.4016  0.0000</r>
       <r>  11.4016  0.0000</r>
       <r>  11.4022  0.0000</r>
       <r>  11.4022  0.0000</r>
      </set>
      <set comment="kpoint 40">
       <r>  -1.4362  1.0000</r>
       <r>  -1.4319  1.0000</r>
       <r>  -1.4319  1.0000</r>
       <r>  -1.4315  1.0000</r>
       <r>  -1.4314  1.0000</r>
       <r>  -1.4311  1.0000</r>
       <r>  -1.4311  1.0000</r>
       <r>  -1.4268  1.0000</r>
       <r>   2.9678  1.0000</r>
       <r>   2.9739  1.0000</r>
       <r>   2.9739  1.0000</r>
       <r>   2.9771  1.0000</r>
       <r>   2.9775  1.0000</r>
       <r>   2.9775  1.0000</r>
       <r>   2.9778  1.0000</r>
       <r>   2.9778  1.0000</r>
       <r>   2.9779  1.0000</r>
       <r>   2.9779  1.0000</r>
       <r>   2.9779  1.0000</r>
       <r>   2.9780  1.0000</r>
       <r>   2.9780  1.0000</r>
       <r>   2.9780  1.0000</r>
       <r>   2.9780  1.0000</r>
       <r>   2.9780  1.0000</r>
       <r>   2.9782  1.0000</r>
       <r>   2.9782  1.0000</r>
       <r>   2.9784  1.0000</r>
       <r>   2.9785  1.0000</r>
       <r>   2.9789  1.0000</r>
       <r>   2.9820  1.0000</r>
       <r>   2.9820  1.0000</r>
       <r>   2.9881  1.0000</r>
       <r>   7.2673  1.0000</r>
       <r>   7.2673  1.0000</r>
       <r>   7.2693  1.0000</r>
       <r>   7.2711  1.0000</r>
       <r>   7.2725  1.0000</r>
       <r>   7.2729  1.0000</r>
       <r>   7.2730  1.0000</r>
       <r>   7.2730  1.0000</r>
       <r>   7.2731  1.0000</r>
       <r>   7.2732  1.0000</r>
       <r>   7.2732  1.0000</r>
       <r>   7.2732  1.0000</r>
       <r>   7.2733  1.0000</r>
       <r>   7.2733  1.0000</r>
       <r>   7.2733  1.0000</r>
       <r>   7.2734  1.0000</r>
       <r>   7.2736  1.0000</r>
       <r>   7.2736  1.0000</r>
       <r>   7.2736  1.0000</r>
       <r>   7.2740  1.0000</r>
       <r>   7.2754  1.0000</r>
       <r>   7.2772  1.0000</r>
       <r>   7.2792  1.0000</r>
       <r>   7.2792  1.0000</r>
       <r>  11.4739  0.0000</r>
       <r>  11.4741  0.0000</r>
       <r>  11.4741  0.0000</r>
       <r>  11.4745  0.0000</r>
       <r>  11.4761  0.0000</r>
       <r>  11.4767  0.0000</r>
       <r>  11.4767  0.0000</r>
       <r>  11.4770  0.0000</r>
       <r>  11.6924  0.0000</r>
       <r>  11.6933  0.0000</r>
       <r>  11.6941  0.0000</r>
       <r>  11.6946  0.0000</r>
       <r>  11.6951  0.0000</r>
       <r>  11.6952  0.0000</r>
       <r>  11.6955  0.0000</r>
       <r>  11.6960  0.0000</r>
      </set>
     </set>
    </set>
   </array>
  </eigenvalues>
 </calculation>
 <structure name="finalpos" >
  <crystal>
   <varray name="basis" >
    <v>       8.07461274      0.00000000      0.00000000</v>
    <v>       0.00000000      8.07461274      0.00000000</v>
    <v>       0.00000000      0.00000000      8.07461274</v>
   </varray>
   <i name="volume">    526.45967079</i>
   <varray name="rec_basis" >
    <v>       0.12384495      0.00000000      0.00000000</v>
    <v>       0.00000000      0.12384495      0.00000000</v>
    <v>       0.00000000      0.00000000      0.12384495</v>
   </varray>
  </crystal>
  <varray name="positions" >
   <v>       0.25123845      0.25000000      0.00000000</v>
   <v>       0.75000000      0.25000000      0.00000000</v>
   <v>       0.25000000      0.75000000      0.00000000</v>
   <v>       0.75000000      0.75000000      0.00000000</v>
   <v>       0.25000000      0.25000000      0.50000000</v>
   <v>       0.75000000      0.25000000      0.50000000</v>
   <v>       0.25000000      0.75000000      0.50000000</v>
   <v>       0.75000000      0.75000000      0.50000000</v>
   <v>       0.25000000      0.00000000      0.25000000</v>
   <v>       0.75000000      0.00000000      0.25000000</v>
   <v>       0.25000000      0.50000000      0.25000000</v>
   <v>       0.75000000      0.50000000      0.25000000</v>
   <v>       0.25000000      0.00000000      0.75000000</v>
   <v>       0.75000000      0.00000000      0.75000000</v>
   <v>       0.25000000      0.50000000      0.75000000</v>
   <v>       0.75000000      0.50000000      0.75000000</v>
   <v>       0.00000000      0.25000000      0.25000000</v>
   <v>       0.50000000      0.25000000      0.25000000</v>
   <v>       0.00000000      0.75000000      0.25000000</v>
   <v>       0.50000000      0.75000000      0.25000000</v>
   <v>       0.00000000      0.25000000      0.75000000</v>
   <v>       0.50000000      0.25000000      0.75000000</v>
   <v>       0.00000000      0.75000000      0.75000000</v>
   <v>       0.50000000      0.75000000      0.75000000</v>
   <v>       0.00000000      0.00000000      0.00000000</v>
   <v>       0.50000000      0.00000000      0.00000000</v>
   <v>       0.00000000      0.50000000      0.00000000</v>
   <v>       0.50000000      0.50000000      0.00000000</v>
   <v>       0.00000000      0.00000000      0.50000000</v>
   <v>       0.50000000      0.00000000      0.50000000</v>
   <v>       0.00000000      0.50000000      0.50000000</v>
   <v>       0.50000000      0.50000000      0.50000000</v>
  </varray>
 </structure>
</modeling>
