  32  32   0   0
  0.1695037E+02  0.8155359E-09  0.8155359E-09  0.8155359E-09  0.5000000E-15
  1.000000000000000E-004
  CAR 
 unknown system                          
     13.56270964     -5.22751915  301      7.72849429      1.00000000
     -5.228  0.0000E+00  0.0000E+00
     -5.165  0.0000E+00  0.0000E+00
     -5.102  0.0000E+00  0.0000E+00
     -5.040  0.0000E+00  0.0000E+00
     -4.977  0.0000E+00  0.0000E+00
     -4.914  0.0000E+00  0.0000E+00
     -4.852 -0.3562E-29 -0.2231E-30
     -4.789 -0.5679E-27 -0.3579E-28
     -4.726 -0.6972E-25 -0.4403E-26
     -4.664 -0.7042E-23 -0.4455E-24
     -4.601 -0.5849E-21 -0.3708E-22
     -4.539 -0.3995E-19 -0.2539E-20
     -4.476 -0.2244E-17 -0.1431E-18
     -4.413 -0.1037E-15 -0.6636E-17
     -4.351 -0.3831E-14 -0.2466E-15
     -4.288 -0.1188E-12 -0.7690E-14
     -4.225 -0.3039E-11 -0.1980E-12
     -4.163 -0.6383E-10 -0.4196E-11
     -4.100 -0.1101E-08 -0.7314E-10
     -4.037 -0.1558E-07 -0.1049E-08
     -3.975 -0.1808E-06 -0.1237E-07
     -3.912 -0.1720E-05 -0.1201E-06
     -3.850 -0.1338E-04 -0.9582E-06
     -3.787 -0.8501E-04 -0.6283E-05
     -3.724 -0.4396E-03 -0.3382E-04
     -3.662 -0.1841E-02 -0.1491E-03
     -3.599 -0.6190E-02 -0.5368E-03
     -3.536 -0.1643E-01 -0.1566E-02
     -3.474 -0.3323E-01 -0.3647E-02
     -3.411 -0.4612E-01 -0.6536E-02
     -3.348 -0.2391E-01 -0.8033E-02
     -3.286  0.8148E-01 -0.2930E-02
     -3.223  0.3078E+00  0.1635E-01
     -3.161  0.6485E+00  0.5697E-01
     -3.098  0.1048E+01  0.1226E+00
     -3.035  0.1435E+01  0.2124E+00
     -2.973  0.1764E+01  0.3229E+00
     -2.910  0.2030E+01  0.4500E+00
     -2.847  0.2250E+01  0.5910E+00
     -2.785  0.2442E+01  0.7439E+00
     -2.722  0.2620E+01  0.9080E+00
     -2.660  0.2787E+01  0.1083E+01
     -2.597  0.2945E+01  0.1267E+01
     -2.534  0.3096E+01  0.1461E+01
     -2.472  0.3243E+01  0.1664E+01
     -2.409  0.3382E+01  0.1876E+01
     -2.346  0.3511E+01  0.2096E+01
     -2.284  0.3639E+01  0.2324E+01
     -2.221  0.3772E+01  0.2560E+01
     -2.158  0.3896E+01  0.2804E+01
     -2.096  0.4002E+01  0.3055E+01
     -2.033  0.4108E+01  0.3312E+01
     -1.971  0.4234E+01  0.3577E+01
     -1.908  0.4361E+01  0.3850E+01
     -1.845  0.4458E+01  0.4130E+01
     -1.783  0.4532E+01  0.4413E+01
     -1.720  0.4631E+01  0.4703E+01
     -1.657  0.4768E+01  0.5002E+01
     -1.595  0.4893E+01  0.5309E+01
     -1.532  0.4965E+01  0.5620E+01
     -1.469  0.5012E+01  0.5933E+01
     -1.407  0.5094E+01  0.6253E+01
     -1.344  0.5230E+01  0.6580E+01
     -1.282  0.5378E+01  0.6917E+01
     -1.219  0.5468E+01  0.7259E+01
     -1.156  0.5483E+01  0.7603E+01
     -1.094  0.5500E+01  0.7947E+01
     -1.031  0.5610E+01  0.8299E+01
     -0.968  0.5800E+01  0.8662E+01
     -0.906  0.5949E+01  0.9035E+01
     -0.843  0.5976E+01  0.9409E+01
     -0.780  0.5945E+01  0.9781E+01
     -0.718  0.5977E+01  0.1016E+02
     -0.655  0.6109E+01  0.1054E+02
     -0.593  0.6280E+01  0.1093E+02
     -0.530  0.6420E+01  0.1133E+02
     -0.467  0.6492E+01  0.1174E+02
     -0.405  0.6491E+01  0.1215E+02
     -0.342  0.6455E+01  0.1255E+02
     -0.279  0.6474E+01  0.1296E+02
     -0.217  0.6626E+01  0.1337E+02
     -0.154  0.6867E+01  0.1380E+02
     -0.092  0.7050E+01  0.1424E+02
     -0.029  0.7057E+01  0.1469E+02
      0.034  0.6930E+01  0.1512E+02
      0.096  0.6847E+01  0.1555E+02
      0.159  0.6954E+01  0.1598E+02
      0.222  0.7212E+01  0.1644E+02
      0.284  0.7445E+01  0.1690E+02
      0.347  0.7521E+01  0.1737E+02
      0.410  0.7477E+01  0.1784E+02
      0.472  0.7437E+01  0.1831E+02
      0.535  0.7454E+01  0.1877E+02
      0.597  0.7494E+01  0.1924E+02
      0.660  0.7557E+01  0.1972E+02
      0.723  0.7705E+01  0.2020E+02
      0.785  0.7942E+01  0.2070E+02
      0.848  0.8143E+01  0.2121E+02
      0.911  0.8163E+01  0.2172E+02
      0.973  0.7995E+01  0.2222E+02
      1.036  0.7808E+01  0.2271E+02
      1.099  0.7806E+01  0.2320E+02
      1.161  0.8055E+01  0.2370E+02
      1.224  0.8417E+01  0.2423E+02
      1.286  0.8663E+01  0.2477E+02
      1.349  0.8675E+01  0.2531E+02
      1.412  0.8522E+01  0.2585E+02
      1.474  0.8364E+01  0.2637E+02
      1.537  0.8327E+01  0.2689E+02
      1.600  0.8451E+01  0.2742E+02
      1.662  0.8671E+01  0.2797E+02
      1.725  0.8860E+01  0.2852E+02
      1.787  0.8945E+01  0.2908E+02
      1.850  0.8990E+01  0.2964E+02
      1.913  0.9083E+01  0.3021E+02
      1.975  0.9177E+01  0.3079E+02
      2.038  0.9141E+01  0.3136E+02
      2.101  0.8970E+01  0.3192E+02
      2.163  0.8829E+01  0.3248E+02
      2.226  0.8908E+01  0.3303E+02
      2.289  0.9252E+01  0.3361E+02
      2.351  0.9701E+01  0.3422E+02
      2.414  0.9969E+01  0.3484E+02
      2.476  0.9877E+01  0.3546E+02
      2.539  0.9534E+01  0.3606E+02
      2.602  0.9250E+01  0.3664E+02
      2.664  0.9238E+01  0.3722E+02
      2.727  0.9471E+01  0.3781E+02
      2.790  0.9793E+01  0.3843E+02
      2.852  0.1007E+02  0.3906E+02
      2.915  0.1023E+02  0.3970E+02
      2.978  0.1023E+02  0.4034E+02
      3.040  0.1014E+02  0.4097E+02
      3.103  0.1008E+02  0.4160E+02
      3.165  0.1012E+02  0.4224E+02
      3.228  0.1018E+02  0.4288E+02
      3.291  0.1019E+02  0.4351E+02
      3.353  0.1016E+02  0.4415E+02
      3.416  0.1020E+02  0.4479E+02
      3.479  0.1035E+02  0.4544E+02
      3.541  0.1057E+02  0.4610E+02
      3.604  0.1079E+02  0.4677E+02
      3.667  0.1094E+02  0.4746E+02
      3.729  0.1094E+02  0.4814E+02
      3.792  0.1073E+02  0.4882E+02
      3.854  0.1040E+02  0.4947E+02
      3.917  0.1022E+02  0.5011E+02
      3.980  0.1044E+02  0.5076E+02
      4.042  0.1100E+02  0.5145E+02
      4.105  0.1156E+02  0.5218E+02
      4.168  0.1179E+02  0.5291E+02
      4.230  0.1162E+02  0.5364E+02
      4.293  0.1124E+02  0.5435E+02
      4.355  0.1089E+02  0.5503E+02
      4.418  0.1081E+02  0.5570E+02
      4.481  0.1111E+02  0.5640E+02
      4.543  0.1167E+02  0.5713E+02
      4.606  0.1217E+02  0.5789E+02
      4.669  0.1228E+02  0.5866E+02
      4.731  0.1203E+02  0.5942E+02
      4.794  0.1181E+02  0.6016E+02
      4.857  0.1198E+02  0.6091E+02
      4.919  0.1246E+02  0.6169E+02
      4.982  0.1284E+02  0.6249E+02
      5.044  0.1281E+02  0.6329E+02
      5.107  0.1249E+02  0.6408E+02
      5.170  0.1225E+02  0.6484E+02
      5.232  0.1222E+02  0.6561E+02
      5.295  0.1222E+02  0.6637E+02
      5.358  0.1207E+02  0.6713E+02
      5.420  0.1188E+02  0.6787E+02
      5.483  0.1185E+02  0.6862E+02
      5.546  0.1191E+02  0.6936E+02
      5.608  0.1192E+02  0.7011E+02
      5.671  0.1183E+02  0.7085E+02
      5.733  0.1168E+02  0.7158E+02
      5.796  0.1145E+02  0.7230E+02
      5.859  0.1114E+02  0.7300E+02
      5.921  0.1094E+02  0.7368E+02
      5.984  0.1108E+02  0.7438E+02
      6.047  0.1150E+02  0.7510E+02
      6.109  0.1182E+02  0.7584E+02
      6.172  0.1179E+02  0.7658E+02
      6.235  0.1149E+02  0.7730E+02
      6.297  0.1125E+02  0.7800E+02
      6.360  0.1130E+02  0.7871E+02
      6.422  0.1168E+02  0.7944E+02
      6.485  0.1223E+02  0.8021E+02
      6.548  0.1274E+02  0.8100E+02
      6.610  0.1305E+02  0.8182E+02
      6.673  0.1303E+02  0.8264E+02
      6.736  0.1270E+02  0.8343E+02
      6.798  0.1232E+02  0.8420E+02
      6.861  0.1219E+02  0.8497E+02
      6.923  0.1237E+02  0.8574E+02
      6.986  0.1262E+02  0.8653E+02
      7.049  0.1274E+02  0.8733E+02
      7.111  0.1274E+02  0.8813E+02
      7.174  0.1271E+02  0.8892E+02
      7.237  0.1269E+02  0.8972E+02
      7.299  0.1263E+02  0.9051E+02
      7.362  0.1255E+02  0.9130E+02
      7.425  0.1251E+02  0.9208E+02
      7.487  0.1256E+02  0.9287E+02
      7.550  0.1271E+02  0.9366E+02
      7.612  0.1292E+02  0.9447E+02
      7.675  0.1313E+02  0.9529E+02
      7.738  0.1324E+02  0.9612E+02
      7.800  0.1325E+02  0.9695E+02
      7.863  0.1320E+02  0.9778E+02
      7.926  0.1315E+02  0.9860E+02
      7.988  0.1321E+02  0.9943E+02
      8.051  0.1346E+02  0.1003E+03
      8.114  0.1394E+02  0.1011E+03
      8.176  0.1450E+02  0.1021E+03
      8.239  0.1479E+02  0.1030E+03
      8.301  0.1452E+02  0.1039E+03
      8.364  0.1369E+02  0.1047E+03
      8.427  0.1267E+02  0.1055E+03
      8.489  0.1199E+02  0.1063E+03
      8.552  0.1204E+02  0.1070E+03
      8.615  0.1289E+02  0.1079E+03
      8.677  0.1414E+02  0.1087E+03
      8.740  0.1520E+02  0.1097E+03
      8.803  0.1557E+02  0.1107E+03
      8.865  0.1520E+02  0.1116E+03
      8.928  0.1438E+02  0.1125E+03
      8.990  0.1350E+02  0.1134E+03
      9.053  0.1291E+02  0.1142E+03
      9.116  0.1285E+02  0.1150E+03
      9.178  0.1329E+02  0.1158E+03
      9.241  0.1396E+02  0.1167E+03
      9.304  0.1450E+02  0.1176E+03
      9.366  0.1478E+02  0.1185E+03
      9.429  0.1485E+02  0.1194E+03
      9.491  0.1478E+02  0.1204E+03
      9.554  0.1458E+02  0.1213E+03
      9.617  0.1442E+02  0.1222E+03
      9.679  0.1449E+02  0.1231E+03
      9.742  0.1475E+02  0.1240E+03
      9.805  0.1492E+02  0.1250E+03
      9.867  0.1478E+02  0.1259E+03
      9.930  0.1445E+02  0.1268E+03
      9.993  0.1423E+02  0.1277E+03
     10.055  0.1424E+02  0.1286E+03
     10.118  0.1436E+02  0.1295E+03
     10.180  0.1448E+02  0.1304E+03
     10.243  0.1466E+02  0.1313E+03
     10.306  0.1498E+02  0.1322E+03
     10.368  0.1532E+02  0.1332E+03
     10.431  0.1533E+02  0.1342E+03
     10.494  0.1487E+02  0.1351E+03
     10.556  0.1419E+02  0.1360E+03
     10.619  0.1370E+02  0.1368E+03
     10.682  0.1352E+02  0.1377E+03
     10.744  0.1345E+02  0.1385E+03
     10.807  0.1325E+02  0.1394E+03
     10.869  0.1278E+02  0.1402E+03
     10.932  0.1194E+02  0.1409E+03
     10.995  0.1069E+02  0.1416E+03
     11.057  0.9201E+01  0.1421E+03
     11.120  0.7748E+01  0.1426E+03
     11.183  0.6479E+01  0.1430E+03
     11.245  0.5306E+01  0.1434E+03
     11.308  0.4089E+01  0.1436E+03
     11.371  0.2838E+01  0.1438E+03
     11.433  0.1717E+01  0.1439E+03
     11.496  0.8948E+00  0.1440E+03
     11.558  0.4085E+00  0.1440E+03
     11.621  0.1664E+00  0.1440E+03
     11.684  0.5103E-01  0.1440E+03
     11.746 -0.6319E-02  0.1440E+03
     11.809 -0.2881E-01  0.1440E+03
     11.872 -0.2805E-01  0.1440E+03
     11.934 -0.1770E-01  0.1440E+03
     11.997 -0.8221E-02  0.1440E+03
     12.059 -0.2933E-02  0.1440E+03
     12.122 -0.8218E-03  0.1440E+03
     12.185 -0.1831E-03  0.1440E+03
     12.247 -0.3269E-04  0.1440E+03
     12.310 -0.4706E-05  0.1440E+03
     12.373 -0.5483E-06  0.1440E+03
     12.435 -0.5188E-07  0.1440E+03
     12.498 -0.3994E-08  0.1440E+03
     12.561 -0.2506E-09  0.1440E+03
     12.623 -0.1284E-10  0.1440E+03
     12.686 -0.5376E-12  0.1440E+03
     12.748 -0.1832E-13  0.1440E+03
     12.811 -0.5826E-15  0.1440E+03
     12.874  0.0000E+00  0.1440E+03
     12.936  0.0000E+00  0.1440E+03
     12.999  0.0000E+00  0.1440E+03
     13.062  0.0000E+00  0.1440E+03
     13.124  0.0000E+00  0.1440E+03
     13.187  0.0000E+00  0.1440E+03
     13.250  0.0000E+00  0.1440E+03
     13.312  0.0000E+00  0.1440E+03
     13.375  0.0000E+00  0.1440E+03
     13.437  0.0000E+00  0.1440E+03
     13.500  0.0000E+00  0.1440E+03
     13.563  0.0000E+00  0.1440E+03
