   32   32    1    1
  0.1695037E+02  0.8155359E-09  0.8155359E-09  0.8155359E-09  0.5000000E-15
  1.000000000000000E-004
  CAR 
 unknown system                          
   96  196   72
 
  0.0000000E+00  0.0000000E+00  0.0000000E+00  0.5787037E-03
   1       -3.2275
   2       -1.0221
   3       -1.0184
   4       -1.0184
   5       -1.0184
   6       -1.0184
   7       -1.0147
   8        1.1517
   9        1.1562
  10        1.1562
  11        1.1578
  12        1.1579
  13        1.1579
  14        1.1579
  15        1.1579
  16        1.1581
  17        1.1597
  18        1.1597
  19        1.1642
  20        3.2361
  21        3.2362
  22        3.2362
  23        3.2362
  24        3.3781
  25        3.3781
  26        3.3781
  27        3.3781
  28        4.8634
  29        4.8634
  30        4.8634
  31        6.1246
  32        6.1246
  33        6.1246
  34        6.9058
  35        6.9058
  36        6.9101
  37        6.9101
  38        6.9102
  39        6.9102
  40        6.9102
  41        6.9103
  42        6.9104
  43        6.9104
  44        6.9146
  45        6.9146
  46        7.9345
  47        7.9386
  48        7.9386
  49        7.9386
  50        7.9386
  51        7.9427
  52        8.6799
  53        8.6809
  54        8.6809
  55        8.6809
  56        8.6809
  57        8.6819
  58        8.9581
  59        8.9581
  60        8.9598
  61        8.9620
  62        8.9622
  63        8.9622
  64        8.9622
  65        8.9622
  66        8.9623
  67        8.9645
  68        8.9662
  69        8.9662
  70       10.3922
  71       10.3931
  72       10.3938
 
  0.8333333E-01  0.0000000E+00  0.0000000E+00  0.1157407E-02
   1       -3.2121
   2       -1.3689
   3       -1.0032
   4       -1.0031
   5       -1.0031
   6       -1.0031
   7       -0.6384
   8        0.8125
   9        0.8125
  10        0.8125
  11        0.8126
  12        1.1729
  13        1.1730
  14        1.1730
  15        1.1730
  16        1.5324
  17        1.5324
  18        1.5324
  19        1.5324
  20        2.9589
  21        2.9589
  22        2.9589
  23        2.9589
  24        3.6840
  25        3.6840
  26        3.6840
  27        3.6841
  28        4.5591
  29        4.8776
  30        4.8776
  31        6.1396
  32        6.1396
  33        6.4558
  34        6.5828
  35        6.5828
  36        6.6214
  37        6.6215
  38        6.6215
  39        6.6215
  40        6.9245
  41        6.9245
  42        6.9245
  43        6.9245
  44        7.2663
  45        7.2663
  46        7.8108
  47        7.8109
  48        8.1040
  49        8.1040
  50        8.1040
  51        8.1040
  52        8.6341
  53        8.6341
  54        8.6341
  55        8.6342
  56        8.6955
  57        8.6955
  58        8.6955
  59        8.6955
  60        8.8353
  61        8.8353
  62        8.8455
  63        8.8455
  64        8.8455
  65        8.8455
  66        9.3188
  67        9.3188
  68        9.3188
  69        9.3188
  70       10.0641
  71       10.0641
  72       10.0641
 
  0.1666667E+00  0.0000000E+00  0.0000000E+00  0.1157407E-02
   1       -3.1657
   2       -1.6898
   3       -0.9575
   4       -0.9575
   5       -0.9575
   6       -0.9575
   7       -0.2292
   8        0.4964
   9        0.4964
  10        0.4964
  11        0.4964
  12        1.2180
  13        1.2180
  14        1.2180
  15        1.2180
  16        1.9355
  17        1.9355
  18        1.9355
  19        1.9355
  20        2.6502
  21        2.6502
  22        2.6502
  23        2.6503
  24        3.9973
  25        4.0789
  26        4.0789
  27        4.0789
  28        4.0789
  29        4.9202
  30        4.9202
  31        6.0813
  32        6.0813
  33        6.0813
  34        6.0813
  35        6.1848
  36        6.1848
  37        6.2840
  38        6.2840
  39        6.9672
  40        6.9672
  41        6.9672
  42        6.9672
  43        7.0983
  44        7.5661
  45        7.5661
  46        7.6510
  47        7.6510
  48        8.1723
  49        8.1723
  50        8.1723
  51        8.1724
  52        8.2765
  53        8.2765
  54        8.2766
  55        8.2766
  56        8.3348
  57        8.3348
  58        8.3348
  59        8.3348
  60        9.1599
  61        9.1599
  62        9.3361
  63        9.3361
  64        9.3361
  65        9.3361
  66        9.7039
  67        9.7039
  68        9.7040
  69        9.7046
  70        9.7613
  71        9.7614
  72        9.7614
 
  0.2500000E+00  0.0000000E+00  0.0000000E+00  0.1157407E-02
   1       -3.0885
   2       -1.9807
   3       -0.8814
   4       -0.8814
   5       -0.8814
   6       -0.8814
   7        0.2067
   8        0.2098
   9        0.2098
  10        0.2098
  11        0.2119
  12        1.2930
  13        1.2930
  14        1.2930
  15        1.2930
  16        2.3644
  17        2.3662
  18        2.3662
  19        2.3670
  20        2.3684
  21        2.3692
  22        2.3692
  23        2.3711
  24        3.3994
  25        4.5042
  26        4.5042
  27        4.5042
  28        4.5042
  29        4.9911
  30        4.9911
  31        5.5003
  32        5.5003
  33        5.5003
  34        5.5003
  35        6.0138
  36        6.0138
  37        6.2598
  38        6.2598
  39        7.0383
  40        7.0383
  41        7.0383
  42        7.0383
  43        7.3103
  44        7.3103
  45        7.6006
  46        7.6006
  47        7.6006
  48        7.6007
  49        7.8306
  50        8.0619
  51        8.0619
  52        8.0639
  53        8.0639
  54        8.0665
  55        8.0665
  56        8.3951
  57        8.3951
  58        8.3951
  59        8.3951
  60        9.4855
  61        9.4856
  62        9.4856
  63        9.4856
  64        9.5481
  65        9.5481
  66       10.0034
  67       10.0034
  68       10.0034
  69       10.0034
  70       10.1178
  71       10.1178
  72       10.1178
 
  0.3333333E+00  0.0000000E+00  0.0000000E+00  0.1157407E-02
   1       -2.9804
   2       -2.2415
   3       -0.7750
   4       -0.7750
   5       -0.7750
   6       -0.7750
   7       -0.0471
   8       -0.0471
   9       -0.0471
  10       -0.0471
  11        0.6752
  12        1.3979
  13        1.3979
  14        1.3979
  15        1.3979
  16        2.1154
  17        2.1154
  18        2.1154
  19        2.1154
  20        2.8090
  21        2.8263
  22        2.8263
  23        2.8263
  24        2.8264
  25        4.9233
  26        4.9233
  27        4.9233
  28        4.9233
  29        4.9577
  30        4.9577
  31        4.9577
  32        4.9577
  33        5.0905
  34        5.0905
  35        5.7722
  36        5.7722
  37        6.3646
  38        6.3646
  39        7.0306
  40        7.0306
  41        7.0306
  42        7.0307
  43        7.0699
  44        7.0700
  45        7.1380
  46        7.1380
  47        7.1380
  48        7.1380
  49        7.8217
  50        7.8217
  51        7.8217
  52        7.8217
  53        8.5066
  54        8.5066
  55        8.5160
  56        8.5160
  57        8.5161
  58        8.5161
  59        8.6090
  60        9.2372
  61        9.2372
  62        9.2372
  63        9.2372
  64        9.9721
  65        9.9721
  66       10.5596
  67       10.5597
  68       10.5602
  69       10.5602
  70       10.5633
  71       10.5634
  72       10.7454
 
  0.4166667E+00  0.0000000E+00  0.0000000E+00  0.1157407E-02
   1       -2.8416
   2       -2.4720
   3       -0.6383
   4       -0.6382
   5       -0.6382
   6       -0.6382
   7       -0.2742
   8       -0.2742
   9       -0.2742
  10       -0.2742
  11        1.1694
  12        1.5327
  13        1.5327
  14        1.5327
  15        1.5327
  16        1.8916
  17        1.8916
  18        1.8916
  19        1.8916
  20        2.2380
  21        3.3129
  22        3.3129
  23        3.3129
  24        3.3129
  25        4.3634
  26        4.3634
  27        4.3634
  28        4.3634
  29        5.2182
  30        5.2182
  31        5.4384
  32        5.4384
  33        5.4385
  34        5.4385
  35        5.5591
  36        5.5591
  37        6.4769
  38        6.4771
  39        6.4771
  40        6.4771
  41        6.4988
  42        6.4989
  43        6.8526
  44        6.8526
  45        7.2661
  46        7.2661
  47        7.2662
  48        7.2662
  49        7.6080
  50        7.6080
  51        7.6080
  52        7.6080
  53        8.6570
  54        8.6570
  55        8.6570
  56        8.6570
  57        8.9776
  58        8.9776
  59        9.0164
  60        9.0165
  61        9.0165
  62        9.0165
  63        9.4217
  64       10.0057
  65       10.0057
  66       10.4223
  67       10.4223
  68       11.0312
  69       11.0312
  70       11.0312
  71       11.0312
  72       11.1337
 
  0.5000000E+00  0.0000000E+00  0.0000000E+00  0.5787037E-03
   1       -2.6735
   2       -2.6707
   3       -0.4752
   4       -0.4721
   5       -0.4721
   6       -0.4714
   7       -0.4712
   8       -0.4705
   9       -0.4705
  10       -0.4674
  11        1.6886
  12        1.6909
  13        1.6957
  14        1.6961
  15        1.6961
  16        1.6969
  17        1.6977
  18        1.6985
  19        1.6985
  20        1.7010
  21        3.8248
  22        3.8249
  23        3.8249
  24        3.8255
  25        3.8258
  26        3.8265
  27        3.8265
  28        3.8267
  29        5.3729
  30        5.3729
  31        5.3759
  32        5.3759
  33        5.9444
  34        5.9444
  35        5.9449
  36        5.9452
  37        5.9457
  38        5.9459
  39        5.9465
  40        5.9465
  41        6.6599
  42        6.6609
  43        6.6626
  44        6.6636
  45        7.4205
  46        7.4205
  47        7.4215
  48        7.4228
  49        7.4229
  50        7.4242
  51        7.4251
  52        7.4251
  53        8.8210
  54        8.8221
  55        8.8221
  56        8.8222
  57        8.8243
  58        8.8244
  59        8.8244
  60        8.8254
  61        9.4761
  62        9.4761
  63        9.4784
  64        9.4784
  65       10.2633
  66       10.2647
  67       10.8912
  68       10.8917
  69       10.8930
  70       10.8935
  71       11.5299
  72       11.5313
 
  0.0000000E+00  0.8333333E-01  0.0000000E+00  0.2314815E-02
   1       -3.2121
   2       -1.3689
   3       -1.0060
   4       -1.0031
   5       -1.0031
   6       -1.0003
   7       -0.6384
   8        0.8097
   9        0.8125
  10        0.8126
  11        0.8154
  12        1.1708
  13        1.1719
  14        1.1741
  15        1.1751
  16        1.5295
  17        1.5324
  18        1.5324
  19        1.5352
  20        2.9568
  21        2.9578
  22        2.9600
  23        2.9611
  24        3.6819
  25        3.6829
  26        3.6851
  27        3.6862
  28        4.5591
  29        4.8776
  30        4.8776
  31        6.1396
  32        6.1396
  33        6.4558
  34        6.5827
  35        6.5828
  36        6.6184
  37        6.6214
  38        6.6214
  39        6.6246
  40        6.9218
  41        6.9245
  42        6.9245
  43        6.9271
  44        7.2663
  45        7.2663
  46        7.8108
  47        7.8109
  48        8.1013
  49        8.1040
  50        8.1040
  51        8.1067
  52        8.6314
  53        8.6341
  54        8.6342
  55        8.6368
  56        8.6928
  57        8.6944
  58        8.6966
  59        8.6982
  60        8.8353
  61        8.8354
  62        8.8444
  63        8.8454
  64        8.8455
  65        8.8466
  66        9.3160
  67        9.3188
  68        9.3188
  69        9.3215
  70       10.0636
  71       10.0641
  72       10.0659
 
  0.8333333E-01  0.8333333E-01  0.0000000E+00  0.4629630E-02
   1       -3.1966
   2       -1.3548
   3       -1.3525
   4       -0.9879
   5       -0.9879
   6       -0.6244
   7       -0.6220
   8        0.4663
   9        0.8259
  10        0.8269
  11        0.8283
  12        0.8292
  13        1.1873
  14        1.1884
  15        1.5457
  16        1.5466
  17        1.5480
  18        1.5490
  19        1.9058
  20        2.6207
  21        2.6207
  22        3.2648
  23        3.2648
  24        3.4084
  25        3.4084
  26        4.0496
  27        4.0496
  28        4.5731
  29        4.5738
  30        4.8918
  31        6.1547
  32        6.2933
  33        6.2956
  34        6.4703
  35        6.4711
  36        6.5887
  37        6.5889
  38        6.5958
  39        6.5984
  40        6.6888
  41        6.6888
  42        6.9714
  43        6.9730
  44        7.2792
  45        7.2818
  46        7.8941
  47        7.8962
  48        8.0835
  49        8.0860
  50        8.3061
  51        8.3177
  52        8.3178
  53        8.3647
  54        8.3656
  55        8.3670
  56        8.3680
  57        8.8907
  58        8.8914
  59        8.9553
  60        8.9553
  61        8.9898
  62        8.9917
  63        9.0518
  64        9.0528
  65        9.0532
  66        9.0542
  67        9.0854
  68        9.0871
  69        9.6754
  70        9.7337
  71       10.3579
  72       10.3612
 
  0.1666667E+00  0.8333333E-01  0.0000000E+00  0.4629630E-02
   1       -3.1503
   2       -1.6745
   3       -1.3079
   4       -0.9423
   5       -0.9423
   6       -0.5777
   7       -0.2141
   8        0.1495
   9        0.5115
  10        0.5115
  11        0.8720
  12        0.8727
  13        0.8733
  14        1.5914
  15        1.5922
  16        1.5928
  17        1.9504
  18        1.9505
  19        2.3077
  20        2.3091
  21        2.3093
  22        3.0178
  23        3.0178
  24        3.7431
  25        3.7431
  26        4.0119
  27        4.4459
  28        4.4459
  29        4.6166
  30        4.9344
  31        5.7515
  32        5.9945
  33        6.0919
  34        6.0919
  35        6.1998
  36        6.2983
  37        6.4364
  38        6.5152
  39        6.6397
  40        6.6919
  41        6.6919
  42        7.1129
  43        7.3174
  44        7.3232
  45        7.6653
  46        7.6658
  47        7.8416
  48        7.8416
  49        7.8710
  50        7.9870
  51        8.0069
  52        8.0656
  53        8.0656
  54        8.4934
  55        8.5313
  56        8.5313
  57        8.5571
  58        8.5572
  59        8.6913
  60        9.1486
  61        9.1858
  62        9.3748
  63        9.3756
  64        9.3768
  65        9.4298
  66        9.4347
  67        9.4388
  68        9.4389
  69        9.6528
  70       10.0560
  71       10.0564
  72       10.0610
 
  0.2500000E+00  0.8333333E-01  0.0000000E+00  0.4629630E-02
   1       -3.0730
   2       -1.9654
   3       -1.2316
   4       -0.8662
   5       -0.8662
   6       -0.5018
   7       -0.1378
   8        0.2225
   9        0.2249
  10        0.2263
  11        0.5867
  12        0.9479
  13        0.9479
  14        1.6670
  15        1.6671
  16        2.0233
  17        2.0261
  18        2.0273
  19        2.3819
  20        2.3819
  21        2.7367
  22        2.7390
  23        2.7404
  24        3.4141
  25        4.1668
  26        4.1668
  27        4.6885
  28        4.8708
  29        4.8708
  30        5.0053
  31        5.1675
  32        5.5137
  33        5.5137
  34        5.7225
  35        5.8599
  36        6.0281
  37        6.2748
  38        6.5892
  39        6.7109
  40        6.7617
  41        6.7617
  42        7.2685
  43        7.2685
  44        7.3036
  45        7.3945
  46        7.6240
  47        7.7361
  48        7.7933
  49        7.7934
  50        7.8299
  51        7.8450
  52        7.9610
  53        7.9611
  54        8.0786
  55        8.0787
  56        8.4204
  57        8.6924
  58        8.6924
  59        8.7147
  60        9.1534
  61        9.5668
  62        9.7166
  63        9.7820
  64        9.7820
  65        9.7899
  66        9.8300
  67        9.8437
  68        9.8527
  69        9.8529
  70       10.0246
  71       10.0246
  72       10.3418
 
  0.3333333E+00  0.8333333E-01  0.0000000E+00  0.4629630E-02
   1       -2.9650
   2       -2.2261
   3       -1.1249
   4       -0.7598
   5       -0.7598
   6       -0.3961
   7       -0.3949
   8       -0.0320
   9       -0.0320
  10        0.3304
  11        0.6902
  12        1.0531
  13        1.0531
  14        1.7712
  15        1.7715
  16        1.7725
  17        1.7728
  18        2.4848
  19        2.4871
  20        2.4872
  21        2.8238
  22        2.8411
  23        2.8412
  24        3.1963
  25        4.5881
  26        4.6206
  27        4.6206
  28        4.7893
  29        4.9374
  30        4.9374
  31        5.1047
  32        5.2860
  33        5.3236
  34        5.3236
  35        5.4788
  36        5.7864
  37        6.3794
  38        6.6925
  39        6.6973
  40        6.6973
  41        6.8105
  42        6.8617
  43        6.8617
  44        7.0795
  45        7.3876
  46        7.3923
  47        7.3927
  48        7.4932
  49        7.4949
  50        7.5497
  51        7.5497
  52        8.1781
  53        8.1898
  54        8.2526
  55        8.5209
  56        8.6233
  57        8.8167
  58        8.8167
  59        8.8616
  60        8.9045
  61        9.5351
  62        9.5351
  63        9.5958
  64        9.9885
  65       10.2322
  66       10.2565
  67       10.2894
  68       10.2946
  69       10.2948
  70       10.4359
  71       10.5771
  72       10.7622
 
  0.4166667E+00  0.8333333E-01  0.0000000E+00  0.4629630E-02
   1       -2.8262
   2       -2.4566
   3       -0.9879
   4       -0.6244
   5       -0.6231
   6       -0.6217
   7       -0.2605
   8       -0.2591
   9       -0.2578
  10        0.1039
  11        1.1840
  12        1.1882
  13        1.1886
  14        1.5479
  15        1.5479
  16        1.9062
  17        1.9062
  18        2.2527
  19        2.2640
  20        2.2642
  21        2.9727
  22        3.3276
  23        3.3276
  24        3.6815
  25        4.0263
  26        4.3778
  27        4.3778
  28        4.7284
  29        4.9186
  30        5.1021
  31        5.1021
  32        5.2324
  33        5.2635
  34        5.5733
  35        5.8035
  36        5.8035
  37        6.1426
  38        6.1426
  39        6.5133
  40        6.8247
  41        6.8399
  42        6.8400
  43        6.8656
  44        6.9386
  45        6.9906
  46        6.9906
  47        7.1739
  48        7.2803
  49        7.3347
  50        7.3347
  51        7.6224
  52        7.9643
  53        8.3267
  54        8.6837
  55        8.7183
  56        8.9579
  57        8.9579
  58        8.9919
  59        9.0110
  60        9.3157
  61        9.3157
  62        9.3749
  63        9.4357
  64        9.7390
  65       10.0200
  66       10.4377
  67       10.7033
  68       10.7078
  69       10.7641
  70       10.7641
  71       11.1469
  72       11.2157
 
  0.5000000E+00  0.8333333E-01  0.0000000E+00  0.2314815E-02
   1       -2.6580
   2       -2.6553
   3       -0.8219
   4       -0.8191
   5       -0.4581
   6       -0.4569
   7       -0.4553
   8       -0.4541
   9       -0.0941
  10       -0.0913
  11        1.3512
  12        1.3523
  13        1.3540
  14        1.3551
  15        1.7050
  16        1.7064
  17        2.0683
  18        2.0695
  19        2.0712
  20        2.0724
  21        3.4863
  22        3.4876
  23        3.8395
  24        3.8398
  25        3.8409
  26        3.8411
  27        4.1920
  28        4.1934
  29        5.0753
  30        5.0782
  31        5.3871
  32        5.3901
  33        5.6092
  34        5.6093
  35        5.6106
  36        5.6107
  37        6.3086
  38        6.3087
  39        6.3100
  40        6.3102
  41        6.6744
  42        6.6771
  43        6.9842
  44        6.9870
  45        7.0937
  46        7.0967
  47        7.1461
  48        7.1475
  49        7.1491
  50        7.1505
  51        7.7776
  52        7.7806
  53        8.4898
  54        8.4925
  55        9.1218
  56        9.1224
  57        9.1246
  58        9.1253
  59        9.1790
  60        9.1819
  61        9.2137
  62        9.2157
  63        9.4904
  64        9.4927
  65       10.2770
  66       10.2784
  67       10.9068
  68       10.9073
  69       11.1792
  70       11.1801
  71       11.2028
  72       11.2069
 
  0.0000000E+00  0.1666667E+00  0.0000000E+00  0.2314815E-02
   1       -3.1657
   2       -1.6898
   3       -0.9603
   4       -0.9575
   5       -0.9575
   6       -0.9547
   7       -0.2292
   8        0.4936
   9        0.4964
  10        0.4964
  11        0.4993
  12        1.2158
  13        1.2169
  14        1.2191
  15        1.2201
  16        1.9327
  17        1.9355
  18        1.9355
  19        1.9384
  20        2.6481
  21        2.6491
  22        2.6514
  23        2.6524
  24        3.9973
  25        4.0768
  26        4.0778
  27        4.0800
  28        4.0811
  29        4.9202
  30        4.9202
  31        6.0782
  32        6.0813
  33        6.0813
  34        6.0843
  35        6.1847
  36        6.1848
  37        6.2840
  38        6.2841
  39        6.9645
  40        6.9672
  41        6.9672
  42        6.9698
  43        7.0983
  44        7.5661
  45        7.5661
  46        7.6510
  47        7.6510
  48        8.1699
  49        8.1712
  50        8.1734
  51        8.1748
  52        8.2741
  53        8.2766
  54        8.2766
  55        8.2789
  56        8.3321
  57        8.3348
  58        8.3348
  59        8.3375
  60        9.1599
  61        9.1599
  62        9.3342
  63        9.3361
  64        9.3361
  65        9.3381
  66        9.7012
  67        9.7040
  68        9.7040
  69        9.7067
  70        9.7593
  71        9.7614
  72        9.7630
 
  0.8333333E-01  0.1666667E+00  0.0000000E+00  0.4629630E-02
   1       -3.1503
   2       -1.6745
   3       -1.3079
   4       -0.9423
   5       -0.9423
   6       -0.5776
   7       -0.2141
   8        0.1495
   9        0.5115
  10        0.5115
  11        0.8712
  12        0.8727
  13        0.8740
  14        1.5907
  15        1.5922
  16        1.5935
  17        1.9504
  18        1.9504
  19        2.3077
  20        2.3091
  21        2.3092
  22        3.0178
  23        3.0178
  24        3.7431
  25        3.7431
  26        4.0119
  27        4.4459
  28        4.4459
  29        4.6166
  30        4.9344
  31        5.7515
  32        5.9945
  33        6.0919
  34        6.0919
  35        6.1998
  36        6.2983
  37        6.4364
  38        6.5152
  39        6.6397
  40        6.6919
  41        6.6919
  42        7.1129
  43        7.3174
  44        7.3232
  45        7.6653
  46        7.6658
  47        7.8416
  48        7.8416
  49        7.8709
  50        7.9870
  51        8.0068
  52        8.0656
  53        8.0656
  54        8.4934
  55        8.5314
  56        8.5314
  57        8.5570
  58        8.5571
  59        8.6913
  60        9.1486
  61        9.1858
  62        9.3748
  63        9.3756
  64        9.3767
  65        9.4299
  66        9.4345
  67        9.4388
  68        9.4391
  69        9.6528
  70       10.0563
  71       10.0563
  72       10.0606
 
  0.1666667E+00  0.1666667E+00  0.0000000E+00  0.4629630E-02
   1       -3.1039
   2       -1.6298
   3       -1.6274
   4       -0.8966
   5       -0.8966
   6       -0.1703
   7       -0.1684
   8       -0.1666
   9        0.5551
  10        0.5560
  11        0.5574
  12        0.5584
  13        1.2770
  14        1.2780
  15        1.9930
  16        1.9942
  17        1.9955
  18        1.9957
  19        1.9970
  20        1.9981
  21        2.7088
  22        3.3508
  23        3.3508
  24        3.4992
  25        3.4992
  26        4.0551
  27        4.0561
  28        4.8418
  29        4.8418
  30        4.9769
  31        5.4477
  32        5.4501
  33        6.0582
  34        6.0582
  35        6.2335
  36        6.2335
  37        6.2448
  38        6.3396
  39        6.3422
  40        6.8088
  41        6.8105
  42        7.1562
  43        7.1572
  44        7.5375
  45        7.5385
  46        7.5399
  47        7.5409
  48        7.7056
  49        7.7079
  50        7.7097
  51        7.7101
  52        7.7113
  53        8.4425
  54        8.4448
  55        8.9172
  56        8.9183
  57        8.9185
  58        8.9195
  59        9.0214
  60        9.0214
  61        9.0755
  62        9.0774
  63        9.1253
  64        9.2818
  65        9.2825
  66        9.5690
  67        9.5690
  68       10.0187
  69       10.0209
  70       10.4457
  71       10.5010
  72       10.5012
 
  0.2500000E+00  0.1666667E+00  0.0000000E+00  0.4629630E-02
   1       -3.0267
   2       -1.9194
   3       -1.5522
   4       -0.8206
   5       -0.8206
   6       -0.4560
   7       -0.0930
   8        0.2678
   9        0.2702
  10        0.2716
  11        0.6320
  12        0.6320
  13        0.9924
  14        1.7098
  15        1.7126
  16        1.7137
  17        2.0698
  18        2.0698
  19        2.4265
  20        2.4265
  21        3.1344
  22        3.1353
  23        3.1388
  24        3.4582
  25        3.8611
  26        3.8611
  27        4.1285
  28        4.8625
  29        5.0479
  30        5.1742
  31        5.2660
  32        5.2660
  33        5.5509
  34        5.5509
  35        6.0707
  36        6.2332
  37        6.2333
  38        6.2438
  39        6.3194
  40        6.4120
  41        6.9648
  42        6.9648
  43        7.1388
  44        7.2296
  45        7.2653
  46        7.2654
  47        7.4369
  48        7.5255
  49        7.7792
  50        7.7850
  51        7.8883
  52        8.1215
  53        8.2354
  54        8.3494
  55        8.3494
  56        8.8055
  57        8.8481
  58        8.9497
  59        9.2740
  60        9.2740
  61        9.3332
  62        9.3332
  63        9.4903
  64        9.5679
  65        9.6271
  66       10.0999
  67       10.0999
  68       10.2269
  69       10.3322
  70       10.3878
  71       10.3879
  72       10.4201
 
  0.3333333E+00  0.1666667E+00  0.0000000E+00  0.4629630E-02
   1       -2.9187
   2       -2.1801
   3       -1.4453
   4       -0.7155
   5       -0.7142
   6       -0.7128
   7        0.0117
   8        0.0134
   9        0.0145
  10        0.7341
  11        0.7369
  12        0.7374
  13        0.7386
  14        1.4582
  15        1.4582
  16        2.1723
  17        2.1742
  18        2.1744
  19        2.8681
  20        2.8844
  21        2.8850
  22        2.8872
  23        2.8879
  24        3.5946
  25        4.2304
  26        4.2811
  27        4.3131
  28        4.3131
  29        4.9280
  30        4.9794
  31        4.9794
  32        5.1473
  33        5.6752
  34        5.7179
  35        5.7179
  36        5.8291
  37        6.3292
  38        6.3292
  39        6.3924
  40        6.3925
  41        6.4236
  42        6.5116
  43        7.0201
  44        7.0201
  45        7.0961
  46        7.1948
  47        7.3313
  48        7.7648
  49        7.7820
  50        7.7821
  51        7.8790
  52        7.8892
  53        8.0117
  54        8.5618
  55        8.5651
  56        8.5988
  57        8.6659
  58        9.2083
  59        9.4201
  60        9.4201
  61        9.7661
  62        9.7754
  63        9.7755
  64        9.9328
  65        9.9791
  66       10.0389
  67       10.1426
  68       10.1426
  69       10.1779
  70       10.6199
  71       10.8146
  72       10.8160
 
  0.4166667E+00  0.1666667E+00  0.0000000E+00  0.4629630E-02
   1       -2.7799
   2       -2.4105
   3       -1.3079
   4       -0.9422
   5       -0.5775
   6       -0.5775
   7       -0.2136
   8       -0.2136
   9        0.1489
  10        0.5110
  11        0.8728
  12        0.8728
  13        1.2289
  14        1.2333
  15        1.2338
  16        2.2973
  17        2.3082
  18        2.3084
  19        2.6613
  20        2.6648
  21        2.6649
  22        3.3718
  23        3.3718
  24        3.7176
  25        4.0781
  26        4.3614
  27        4.4211
  28        4.4211
  29        4.7103
  30        4.7947
  31        4.7948
  32        5.1209
  33        5.2750
  34        5.6159
  35        5.8367
  36        5.8367
  37        6.1967
  38        6.1967
  39        6.4578
  40        6.4578
  41        6.5566
  42        6.6397
  43        6.8037
  44        6.8037
  45        6.9020
  46        6.9813
  47        7.2309
  48        7.2309
  49        7.4614
  50        7.8037
  51        8.0072
  52        8.0229
  53        8.2097
  54        8.3493
  55        8.3780
  56        9.0346
  57        9.2205
  58        9.3830
  59        9.4776
  60        9.5663
  61        9.5664
  62        9.7574
  63        9.9244
  64        9.9244
  65       10.0628
  66       10.2446
  67       10.2446
  68       10.4039
  69       10.4841
  70       10.9348
  71       11.1868
  72       11.2620
 
  0.5000000E+00  0.1666667E+00  0.0000000E+00  0.2314815E-02
   1       -2.6119
   2       -2.6091
   3       -1.1416
   4       -1.1388
   5       -0.4126
   6       -0.4114
   7       -0.4098
   8       -0.4086
   9        0.3136
  10        0.3164
  11        1.0362
  12        1.0373
  13        1.0390
  14        1.0401
  15        1.7498
  16        1.7512
  17        2.4698
  18        2.4710
  19        2.4726
  20        2.4739
  21        3.1762
  22        3.1776
  23        3.8834
  24        3.8837
  25        3.8848
  26        3.8850
  27        4.5200
  28        4.5229
  29        4.5868
  30        4.5881
  31        5.3025
  32        5.3026
  33        5.3039
  34        5.3040
  35        5.4298
  36        5.4327
  37        6.6140
  38        6.6153
  39        6.6170
  40        6.6182
  41        6.7007
  42        6.7008
  43        6.7021
  44        6.7023
  45        6.7159
  46        6.7186
  47        6.7947
  48        6.7977
  49        7.6179
  50        7.6208
  51        8.1625
  52        8.1655
  53        8.1845
  54        8.1872
  55        8.6992
  56        8.7010
  57        9.5332
  58        9.5355
  59        9.5588