<?xml version="1.0" encoding="ISO-8859-1"?>
<modeling>
 <generator>
  <i name="program" type="string">vasp</i>
  <i name="version" type="string">4.6.28 </i>
  <i name="subversion" type="string">25Jul05 complex  parallel</i>
  <i name="platform" type="string">LinuxIFC</i>
  <i name="date" type="string">2016 10 21</i>
  <i name="time" type="string">14:48:12</i>
 </generator>
 <incar>
  <i type="string" name="PREC">accurate</i>
  <i type="int" name="IALGO">    38</i>
  <i name="EDIFF">      0.00000001</i>
  <i type="int" name="IBRION">    -1</i>
  <i name="ENCUT">    500.00000000</i>
  <i type="logical" name="LREAL"> F  </i>
  <i type="int" name="ISMEAR">     1</i>
  <i type="logical" name="LWAVE"> F  </i>
  <i type="logical" name="LCHARG"> F  </i>
 </incar>
 <kpoints>
  <generation param="Gamma">
   <v type="int" name="divisions">      12      12      12</v>
   <v name="usershift">      0.00000000      0.00000000      0.00000000</v>
   <v name="genvec1">      0.08333333      0.00000000      0.00000000</v>
   <v name="genvec2">      0.00000000      0.08333333      0.00000000</v>
   <v name="genvec3">      0.00000000      0.00000000      0.08333333</v>
   <v name="shift">      0.00000000      0.00000000      0.00000000</v>
  </generation>
  <varray name="kpointlist" >
   <v>       0.00000000      0.00000000      0.00000000</v>
   <v>       0.08333333      0.00000000      0.00000000</v>
   <v>       0.16666667      0.00000000      0.00000000</v>
   <v>       0.25000000      0.00000000      0.00000000</v>
   <v>       0.33333333      0.00000000      0.00000000</v>
   <v>       0.41666667      0.00000000      0.00000000</v>
   <v>       0.50000000      0.00000000      0.00000000</v>
   <v>       0.00000000      0.08333333      0.00000000</v>
   <v>       0.08333333      0.08333333      0.00000000</v>
   <v>       0.16666667      0.08333333      0.00000000</v>
   <v>       0.25000000      0.08333333      0.00000000</v>
   <v>       0.33333333      0.08333333      0.00000000</v>
   <v>       0.41666667      0.08333333      0.00000000</v>
   <v>       0.50000000      0.08333333      0.00000000</v>
   <v>       0.00000000      0.16666667      0.00000000</v>
   <v>       0.08333333      0.16666667      0.00000000</v>
   <v>       0.16666667      0.16666667      0.00000000</v>
   <v>       0.25000000      0.16666667      0.00000000</v>
   <v>       0.33333333      0.16666667      0.00000000</v>
   <v>       0.41666667      0.16666667      0.00000000</v>
   <v>       0.50000000      0.16666667      0.00000000</v>
   <v>       0.00000000      0.25000000      0.00000000</v>
   <v>       0.08333333      0.25000000      0.00000000</v>
   <v>       0.16666667      0.25000000      0.00000000</v>
   <v>       0.25000000      0.25000000      0.00000000</v>
   <v>       0.33333333      0.25000000      0.00000000</v>
   <v>       0.41666667      0.25000000      0.00000000</v>
   <v>       0.50000000      0.25000000      0.00000000</v>
   <v>       0.00000000      0.33333333      0.00000000</v>
   <v>       0.08333333      0.33333333      0.00000000</v>
   <v>       0.16666667      0.33333333      0.00000000</v>
   <v>       0.25000000      0.33333333      0.00000000</v>
   <v>       0.33333333      0.33333333      0.00000000</v>
   <v>       0.41666667      0.33333333      0.00000000</v>
   <v>       0.50000000      0.33333333      0.00000000</v>
   <v>       0.00000000      0.41666667      0.00000000</v>
   <v>       0.08333333      0.41666667      0.00000000</v>
   <v>       0.16666667      0.41666667      0.00000000</v>
   <v>       0.25000000      0.41666667      0.00000000</v>
   <v>       0.33333333      0.41666667      0.00000000</v>
   <v>       0.41666667      0.41666667      0.00000000</v>
   <v>       0.50000000      0.41666667      0.00000000</v>
   <v>       0.00000000      0.50000000      0.00000000</v>
   <v>       0.08333333      0.50000000      0.00000000</v>
   <v>       0.16666667      0.50000000      0.00000000</v>
   <v>       0.25000000      0.50000000      0.00000000</v>
   <v>       0.33333333      0.50000000      0.00000000</v>
   <v>       0.41666667      0.50000000      0.00000000</v>
   <v>       0.50000000      0.50000000      0.00000000</v>
   <v>       0.00000000      0.08333333      0.08333333</v>
   <v>       0.08333333      0.08333333      0.08333333</v>
   <v>       0.16666667      0.08333333      0.08333333</v>
   <v>       0.25000000      0.08333333      0.08333333</v>
   <v>       0.33333333      0.08333333      0.08333333</v>
   <v>       0.41666667      0.08333333      0.08333333</v>
   <v>       0.50000000      0.08333333      0.08333333</v>
   <v>       0.00000000      0.16666667      0.08333333</v>
   <v>       0.08333333      0.16666667      0.08333333</v>
   <v>       0.16666667      0.16666667      0.08333333</v>
   <v>       0.25000000      0.16666667      0.08333333</v>
   <v>       0.33333333      0.16666667      0.08333333</v>
   <v>       0.41666667      0.16666667      0.08333333</v>
   <v>       0.50000000      0.16666667      0.08333333</v>
   <v>       0.00000000      0.25000000      0.08333333</v>
   <v>       0.08333333      0.25000000      0.08333333</v>
   <v>       0.16666667      0.25000000      0.08333333</v>
   <v>       0.25000000      0.25000000      0.08333333</v>
   <v>       0.33333333      0.25000000      0.08333333</v>
   <v>       0.41666667      0.25000000      0.08333333</v>
   <v>       0.50000000      0.25000000      0.08333333</v>
   <v>       0.00000000      0.33333333      0.08333333</v>
   <v>       0.08333333      0.33333333      0.08333333</v>
   <v>       0.16666667      0.33333333      0.08333333</v>
   <v>       0.25000000      0.33333333      0.08333333</v>
   <v>       0.33333333      0.33333333      0.08333333</v>
   <v>       0.41666667      0.33333333      0.08333333</v>
   <v>       0.50000000      0.33333333      0.08333333</v>
   <v>       0.00000000      0.41666667      0.08333333</v>
   <v>       0.08333333      0.41666667      0.08333333</v>
   <v>       0.16666667      0.41666667      0.08333333</v>
   <v>       0.25000000      0.41666667      0.08333333</v>
   <v>       0.33333333      0.41666667      0.08333333</v>
   <v>       0.41666667      0.41666667      0.08333333</v>
   <v>       0.50000000      0.41666667      0.08333333</v>
   <v>       0.00000000      0.50000000      0.08333333</v>
   <v>       0.08333333      0.50000000      0.08333333</v>
   <v>       0.16666667      0.50000000      0.08333333</v>
   <v>       0.25000000      0.50000000      0.08333333</v>
   <v>       0.33333333      0.50000000      0.08333333</v>
   <v>       0.41666667      0.50000000      0.08333333</v>
   <v>       0.50000000      0.50000000      0.08333333</v>
   <v>       0.00000000      0.16666667      0.16666667</v>
   <v>       0.08333333      0.16666667      0.16666667</v>
   <v>       0.16666667      0.16666667      0.16666667</v>
   <v>       0.25000000      0.16666667      0.16666667</v>
   <v>       0.33333333      0.16666667      0.16666667</v>
   <v>       0.41666667      0.16666667      0.16666667</v>
   <v>       0.50000000      0.16666667      0.16666667</v>
   <v>       0.00000000      0.25000000      0.16666667</v>
   <v>       0.08333333      0.25000000      0.16666667</v>
   <v>       0.16666667      0.25000000      0.16666667</v>
   <v>       0.25000000      0.25000000      0.16666667</v>
   <v>       0.33333333      0.25000000      0.16666667</v>
   <v>       0.41666667      0.25000000      0.16666667</v>
   <v>       0.50000000      0.25000000      0.16666667</v>
   <v>       0.00000000      0.33333333      0.16666667</v>
   <v>       0.08333333      0.33333333      0.16666667</v>
   <v>       0.16666667      0.33333333      0.16666667</v>
   <v>       0.25000000      0.33333333      0.16666667</v>
   <v>       0.33333333      0.33333333      0.16666667</v>
   <v>       0.41666667      0.33333333      0.16666667</v>
   <v>       0.50000000      0.33333333      0.16666667</v>
   <v>       0.00000000      0.41666667      0.16666667</v>
   <v>       0.08333333      0.41666667      0.16666667</v>
   <v>       0.16666667      0.41666667      0.16666667</v>
   <v>       0.25000000      0.41666667      0.16666667</v>
   <v>       0.33333333      0.41666667      0.16666667</v>
   <v>       0.41666667      0.41666667      0.16666667</v>
   <v>       0.50000000      0.41666667      0.16666667</v>
   <v>       0.00000000      0.50000000      0.16666667</v>
   <v>       0.08333333      0.50000000      0.16666667</v>
   <v>       0.16666667      0.50000000      0.16666667</v>
   <v>       0.25000000      0.50000000      0.16666667</v>
   <v>       0.33333333      0.50000000      0.16666667</v>
   <v>       0.41666667      0.50000000      0.16666667</v>
   <v>       0.50000000      0.50000000      0.16666667</v>
   <v>       0.00000000      0.25000000      0.25000000</v>
   <v>       0.08333333      0.25000000      0.25000000</v>
   <v>       0.16666667      0.25000000      0.25000000</v>
   <v>       0.25000000      0.25000000      0.25000000</v>
   <v>       0.33333333      0.25000000      0.25000000</v>
   <v>       0.41666667      0.25000000      0.25000000</v>
   <v>       0.50000000      0.25000000      0.25000000</v>
   <v>       0.00000000      0.33333333      0.25000000</v>
   <v>       0.08333333      0.33333333      0.25000000</v>
   <v>       0.16666667      0.33333333      0.25000000</v>
   <v>       0.25000000      0.33333333      0.25000000</v>
   <v>       0.33333333      0.33333333      0.25000000</v>
   <v>       0.41666667      0.33333333      0.25000000</v>
   <v>       0.50000000      0.33333333      0.25000000</v>
   <v>       0.00000000      0.41666667      0.25000000</v>
   <v>       0.08333333      0.41666667      0.25000000</v>
   <v>       0.16666667      0.41666667      0.25000000</v>
   <v>       0.25000000      0.41666667      0.25000000</v>
   <v>       0.33333333      0.41666667      0.25000000</v>
   <v>       0.41666667      0.41666667      0.25000000</v>
   <v>       0.50000000      0.41666667      0.25000000</v>
   <v>       0.00000000      0.50000000      0.25000000</v>
   <v>       0.08333333      0.50000000      0.25000000</v>
   <v>       0.16666667      0.50000000      0.25000000</v>
   <v>       0.25000000      0.50000000      0.25000000</v>
   <v>       0.33333333      0.50000000      0.25000000</v>
   <v>       0.41666667      0.50000000      0.25000000</v>
   <v>       0.50000000      0.50000000      0.25000000</v>
   <v>       0.00000000      0.33333333      0.33333333</v>
   <v>       0.08333333      0.33333333      0.33333333</v>
   <v>       0.16666667      0.33333333      0.33333333</v>
   <v>       0.25000000      0.33333333      0.33333333</v>
   <v>       0.33333333      0.33333333      0.33333333</v>
   <v>       0.41666667      0.33333333      0.33333333</v>
   <v>       0.50000000      0.33333333      0.33333333</v>
   <v>       0.00000000      0.41666667      0.33333333</v>
   <v>       0.08333333      0.41666667      0.33333333</v>
   <v>       0.16666667      0.41666667      0.33333333</v>
   <v>       0.25000000      0.41666667      0.33333333</v>
   <v>       0.33333333      0.41666667      0.33333333</v>
   <v>       0.41666667      0.41666667      0.33333333</v>
   <v>       0.50000000      0.41666667      0.33333333</v>
   <v>       0.00000000      0.50000000      0.33333333</v>
   <v>       0.08333333      0.50000000      0.33333333</v>
   <v>       0.16666667      0.50000000      0.33333333</v>
   <v>       0.25000000      0.50000000      0.33333333</v>
   <v>       0.33333333      0.50000000      0.33333333</v>
   <v>       0.41666667      0.50000000      0.33333333</v>
   <v>       0.50000000      0.50000000      0.33333333</v>
   <v>       0.00000000      0.41666667      0.41666667</v>
   <v>       0.08333333      0.41666667      0.41666667</v>
   <v>       0.16666667      0.41666667      0.41666667</v>
   <v>       0.25000000      0.41666667      0.41666667</v>
   <v>       0.33333333      0.41666667      0.41666667</v>
   <v>       0.41666667      0.41666667      0.41666667</v>
   <v>       0.50000000      0.41666667      0.41666667</v>
   <v>       0.00000000      0.50000000      0.41666667</v>
   <v>       0.08333333      0.50000000      0.41666667</v>
   <v>       0.16666667      0.50000000      0.41666667</v>
   <v>       0.25000000      0.50000000      0.41666667</v>
   <v>       0.33333333      0.50000000      0.41666667</v>
   <v>       0.41666667      0.50000000      0.41666667</v>
   <v>       0.50000000      0.50000000      0.41666667</v>
   <v>       0.00000000      0.50000000      0.50000000</v>
   <v>       0.08333333      0.50000000      0.50000000</v>
   <v>       0.16666667      0.50000000      0.50000000</v>
   <v>       0.25000000      0.50000000      0.50000000</v>
   <v>       0.33333333      0.50000000      0.50000000</v>
   <v>       0.41666667      0.50000000      0.50000000</v>
   <v>       0.50000000      0.50000000      0.50000000</v>
  </varray>
  <varray name="weights" >
   <v>       0.00057870</v>
   <v>       0.00115741</v>
   <v>       0.00115741</v>
   <v>       0.00115741</v>
   <v>       0.00115741</v>
   <v>       0.00115741</v>
   <v>       0.00057870</v>
   <v>       0.00231481</v>
   <v>       0.00462963</v>
   <v>       0.00462963</v>
   <v>       0.00462963</v>
   <v>       0.00462963</v>
   <v>       0.00462963</v>
   <v>       0.00231481</v>
   <v>       0.00231481</v>
   <v>       0.00462963</v>
   <v>       0.00462963</v>
   <v>       0.00462963</v>
   <v>       0.00462963</v>
   <v>       0.00462963</v>
   <v>       0.00231481</v>
   <v>       0.00231481</v>
   <v>       0.00462963</v>
   <v>       0.00462963</v>
   <v>       0.00462963</v>
   <v>       0.00462963</v>
   <v>       0.00462963</v>
   <v>       0.00231481</v>
   <v>       0.00231481</v>
   <v>       0.00462963</v>
   <v>       0.00462963</v>
   <v>       0.00462963</v>
   <v>       0.00462963</v>
   <v>       0.00462963</v>
   <v>       0.00231481</v>
   <v>       0.00231481</v>
   <v>       0.00462963</v>
   <v>       0.00462963</v>
   <v>       0.00462963</v>
   <v>       0.00462963</v>
   <v>       0.00462963</v>
   <v>       0.00231481</v>
   <v>       0.00115741</v>
   <v>       0.00231481</v>
   <v>       0.00231481</v>
   <v>       0.00231481</v>
   <v>       0.00231481</v>
   <v>       0.00231481</v>
   <v>       0.00115741</v>
   <v>       0.00231481</v>
   <v>       0.00462963</v>
   <v>       0.00462963</v>
   <v>       0.00462963</v>
   <v>       0.00462963</v>
   <v>       0.00462963</v>
   <v>       0.00231481</v>
   <v>       0.00462963</v>
   <v>       0.00925926</v>
   <v>       0.00925926</v>
   <v>       0.00925926</v>
   <v>       0.00925926</v>
   <v>       0.00925926</v>
   <v>       0.00462963</v>
   <v>       0.00462963</v>
   <v>       0.00925926</v>
   <v>       0.00925926</v>
   <v>       0.00925926</v>
   <v>       0.00925926</v>
   <v>       0.00925926</v>
   <v>       0.00462963</v>
   <v>       0.00462963</v>
   <v>       0.00925926</v>
   <v>       0.00925926</v>
   <v>       0.00925926</v>
   <v>       0.00925926</v>
   <v>       0.00925926</v>
   <v>       0.00462963</v>
   <v>       0.00462963</v>
   <v>       0.00925926</v>
   <v>       0.00925926</v>
   <v>       0.00925926</v>
   <v>       0.00925926</v>
   <v>       0.00925926</v>
   <v>       0.00462963</v>
   <v>       0.00231481</v>
   <v>       0.00462963</v>
   <v>       0.00462963</v>
   <v>       0.00462963</v>
   <v>       0.00462963</v>
   <v>       0.00462963</v>
   <v>       0.00231481</v>
   <v>       0.00231481</v>
   <v>       0.00462963</v>
   <v>       0.00462963</v>
   <v>       0.00462963</v>
   <v>       0.00462963</v>
   <v>       0.00462963</v>
   <v>       0.00231481</v>
   <v>       0.00462963</v>
   <v>       0.00925926</v>
   <v>       0.00925926</v>
   <v>       0.00925926</v>
   <v>       0.00925926</v>
   <v>       0.00925926</v>
   <v>       0.00462963</v>
   <v>       0.00462963</v>
   <v>       0.00925926</v>
   <v>       0.00925926</v>
   <v>       0.00925926</v>
   <v>       0.00925926</v>
   <v>       0.00925926</v>
   <v>       0.00462963</v>
   <v>       0.00462963</v>
   <v>       0.00925926</v>
   <v>       0.00925926</v>
   <v>       0.00925926</v>
   <v>       0.00925926</v>
   <v>       0.00925926</v>
   <v>       0.00462963</v>
   <v>       0.00231481</v>
   <v>       0.00462963</v>
   <v>       0.00462963</v>
   <v>       0.00462963</v>
   <v>       0.00462963</v>
   <v>       0.00462963</v>
   <v>       0.00231481</v>
   <v>       0.00231481</v>
   <v>       0.00462963</v>
   <v>       0.00462963</v>
   <v>       0.00462963</v>
   <v>       0.00462963</v>
   <v>       0.00462963</v>
   <v>       0.00231481</v>
   <v>       0.00462963</v>
   <v>       0.00925926</v>
   <v>       0.00925926</v>
   <v>       0.00925926</v>
   <v>       0.00925926</v>
   <v>       0.00925926</v>
   <v>       0.00462963</v>
   <v>       0.00462963</v>
   <v>       0.00925926</v>
   <v>       0.00925926</v>
   <v>       0.00925926</v>
   <v>       0.00925926</v>
   <v>       0.00925926</v>
   <v>       0.00462963</v>
   <v>       0.00231481</v>
   <v>       0.00462963</v>
   <v>       0.00462963</v>
   <v>       0.00462963</v>
   <v>       0.00462963</v>
   <v>       0.00462963</v>
   <v>       0.00231481</v>
   <v>       0.00231481</v>
   <v>       0.00462963</v>
   <v>       0.00462963</v>
   <v>       0.00462963</v>
   <v>       0.00462963</v>
   <v>       0.00462963</v>
   <v>       0.00231481</v>
   <v>       0.00462963</v>
   <v>       0.00925926</v>
   <v>       0.00925926</v>
   <v>       0.00925926</v>
   <v>       0.00925926</v>
   <v>       0.00925926</v>
   <v>       0.00462963</v>
   <v>       0.00231481</v>
   <v>       0.00462963</v>
   <v>       0.00462963</v>
   <v>       0.00462963</v>
   <v>       0.00462963</v>
   <v>       0.00462963</v>
   <v>       0.00231481</v>
   <v>       0.00231481</v>
   <v>       0.00462963</v>
   <v>       0.00462963</v>
   <v>       0.00462963</v>
   <v>       0.00462963</v>
   <v>       0.00462963</v>
   <v>       0.00231481</v>
   <v>       0.00231481</v>
   <v>       0.00462963</v>
   <v>       0.00462963</v>
   <v>       0.00462963</v>
   <v>       0.00462963</v>
   <v>       0.00462963</v>
   <v>       0.00231481</v>
   <v>       0.00057870</v>
   <v>       0.00115741</v>
   <v>       0.00115741</v>
   <v>       0.00115741</v>
   <v>       0.00115741</v>
   <v>       0.00115741</v>
   <v>       0.00057870</v>
  </varray>
 </kpoints>
 <parameters>
  <separator name="general" >
   <i type="string" name="SYSTEM">unknown system</i>
   <i type="logical" name="LCOMPAT"> F  </i>
  </separator>
  <separator name="electronic" >
   <i type="string" name="PREC">accura</i>
   <i name="ENMAX">    500.00000000</i>
   <i name="ENAUG">    291.05200000</i>
   <i name="EDIFF">      0.00000001</i>
   <i type="int" name="IALGO">    38</i>
   <i type="int" name="IWAVPR">    10</i>
   <i type="int" name="NBANDS">    65</i>
   <i name="NELECT">     96.00000000</i>
   <separator name="electronic smearing" >
    <i type="int" name="ISMEAR">     1</i>
    <i name="SIGMA">      0.20000000</i>
   </separator>
   <separator name="electronic projectors" >
    <i type="logical" name="LREAL"> F  </i>
    <v name="ROPT">      0.00000000</v>
    <i type="int" name="LMAXPAW">  -100</i>
    <i type="int" name="LMAXMIX">     2</i>
   </separator>
   <separator name="electronic startup" >
    <i type="int" name="ISTART">     0</i>
    <i type="int" name="ICHARG">     2</i>
    <i type="int" name="INIWAV">     1</i>
   </separator>
   <separator name="electronic spin" >
    <i type="int" name="ISPIN">     1</i>
    <i type="logical" name="LNONCOLLINEAR"> F  </i>
    <v name="MAGMOM">      1.00000000      1.00000000      1.00000000      1.00000000      1.00000000      1.00000000      1.00000000      1.00000000      1.00000000      1.00000000      1.00000000      1.00000000      1.00000000      1.00000000      1.00000000      1.00000000      1.00000000      1.00000000      1.00000000      1.00000000
      1.00000000      1.00000000      1.00000000      1.00000000      1.00000000      1.00000000      1.00000000      1.00000000      1.00000000      1.00000000      1.00000000      1.00000000</v>
    <i name="NUPDOWN">     -1.00000000</i>
    <i type="logical" name="LSORBIT"> F  </i>
    <v name="SAXIS">      0.00000000      0.00000000      1.00000000</v>
    <i type="logical" name="LSPIRAL"> F  </i>
    <v name="QSPIRAL">      0.00000000      0.00000000      0.00000000</v>
    <i type="logical" name="LZEROZ"> F  </i>
   </separator>
   <separator name="electronic exchange-correlation" >
    <i type="string" name="GGA">--</i>
    <i type="int" name="VOSKOWN">     0</i>
    <i type="logical" name="LASPH"> F  </i>
    <i type="logical" name="LMETAGGA"> F  </i>
    <i type="string" name="GGA2">--</i>
   </separator>
   <separator name="electronic convergence" >
    <i type="int" name="NELM">    60</i>
    <i type="int" name="NELMDL">     0</i>
    <i type="int" name="NELMIN">     2</i>
    <i name="ENINI">    500.00000000</i>
    <separator name="electronic convergence detail" >
     <i type="logical" name="LDIAG"> T  </i>
     <i name="WEIMIN">      0.00000000</i>
     <i name="EBREAK">      0.00000000</i>
     <i name="DEPER">      0.30000000</i>
     <i type="int" name="NRMM">     4</i>
     <i name="TIME">      0.10000000</i>
    </separator>
   </separator>
   <separator name="electronic mixer" >
    <i name="AMIX">      0.40000000</i>
    <i name="BMIX">      1.00000000</i>
    <i name="AMIN">      0.10000000</i>
    <i name="AMIX_MAG">      1.60000000</i>
    <i name="BMIX_MAG">      1.00000000</i>
    <separator name="electronic mixer details" >
     <i type="int" name="IMIX">     4</i>
     <i type="int" name="MAXMIX">   -45</i>
     <i name="WC">    100.00000000</i>
     <i type="int" name="INIMIX">     1</i>
     <i type="int" name="MIXPRE">     1</i>
     <i type="int" name="MREMOVE">     5</i>
    </separator>
   </separator>
   <separator name="electronic dipolcorrection" >
    <i type="int" name="IDIPOL">     0</i>
    <i type="logical" name="LDIPOL"> F  </i>
    <v name="DIPOL">   -100.00000000</v>
    <i name="EFIELD">      0.00000000</i>
   </separator>
  </separator>
  <separator name="grids" >
   <i type="int" name="NGX">    60</i>
   <i type="int" name="NGY">    60</i>
   <i type="int" name="NGZ">    60</i>
   <i type="int" name="NGXF">   120</i>
   <i type="int" name="NGYF">   120</i>
   <i type="int" name="NGZF">   120</i>
   <i type="logical" name="ADDGRID"> F  </i>
  </separator>
  <separator name="ionic" >
   <i type="int" name="NSW">     0</i>
   <i type="int" name="IBRION">    -1</i>
   <i type="int" name="ISIF">     2</i>
   <i name="PSTRESS">      0.00000000</i>
   <i name="EDIFFG">      0.00000010</i>
   <i type="int" name="NFREE">     0</i>
   <i name="POTIM">      0.50000000</i>
   <i name="SMASS">     -3.00000000</i>
  </separator>
  <separator name="ionic md" >
   <i name="TEBEG">      0.00010000</i>
   <i name="TEEND">      0.00010000</i>
   <i type="int" name="NBLOCK">     1</i>
   <i type="int" name="KBLOCK">     1</i>
   <i type="int" name="NPACO">   256</i>
   <i name="APACO">     16.00000000</i>
  </separator>
  <separator name="symmetry" >
   <i type="int" name="ISYM">     2</i>
   <i name="SYMPREC">      0.00001000</i>
  </separator>
  <separator name="dos" >
   <i type="logical" name="LORBIT"> F  </i>
   <v name="RWIGS">     -1.00000000</v>
   <i type="int" name="NEDOS">   301</i>
   <i name="EMIN">     10.00000000</i>
   <i name="EMAX">    -10.00000000</i>
  </separator>
  <separator name="writing" >
   <i type="int" name="NWRITE">     2</i>
   <i type="logical" name="LWAVE"> F  </i>
   <i type="logical" name="LCHARG"> F  </i>
   <i type="logical" name="LPARD"> F  </i>
   <i type="logical" name="LVTOT"> F  </i>
   <i type="logical" name="LELF"> F  </i>
   <i type="logical" name="LOPTICS"> F  </i>
   <i name="STM">      0.00000000</i>
  </separator>
  <separator name="performance" >
   <i type="int" name="NPAR">     8</i>
   <i type="int" name="NSIM">     4</i>
   <i type="int" name="NBLK">   256</i>
   <i type="logical" name="LPLANE"> T  </i>
   <i type="logical" name="LCRITICAL_MEM"> F  </i>
   <i type="logical" name="LSCALAPACK"> F  </i>
   <i type="logical" name="LSCALU"> F  </i>
   <i type="logical" name="LASYNC"> F  </i>
  </separator>
  <separator name="miscellaneous" >
   <i type="int" name="IDIOT">     3</i>
   <i type="logical" name="LMUSIC"> F  </i>
   <v name="POMASS">     26.98200000</v>
   <i type="logical" name="LCORR"> T  </i>
  </separator>
  <i type="logical" name="LREAL_COMPAT"> F  </i>
  <i type="logical" name="GGA_COMPAT"> T  </i>
  <i type="logical" name="LBERRY"> F  </i>
  <i type="int" name="ICORELEVEL">     0</i>
  <i type="logical" name="LDAU"> F  </i>
  <i type="int" name="I_CONSTRAINED_M">     0</i>
 </parameters>
 <atominfo>
  <atoms>      32</atoms>
  <types>       1</types>
  <array name="atoms" >
   <dimension dim="1">ion</dimension>
   <field type="string">element</field>
   <field type="int">atomtype</field>
   <set>
    <rc><c>Al</c><c>   1</c></rc>
    <rc><c>Al</c><c>   1</c></rc>
    <rc><c>Al</c><c>   1</c></rc>
    <rc><c>Al</c><c>   1</c></rc>
    <rc><c>Al</c><c>   1</c></rc>
    <rc><c>Al</c><c>   1</c></rc>
    <rc><c>Al</c><c>   1</c></rc>
    <rc><c>Al</c><c>   1</c></rc>
    <rc><c>Al</c><c>   1</c></rc>
    <rc><c>Al</c><c>   1</c></rc>
    <rc><c>Al</c><c>   1</c></rc>
    <rc><c>Al</c><c>   1</c></rc>
    <rc><c>Al</c><c>   1</c></rc>
    <rc><c>Al</c><c>   1</c></rc>
    <rc><c>Al</c><c>   1</c></rc>
    <rc><c>Al</c><c>   1</c></rc>
    <rc><c>Al</c><c>   1</c></rc>
    <rc><c>Al</c><c>   1</c></rc>
    <rc><c>Al</c><c>   1</c></rc>
    <rc><c>Al</c><c>   1</c></rc>
    <rc><c>Al</c><c>   1</c></rc>
    <rc><c>Al</c><c>   1</c></rc>
    <rc><c>Al</c><c>   1</c></rc>
    <rc><c>Al</c><c>   1</c></rc>
    <rc><c>Al</c><c>   1</c></rc>
    <rc><c>Al</c><c>   1</c></rc>
    <rc><c>Al</c><c>   1</c></rc>
    <rc><c>Al</c><c>   1</c></rc>
    <rc><c>Al</c><c>   1</c></rc>
    <rc><c>Al</c><c>   1</c></rc>
    <rc><c>Al</c><c>   1</c></rc>
    <rc><c>Al</c><c>   1</c></rc>
   </set>
  </array>
  <array name="atomtypes" >
   <dimension dim="1">type</dimension>
   <field type="int">atomspertype</field>
   <field type="string">element</field>
   <field>mass</field>
   <field>valence</field>
   <field type="string">pseudopotential</field>
   <set>
    <rc><c>  32</c><c>Al</c><c>     26.98200000</c><c>      3.00000000</c><c> PAW_PBE Al 04Jan2001                   </c></rc>
   </set>
  </array>
 </atominfo>
 <structure name="initialpos" >
  <crystal>
   <varray name="basis" >
    <v>       8.15535887      0.00000000      0.00000000</v>
    <v>       0.00000000      8.15535887      0.00000000</v>
    <v>       0.00000000      0.00000000      8.15535887</v>
   </varray>
   <i name="volume">    542.41192527</i>
   <varray name="rec_basis" >
    <v>       0.12261876      0.00000000      0.00000000</v>
    <v>       0.00000000      0.12261876      0.00000000</v>
    <v>       0.00000000      0.00000000      0.12261876</v>
   </varray>
  </crystal>
  <varray name="positions" >
   <v>       0.25122619      0.25000000      0.00000000</v>
   <v>       0.75000000      0.25000000      0.00000000</v>
   <v>       0.25000000      0.75000000      0.00000000</v>
   <v>       0.75000000      0.75000000      0.00000000</v>
   <v>       0.25000000      0.25000000      0.50000000</v>
   <v>       0.75000000      0.25000000      0.50000000</v>
   <v>       0.25000000      0.75000000      0.50000000</v>
   <v>       0.75000000      0.75000000      0.50000000</v>
   <v>       0.25000000      0.00000000      0.25000000</v>
   <v>       0.75000000      0.00000000      0.25000000</v>
   <v>       0.25000000      0.50000000      0.25000000</v>
   <v>       0.75000000      0.50000000      0.25000000</v>
   <v>       0.25000000      0.00000000      0.75000000</v>
   <v>       0.75000000      0.00000000      0.75000000</v>
   <v>       0.25000000      0.50000000      0.75000000</v>
   <v>       0.75000000      0.50000000      0.75000000</v>
   <v>       0.00000000      0.25000000      0.25000000</v>
   <v>       0.50000000      0.25000000      0.25000000</v>
   <v>       0.00000000      0.75000000      0.25000000</v>
   <v>       0.50000000      0.75000000      0.25000000</v>
   <v>       0.00000000      0.25000000      0.75000000</v>
   <v>       0.50000000      0.25000000      0.75000000</v>
   <v>       0.00000000      0.75000000      0.75000000</v>
   <v>       0.50000000      0.75000000      0.75000000</v>
   <v>       0.00000000      0.00000000      0.00000000</v>
   <v>       0.50000000      0.00000000      0.00000000</v>
   <v>       0.00000000      0.50000000      0.00000000</v>
   <v>       0.50000000      0.50000000      0.00000000</v>
   <v>       0.00000000      0.00000000      0.50000000</v>
   <v>       0.50000000      0.00000000      0.50000000</v>
   <v>       0.00000000      0.50000000      0.50000000</v>
   <v>       0.50000000      0.50000000      0.50000000</v>
  </varray>
 </structure>
 <calculation>
  <scstep>
   <time name="dav">   76.52   76.50</time>
   <time name="total">   76.69   76.67</time>
   <energy>
    <i name="alphaZ">     -6.34098059</i>
    <i name="ewald">  -2331.47907581</i>
    <i name="hartreedc">     -3.59168532</i>
    <i name="XCdc">   -841.21531088</i>
    <i name="pawpsdc">   1137.73615723</i>
    <i name="pawaedc">   -115.16745734</i>
    <i name="eentropy">     -0.00008694</i>
    <i name="bandstr">    563.20815096</i>
    <i name="atom">   1713.22913220</i>
    <i name="e_fr_energy">    116.37884352</i>
    <i name="e_wo_entrp">    116.37893046</i>
    <i name="e_0_energy">    116.37887250</i>
   </energy>
  </scstep>
  <scstep>
   <time name="dav">   86.10   86.08</time>
   <time name="total">   86.12   86.10</time>
   <energy>
    <i name="e_fr_energy">   -107.42544779</i>
    <i name="e_wo_entrp">   -107.42368639</i>
    <i name="e_0_energy">   -107.42486066</i>
   </energy>
  </scstep>
  <scstep>
   <time name="dav">   89.96   89.93</time>
   <time name="total">   89.98   89.96</time>
   <energy>
    <i name="e_fr_energy">   -120.21729692</i>
    <i name="e_wo_entrp">   -120.21512867</i>
    <i name="e_0_energy">   -120.21657417</i>
   </energy>
  </scstep>
  <scstep>
   <time name="dav">   86.23   86.21</time>
   <time name="total">   86.25   86.23</time>
   <energy>
    <i name="e_fr_energy">   -120.45928500</i>
    <i name="e_wo_entrp">   -120.45726086</i>
    <i name="e_0_energy">   -120.45861029</i>
   </energy>
  </scstep>
  <scstep>
   <time name="dav">   85.92   85.89</time>
   <time name="total">   90.49   90.46</time>
   <energy>
    <i name="e_fr_energy">   -120.46218955</i>
    <i name="e_wo_entrp">   -120.46016429</i>
    <i name="e_0_energy">   -120.46151446</i>
   </energy>
  </scstep>
  <scstep>
   <time name="dav">   84.66   84.63</time>
   <time name="total">   89.38   89.35</time>
   <energy>
    <i name="e_fr_energy">   -120.05170580</i>
    <i name="e_wo_entrp">   -120.04970711</i>
    <i name="e_0_energy">   -120.05103957</i>
   </energy>
  </scstep>
  <scstep>
   <time name="dav">   83.23   83.20</time>
   <time name="total">   87.94   87.91</time>
   <energy>
    <i name="e_fr_energy">   -119.75237464</i>
    <i name="e_wo_entrp">   -119.75051562</i>
    <i name="e_0_energy">   -119.75175497</i>
   </energy>
  </scstep>
  <scstep>
   <time name="dav">   86.54   86.52</time>
   <time name="total">   91.22   91.20</time>
   <energy>
    <i name="e_fr_energy">   -119.75244122</i>
    <i name="e_wo_entrp">   -119.75058797</i>
    <i name="e_0_energy">   -119.75182347</i>
   </energy>
  </scstep>
  <scstep>
   <time name="dav">   85.77   85.77</time>
   <time name="total">   90.50   90.49</time>
   <energy>
    <i name="e_fr_energy">   -119.75246714</i>
    <i name="e_wo_entrp">   -119.75061843</i>
    <i name="e_0_energy">   -119.75185090</i>
   </energy>
  </scstep>
  <scstep>
   <time name="dav">   87.17   87.16</time>
   <time name="total">   91.89   91.89</time>
   <energy>
    <i name="e_fr_energy">   -119.75246809</i>
    <i name="e_wo_entrp">   -119.75061974</i>
    <i name="e_0_energy">   -119.75185197</i>
   </energy>
  </scstep>
  <scstep>
   <time name="dav">   86.04   86.01</time>
   <time name="total">   90.75   90.74</time>
   <energy>
    <i name="e_fr_energy">   -119.75246498</i>
    <i name="e_wo_entrp">   -119.75061668</i>
    <i name="e_0_energy">   -119.75184888</i>
   </energy>
  </scstep>
  <scstep>
   <time name="dav">   66.11   66.09</time>
   <time name="total">   70.79   70.77</time>
   <energy>
    <i name="e_fr_energy">   -119.75246382</i>
    <i name="e_wo_entrp">   -119.75061557</i>
    <i name="e_0_energy">   -119.75184774</i>
   </energy>
  </scstep>
  <scstep>
   <time name="dav">   58.15   58.13</time>
   <time name="total">   62.89   62.87</time>
   <energy>
    <i name="e_fr_energy">   -119.75246368</i>
    <i name="e_wo_entrp">   -119.75061542</i>
    <i name="e_0_energy">   -119.75184759</i>
   </energy>
  </scstep>
  <scstep>
   <time name="dav">   57.83   57.80</time>
   <time name="total">   57.99   57.97</time>
   <energy>
    <i name="alphaZ">     -6.34098059</i>
    <i name="ewald">  -2331.47907581</i>
    <i name="hartreedc">     -3.24655648</i>
    <i name="XCdc">   -837.90051407</i>
    <i name="pawpsdc">   1138.81324347</i>
    <i name="pawaedc">   -116.51497642</i>
    <i name="eentropy">     -0.00184826</i>
    <i name="bandstr">    323.68911228</i>
    <i name="atom">   1713.22913220</i>
    <i name="e_fr_energy">   -119.75246367</i>
    <i name="e_wo_entrp">   -119.75061542</i>
    <i name="e_0_energy">   -119.75184759</i>
   </energy>
  </scstep>
  <structure>
   <crystal>
    <varray name="basis" >
     <v>       8.15535887      0.00000000      0.00000000</v>
     <v>       0.00000000      8.15535887      0.00000000</v>
     <v>       0.00000000      0.00000000      8.15535887</v>
    </varray>
    <i name="volume">    542.41192527</i>
    <varray name="rec_basis" >
     <v>       0.12261876      0.00000000      0.00000000</v>
     <v>       0.00000000      0.12261876      0.00000000</v>
     <v>       0.00000000      0.00000000      0.12261876</v>
    </varray>
   </crystal>
   <varray name="positions" >
    <v>       0.25122619      0.25000000      0.00000000</v>
    <v>       0.75000000      0.25000000      0.00000000</v>
    <v>       0.25000000      0.75000000      0.00000000</v>
    <v>       0.75000000      0.75000000      0.00000000</v>
    <v>       0.25000000      0.25000000      0.50000000</v>
    <v>       0.75000000      0.25000000      0.50000000</v>
    <v>       0.25000000      0.75000000      0.50000000</v>
    <v>       0.75000000      0.75000000      0.50000000</v>
    <v>       0.25000000      0.00000000      0.25000000</v>
    <v>       0.75000000      0.00000000      0.25000000</v>
    <v>       0.25000000      0.50000000      0.25000000</v>
    <v>       0.75000000      0.50000000      0.25000000</v>
    <v>       0.25000000      0.00000000      0.75000000</v>
    <v>       0.75000000      0.00000000      0.75000000</v>
    <v>       0.25000000      0.50000000      0.75000000</v>
    <v>       0.75000000      0.50000000      0.75000000</v>
    <v>       0.00000000      0.25000000      0.25000000</v>
    <v>       0.50000000      0.25000000      0.25000000</v>
    <v>       0.00000000      0.75000000      0.25000000</v>
    <v>       0.50000000      0.75000000      0.25000000</v>
    <v>       0.00000000      0.25000000      0.75000000</v>
    <v>       0.50000000      0.25000000      0.75000000</v>
    <v>       0.00000000      0.75000000      0.75000000</v>
    <v>       0.50000000      0.75000000      0.75000000</v>
    <v>       0.00000000      0.00000000      0.00000000</v>
    <v>       0.50000000      0.00000000      0.00000000</v>
    <v>       0.00000000      0.50000000      0.00000000</v>
    <v>       0.50000000      0.50000000      0.00000000</v>
    <v>       0.00000000      0.00000000      0.50000000</v>
    <v>       0.50000000      0.00000000      0.50000000</v>
    <v>       0.00000000      0.50000000      0.50000000</v>
    <v>       0.50000000      0.50000000      0.50000000</v>
   </varray>
  </structure>
  <varray name="forces" >
   <v>      -0.04121443     -0.00000000      0.00000000</v>
   <v>       0.00223004     -0.00000000      0.00000000</v>
   <v>      -0.00010307     -0.00000000     -0.00000000</v>
   <v>       0.00055424      0.00000000     -0.00000000</v>
   <v>      -0.00010307     -0.00000000      0.00000000</v>
   <v>       0.00055424     -0.00000000     -0.00000000</v>
   <v>       0.00035975      0.00000000      0.00000000</v>
   <v>      -0.00074274     -0.00000000      0.00000000</v>
   <v>      -0.00125068      0.00001652     -0.00001652</v>
   <v>      -0.00049988      0.00000041     -0.00000041</v>
   <v>      -0.00125068     -0.00001652     -0.00001652</v>
   <v>      -0.00049988     -0.00000041     -0.00000041</v>
   <v>      -0.00125068      0.00001652      0.00001652</v>
   <v>      -0.00049988      0.00000041      0.00000041</v>
   <v>      -0.00125068     -0.00001652      0.00001652</v>
   <v>      -0.00049988     -0.00000041      0.00000041</v>
   <v>       0.00563478     -0.00000000     -0.00591539</v>
   <v>       0.00577482      0.00000000      0.00610823</v>
   <v>      -0.00002272      0.00000000      0.00014148</v>
   <v>      -0.00002007     -0.00000000     -0.00013901</v>
   <v>       0.00563478      0.00000000      0.00591539</v>
   <v>       0.00577482      0.00000000     -0.00610823</v>
   <v>      -0.00002272      0.00000000     -0.00014148</v>
   <v>      -0.00002007     -0.00000000      0.00013901</v>
   <v>       0.00563478      0.00591539     -0.00000000</v>
   <v>       0.00577482     -0.00610823     -0.00000000</v>
   <v>       0.00563478     -0.00591539      0.00000000</v>
   <v>       0.00577482      0.00610823      0.00000000</v>
   <v>      -0.00002272     -0.00014148      0.00000000</v>
   <v>      -0.00002007      0.00013901      0.00000000</v>
   <v>      -0.00002272      0.00014148     -0.00000000</v>
   <v>      -0.00002007     -0.00013901     -0.00000000</v>
  </varray>
  <varray name="stress" >
   <v>     -20.46604269      0.00000000      0.00000000</v>
   <v>       0.00000000    -20.46709304      0.00000000</v>
   <v>       0.00000000      0.00000000    -20.46709304</v>
  </varray>
  <energy>
   <i name="e_fr_energy">   -119.75246367</i>
   <i name="e_wo_entrp">   -119.75184759</i>
   <i name="e_0_energy">     -0.00184826</i>
  </energy>
  <eigenvalues>
   <array>
    <dimension dim="1">band</dimension>
    <dimension dim="2">kpoint</dimension>
    <dimension dim="3">spin</dimension>
    <field>eigene</field>
    <field>occ</field>
    <set>
     <set comment="spin 1">
      <set comment="kpoint 1">
       <r>  -3.2275  1.0000</r>
       <r>  -1.0221  1.0000</r>
       <r>  -1.0184  1.0000</r>
       <r>  -1.0184  1.0000</r>
       <r>  -1.0184  1.0000</r>
       <r>  -1.0184  1.0000</r>
       <r>  -1.0147  1.0000</r>
       <r>   1.1517  1.0000</r>
       <r>   1.1562  1.0000</r>
       <r>   1.1562  1.0000</r>
       <r>   1.1578  1.0000</r>
       <r>   1.1579  1.0000</r>
       <r>   1.1579  1.0000</r>
       <r>   1.1579  1.0000</r>
       <r>   1.1579  1.0000</r>
       <r>   1.1581  1.0000</r>
       <r>   1.1597  1.0000</r>
       <r>   1.1597  1.0000</r>
       <r>   1.1642  1.0000</r>
       <r>   3.2361  1.0000</r>
       <r>   3.2362  1.0000</r>
       <r>   3.2362  1.0000</r>
       <r>   3.2362  1.0000</r>
       <r>   3.3781  1.0000</r>
       <r>   3.3781  1.0000</r>
       <r>   3.3781  1.0000</r>
       <r>   3.3781  1.0000</r>
       <r>   4.8634  1.0000</r>
       <r>   4.8634  1.0000</r>
       <r>   4.8634  1.0000</r>
       <r>   6.1246  1.0000</r>
       <r>   6.1246  1.0000</r>
       <r>   6.1246  1.0000</r>
       <r>   6.9058  1.0000</r>
       <r>   6.9058  1.0000</r>
       <r>   6.9101  1.0000</r>
       <r>   6.9101  1.0000</r>
       <r>   6.9102  1.0000</r>
       <r>   6.9102  1.0000</r>
       <r>   6.9102  1.0000</r>
       <r>   6.9103  1.0000</r>
       <r>   6.9104  1.0000</r>
       <r>   6.9104  1.0000</r>
       <r>   6.9146  1.0000</r>
       <r>   6.9146  1.0000</r>
       <r>   7.9345 -0.0280</r>
       <r>   7.9386 -0.0296</r>
       <r>   7.9386 -0.0296</r>
       <r>   7.9386 -0.0296</r>
       <r>   7.9386 -0.0296</r>
       <r>   7.9427 -0.0310</r>
       <r>   8.6799 -0.0000</r>
       <r>   8.6809 -0.0000</r>
       <r>   8.6809 -0.0000</r>
       <r>   8.6809 -0.0000</r>
       <r>   8.6809 -0.0000</r>
       <r>   8.6819 -0.0000</r>
       <r>   8.9581 -0.0000</r>
       <r>   8.9581 -0.0000</r>
       <r>   8.9598 -0.0000</r>
       <r>   8.9620 -0.0000</r>
       <r>   8.9622 -0.0000</r>
       <r>   8.9622 -0.0000</r>
       <r>   8.9622 -0.0000</r>
       <r>   8.9622 -0.0000</r>
       <r>   8.9623 -0.0000</r>
       <r>   8.9645 -0.0000</r>
       <r>   8.9662 -0.0000</r>
       <r>   8.9662 -0.0000</r>
       <r>  10.3922 -0.0000</r>
       <r>  10.3931 -0.0000</r>
       <r>  10.3938 -0.0000</r>
      </set>
      <set comment="kpoint 2">
       <r>  -3.2121  1.0000</r>
       <r>  -1.3689  1.0000</r>
       <r>  -1.0032  1.0000</r>
       <r>  -1.0031  1.0000</r>
       <r>  -1.0031  1.0000</r>
       <r>  -1.0031  1.0000</r>
       <r>  -0.6384  1.0000</r>
       <r>   0.8125  1.0000</r>
       <r>   0.8125  1.0000</r>
       <r>   0.8125  1.0000</r>
       <r>   0.8126  1.0000</r>
       <r>   1.1729  1.0000</r>
       <r>   1.1730  1.0000</r>
       <r>   1.1730  1.0000</r>
       <r>   1.1730  1.0000</r>
       <r>   1.5324  1.0000</r>
       <r>   1.5324  1.0000</r>
       <r>   1.5324  1.0000</r>
       <r>   1.5324  1.0000</r>
       <r>   2.9589  1.0000</r>
       <r>   2.9589  1.0000</r>
       <r>   2.9589  1.0000</r>
       <r>   2.9589  1.0000</r>
       <r>   3.6840  1.0000</r>
       <r>   3.6840  1.0000</r>
       <r>   3.6840  1.0000</r>
       <r>   3.6841  1.0000</r>
       <r>   4.5591  1.0000</r>
       <r>   4.8776  1.0000</r>
       <r>   4.8776  1.0000</r>
       <r>   6.1396  1.0000</r>
       <r>   6.1396  1.0000</r>
       <r>   6.4558  1.0000</r>
       <r>   6.5828  1.0000</r>
       <r>   6.5828  1.0000</r>
       <r>   6.6214  1.0000</r>
       <r>   6.6215  1.0000</r>
       <r>   6.6215  1.0000</r>
       <r>   6.6215  1.0000</r>
       <r>   6.9245  1.0000</r>
       <r>   6.9245  1.0000</r>
       <r>   6.9245  1.0000</r>
       <r>   6.9245  1.0000</r>
       <r>   7.2663  1.0026</r>
       <r>   7.2663  1.0026</r>
       <r>   7.8108  0.1822</r>
       <r>   7.8109  0.1820</r>
       <r>   8.1040 -0.0116</r>
       <r>   8.1040 -0.0116</r>
       <r>   8.1040 -0.0116</r>
       <r>   8.1040 -0.0116</r>
       <r>   8.6341 -0.0000</r>
       <r>   8.6341 -0.0000</r>
       <r>   8.6341 -0.0000</r>
       <r>   8.6342 -0.0000</r>
       <r>   8.6955 -0.0000</r>
       <r>   8.6955 -0.0000</r>
       <r>   8.6955 -0.0000</r>
       <r>   8.6955 -0.0000</r>
       <r>   8.8353 -0.0000</r>
       <r>   8.8353 -0.0000</r>
       <r>   8.8455 -0.0000</r>
       <r>   8.8455 -0.0000</r>
       <r>   8.8455 -0.0000</r>
       <r>   8.8455 -0.0000</r>
       <r>   9.3188 -0.0000</r>
       <r>   9.3188 -0.0000</r>
       <r>   9.3188 -0.0000</r>
       <r>   9.3188 -0.0000</r>
       <r>  10.0641 -0.0000</r>
       <r>  10.0641 -0.0000</r>
       <r>  10.0641 -0.0000</r>
      </set>
      <set comment="kpoint 3">
       <r>  -3.1657  1.0000</r>
       <r>  -1.6898  1.0000</r>
       <r>  -0.9575  1.0000</r>
       <r>  -0.9575  1.0000</r>
       <r>  -0.9575  1.0000</r>
       <r>  -0.9575  1.0000</r>
       <r>  -0.2292  1.0000</r>
       <r>   0.4964  1.0000</r>
       <r>   0.4964  1.0000</r>
       <r>   0.4964  1.0000</r>
       <r>   0.4964  1.0000</r>
       <r>   1.2180  1.0000</r>
       <r>   1.2180  1.0000</r>
       <r>   1.2180  1.0000</r>
       <r>   1.2180  1.0000</r>
       <r>   1.9355  1.0000</r>
       <r>   1.9355  1.0000</r>
       <r>   1.9355  1.0000</r>
       <r>   1.9355  1.0000</r>
       <r>   2.6502  1.0000</r>
       <r>   2.6502  1.0000</r>
       <r>   2.6502  1.0000</r>
       <r>   2.6503  1.0000</r>
       <r>   3.9973  1.0000</r>
       <r>   4.0789  1.0000</r>
       <r>   4.0789  1.0000</r>
       <r>   4.0789  1.0000</r>
       <r>   4.0789  1.0000</r>
       <r>   4.9202  1.0000</r>
       <r>   4.9202  1.0000</r>
       <r>   6.0813  1.0000</r>
       <r>   6.0813  1.0000</r>
       <r>   6.0813  1.0000</r>
       <r>   6.0813  1.0000</r>
       <r>   6.1848  1.0000</r>
       <r>   6.1848  1.0000</r>
       <r>   6.2840  1.0000</r>
       <r>   6.2840  1.0000</r>
       <r>   6.9672  1.0000</r>
       <r>   6.9672  1.0000</r>
       <r>   6.9672  1.0000</r>
       <r>   6.9672  1.0000</r>
       <r>   7.0983  1.0000</r>
       <r>   7.5661  0.9930</r>
       <r>   7.5661  0.9930</r>
       <r>   7.6510  0.8021</r>
       <r>   7.6510  0.8021</r>
       <r>   8.1723 -0.0037</r>
       <r>   8.1723 -0.0037</r>
       <r>   8.1723 -0.0037</r>
       <r>   8.1724 -0.0037</r>
       <r>   8.2765 -0.0004</r>
       <r>   8.2765 -0.0004</r>
       <r>   8.2766 -0.0004</r>
       <r>   8.2766 -0.0004</r>
       <r>   8.3348 -0.0001</r>
       <r>   8.3348 -0.0001</r>
       <r>   8.3348 -0.0001</r>
       <r>   8.3348 -0.0001</r>
       <r>   9.1599 -0.0000</r>
       <r>   9.1599 -0.0000</r>
       <r>   9.3361 -0.0000</r>
       <r>   9.3361 -0.0000</r>
       <r>   9.3361 -0.0000</r>
       <r>   9.3361 -0.0000</r>
       <r>   9.7039 -0.0000</r>
       <r>   9.7039 -0.0000</r>
       <r>   9.7040 -0.0000</r>
       <r>   9.7046 -0.0000</r>
       <r>   9.7613 -0.0000</r>
       <r>   9.7614 -0.0000</r>
       <r>   9.7614 -0.0000</r>
      </set>
      <set comment="kpoint 4">
       <r>  -3.0885  1.0000</r>
       <r>  -1.9807  1.0000</r>
       <r>  -0.8814  1.0000</r>
       <r>  -0.8814  1.0000</r>
       <r>  -0.8814  1.0000</r>
       <r>  -0.8814  1.0000</r>
       <r>   0.2067  1.0000</r>
       <r>   0.2098  1.0000</r>
       <r>   0.2098  1.0000</r>
       <r>   0.2098  1.0000</r>
       <r>   0.2119  1.0000</r>
       <r>   1.2930  1.0000</r>
       <r>   1.2930  1.0000</r>
       <r>   1.2930  1.0000</r>
       <r>   1.2930  1.0000</r>
       <r>   2.3644  1.0000</r>
       <r>   2.3662  1.0000</r>
       <r>   2.3662  1.0000</r>
       <r>   2.3670  1.0000</r>
       <r>   2.3684  1.0000</r>
       <r>   2.3692  1.0000</r>
       <r>   2.3692  1.0000</r>
       <r>   2.3711  1.0000</r>
       <r>   3.3994  1.0000</r>
       <r>   4.5042  1.0000</r>
       <r>   4.5042  1.0000</r>
       <r>   4.5042  1.0000</r>
       <r>   4.5042  1.0000</r>
       <r>   4.9911  1.0000</r>
       <r>   4.9911  1.0000</r>
       <r>   5.5003  1.0000</r>
       <r>   5.5003  1.0000</r>
       <r>   5.5003  1.0000</r>
       <r>   5.5003  1.0000</r>
       <r>   6.0138  1.0000</r>
       <r>   6.0138  1.0000</r>
       <r>   6.2598  1.0000</r>
       <r>   6.2598  1.0000</r>
       <r>   7.0383  1.0000</r>
       <r>   7.0383  1.0000</r>
       <r>   7.0383  1.0000</r>
       <r>   7.0383  1.0000</r>
       <r>   7.3103  1.0059</r>
       <r>   7.3103  1.0059</r>
       <r>   7.6006  0.9369</r>
       <r>   7.6006  0.9369</r>
       <r>   7.6006  0.9368</r>
       <r>   7.6007  0.9368</r>
       <r>   7.8306  0.1242</r>
       <r>   8.0619 -0.0200</r>
       <r>   8.0619 -0.0200</r>
       <r>   8.0639 -0.0195</r>
       <r>   8.0639 -0.0195</r>
       <r>   8.0665 -0.0190</r>
       <r>   8.0665 -0.0190</r>
       <r>   8.3951 -0.0000</r>
       <r>   8.3951 -0.0000</r>
       <r>   8.3951 -0.0000</r>
       <r>   8.3951 -0.0000</r>
       <r>   9.4855 -0.0000</r>
       <r>   9.4856 -0.0000</r>
       <r>   9.4856 -0.0000</r>
       <r>   9.4856 -0.0000</r>
       <r>   9.5481 -0.0000</r>
       <r>   9.5481 -0.0000</r>
       <r>  10.0034 -0.0000</r>
       <r>  10.0034 -0.0000</r>
       <r>  10.0034 -0.0000</r>
       <r>  10.0034 -0.0000</r>
       <r>  10.1178 -0.0000</r>
       <r>  10.1178 -0.0000</r>
       <r>  10.1178 -0.0000</r>
      </set>
      <set comment="kpoint 5">
       <r>  -2.9804  1.0000</r>
       <r>  -2.2415  1.0000</r>
       <r>  -0.7750  1.0000</r>
       <r>  -0.7750  1.0000</r>
       <r>  -0.7750  1.0000</r>
       <r>  -0.7750  1.0000</r>
       <r>  -0.0471  1.0000</r>
       <r>  -0.0471  1.0000</r>
       <r>  -0.0471  1.0000</r>
       <r>  -0.0471  1.0000</r>
       <r>   0.6752  1.0000</r>
       <r>   1.3979  1.0000</r>
       <r>   1.3979  1.0000</r>
       <r>   1.3979  1.0000</r>
       <r>   1.3979  1.0000</r>
       <r>   2.1154  1.0000</r>
       <r>   2.1154  1.0000</r>
       <r>   2.1154  1.0000</r>
       <r>   2.1154  1.0000</r>
       <r>   2.8090  1.0000</r>
       <r>   2.8263  1.0000</r>
       <r>   2.8263  1.0000</r>
       <r>   2.8263  1.0000</r>
       <r>   2.8264  1.0000</r>
       <r>   4.9233  1.0000</r>
       <r>   4.9233  1.0000</r>
       <r>   4.9233  1.0000</r>
       <r>   4.9233  1.0000</r>
       <r>   4.9577  1.0000</r>
       <r>   4.9577  1.0000</r>
       <r>   4.9577  1.0000</r>
       <r>   4.9577  1.0000</r>
       <r>   5.0905  1.0000</r>
       <r>   5.0905  1.0000</r>
       <r>   5.7722  1.0000</r>
       <r>   5.7722  1.0000</r>
       <r>   6.3646  1.0000</r>
       <r>   6.3646  1.0000</r>
       <r>   7.0306  1.0000</r>
       <r>   7.0306  1.0000</r>
       <r>   7.0306  1.0000</r>
       <r>   7.0307  1.0000</r>
       <r>   7.0699  1.0000</r>
       <r>   7.0700  1.0000</r>
       <r>   7.1380  1.0001</r>
       <r>   7.1380  1.0001</r>
       <r>   7.1380  1.0001</r>
       <r>   7.1380  1.0001</r>
       <r>   7.8217  0.1491</r>
       <r>   7.8217  0.1491</r>
       <r>   7.8217  0.1491</r>
       <r>   7.8217  0.1491</r>
       <r>   8.5066 -0.0000</r>
       <r>   8.5066 -0.0000</r>
       <r>   8.5160 -0.0000</r>
       <r>   8.5160 -0.0000</r>
       <r>   8.5161 -0.0000</r>
       <r>   8.5161 -0.0000</r>
       <r>   8.6090 -0.0000</r>
       <r>   9.2372 -0.0000</r>
       <r>   9.2372 -0.0000</r>
       <r>   9.2372 -0.0000</r>
       <r>   9.2372 -0.0000</r>
       <r>   9.9721 -0.0000</r>
       <r>   9.9721 -0.0000</r>
       <r>  10.5596 -0.0000</r>
       <r>  10.5597 -0.0000</r>
       <r>  10.5602 -0.0000</r>
       <r>  10.5602 -0.0000</r>
       <r>  10.5633 -0.0000</r>
       <r>  10.5634 -0.0000</r>
       <r>  10.7454 -0.0000</r>
      </set>
      <set comment="kpoint 6">
       <r>  -2.8416  1.0000</r>
       <r>  -2.4720  1.0000</r>
       <r>  -0.6383  1.0000</r>
       <r>  -0.6382  1.0000</r>
       <r>  -0.6382  1.0000</r>
       <r>  -0.6382  1.0000</r>
       <r>  -0.2742  1.0000</r>
       <r>  -0.2742  1.0000</r>
       <r>  -0.2742  1.0000</r>
       <r>  -0.2742  1.0000</r>
       <r>   1.1694  1.0000</r>
       <r>   1.5327  1.0000</r>
       <r>   1.5327  1.0000</r>
       <r>   1.5327  1.0000</r>
       <r>   1.5327  1.0000</r>
       <r>   1.8916  1.0000</r>
       <r>   1.8916  1.0000</r>
       <r>   1.8916  1.0000</r>
       <r>   1.8916  1.0000</r>
       <r>   2.2380  1.0000</r>
       <r>   3.3129  1.0000</r>
       <r>   3.3129  1.0000</r>
       <r>   3.3129  1.0000</r>
       <r>   3.3129  1.0000</r>
       <r>   4.3634  1.0000</r>
       <r>   4.3634  1.0000</r>
       <r>   4.3634  1.0000</r>
       <r>   4.3634  1.0000</r>
       <r>   5.2182  1.0000</r>
       <r>   5.2182  1.0000</r>
       <r>   5.4384  1.0000</r>
       <r>   5.4384  1.0000</r>
       <r>   5.4385  1.0000</r>
       <r>   5.4385  1.0000</r>
       <r>   5.5591  1.0000</r>
       <r>   5.5591  1.0000</r>
       <r>   6.4769  1.0000</r>
       <r>   6.4771  1.0000</r>
       <r>   6.4771  1.0000</r>
       <r>   6.4771  1.0000</r>
       <r>   6.4988  1.0000</r>
       <r>   6.4989  1.0000</r>
       <r>   6.8526  1.0000</r>
       <r>   6.8526  1.0000</r>
       <r>   7.2661  1.0026</r>
       <r>   7.2661  1.0026</r>
       <r>   7.2662  1.0026</r>
       <r>   7.2662  1.0026</r>
       <r>   7.6080  0.9211</r>
       <r>   7.6080  0.9211</r>
       <r>   7.6080  0.9211</r>
       <r>   7.6080  0.9211</r>
       <r>   8.6570 -0.0000</r>
       <r>   8.6570 -0.0000</r>
       <r>   8.6570 -0.0000</r>
       <r>   8.6570 -0.0000</r>
       <r>   8.9776 -0.0000</r>
       <r>   8.9776 -0.0000</r>
       <r>   9.0164 -0.0000</r>
       <r>   9.0165 -0.0000</r>
       <r>   9.0165 -0.0000</r>
       <r>   9.0165 -0.0000</r>
       <r>   9.4217 -0.0000</r>
       <r>  10.0057 -0.0000</r>
       <r>  10.0057 -0.0000</r>
       <r>  10.4223 -0.0000</r>
       <r>  10.4223 -0.0000</r>
       <r>  11.0312 -0.0000</r>
       <r>  11.0312 -0.0000</r>
       <r>  11.0312 -0.0000</r>
       <r>  11.0312 -0.0000</r>
       <r>  11.1337 -0.0000</r>
      </set>
      <set comment="kpoint 7">
       <r>  -2.6735  1.0000</r>
       <r>  -2.6707  1.0000</r>
       <r>  -0.4752  1.0000</r>
       <r>  -0.4721  1.0000</r>
       <r>  -0.4721  1.0000</r>
       <r>  -0.4714  1.0000</r>
       <r>  -0.4712  1.0000</r>
       <r>  -0.4705  1.0000</r>
       <r>  -0.4705  1.0000</r>
       <r>  -0.4674  1.0000</r>
       <r>   1.6886  1.0000</r>
       <r>   1.6909  1.0000</r>
       <r>   1.6957  1.0000</r>
       <r>   1.6961  1.0000</r>
       <r>   1.6961  1.0000</r>
       <r>   1.6969  1.0000</r>
       <r>   1.6977  1.0000</r>
       <r>   1.6985  1.0000</r>
       <r>   1.6985  1.0000</r>
       <r>   1.7010  1.0000</r>
       <r>   3.8248  1.0000</r>
       <r>   3.8249  1.0000</r>
       <r>   3.8249  1.0000</r>
       <r>   3.8255  1.0000</r>
       <r>   3.8258  1.0000</r>
       <r>   3.8265  1.0000</r>
       <r>   3.8265  1.0000</r>
       <r>   3.8267  1.0000</r>
       <r>   5.3729  1.0000</r>
       <r>   5.3729  1.0000</r>
       <r>   5.3759  1.0000</r>
       <r>   5.3759  1.0000</r>
       <r>   5.9444  1.0000</r>
       <r>   5.9444  1.0000</r>
       <r>   5.9449  1.0000</r>
       <r>   5.9452  1.0000</r>
       <r>   5.9457  1.0000</r>
       <r>   5.9459  1.0000</r>
       <r>   5.9465  1.0000</r>
       <r>   5.9465  1.0000</r>
       <r>   6.6599  1.0000</r>
       <r>   6.6609  1.0000</r>
       <r>   6.6626  1.0000</r>
       <r>   6.6636  1.0000</r>
       <r>   7.4205  1.0258</r>
       <r>   7.4205  1.0258</r>
       <r>   7.4215  1.0261</r>
       <r>   7.4228  1.0264</r>
       <r>   7.4229  1.0264</r>
       <r>   7.4242  1.0267</r>
       <r>   7.4251  1.0269</r>
       <r>   7.4251  1.0269</r>
       <r>   8.8210 -0.0000</r>
       <r>   8.8221 -0.0000</r>
       <r>   8.8221 -0.0000</r>
       <r>   8.8222 -0.0000</r>
       <r>   8.8243 -0.0000</r>
       <r>   8.8244 -0.0000</r>
       <r>   8.8244 -0.0000</r>
       <r>   8.8254 -0.0000</r>
       <r>   9.4761 -0.0000</r>
       <r>   9.4761 -0.0000</r>
       <r>   9.4784 -0.0000</r>
       <r>   9.4784 -0.0000</r>
       <r>  10.2633 -0.0000</r>
       <r>  10.2647 -0.0000</r>
       <r>  10.8912 -0.0000</r>
       <r>  10.8917 -0.0000</r>
       <r>  10.8930 -0.0000</r>
       <r>  10.8935 -0.0000</r>
       <r>  11.5299 -0.0000</r>
       <r>  11.5313 -0.0000</r>
      </set>
      <set comment="kpoint 8">
       <r>  -3.2121  1.0000</r>
       <r>  -1.3689  1.0000</r>
       <r>  -1.0060  1.0000</r>
       <r>  -1.0031  1.0000</r>
       <r>  -1.0031  1.0000</r>
       <r>  -1.0003  1.0000</r>
       <r>  -0.6384  1.0000</r>
       <r>   0.8097  1.0000</r>
       <r>   0.8125  1.0000</r>
       <r>   0.8126  1.0000</r>
       <r>   0.8154  1.0000</r>
       <r>   1.1708  1.0000</r>
       <r>   1.1719  1.0000</r>
       <r>   1.1741  1.0000</r>
       <r>   1.1751  1.0000</r>
       <r>   1.5295  1.0000</r>
       <r>   1.5324  1.0000</r>
       <r>   1.5324  1.0000</r>
       <r>   1.5352  1.0000</r>
       <r>   2.9568  1.0000</r>
       <r>   2.9578  1.0000</r>
       <r>   2.9600  1.0000</r>
       <r>   2.9611  1.0000</r>
       <r>   3.6819  1.0000</r>
       <r>   3.6829  1.0000</r>
       <r>   3.6851  1.0000</r>
       <r>   3.6862  1.0000</r>
       <r>   4.5591  1.0000</r>
       <r>   4.8776  1.0000</r>
       <r>   4.8776  1.0000</r>
       <r>   6.1396  1.0000</r>
       <r>   6.1396  1.0000</r>
       <r>   6.4558  1.0000</r>
       <r>   6.5827  1.0000</r>
       <r>   6.5828  1.0000</r>
       <r>   6.6184  1.0000</r>
       <r>   6.6214  1.0000</r>
       <r>   6.6214  1.0000</r>
       <r>   6.6246  1.0000</r>
       <r>   6.9218  1.0000</r>
       <r>   6.9245  1.0000</r>
       <r>   6.9245  1.0000</r>
       <r>   6.9271  1.0000</r>
       <r>   7.2663  1.0026</r>
       <r>   7.2663  1.0026</r>
       <r>   7.8108  0.1822</r>
       <r>   7.8109  0.1820</r>
       <r>   8.1013 -0.0121</r>
       <r>   8.1040 -0.0116</r>
       <r>   8.1040 -0.0116</r>
       <r>   8.1067 -0.0112</r>
       <r>   8.6314 -0.0000</r>
       <r>   8.6341 -0.0000</r>
       <r>   8.6342 -0.0000</r>
       <r>   8.6368 -0.0000</r>
       <r>   8.6928 -0.0000</r>
       <r>   8.6944 -0.0000</r>
       <r>   8.6966 -0.0000</r>
       <r>   8.6982 -0.0000</r>
       <r>   8.8353 -0.0000</r>
       <r>   8.8354 -0.0000</r>
       <r>   8.8444 -0.0000</r>
       <r>   8.8454 -0.0000</r>
       <r>   8.8455 -0.0000</r>
       <r>   8.8466 -0.0000</r>
       <r>   9.3160 -0.0000</r>
       <r>   9.3188 -0.0000</r>
       <r>   9.3188 -0.0000</r>
       <r>   9.3215 -0.0000</r>
       <r>  10.0636 -0.0000</r>
       <r>  10.0641 -0.0000</r>
       <r>  10.0659 -0.0000</r>
      </set>
      <set comment="kpoint 9">
       <r>  -3.1966  1.0000</r>
       <r>  -1.3548  1.0000</r>
       <r>  -1.3525  1.0000</r>
       <r>  -0.9879  1.0000</r>
       <r>  -0.9879  1.0000</r>
       <r>  -0.6244  1.0000</r>
       <r>  -0.6220  1.0000</r>
       <r>   0.4663  1.0000</r>
       <r>   0.8259  1.0000</r>
       <r>   0.8269  1.0000</r>
       <r>   0.8283  1.0000</r>
       <r>   0.8292  1.0000</r>
       <r>   1.1873  1.0000</r>
       <r>   1.1884  1.0000</r>
       <r>   1.5457  1.0000</r>
       <r>   1.5466  1.0000</r>
       <r>   1.5480  1.0000</r>
       <r>   1.5490  1.0000</r>
       <r>   1.9058  1.0000</r>
       <r>   2.6207  1.0000</r>
       <r>   2.6207  1.0000</r>
       <r>   3.2648  1.0000</r>
       <r>   3.2648  1.0000</r>
       <r>   3.4084  1.0000</r>
       <r>   3.4084  1.0000</r>
       <r>   4.0496  1.0000</r>
       <r>   4.0496  1.0000</r>
       <r>   4.5731  1.0000</r>
       <r>   4.5738  1.0000</r>
       <r>   4.8918  1.0000</r>
       <r>   6.1547  1.0000</r>
       <r>   6.2933  1.0000</r>
       <r>   6.2956  1.0000</r>
       <r>   6.4703  1.0000</r>
       <r>   6.4711  1.0000</r>
       <r>   6.5887  1.0000</r>
       <r>   6.5889  1.0000</r>
       <r>   6.5958  1.0000</r>
       <r>   6.5984  1.0000</r>
       <r>   6.6888  1.0000</r>
       <r>   6.6888  1.0000</r>
       <r>   6.9714  1.0000</r>
       <r>   6.9730  1.0000</r>
       <r>   7.2792  1.0033</r>
       <r>   7.2818  1.0035</r>
       <r>   7.8941  0.0032</r>
       <r>   7.8962  0.0008</r>
       <r>   8.0835 -0.0154</r>
       <r>   8.0860 -0.0149</r>
       <r>   8.3061 -0.0002</r>
       <r>   8.3177 -0.0001</r>
       <r>   8.3178 -0.0001</r>
       <r>   8.3647 -0.0000</r>
       <r>   8.3656 -0.0000</r>
       <r>   8.3670 -0.0000</r>
       <r>   8.3680 -0.0000</r>
       <r>   8.8907 -0.0000</r>
       <r>   8.8914 -0.0000</r>
       <r>   8.9553 -0.0000</r>
       <r>   8.9553 -0.0000</r>
       <r>   8.9898 -0.0000</r>
       <r>   8.9917 -0.0000</r>
       <r>   9.0518 -0.0000</r>
       <r>   9.0528 -0.0000</r>
       <r>   9.0532 -0.0000</r>
       <r>   9.0542 -0.0000</r>
       <r>   9.0854 -0.0000</r>
       <r>   9.0871 -0.0000</r>
       <r>   9.6754 -0.0000</r>
       <r>   9.7337 -0.0000</r>
       <r>  10.3579 -0.0000</r>
       <r>  10.3612 -0.0000</r>
      </set>
      <set comment="kpoint 10">
       <r>  -3.1503  1.0000</r>
       <r>  -1.6745  1.0000</r>
       <r>  -1.3079  1.0000</r>
       <r>  -0.9423  1.0000</r>
       <r>  -0.9423  1.0000</r>
       <r>  -0.5777  1.0000</r>
       <r>  -0.2141  1.0000</r>
       <r>   0.1495  1.0000</r>
       <r>   0.5115  1.0000</r>
       <r>   0.5115  1.0000</r>
       <r>   0.8720  1.0000</r>
       <r>   0.8727  1.0000</r>
       <r>   0.8733  1.0000</r>
       <r>   1.5914  1.0000</r>
       <r>   1.5922  1.0000</r>
       <r>   1.5928  1.0000</r>
       <r>   1.9504  1.0000</r>
       <r>   1.9505  1.0000</r>
       <r>   2.3077  1.0000</r>
       <r>   2.3091  1.0000</r>
       <r>   2.3093  1.0000</r>
       <r>   3.0178  1.0000</r>
       <r>   3.0178  1.0000</r>
       <r>   3.7431  1.0000</r>
       <r>   3.7431  1.0000</r>
       <r>   4.0119  1.0000</r>
       <r>   4.4459  1.0000</r>
       <r>   4.4459  1.0000</r>
       <r>   4.6166  1.0000</r>
       <r>   4.9344  1.0000</r>
       <r>   5.7515  1.0000</r>
       <r>   5.9945  1.0000</r>
       <r>   6.0919  1.0000</r>
       <r>   6.0919  1.0000</r>
       <r>   6.1998  1.0000</r>
       <r>   6.2983  1.0000</r>
       <r>   6.4364  1.0000</r>
       <r>   6.5152  1.0000</r>
       <r>   6.6397  1.0000</r>
       <r>   6.6919  1.0000</r>
       <r>   6.6919  1.0000</r>
       <r>   7.1129  1.0001</r>
       <r>   7.3174  1.0067</r>
       <r>   7.3232  1.0073</r>
       <r>   7.6653  0.7533</r>
       <r>   7.6658  0.7515</r>
       <r>   7.8416  0.0961</r>
       <r>   7.8416  0.0961</r>
       <r>   7.8710  0.0359</r>
       <r>   7.9870 -0.0348</r>
       <r>   8.0069 -0.0321</r>
       <r>   8.0656 -0.0192</r>
       <r>   8.0656 -0.0192</r>
       <r>   8.4934 -0.0000</r>
       <r>   8.5313 -0.0000</r>
       <r>   8.5313 -0.0000</r>
       <r>   8.5571 -0.0000</r>
       <r>   8.5572 -0.0000</r>
       <r>   8.6913 -0.0000</r>
       <r>   9.1486 -0.0000</r>
       <r>   9.1858 -0.0000</r>
       <r>   9.3748 -0.0000</r>
       <r>   9.3756 -0.0000</r>
       <r>   9.3768 -0.0000</r>
       <r>   9.4298 -0.0000</r>
       <r>   9.4347 -0.0000</r>
       <r>   9.4388 -0.0000</r>
       <r>   9.4389 -0.0000</r>
       <r>   9.6528 -0.0000</r>
       <r>  10.0560 -0.0000</r>
       <r>  10.0564 -0.0000</r>
       <r>  10.0610 -0.0000</r>
      </set>
      <set comment="kpoint 11">
       <r>  -3.0730  1.0000</r>
       <r>  -1.9654  1.0000</r>
       <r>  -1.2316  1.0000</r>
       <r>  -0.8662  1.0000</r>
       <r>  -0.8662  1.0000</r>
       <r>  -0.5018  1.0000</r>
       <r>  -0.1378  1.0000</r>
       <r>   0.2225  1.0000</r>
       <r>   0.2249  1.0000</r>
       <r>   0.2263  1.0000</r>
       <r>   0.5867  1.0000</r>
       <r>   0.9479  1.0000</r>
       <r>   0.9479  1.0000</r>
       <r>   1.6670  1.0000</r>
       <r>   1.6671  1.0000</r>
       <r>   2.0233  1.0000</r>
       <r>   2.0261  1.0000</r>
       <r>   2.0273  1.0000</r>
       <r>   2.3819  1.0000</r>
       <r>   2.3819  1.0000</r>
       <r>   2.7367  1.0000</r>
       <r>   2.7390  1.0000</r>
       <r>   2.7404  1.0000</r>
       <r>   3.4141  1.0000</r>
       <r>   4.1668  1.0000</r>
       <r>   4.1668  1.0000</r>
       <r>   4.6885  1.0000</r>
       <r>   4.8708  1.0000</r>
       <r>   4.8708  1.0000</r>
       <r>   5.0053  1.0000</r>
       <r>   5.1675  1.0000</r>
       <r>   5.5137  1.0000</r>
       <r>   5.5137  1.0000</r>
       <r>   5.7225  1.0000</r>
       <r>   5.8599  1.0000</r>
       <r>   6.0281  1.0000</r>
       <r>   6.2748  1.0000</r>
       <r>   6.5892  1.0000</r>
       <r>   6.7109  1.0000</r>
       <r>   6.7617  1.0000</r>
       <r>   6.7617  1.0000</r>
       <r>   7.2685  1.0027</r>
       <r>   7.2685  1.0027</r>
       <r>   7.3036  1.0052</r>
       <r>   7.3945  1.0199</r>
       <r>   7.6240  0.8822</r>
       <r>   7.7361  0.4677</r>
       <r>   7.7933  0.2412</r>
       <r>   7.7934  0.2408</r>
       <r>   7.8299  0.1261</r>
       <r>   7.8450  0.0879</r>
       <r>   7.9610 -0.0348</r>
       <r>   7.9611 -0.0348</r>
       <r>   8.0786 -0.0164</r>
       <r>   8.0787 -0.0164</r>
       <r>   8.4204 -0.0000</r>
       <r>   8.6924 -0.0000</r>
       <r>   8.6924 -0.0000</r>
       <r>   8.7147 -0.0000</r>
       <r>   9.1534 -0.0000</r>
       <r>   9.5668 -0.0000</r>
       <r>   9.7166 -0.0000</r>
       <r>   9.7820 -0.0000</r>
       <r>   9.7820 -0.0000</r>
       <r>   9.7899 -0.0000</r>
       <r>   9.8300 -0.0000</r>
       <r>   9.8437 -0.0000</r>
       <r>   9.8527 -0.0000</r>
       <r>   9.8529 -0.0000</r>
       <r>  10.0246 -0.0000</r>
       <r>  10.0246 -0.0000</r>
       <r>  10.3418 -0.0000</r>
      </set>
      <set comment="kpoint 12">
       <r>  -2.9650  1.0000</r>
       <r>  -2.2261  1.0000</r>
       <r>  -1.1249  1.0000</r>
       <r>  -0.7598  1.0000</r>
       <r>  -0.7598  1.0000</r>
       <r>  -0.3961  1.0000</r>
       <r>  -0.3949  1.0000</r>
       <r>  -0.0320  1.0000</r>
       <r>  -0.0320  1.0000</r>
       <r>   0.3304  1.0000</r>
       <r>   0.6902  1.0000</r>
       <r>   1.0531  1.0000</r>
       <r>   1.0531  1.0000</r>
       <r>   1.7712  1.0000</r>
       <r>   1.7715  1.0000</r>
       <r>   1.7725  1.0000</r>
       <r>   1.7728  1.0000</r>
       <r>   2.4848  1.0000</r>
       <r>   2.4871  1.0000</r>
       <r>   2.4872  1.0000</r>
       <r>   2.8238  1.0000</r>
       <r>   2.8411  1.0000</r>
       <r>   2.8412  1.0000</r>
       <r>   3.1963  1.0000</r>
       <r>   4.5881  1.0000</r>
       <r>   4.6206  1.0000</r>
       <r>   4.6206  1.0000</r>
       <r>   4.7893  1.0000</r>
       <r>   4.9374  1.0000</r>
       <r>   4.9374  1.0000</r>
       <r>   5.1047  1.0000</r>
       <r>   5.2860  1.0000</r>
       <r>   5.3236  1.0000</r>
       <r>   5.3236  1.0000</r>
       <r>   5.4788  1.0000</r>
       <r>   5.7864  1.0000</r>
       <r>   6.3794  1.0000</r>
       <r>   6.6925  1.0000</r>
       <r>   6.6973  1.0000</r>
       <r>   6.6973  1.0000</r>
       <r>   6.8105  1.0000</r>
       <r>   6.8617  1.0000</r>
       <r>   6.8617  1.0000</r>
       <r>   7.0795  1.0000</r>
       <r>   7.3876  1.0184</r>
       <r>   7.3923  1.0194</r>
       <r>   7.3927  1.0195</r>
       <r>   7.4932  1.0351</r>
       <r>   7.4949  1.0349</r>
       <r>   7.5497  1.0103</r>
       <r>   7.5497  1.0103</r>
       <r>   8.1781 -0.0033</r>
       <r>   8.1898 -0.0026</r>
       <r>   8.2526 -0.0007</r>
       <r>   8.5209 -0.0000</r>
       <r>   8.6233 -0.0000</r>
       <r>   8.8167 -0.0000</r>
       <r>   8.8167 -0.0000</r>
       <r>   8.8616 -0.0000</r>
       <r>   8.9045 -0.0000</r>
       <r>   9.5351 -0.0000</r>
       <r>   9.5351 -0.0000</r>
       <r>   9.5958 -0.0000</r>
       <r>   9.9885 -0.0000</r>
       <r>  10.2322 -0.0000</r>
       <r>  10.2565 -0.0000</r>
       <r>  10.2894 -0.0000</r>
       <r>  10.2946 -0.0000</r>
       <r>  10.2948 -0.0000</r>
       <r>  10.4359 -0.0000</r>
       <r>  10.5771 -0.0000</r>
       <r>  10.7622 -0.0000</r>
      </set>
      <set comment="kpoint 13">
       <r>  -2.8262  1.0000</r>
       <r>  -2.4566  1.0000</r>
       <r>  -0.9879  1.0000</r>
       <r>  -0.6244  1.0000</r>
       <r>  -0.6231  1.0000</r>
       <r>  -0.6217  1.0000</r>
       <r>  -0.2605  1.0000</r>
       <r>  -0.2591  1.0000</r>
       <r>  -0.2578  1.0000</r>
       <r>   0.1039  1.0000</r>
       <r>   1.1840  1.0000</r>
       <r>   1.1882  1.0000</r>
       <r>   1.1886  1.0000</r>
       <r>   1.5479  1.0000</r>
       <r>   1.5479  1.0000</r>
       <r>   1.9062  1.0000</r>
       <r>   1.9062  1.0000</r>
       <r>   2.2527  1.0000</r>
       <r>   2.2640  1.0000</r>
       <r>   2.2642  1.0000</r>
       <r>   2.9727  1.0000</r>
       <r>   3.3276  1.0000</r>
       <r>   3.3276  1.0000</r>
       <r>   3.6815  1.0000</r>
       <r>   4.0263  1.0000</r>
       <r>   4.3778  1.0000</r>
       <r>   4.3778  1.0000</r>
       <r>   4.7284  1.0000</r>
       <r>   4.9186  1.0000</r>
       <r>   5.1021  1.0000</r>
       <r>   5.1021  1.0000</r>
       <r>   5.2324  1.0000</r>
       <r>   5.2635  1.0000</r>
       <r>   5.5733  1.0000</r>
       <r>   5.8035  1.0000</r>
       <r>   5.8035  1.0000</r>
       <r>   6.1426  1.0000</r>
       <r>   6.1426  1.0000</r>
       <r>   6.5133  1.0000</r>
       <r>   6.8247  1.0000</r>
       <r>   6.8399  1.0000</r>
       <r>   6.8400  1.0000</r>
       <r>   6.8656  1.0000</r>
       <r>   6.9386  1.0000</r>
       <r>   6.9906  1.0000</r>
       <r>   6.9906  1.0000</r>
       <r>   7.1739  1.0003</r>
       <r>   7.2803  1.0034</r>
       <r>   7.3347  1.0088</r>
       <r>   7.3347  1.0088</r>
       <r>   7.6224  0.8865</r>
       <r>   7.9643 -0.0351</r>
       <r>   8.3267 -0.0001</r>
       <r>   8.6837 -0.0000</r>
       <r>   8.7183 -0.0000</r>
       <r>   8.9579 -0.0000</r>
       <r>   8.9579 -0.0000</r>
       <r>   8.9919 -0.0000</r>
       <r>   9.0110 -0.0000</r>
       <r>   9.3157 -0.0000</r>
       <r>   9.3157 -0.0000</r>
       <r>   9.3749 -0.0000</r>
       <r>   9.4357 -0.0000</r>
       <r>   9.7390 -0.0000</r>
       <r>  10.0200 -0.0000</r>
       <r>  10.4377 -0.0000</r>
       <r>  10.7033 -0.0000</r>
       <r>  10.7078 -0.0000</r>
       <r>  10.7641 -0.0000</r>
       <r>  10.7641 -0.0000</r>
       <r>  11.1469 -0.0000</r>
       <r>  11.2157 -0.0000</r>
      </set>
      <set comment="kpoint 14">
       <r>  -2.6580  1.0000</r>
       <r>  -2.6553  1.0000</r>
       <r>  -0.8219  1.0000</r>
       <r>  -0.8191  1.0000</r>
       <r>  -0.4581  1.0000</r>
       <r>  -0.4569  1.0000</r>
       <r>  -0.4553  1.0000</r>
       <r>  -0.4541  1.0000</r>
       <r>  -0.0941  1.0000</r>
       <r>  -0.0913  1.0000</r>
       <r>   1.3512  1.0000</r>
       <r>   1.3523  1.0000</r>
       <r>   1.3540  1.0000</r>
       <r>   1.3551  1.0000</r>
       <r>   1.7050  1.0000</r>
       <r>   1.7064  1.0000</r>
       <r>   2.0683  1.0000</r>
       <r>   2.0695  1.0000</r>
       <r>   2.0712  1.0000</r>
       <r>   2.0724  1.0000</r>
       <r>   3.4863  1.0000</r>
       <r>   3.4876  1.0000</r>
       <r>   3.8395  1.0000</r>
       <r>   3.8398  1.0000</r>
       <r>   3.8409  1.0000</r>
       <r>   3.8411  1.0000</r>
       <r>   4.1920  1.0000</r>
       <r>   4.1934  1.0000</r>
       <r>   5.0753  1.0000</r>
       <r>   5.0782  1.0000</r>
       <r>   5.3871  1.0000</r>
       <r>   5.3901  1.0000</r>
       <r>   5.6092  1.0000</r>
       <r>   5.6093  1.0000</r>
       <r>   5.6106  1.0000</r>
       <r>   5.6107  1.0000</r>
       <r>   6.3086  1.0000</r>
       <r>   6.3087  1.0000</r>
       <r>   6.3100  1.0000</r>
       <r>   6.3102  1.0000</r>
       <r>   6.6744  1.0000</r>
       <r>   6.6771  1.0000</r>
       <r>   6.9842  1.0000</r>
       <r>   6.9870  1.0000</r>
       <r>   7.0937  1.0000</r>
       <r>   7.0967  1.0000</r>
       <r>   7.1461  1.0002</r>
       <r>   7.1475  1.0002</r>
       <r>   7.1491  1.0002</r>
       <r>   7.1505  1.0002</r>
       <r>   7.7776  0.2991</r>
       <r>   7.7806  0.2876</r>
       <r>   8.4898 -0.0000</r>
       <r>   8.4925 -0.0000</r>
       <r>   9.1218 -0.0000</r>
       <r>   9.1224 -0.0000</r>
       <r>   9.1246 -0.0000</r>
       <r>   9.1253 -0.0000</r>
       <r>   9.1790 -0.0000</r>
       <r>   9.1819 -0.0000</r>
       <r>   9.2137 -0.0000</r>
       <r>   9.2157 -0.0000</r>
       <r>   9.4904 -0.0000</r>
       <r>   9.4927 -0.0000</r>
       <r>  10.2770 -0.0000</r>
       <r>  10.2784 -0.0000</r>
       <r>  10.9068 -0.0000</r>
       <r>  10.9073 -0.0000</r>
       <r>  11.1792 -0.0000</r>
       <r>  11.1801 -0.0000</r>
       <r>  11.2028 -0.0000</r>
       <r>  11.2069 -0.0000</r>
      </set>
      <set comment="kpoint 15">
       <r>  -3.1657  1.0000</r>
       <r>  -1.6898  1.0000</r>
       <r>  -0.9603  1.0000</r>
       <r>  -0.9575  1.0000</r>
       <r>  -0.9575  1.0000</r>
       <r>  -0.9547  1.0000</r>
       <r>  -0.2292  1.0000</r>
       <r>   0.4936  1.0000</r>
       <r>   0.4964  1.0000</r>
       <r>   0.4964  1.0000</r>
       <r>   0.4993  1.0000</r>
       <r>   1.2158  1.0000</r>
       <r>   1.2169  1.0000</r>
       <r>   1.2191  1.0000</r>
       <r>   1.2201  1.0000</r>
       <r>   1.9327  1.0000</r>
       <r>   1.9355  1.0000</r>
       <r>   1.9355  1.0000</r>
       <r>   1.9384  1.0000</r>
       <r>   2.6481  1.0000</r>
       <r>   2.6491  1.0000</r>
       <r>   2.6514  1.0000</r>
       <r>   2.6524  1.0000</r>
       <r>   3.9973  1.0000</r>
       <r>   4.0768  1.0000</r>
       <r>   4.0778  1.0000</r>
       <r>   4.0800  1.0000</r>
       <r>   4.0811  1.0000</r>
       <r>   4.9202  1.0000</r>
       <r>   4.9202  1.0000</r>
       <r>   6.0782  1.0000</r>
       <r>   6.0813  1.0000</r>
       <r>   6.0813  1.0000</r>
       <r>   6.0843  1.0000</r>
       <r>   6.1847  1.0000</r>
       <r>   6.1848  1.0000</r>
       <r>   6.2840  1.0000</r>
       <r>   6.2841  1.0000</r>
       <r>   6.9645  1.0000</r>
       <r>   6.9672  1.0000</r>
       <r>   6.9672  1.0000</r>
       <r>   6.9698  1.0000</r>
       <r>   7.0983  1.0000</r>
       <r>   7.5661  0.9931</r>
       <r>   7.5661  0.9930</r>
       <r>   7.6510  0.8021</r>
       <r>   7.6510  0.8021</r>
       <r>   8.1699 -0.0039</r>
       <r>   8.1712 -0.0038</r>
       <r>   8.1734 -0.0036</r>
       <r>   8.1748 -0.0035</r>
       <r>   8.2741 -0.0004</r>
       <r>   8.2766 -0.0004</r>
       <r>   8.2766 -0.0004</r>
       <r>   8.2789 -0.0003</r>
       <r>   8.3321 -0.0001</r>
       <r>   8.3348 -0.0001</r>
       <r>   8.3348 -0.0001</r>
       <r>   8.3375 -0.0001</r>
       <r>   9.1599 -0.0000</r>
       <r>   9.1599 -0.0000</r>
       <r>   9.3342 -0.0000</r>
       <r>   9.3361 -0.0000</r>
       <r>   9.3361 -0.0000</r>
       <r>   9.3381 -0.0000</r>
       <r>   9.7012 -0.0000</r>
       <r>   9.7040 -0.0000</r>
       <r>   9.7040 -0.0000</r>
       <r>   9.7067 -0.0000</r>
       <r>   9.7593 -0.0000</r>
       <r>   9.7614 -0.0000</r>
       <r>   9.7630 -0.0000</r>
      </set>
      <set comment="kpoint 16">
       <r>  -3.1503  1.0000</r>
       <r>  -1.6745  1.0000</r>
       <r>  -1.3079  1.0000</r>
       <r>  -0.9423  1.0000</r>
       <r>  -0.9423  1.0000</r>
       <r>  -0.5776  1.0000</r>
       <r>  -0.2141  1.0000</r>
       <r>   0.1495  1.0000</r>
       <r>   0.5115  1.0000</r>
       <r>   0.5115  1.0000</r>
       <r>   0.8712  1.0000</r>
       <r>   0.8727  1.0000</r>
       <r>   0.8740  1.0000</r>
       <r>   1.5907  1.0000</r>
       <r>   1.5922  1.0000</r>
       <r>   1.5935  1.0000</r>
       <r>   1.9504  1.0000</r>
       <r>   1.9504  1.0000</r>
       <r>   2.3077  1.0000</r>
       <r>   2.3091  1.0000</r>
       <r>   2.3092  1.0000</r>
       <r>   3.0178  1.0000</r>
       <r>   3.0178  1.0000</r>
       <r>   3.7431  1.0000</r>
       <r>   3.7431  1.0000</r>
       <r>   4.0119  1.0000</r>
       <r>   4.4459  1.0000</r>
       <r>   4.4459  1.0000</r>
       <r>   4.6166  1.0000</r>
       <r>   4.9344  1.0000</r>
       <r>   5.7515  1.0000</r>
       <r>   5.9945  1.0000</r>
       <r>   6.0919  1.0000</r>
       <r>   6.0919  1.0000</r>
       <r>   6.1998  1.0000</r>
       <r>   6.2983  1.0000</r>
       <r>   6.4364  1.0000</r>
       <r>   6.5152  1.0000</r>
       <r>   6.6397  1.0000</r>
       <r>   6.6919  1.0000</r>
       <r>   6.6919  1.0000</r>
       <r>   7.1129  1.0001</r>
       <r>   7.3174  1.0067</r>
       <r>   7.3232  1.0073</r>
       <r>   7.6653  0.7533</r>
       <r>   7.6658  0.7515</r>
       <r>   7.8416  0.0961</r>
       <r>   7.8416  0.0961</r>
       <r>   7.8709  0.0359</r>
       <r>   7.9870 -0.0348</r>
       <r>   8.0068 -0.0321</r>
       <r>   8.0656 -0.0192</r>
       <r>   8.0656 -0.0192</r>
       <r>   8.4934 -0.0000</r>
       <r>   8.5314 -0.0000</r>
       <r>   8.5314 -0.0000</r>
       <r>   8.5570 -0.0000</r>
       <r>   8.5571 -0.0000</r>
       <r>   8.6913 -0.0000</r>
       <r>   9.1486 -0.0000</r>
       <r>   9.1858 -0.0000</r>
       <r>   9.3748 -0.0000</r>
       <r>   9.3756 -0.0000</r>
       <r>   9.3767 -0.0000</r>
       <r>   9.4299 -0.0000</r>
       <r>   9.4345 -0.0000</r>
       <r>   9.4388 -0.0000</r>
       <r>   9.4391 -0.0000</r>
       <r>   9.6528 -0.0000</r>
       <r>  10.0563 -0.0000</r>
       <r>  10.0563 -0.0000</r>
       <r>  10.0606 -0.0000</r>
      </set>
      <set comment="kpoint 17">
       <r>  -3.1039  1.0000</r>
       <r>  -1.6298  1.0000</r>
       <r>  -1.6274  1.0000</r>
       <r>  -0.8966  1.0000</r>
       <r>  -0.8966  1.0000</r>
       <r>  -0.1703  1.0000</r>
       <r>  -0.1684  1.0000</r>
       <r>  -0.1666  1.0000</r>
       <r>   0.5551  1.0000</r>
       <r>   0.5560  1.0000</r>
       <r>   0.5574  1.0000</r>
       <r>   0.5584  1.0000</r>
       <r>   1.2770  1.0000</r>
       <r>   1.2780  1.0000</r>
       <r>   1.9930  1.0000</r>
       <r>   1.9942  1.0000</r>
       <r>   1.9955  1.0000</r>
       <r>   1.9957  1.0000</r>
       <r>   1.9970  1.0000</r>
       <r>   1.9981  1.0000</r>
       <r>   2.7088  1.0000</r>
       <r>   3.3508  1.0000</r>
       <r>   3.3508  1.0000</r>
       <r>   3.4992  1.0000</r>
       <r>   3.4992  1.0000</r>
       <r>   4.0551  1.0000</r>
       <r>   4.0561  1.0000</r>
       <r>   4.8418  1.0000</r>
       <r>   4.8418  1.0000</r>
       <r>   4.9769  1.0000</r>
       <r>   5.4477  1.0000</r>
       <r>   5.4501  1.0000</r>
       <r>   6.0582  1.0000</r>
       <r>   6.0582  1.0000</r>
       <r>   6.2335  1.0000</r>
       <r>   6.2335  1.0000</r>
       <r>   6.2448  1.0000</r>
       <r>   6.3396  1.0000</r>
       <r>   6.3422  1.0000</r>
       <r>   6.8088  1.0000</r>
       <r>   6.8105  1.0000</r>
       <r>   7.1562  1.0002</r>
       <r>   7.1572  1.0002</r>
       <r>   7.5375  1.0198</r>
       <r>   7.5385  1.0191</r>
       <r>   7.5399  1.0182</r>
       <r>   7.5409  1.0175</r>
       <r>   7.7056  0.5960</r>
       <r>   7.7079  0.5867</r>
       <r>   7.7097  0.5791</r>
       <r>   7.7101  0.5773</r>
       <r>   7.7113  0.5724</r>
       <r>   8.4425 -0.0000</r>
       <r>   8.4448 -0.0000</r>
       <r>   8.9172 -0.0000</r>
       <r>   8.9183 -0.0000</r>
       <r>   8.9185 -0.0000</r>
       <r>   8.9195 -0.0000</r>
       <r>   9.0214 -0.0000</r>
       <r>   9.0214 -0.0000</r>
       <r>   9.0755 -0.0000</r>
       <r>   9.0774 -0.0000</r>
       <r>   9.1253 -0.0000</r>
       <r>   9.2818 -0.0000</r>
       <r>   9.2825 -0.0000</r>
       <r>   9.5690 -0.0000</r>
       <r>   9.5690 -0.0000</r>
       <r>  10.0187 -0.0000</r>
       <r>  10.0209 -0.0000</r>
       <r>  10.4457 -0.0000</r>
       <r>  10.5010 -0.0000</r>
       <r>  10.5012 -0.0000</r>
      </set>
      <set comment="kpoint 18">
       <r>  -3.0267  1.0000</r>
       <r>  -1.9194  1.0000</r>
       <r>  -1.5522  1.0000</r>
       <r>  -0.8206  1.0000</r>
       <r>  -0.8206  1.0000</r>
       <r>  -0.4560  1.0000</r>
       <r>  -0.0930  1.0000</r>
       <r>   0.2678  1.0000</r>
       <r>   0.2702  1.0000</r>
       <r>   0.2716  1.0000</r>
       <r>   0.6320  1.0000</r>
       <r>   0.6320  1.0000</r>
       <r>   0.9924  1.0000</r>
       <r>   1.7098  1.0000</r>
       <r>   1.7126  1.0000</r>
       <r>   1.7137  1.0000</r>
       <r>   2.0698  1.0000</r>
       <r>   2.0698  1.0000</r>
       <r>   2.4265  1.0000</r>
       <r>   2.4265  1.0000</r>
       <r>   3.1344  1.0000</r>
       <r>   3.1353  1.0000</r>
       <r>   3.1388  1.0000</r>
       <r>   3.4582  1.0000</r>
       <r>   3.8611  1.0000</r>
       <r>   3.8611  1.0000</r>
       <r>   4.1285  1.0000</r>
       <r>   4.8625  1.0000</r>
       <r>   5.0479  1.0000</r>
       <r>   5.1742  1.0000</r>
[...]
       <r>   6.8206  1.0000</r>
       <r>   7.1674  1.0003</r>
       <r>   7.1685  1.0003</r>
       <r>   7.1689  1.0003</r>
       <r>   7.1700  1.0003</r>
       <r>   7.5026  1.0339</r>
       <r>   7.5047  1.0335</r>
       <r>   7.5066  1.0331</r>
       <r>   7.5068  1.0330</r>
       <r>   7.5069  1.0330</r>
       <r>   7.5071  1.0330</r>
       <r>   7.5090  1.0325</r>
       <r>   7.5111  1.0320</r>
       <r>  10.4729 -0.0000</r>
       <r>  10.4751 -0.0000</r>
       <r>  10.4758 -0.0000</r>
       <r>  10.4779 -0.0000</r>
       <r>  10.6119 -0.0000</r>
       <r>  10.6131 -0.0000</r>
       <r>  10.6136 -0.0000</r>
       <r>  10.6147 -0.0000</r>
       <r>  11.1497 -0.0000</r>
       <r>  11.1506 -0.0000</r>
       <r>  11.1508 -0.0000</r>
       <r>  11.1520 -0.0000</r>
       <r>  11.1522 -0.0000</r>
       <r>  11.1533 -0.0000</r>
       <r>  11.1536 -0.0000</r>
       <r>  11.1545 -0.0000</r>
      </set>
      <set comment="kpoint 190">
       <r>  -2.1188  1.0000</r>
       <r>  -2.1187  1.0000</r>
       <r>  -2.1187  1.0000</r>
       <r>  -2.1187  1.0000</r>
       <r>   0.0687  1.0000</r>
       <r>   0.0733  1.0000</r>
       <r>   0.0733  1.0000</r>
       <r>   0.0738  1.0000</r>
       <r>   0.0739  1.0000</r>
       <r>   0.0745  1.0000</r>
       <r>   0.0745  1.0000</r>
       <r>   0.0790  1.0000</r>
       <r>   2.2275  1.0000</r>
       <r>   2.2275  1.0000</r>
       <r>   2.2275  1.0000</r>
       <r>   2.2275  1.0000</r>
       <r>   2.2275  1.0000</r>
       <r>   2.2275  1.0000</r>
       <r>   2.2275  1.0000</r>
       <r>   2.2275  1.0000</r>
       <r>   4.2641  1.0000</r>
       <r>   4.2641  1.0000</r>
       <r>   4.2655  1.0000</r>
       <r>   4.2656  1.0000</r>
       <r>   4.2656  1.0000</r>
       <r>   4.2657  1.0000</r>
       <r>   4.2671  1.0000</r>
       <r>   4.2671  1.0000</r>
       <r>   4.4540  1.0000</r>
       <r>   4.4540  1.0000</r>
       <r>   4.4556  1.0000</r>
       <r>   4.4556  1.0000</r>
       <r>   4.4556  1.0000</r>
       <r>   4.4557  1.0000</r>
       <r>   4.4573  1.0000</r>
       <r>   4.4573  1.0000</r>
       <r>   5.8859  1.0000</r>
       <r>   5.8859  1.0000</r>
       <r>   5.8859  1.0000</r>
       <r>   5.8859  1.0000</r>
       <r>   6.4076  1.0000</r>
       <r>   6.4076  1.0000</r>
       <r>   6.4076  1.0000</r>
       <r>   6.4076  1.0000</r>
       <r>   7.2768  1.0032</r>
       <r>   7.2768  1.0032</r>
       <r>   7.2768  1.0032</r>
       <r>   7.2768  1.0032</r>
       <r>   8.5402 -0.0000</r>
       <r>   8.5402 -0.0000</r>
       <r>   8.5408 -0.0000</r>
       <r>   8.5417 -0.0000</r>
       <r>   8.5433 -0.0000</r>
       <r>   8.5442 -0.0000</r>
       <r>   8.5447 -0.0000</r>
       <r>   8.5447 -0.0000</r>
       <r>   9.9910 -0.0000</r>
       <r>   9.9910 -0.0000</r>
       <r>   9.9910 -0.0000</r>
       <r>   9.9910 -0.0000</r>
       <r>   9.9910 -0.0000</r>
       <r>   9.9910 -0.0000</r>
       <r>   9.9910 -0.0000</r>
       <r>   9.9910 -0.0000</r>
       <r>  10.6962 -0.0000</r>
       <r>  10.6962 -0.0000</r>
       <r>  10.6962 -0.0000</r>
       <r>  10.6962 -0.0000</r>
       <r>  10.6962 -0.0000</r>
       <r>  10.6962 -0.0000</r>
       <r>  10.6962 -0.0000</r>
       <r>  10.6962 -0.0000</r>
      </set>
      <set comment="kpoint 191">
       <r>  -2.1034  1.0000</r>
       <r>  -2.1034  1.0000</r>
       <r>  -2.1034  1.0000</r>
       <r>  -2.1034  1.0000</r>
       <r>  -0.2741  1.0000</r>
       <r>  -0.2741  1.0000</r>
       <r>  -0.2741  1.0000</r>
       <r>  -0.2741  1.0000</r>
       <r>   0.4511  1.0000</r>
       <r>   0.4511  1.0000</r>
       <r>   0.4511  1.0000</r>
       <r>   0.4511  1.0000</r>
       <r>   2.2424  1.0000</r>
       <r>   2.2424  1.0000</r>
       <r>   2.2424  1.0000</r>
       <r>   2.2424  1.0000</r>
       <r>   2.2424  1.0000</r>
       <r>   2.2424  1.0000</r>
       <r>   2.2424  1.0000</r>
       <r>   2.2424  1.0000</r>
       <r>   4.0092  1.0000</r>
       <r>   4.0092  1.0000</r>
       <r>   4.0095  1.0000</r>
       <r>   4.0095  1.0000</r>
       <r>   4.0095  1.0000</r>
       <r>   4.0095  1.0000</r>
       <r>   4.0098  1.0000</r>
       <r>   4.0098  1.0000</r>
       <r>   4.7398  1.0000</r>
       <r>   4.7398  1.0000</r>
       <r>   4.7403  1.0000</r>
       <r>   4.7403  1.0000</r>
       <r>   4.7403  1.0000</r>
       <r>   4.7403  1.0000</r>
       <r>   4.7408  1.0000</r>
       <r>   4.7408  1.0000</r>
       <r>   5.5897  1.0000</r>
       <r>   5.5897  1.0000</r>
       <r>   5.5897  1.0000</r>
       <r>   5.5897  1.0000</r>
       <r>   6.4479  1.0000</r>
       <r>   6.4479  1.0000</r>
       <r>   6.4479  1.0000</r>
       <r>   6.4479  1.0000</r>
       <r>   7.5739  0.9828</r>
       <r>   7.5739  0.9828</r>
       <r>   7.5739  0.9828</r>
       <r>   7.5739  0.9828</r>
       <r>   8.2110 -0.0017</r>
       <r>   8.2110 -0.0017</r>
       <r>   8.2110 -0.0017</r>
       <r>   8.2110 -0.0017</r>
       <r>   8.9020 -0.0000</r>
       <r>   8.9020 -0.0000</r>
       <r>   8.9020 -0.0000</r>
       <r>   8.9020 -0.0000</r>
       <r>   9.7125 -0.0000</r>
       <r>   9.7125 -0.0000</r>
       <r>   9.7129 -0.0000</r>
       <r>   9.7129 -0.0000</r>
       <r>   9.7129 -0.0000</r>
       <r>   9.7129 -0.0000</r>
       <r>   9.7133 -0.0000</r>
       <r>   9.7133 -0.0000</r>
       <r>  10.7580 -0.0000</r>
       <r>  10.7580 -0.0000</r>
       <r>  10.7588 -0.0000</r>
       <r>  10.7588 -0.0000</r>
       <r>  10.7588 -0.0000</r>
       <r>  10.7588 -0.0000</r>
       <r>  10.7596 -0.0000</r>
       <r>  10.7596 -0.0000</r>
      </set>
      <set comment="kpoint 192">
       <r>  -2.0574  1.0000</r>
       <r>  -2.0574  1.0000</r>
       <r>  -2.0574  1.0000</r>
       <r>  -2.0574  1.0000</r>
       <r>  -0.5926  1.0000</r>
       <r>  -0.5926  1.0000</r>
       <r>  -0.5926  1.0000</r>
       <r>  -0.5926  1.0000</r>
       <r>   0.8572  1.0000</r>
       <r>   0.8572  1.0000</r>
       <r>   0.8572  1.0000</r>
       <r>   0.8572  1.0000</r>
       <r>   2.2870  1.0000</r>
       <r>   2.2870  1.0000</r>
       <r>   2.2870  1.0000</r>
       <r>   2.2870  1.0000</r>
       <r>   2.2870  1.0000</r>
       <r>   2.2870  1.0000</r>
       <r>   2.2870  1.0000</r>
       <r>   2.2870  1.0000</r>
       <r>   3.7058  1.0000</r>
       <r>   3.7058  1.0000</r>
       <r>   3.7059  1.0000</r>
       <r>   3.7059  1.0000</r>
       <r>   3.7059  1.0000</r>
       <r>   3.7059  1.0000</r>
       <r>   3.7061  1.0000</r>
       <r>   3.7061  1.0000</r>
       <r>   5.0413  1.0000</r>
       <r>   5.0413  1.0000</r>
       <r>   5.0413  1.0000</r>
       <r>   5.0414  1.0000</r>
       <r>   5.1291  1.0000</r>
       <r>   5.1291  1.0000</r>
       <r>   5.1294  1.0000</r>
       <r>   5.1294  1.0000</r>
       <r>   5.1294  1.0000</r>
       <r>   5.1294  1.0000</r>
       <r>   5.1297  1.0000</r>
       <r>   5.1297  1.0000</r>
       <r>   6.5061  1.0000</r>
       <r>   6.5061  1.0000</r>
       <r>   6.5061  1.0000</r>
       <r>   6.5061  1.0000</r>
       <r>   7.9077 -0.0107</r>
       <r>   7.9077 -0.0107</r>
       <r>   7.9077 -0.0107</r>
       <r>   7.9077 -0.0107</r>
       <r>   8.1877 -0.0027</r>
       <r>   8.1878 -0.0027</r>
       <r>   8.1878 -0.0027</r>
       <r>   8.1878 -0.0027</r>
       <r>   9.1880 -0.0000</r>
       <r>   9.1880 -0.0000</r>
       <r>   9.1884 -0.0000</r>
       <r>   9.1884 -0.0000</r>
       <r>   9.1884 -0.0000</r>
       <r>   9.1885 -0.0000</r>
       <r>   9.1888 -0.0000</r>
       <r>   9.1888 -0.0000</r>
       <r>   9.2892 -0.0000</r>
       <r>   9.2892 -0.0000</r>
       <r>   9.2892 -0.0000</r>
       <r>   9.2892 -0.0000</r>
       <r>  10.8340 -0.0000</r>
       <r>  10.8340 -0.0000</r>
       <r>  10.8347 -0.0000</r>
       <r>  10.8347 -0.0000</r>
       <r>  10.8347 -0.0000</r>
       <r>  10.8347 -0.0000</r>
       <r>  10.8354 -0.0000</r>
       <r>  10.8354 -0.0000</r>
      </set>
      <set comment="kpoint 193">
       <r>  -1.9807  1.0000</r>
       <r>  -1.9807  1.0000</r>
       <r>  -1.9807  1.0000</r>
       <r>  -1.9807  1.0000</r>
       <r>  -0.8813  1.0000</r>
       <r>  -0.8813  1.0000</r>
       <r>  -0.8813  1.0000</r>
       <r>  -0.8813  1.0000</r>
       <r>   1.2919  1.0000</r>
       <r>   1.2919  1.0000</r>
       <r>   1.2919  1.0000</r>
       <r>   1.2919  1.0000</r>
       <r>   2.3614  1.0000</r>
       <r>   2.3614  1.0000</r>
       <r>   2.3614  1.0000</r>
       <r>   2.3614  1.0000</r>
       <r>   2.3614  1.0000</r>
       <r>   2.3614  1.0000</r>
       <r>   2.3614  1.0000</r>
       <r>   2.3614  1.0000</r>
       <r>   3.4271  1.0000</r>
       <r>   3.4271  1.0000</r>
       <r>   3.4272  1.0000</r>
       <r>   3.4272  1.0000</r>
       <r>   3.4272  1.0000</r>
       <r>   3.4272  1.0000</r>
       <r>   3.4273  1.0000</r>
       <r>   3.4273  1.0000</r>
       <r>   4.4531  1.0000</r>
       <r>   4.4531  1.0000</r>
       <r>   4.4531  1.0000</r>
       <r>   4.4532  1.0000</r>
       <r>   5.5503  1.0000</r>
       <r>   5.5503  1.0000</r>
       <r>   5.5505  1.0000</r>
       <r>   5.5505  1.0000</r>
       <r>   5.5505  1.0000</r>
       <r>   5.5505  1.0000</r>
       <r>   5.5508  1.0000</r>
       <r>   5.5508  1.0000</r>
       <r>   6.5836  1.0000</r>
       <r>   6.5836  1.0000</r>
       <r>   6.5836  1.0000</r>
       <r>   6.5836  1.0000</r>
       <r>   7.6328  0.8580</r>
       <r>   7.6328  0.8580</r>
       <r>   7.6328  0.8580</r>
       <r>   7.6328  0.8580</r>
       <r>   8.6205 -0.0000</r>
       <r>   8.6205 -0.0000</r>
       <r>   8.6208 -0.0000</r>
       <r>   8.6209 -0.0000</r>
       <r>   8.6209 -0.0000</r>
       <r>   8.6209 -0.0000</r>
       <r>   8.6212 -0.0000</r>
       <r>   8.6212 -0.0000</r>
       <r>   8.9045 -0.0000</r>
       <r>   8.9045 -0.0000</r>
       <r>   8.9045 -0.0000</r>
       <r>   8.9045 -0.0000</r>
       <r>   9.7038 -0.0000</r>
       <r>   9.7038 -0.0000</r>
       <r>   9.7038 -0.0000</r>
       <r>   9.7038 -0.0000</r>
       <r>  10.9171 -0.0000</r>
       <r>  10.9171 -0.0000</r>
       <r>  10.9177 -0.0000</r>
       <r>  10.9177 -0.0000</r>
       <r>  10.9177 -0.0000</r>
       <r>  10.9177 -0.0000</r>
       <r>  10.9182 -0.0000</r>
       <r>  10.9182 -0.0000</r>
      </set>
      <set comment="kpoint 194">
       <r>  -1.8735  1.0000</r>
       <r>  -1.8735  1.0000</r>
       <r>  -1.8735  1.0000</r>
       <r>  -1.8735  1.0000</r>
       <r>  -1.1402  1.0000</r>
       <r>  -1.1402  1.0000</r>
       <r>  -1.1402  1.0000</r>
       <r>  -1.1401  1.0000</r>
       <r>   1.7548  1.0000</r>
       <r>   1.7548  1.0000</r>
       <r>   1.7548  1.0000</r>
       <r>   1.7548  1.0000</r>
       <r>   2.4654  1.0000</r>
       <r>   2.4654  1.0000</r>
       <r>   2.4654  1.0000</r>
       <r>   2.4654  1.0000</r>
       <r>   2.4654  1.0000</r>
       <r>   2.4654  1.0000</r>
       <r>   2.4654  1.0000</r>
       <r>   2.4654  1.0000</r>
       <r>   3.1766  1.0000</r>
       <r>   3.1766  1.0000</r>
       <r>   3.1766  1.0000</r>
       <r>   3.1766  1.0000</r>
       <r>   3.1766  1.0000</r>
       <r>   3.1766  1.0000</r>
       <r>   3.1766  1.0000</r>
       <r>   3.1766  1.0000</r>
       <r>   3.8700  1.0000</r>
       <r>   3.8700  1.0000</r>
       <r>   3.8700  1.0000</r>
       <r>   3.8700  1.0000</r>
       <r>   5.9999  1.0000</r>
       <r>   5.9999  1.0000</r>
       <r>   6.0001  1.0000</r>
       <r>   6.0001  1.0000</r>
       <r>   6.0001  1.0000</r>
       <r>   6.0001  1.0000</r>
       <r>   6.0003  1.0000</r>
       <r>   6.0003  1.0000</r>
       <r>   6.6874  1.0000</r>
       <r>   6.6874  1.0000</r>
       <r>   6.6874  1.0000</r>
       <r>   6.6874  1.0000</r>
       <r>   7.3864  1.0181</r>
       <r>   7.3864  1.0181</r>
       <r>   7.3864  1.0181</r>
       <r>   7.3864  1.0181</r>
       <r>   8.0555 -0.0215</r>
       <r>   8.0555 -0.0215</r>
       <r>   8.0558 -0.0214</r>
       <r>   8.0558 -0.0214</r>
       <r>   8.0558 -0.0214</r>
       <r>   8.0558 -0.0214</r>
       <r>   8.0560 -0.0213</r>
       <r>   8.0560 -0.0213</r>
       <r>   9.6720 -0.0000</r>
       <r>   9.6720 -0.0000</r>
       <r>   9.6720 -0.0000</r>
       <r>   9.6720 -0.0000</r>
       <r>  10.1454 -0.0000</r>
       <r>  10.1454 -0.0000</r>
       <r>  10.1454 -0.0000</r>
       <r>  10.1454 -0.0000</r>
       <r>  11.0216 -0.0000</r>
       <r>  11.0216 -0.0000</r>
       <r>  11.0221 -0.0000</r>
       <r>  11.0221 -0.0000</r>
       <r>  11.0221 -0.0000</r>
       <r>  11.0221 -0.0000</r>
       <r>  11.0225 -0.0000</r>
       <r>  11.0225 -0.0000</r>
      </set>
      <set comment="kpoint 195">
       <r>  -1.7358  1.0000</r>
       <r>  -1.7357  1.0000</r>
       <r>  -1.7357  1.0000</r>
       <r>  -1.7357  1.0000</r>
       <r>  -1.3689  1.0000</r>
       <r>  -1.3689  1.0000</r>
       <r>  -1.3689  1.0000</r>
       <r>  -1.3689  1.0000</r>
       <r>   2.2451  1.0000</r>
       <r>   2.2452  1.0000</r>
       <r>   2.2452  1.0000</r>
       <r>   2.2452  1.0000</r>
       <r>   2.5991  1.0000</r>
       <r>   2.5991  1.0000</r>
       <r>   2.5991  1.0000</r>
       <r>   2.5991  1.0000</r>
       <r>   2.5991  1.0000</r>
       <r>   2.5991  1.0000</r>
       <r>   2.5991  1.0000</r>
       <r>   2.5991  1.0000</r>
       <r>   2.9548  1.0000</r>
       <r>   2.9548  1.0000</r>
       <r>   2.9548  1.0000</r>
       <r>   2.9548  1.0000</r>
       <r>   2.9548  1.0000</r>
       <r>   2.9549  1.0000</r>
       <r>   2.9549  1.0000</r>
       <r>   2.9549  1.0000</r>
       <r>   3.3047  1.0000</r>
       <r>   3.3047  1.0000</r>
       <r>   3.3047  1.0000</r>
       <r>   3.3048  1.0000</r>
       <r>   6.4766  1.0000</r>
       <r>   6.4766  1.0000</r>
       <r>   6.4768  1.0000</r>
       <r>   6.4768  1.0000</r>
       <r>   6.4768  1.0000</r>
       <r>   6.4768  1.0000</r>
       <r>   6.4770  1.0000</r>
       <r>   6.4770  1.0000</r>
       <r>   6.8192  1.0000</r>
       <r>   6.8192  1.0000</r>
       <r>   6.8192  1.0000</r>
       <r>   6.8193  1.0000</r>
       <r>   7.1687  1.0003</r>
       <r>   7.1687  1.0003</r>
       <r>   7.1687  1.0003</r>
       <r>   7.1687  1.0003</r>
       <r>   7.5066  1.0331</r>
       <r>   7.5066  1.0331</r>
       <r>   7.5068  1.0330</r>
       <r>   7.5068  1.0330</r>
       <r>   7.5069  1.0330</r>
       <r>   7.5069  1.0330</r>
       <r>   7.5071  1.0330</r>
       <r>   7.5071  1.0330</r>
       <r>  10.4754 -0.0000</r>
       <r>  10.4755 -0.0000</r>
       <r>  10.4755 -0.0000</r>
       <r>  10.4755 -0.0000</r>
       <r>  10.6133 -0.0000</r>
       <r>  10.6133 -0.0000</r>
       <r>  10.6133 -0.0000</r>
       <r>  10.6134 -0.0000</r>
       <r>  11.1517 -0.0000</r>
       <r>  11.1517 -0.0000</r>
       <r>  11.1520 -0.0000</r>
       <r>  11.1521 -0.0000</r>
       <r>  11.1521 -0.0000</r>
       <r>  11.1521 -0.0000</r>
       <r>  11.1525 -0.0000</r>
       <r>  11.1525 -0.0000</r>
      </set>
      <set comment="kpoint 196">
       <r>  -1.5722  1.0000</r>
       <r>  -1.5679  1.0000</r>
       <r>  -1.5679  1.0000</r>
       <r>  -1.5675  1.0000</r>
       <r>  -1.5675  1.0000</r>
       <r>  -1.5670  1.0000</r>
       <r>  -1.5670  1.0000</r>
       <r>  -1.5628  1.0000</r>
       <r>   2.7521  1.0000</r>
       <r>   2.7583  1.0000</r>
       <r>   2.7583  1.0000</r>
       <r>   2.7615  1.0000</r>
       <r>   2.7618  1.0000</r>
       <r>   2.7618  1.0000</r>
       <r>   2.7622  1.0000</r>
       <r>   2.7622  1.0000</r>
       <r>   2.7622  1.0000</r>
       <r>   2.7622  1.0000</r>
       <r>   2.7623  1.0000</r>
       <r>   2.7623  1.0000</r>
       <r>   2.7623  1.0000</r>
       <r>   2.7623  1.0000</r>
       <r>   2.7623  1.0000</r>
       <r>   2.7623  1.0000</r>
       <r>   2.7624  1.0000</r>
       <r>   2.7624  1.0000</r>
       <r>   2.7627  1.0000</r>
       <r>   2.7628  1.0000</r>
       <r>   2.7631  1.0000</r>
       <r>   2.7662  1.0000</r>
       <r>   2.7662  1.0000</r>
       <r>   2.7725  1.0000</r>
       <r>   6.9737  1.0000</r>
       <r>   6.9737  1.0000</r>
       <r>   6.9756  1.0000</r>
       <r>   6.9775  1.0000</r>
       <r>   6.9789  1.0000</r>
       <r>   6.9793  1.0000</r>
       <r>   6.9794  1.0000</r>
       <r>   6.9794  1.0000</r>
       <r>   6.9796  1.0000</r>
       <r>   6.9796  1.0000</r>
       <r>   6.9796  1.0000</r>
       <r>   6.9796  1.0000</r>
       <r>   6.9796  1.0000</r>
       <r>   6.9797  1.0000</r>
       <r>   6.9797  1.0000</r>
       <r>   6.9797  1.0000</r>
       <r>   6.9799  1.0000</r>
       <r>   6.9799  1.0000</r>
       <r>   6.9800  1.0000</r>
       <r>   6.9803  1.0000</r>
       <r>   6.9817  1.0000</r>
       <r>   6.9837  1.0000</r>
       <r>   6.9856  1.0000</r>
       <r>   6.9856  1.0000</r>
       <r>  11.1052 -0.0000</r>
       <r>  11.1053 -0.0000</r>
       <r>  11.1053 -0.0000</r>
       <r>  11.1058 -0.0000</r>
       <r>  11.1074 -0.0000</r>
       <r>  11.1080 -0.0000</r>
       <r>  11.1080 -0.0000</r>
       <r>  11.1081 -0.0000</r>
       <r>  11.3058 -0.0000</r>
       <r>  11.3068 -0.0000</r>
       <r>  11.3076 -0.0000</r>
       <r>  11.3082 -0.0000</r>
       <r>  11.3087 -0.0000</r>
       <r>  11.3089 -0.0000</r>
       <r>  11.3095 -0.0000</r>
       <r>  11.3101 -0.0000</r>
      </set>
     </set>
    </set>
   </array>
  </eigenvalues>
 </calculation>
 <structure name="finalpos" >
  <crystal>
   <varray name="basis" >
    <v>       8.15535887      0.00000000      0.00000000</v>
    <v>       0.00000000      8.15535887      0.00000000</v>
    <v>       0.00000000      0.00000000      8.15535887</v>
   </varray>
   <i name="volume">    542.41192527</i>
   <varray name="rec_basis" >
    <v>       0.12261876      0.00000000      0.00000000</v>
    <v>       0.00000000      0.12261876      0.00000000</v>
    <v>       0.00000000      0.00000000      0.12261876</v>
   </varray>
  </crystal>
  <varray name="positions" >
   <v>       0.25122619      0.25000000      0.00000000</v>
   <v>       0.75000000      0.25000000      0.00000000</v>
   <v>       0.25000000      0.75000000      0.00000000</v>
   <v>       0.75000000      0.75000000      0.00000000</v>
   <v>       0.25000000      0.25000000      0.50000000</v>
   <v>       0.75000000      0.25000000      0.50000000</v>
   <v>       0.25000000      0.75000000      0.50000000</v>
   <v>       0.75000000      0.75000000      0.50000000</v>
   <v>       0.25000000      0.00000000      0.25000000</v>
   <v>       0.75000000      0.00000000      0.25000000</v>
   <v>       0.25000000      0.50000000      0.25000000</v>
   <v>       0.75000000      0.50000000      0.25000000</v>
   <v>       0.25000000      0.00000000      0.75000000</v>
   <v>       0.75000000      0.00000000      0.75000000</v>
   <v>       0.25000000      0.50000000      0.75000000</v>
   <v>       0.75000000      0.50000000      0.75000000</v>
   <v>       0.00000000      0.25000000      0.25000000</v>
   <v>       0.50000000      0.25000000      0.25000000</v>
   <v>       0.00000000      0.75000000      0.25000000</v>
   <v>       0.50000000      0.75000000      0.25000000</v>
   <v>       0.00000000      0.25000000      0.75000000</v>
   <v>       0.50000000      0.25000000      0.75000000</v>
   <v>       0.00000000      0.75000000      0.75000000</v>
   <v>       0.50000000      0.75000000      0.75000000</v>
   <v>       0.00000000      0.00000000      0.00000000</v>
   <v>       0.50000000      0.00000000      0.00000000</v>
   <v>       0.00000000      0.50000000      0.00000000</v>
   <v>       0.50000000      0.50000000      0.00000000</v>
   <v>       0.00000000      0.00000000      0.50000000</v>
   <v>       0.50000000      0.00000000      0.50000000</v>
   <v>       0.00000000      0.50000000      0.50000000</v>
   <v>       0.50000000      0.50000000      0.50000000</v>
  </varray>
 </structure>
</modeling>
