32   
1    

1    
  0.0100000000000000   0.0000000000000000   0.0000000000000000
  -0.0635372400    0.0000000000    0.0000000000
   0.0048704300   -0.0000000000   -0.0000000000
  -0.0009731300    0.0000000000   -0.0000000000
  -0.0020315600    0.0000000000   -0.0000000000
  -0.0009731300   -0.0000000000    0.0000000000
  -0.0020315600   -0.0000000000    0.0000000000
   0.0001586400   -0.0000000000    0.0000000000
   0.0000112700   -0.0000000000   -0.0000000000
   0.0095407400    0.0118165500    0.0000000000
   0.0092443900   -0.0113956300    0.0000000000
   0.0095407400   -0.0118165500    0.0000000000
   0.0092443900    0.0113956300   -0.0000000000
   0.0001769600    0.0001298000    0.0000000000
   0.0001750900   -0.0001247000   -0.0000000000
   0.0001769600   -0.0001298000   -0.0000000000
   0.0001750900    0.0001247000    0.0000000000
   0.0095407400    0.0000000000    0.0118165500
   0.0092443900    0.0000000000   -0.0113956300
   0.0001769600    0.0000000000    0.0001298000
   0.0001750900    0.0000000000   -0.0001247000
   0.0095407400    0.0000000000   -0.0118165500
   0.0092443900    0.0000000000    0.0113956300
   0.0001769600   -0.0000000000   -0.0001298000
   0.0001750900   -0.0000000000    0.0001247000
  -0.0037107400   -0.0000130800   -0.0000130800
   0.0007001200    0.0000028200    0.0000028200
  -0.0037107400    0.0000130800   -0.0000130800
   0.0007001200   -0.0000028200    0.0000028200
  -0.0037107400   -0.0000130800    0.0000130800
   0.0007001200    0.0000028200   -0.0000028200
  -0.0037107400    0.0000130800    0.0000130800
   0.0007001200   -0.0000028200   -0.0000028200
