mesh: [    48,    48,    48 ]
nqpoint: 2600   
reciprocal_lattice:
- [   0.24206491,   0.00000000,   0.00000000 ] # a*
- [   0.00000000,   0.24206491,   0.00000000 ] # b*
- [   0.00000000,   0.00000000,   0.24206491 ] # c*
natom:   4      
lattice:
- [     4.131123383291719,     0.000000000000000,     0.000000000000000 ] # a
- [     0.000000000000000,     4.131123383291719,     0.000000000000000 ] # b
- [     0.000000000000000,     0.000000000000000,     4.131123383291719 ] # c
points:
- symbol: Au # 1
  coordinates: [  0.000000000000000,  0.000000000000000,  0.000000000000000 ]
  mass: 196.966569
- symbol: Au # 2
  coordinates: [  0.500000000000000,  0.500000000000000,  0.000000000000000 ]
  mass: 196.966569
- symbol: Au # 3
  coordinates: [  0.500000000000000,  0.000000000000000,  0.500000000000000 ]
  mass: 196.966569
- symbol: Au # 4
  coordinates: [  0.000000000000000,  0.500000000000000,  0.500000000000000 ]
  mass: 196.966569
phonon:
- q-position: [    0.0104167,    0.0104167,    0.0104167 ]
  weight: 8    
  band:
  - # 1
    frequency:     0.0465806800
  - # 2
    frequency:     0.0465806800
  - # 3
    frequency:     0.1444729944
  - # 4
    frequency:     2.5501276642
  - # 5
    frequency:     2.5501276642
  - # 6
    frequency:     2.5501276642
  - # 7
    frequency:     2.5525699456
  - # 8
    frequency:     2.5525699456
  - # 9
    frequency:     2.5525699456
  - # 10
    frequency:     4.3570596890
  - # 11
    frequency:     4.3570596890
  - # 12
    frequency:     4.3570596890

- q-position: [    0.0312500,    0.0104167,    0.0104167 ]
  weight: 24   
  band:
  - # 1
    frequency:     0.0965769712
  - # 2
    frequency:     0.1076238631
  - # 3
    frequency:     0.2672697565
  - # 4
    frequency:     2.5465125249
  - # 5
    frequency:     2.5485010994
  - # 6
    frequency:     2.5485010994
  - # 7
    frequency:     2.5489480526
  - # 8
    frequency:     2.5571330379
  - # 9
    frequency:     2.5571330379
  - # 10
    frequency:     4.3531365488
  - # 11
    frequency:     4.3531365488
  - # 12
    frequency:     4.3532826530

- q-position: [    0.0520833,    0.0104167,    0.0104167 ]
  weight: 24   
  band:
  - # 1
    frequency:     0.1659349494
  - # 2
    frequency:     0.1744324019
  - # 3
    frequency:     0.4103340715
  - # 4
    frequency:     2.5392937234
  - # 5
    frequency:     2.5417157821
  - # 6
    frequency:     2.5465885415
  - # 7
    frequency:     2.5465885415
  - # 8
    frequency:     2.5649180967
  - # 9
    frequency:     2.5649180967
  - # 10
    frequency:     4.3453075364
  - # 11
    frequency:     4.3453075364
  - # 12
    frequency:     4.3457235743

- q-position: [    0.0729167,    0.0104167,    0.0104167 ]
  weight: 24   
  band:
  - # 1
    frequency:     0.2359208682
  - # 2
    frequency:     0.2423530187
  - # 3
    frequency:     0.5587973545
  - # 4
    frequency:     2.5284941478
  - # 5
    frequency:     2.5308960980
  - # 6
    frequency:     2.5440679438
  - # 7
    frequency:     2.5440679438
  - # 8
    frequency:     2.5762458524
  - # 9
    frequency:     2.5762458524
  - # 10
    frequency:     4.3336071120
  - # 11
    frequency:     4.3336071120
  - # 12
    frequency:     4.3343725487

- q-position: [    0.0937500,    0.0104167,    0.0104167 ]
  weight: 24   
  band:
  - # 1
    frequency:     0.3056989948
  - # 2
    frequency:     0.3107347966
  - # 3
    frequency:     0.7088487844
  - # 4
    frequency:     2.5141479664
  - # 5
    frequency:     2.5165232796
  - # 6
    frequency:     2.5408703264
  - # 7
    frequency:     2.5408703264
  - # 8
    frequency:     2.5911827984
  - # 9
    frequency:     2.5911827984
  - # 10
    frequency:     4.3180867772
  - # 11
    frequency:     4.3180867772
  - # 12
    frequency:     4.3192149911

- q-position: [    0.1145833,    0.0104167,    0.0104167 ]
  weight: 24   
  band:
  - # 1
    frequency:     0.3753555185
  - # 2
    frequency:     0.3794067932
  - # 3
    frequency:     0.8590113682
  - # 4
    frequency:     2.4963004313
  - # 5
    frequency:     2.4986427226
  - # 6
    frequency:     2.5370111396
  - # 7
    frequency:     2.5370111396
  - # 8
    frequency:     2.6097092270
  - # 9
    frequency:     2.6097092270
  - # 10
    frequency:     4.2988148489
  - # 11
    frequency:     4.2988148489
  - # 12
    frequency:     4.3002319569

- q-position: [    0.1354167,    0.0104167,    0.0104167 ]
  weight: 24   
  band:
  - # 1
    frequency:     0.4449906966
  - # 2
    frequency:     0.4483099713
  - # 3
    frequency:     1.0085221209
  - # 4
    frequency:     2.4750076184
  - # 5
    frequency:     2.4773106748
  - # 6
    frequency:     2.5325392928
  - # 7
    frequency:     2.5325392928
  - # 8
    frequency:     2.6317694261
  - # 9
    frequency:     2.6317694261
  - # 10
    frequency:     4.2758761597
  - # 11
    frequency:     4.2758761597
  - # 12
    frequency:     4.2774005619

- q-position: [    0.1562500,    0.0104167,    0.0104167 ]
  weight: 24   
  band:
  - # 1
    frequency:     0.5146689175
  - # 2
    frequency:     0.5174185727
  - # 3
    frequency:     1.1568913688
  - # 4
    frequency:     2.4503361034
  - # 5
    frequency:     2.4525939080
  - # 6
    frequency:     2.5275219376
  - # 7
    frequency:     2.5275219376
  - # 8
    frequency:     2.6572859653
  - # 9
    frequency:     2.6572859653
  - # 10
    frequency:     4.2493716850
  - # 11
    frequency:     4.2493716850
  - # 12
    frequency:     4.2506944966

- q-position: [    0.1770833,    0.0104167,    0.0104167 ]
  weight: 24   
  band:
  - # 1
    frequency:     0.5844262911
  - # 2
    frequency:     0.5867158629
  - # 3
    frequency:     1.3037535435
  - # 4
    frequency:     2.4223625762
  - # 5
    frequency:     2.4245693276
  - # 6
    frequency:     2.5220388024
  - # 7
    frequency:     2.5220388024
  - # 8
    frequency:     2.6861642965
  - # 9
    frequency:     2.6861642965
  - # 10
    frequency:     4.2194180982
  - # 11
    frequency:     4.2194180982
  - # 12
    frequency:     4.2200846250

- q-position: [    0.1979167,    0.0104167,    0.0104167 ]
  weight: 24   
  band:
  - # 1
    frequency:     0.6542781439
  - # 2
    frequency:     0.6561846367
  - # 3
    frequency:     1.4488081373
  - # 4
    frequency:     2.3911733952
  - # 5
    frequency:     2.3933235212
  - # 6
    frequency:     2.5161792849
  - # 7
    frequency:     2.5161792849
  - # 8
    frequency:     2.7182944862
  - # 9
    frequency:     2.7182944862
  - # 10
    frequency:     4.1855396609
  - # 11
    frequency:     4.1861472565
  - # 12
    frequency:     4.1861472565

- q-position: [    0.2187500,    0.0104167,    0.0104167 ]
  weight: 24   
  band:
  - # 1
    frequency:     0.7242233455
  - # 2
    frequency:     0.7258027996
  - # 3
    frequency:     1.5917935365
  - # 4
    frequency:     2.3568640826
  - # 5
    frequency:     2.3589522479
  - # 6
    frequency:     2.5100403855
  - # 7
    frequency:     2.5100403855
  - # 8
    frequency:     2.7535520219
  - # 9
    frequency:     2.7535520219
  - # 10
    frequency:     4.1470269118
  - # 11
    frequency:     4.1497056177
  - # 12
    frequency:     4.1497056177

- q-position: [    0.2395833,    0.0104167,    0.0104167 ]
  weight: 24   
  band:
  - # 1
    frequency:     0.7942466422
  - # 2
    frequency:     0.7955410411
  - # 3
    frequency:     1.7324744393
  - # 4
    frequency:     2.3195387628
  - # 5
    frequency:     2.3215598718
  - # 6
    frequency:     2.5037248772
  - # 7
    frequency:     2.5037248772
  - # 8
    frequency:     2.7917983209
  - # 9
    frequency:     2.7917983209
  - # 10
    frequency:     4.1045130789
  - # 11
    frequency:     4.1102535909
  - # 12
    frequency:     4.1102535909

- q-position: [    0.2604167,    0.0104167,    0.0104167 ]
  weight: 24   
  band:
  - # 1
    frequency:     0.8643199364
  - # 2
    frequency:     0.8653615134
  - # 3
    frequency:     1.8706354450
  - # 4
    frequency:     2.2793095468
  - # 5
    frequency:     2.2812587404
  - # 6
    frequency:     2.4973395049
  - # 7
    frequency:     2.4973395049
  - # 8
    frequency:     2.8328811755
  - # 9
    frequency:     2.8328811755
  - # 10
    frequency:     4.0579651043
  - # 11
    frequency:     4.0679648239
  - # 12
    frequency:     4.0679648239

- q-position: [    0.2812500,    0.0104167,    0.0104167 ]
  weight: 24   
  band:
  - # 1
    frequency:     0.9344030450
  - # 2
    frequency:     0.9352170727
  - # 3
    frequency:     2.0060776642
  - # 4
    frequency:     2.2362958655
  - # 5
    frequency:     2.2381685118
  - # 6
    frequency:     2.4909931460
  - # 7
    frequency:     2.4909931460
  - # 8
    frequency:     2.8766352276
  - # 9
    frequency:     2.8766352276
  - # 10
    frequency:     4.0073510515
  - # 11
    frequency:     4.0230254286
  - # 12
    frequency:     4.0230254286

- q-position: [    0.3020833,    0.0104167,    0.0104167 ]
  weight: 24   
  band:
  - # 1
    frequency:     1.0044442196
  - # 2
    frequency:     1.0050508780
  - # 3
    frequency:     2.1386168877
  - # 4
    frequency:     2.1906237532
  - # 5
    frequency:     2.1924154331
  - # 6
    frequency:     2.4847949187
  - # 7
    frequency:     2.4847949187
  - # 8
    frequency:     2.9228825148
  - # 9
    frequency:     2.9228825148
  - # 10
    frequency:     3.9526410110
  - # 11
    frequency:     3.9756331481
  - # 12
    frequency:     3.9756331481

- q-position: [    0.3229167,    0.0104167,    0.0104167 ]
  weight: 24   
  band:
  - # 1
    frequency:     1.0743805827
  - # 2
    frequency:     1.0747962471
  - # 3
    frequency:     2.1424250867
  - # 4
    frequency:     2.1441315743
  - # 5
    frequency:     2.2680825914
  - # 6
    frequency:     2.4788522485
  - # 7
    frequency:     2.4788522485
  - # 8
    frequency:     2.9714331037
  - # 9
    frequency:     2.9714331037
  - # 10
    frequency:     3.8938080166
  - # 11
    frequency:     3.9259964692
  - # 12
    frequency:     3.9259964692

- q-position: [    0.3437500,    0.0104167,    0.0104167 ]
  weight: 24   
  band:
  - # 1
    frequency:     1.1441385582
  - # 2
    frequency:     1.1443767115
  - # 3
    frequency:     2.0918367820
  - # 4
    frequency:     2.0934540198
  - # 5
    frequency:     2.3943173938
  - # 6
    frequency:     2.4732689199
  - # 7
    frequency:     2.4732689199
  - # 8
    frequency:     3.0220858150
  - # 9
    frequency:     3.0220858150
  - # 10
    frequency:     3.8308289629
  - # 11
    frequency:     3.8743336828
  - # 12
    frequency:     3.8743336828

- q-position: [    0.3645833,    0.0104167,    0.0104167 ]
  weight: 24   
  band:
  - # 1
    frequency:     1.2136343422
  - # 2
    frequency:     1.2137062360
  - # 3
    frequency:     2.0389999534
  - # 4
    frequency:     2.0405240226
  - # 5
    frequency:     2.4681431441
  - # 6
    frequency:     2.4681431441
  - # 7
    frequency:     2.5171767577
  - # 8
    frequency:     3.0746290357
  - # 9
    frequency:     3.0746290357
  - # 10
    frequency:     3.7636855137
  - # 11
    frequency:     3.8208718992
  - # 12
    frequency:     3.8208718992

- q-position: [    0.3854167,    0.0104167,    0.0104167 ]
  weight: 24   
  band:
  - # 1
    frequency:     1.2826895757
  - # 2
    frequency:     1.2827744313
  - # 3
    frequency:     1.9840590398
  - # 4
    frequency:     1.9854861251
  - # 5
    frequency:     2.4635656865
  - # 6
    frequency:     2.4635656865
  - # 7
    frequency:     2.6365288113
  - # 8
    frequency:     3.1288416103
  - # 9
    frequency:     3.1288416103
  - # 10
    frequency:     3.6923649891
  - # 11
    frequency:     3.7658460247
  - # 12
    frequency:     3.7658460247

- q-position: [    0.4062500,    0.0104167,    0.0104167 ]
  weight: 24   
  band:
  - # 1
    frequency:     1.3512227537
  - # 2
    frequency:     1.3514562198
  - # 3
    frequency:     1.9271609010
  - # 4
    frequency:     1.9284872511
  - # 5
    frequency:     2.4596180926
  - # 6
    frequency:     2.4596180926
  - # 7
    frequency:     2.7522542172
  - # 8
    frequency:     3.1844937884
  - # 9
    frequency:     3.1844937884
  - # 10
    frequency:     3.6168612242
  - # 11
    frequency:     3.7094977150
  - # 12
    frequency:     3.7094977150

- q-position: [    0.4270833,    0.0104167,    0.0104167 ]
  weight: 24   
  band:
  - # 1
    frequency:     1.4191936406
  - # 2
    frequency:     1.4195686643
  - # 3
    frequency:     1.8684538925
  - # 4
    frequency:     1.8696757750
  - # 5
    frequency:     2.4563710608
  - # 6
    frequency:     2.4563710608
  - # 7
    frequency:     2.8642460439
  - # 8
    frequency:     3.2413481825
  - # 9
    frequency:     3.2413481825
  - # 10
    frequency:     3.5371753885
  - # 11
    frequency:     3.6520743487
  - # 12
    frequency:     3.6520743487

- q-position: [    0.4479167,    0.0104167,    0.0104167 ]
  weight: 24   
  band:
  - # 1
    frequency:     1.4864826225
  - # 2
    frequency:     1.4869930126
  - # 3
    frequency:     1.8080869215
  - # 4
    frequency:     1.8092005718
  - # 5
    frequency:     2.4538830036
  - # 6
    frequency:     2.4538830036
  - # 7
    frequency:     2.9724096094
  - # 8
    frequency:     3.2991605666
  - # 9
    frequency:     3.2991605666
  - # 10
    frequency:     3.4533167594
  - # 11
    frequency:     3.5938281824
  - # 12
    frequency:     3.5938281824

- q-position: [    0.4687500,    0.0104167,    0.0104167 ]
  weight: 24   
  band:
  - # 1
    frequency:     1.5529633433
  - # 2
    frequency:     1.5536035916
  - # 3
    frequency:     1.7462084921
  - # 4
    frequency:     1.7472100562
  - # 5
    frequency:     2.4521988402
  - # 6
    frequency:     2.4521988402
  - # 7
    frequency:     3.0766622802
  - # 8
    frequency:     3.3576794995
  - # 9
    frequency:     3.3576794995
  - # 10
    frequency:     3.3653034428
  - # 11
    frequency:     3.5350166986
  - # 12
    frequency:     3.5350166986

- q-position: [    0.4895833,    0.0104167,    0.0104167 ]
  weight: 24   
  band:
  - # 1
    frequency:     1.6185035097
  - # 2
    frequency:     1.6192686454
  - # 3
    frequency:     1.6829657467
  - # 4
    frequency:     1.6838512157
  - # 5
    frequency:     2.4513490554
  - # 6
    frequency:     2.4513490554
  - # 7
    frequency:     3.1769332133
  - # 8
    frequency:     3.2731630335
  - # 9
    frequency:     3.4166277223
  - # 10
    frequency:     3.4166277223
  - # 11
    frequency:     3.4759211908
  - # 12
    frequency:     3.4759211908

- q-position: [    0.0312500,    0.0312500,    0.0104167 ]
  weight: 24   
  band:
  - # 1
    frequency:     0.1006454330
  - # 2
    frequency:     0.1427455715
  - # 3
    frequency:     0.3590064494
  - # 4
    frequency:     2.5433251716
  - # 5
    frequency:     2.5448870220
  - # 6
    frequency:     2.5448870220
  - # 7
    frequency:     2.5535037455
  - # 8
    frequency:     2.5535037455
  - # 9
    frequency:     2.5652178062
  - # 10
    frequency:     4.3492138244
  - # 11
    frequency:     4.3493952240
  - # 12
    frequency:     4.3493952240

- q-position: [    0.0520833,    0.0312500,    0.0104167 ]
  weight: 48   
  band:
  - # 1
    frequency:     0.1505579643
  - # 2
    frequency:     0.1979858068
  - # 3
    frequency:     0.4809892573
  - # 4
    frequency:     2.5376703179
  - # 5
    frequency:     2.5384425182
  - # 6
    frequency:     2.5429673298
  - # 7
    frequency:     2.5462567758
  - # 8
    frequency:     2.5612829995
  - # 9
    frequency:     2.5759180634
  - # 10
    frequency:     4.3413856455
  - # 11
    frequency:     4.3416375921
  - # 12
    frequency:     4.3419073744

- q-position: [    0.0729167,    0.0312500,    0.0104167 ]
  weight: 48   
  band:
  - # 1
    frequency:     0.2179362856
  - # 2
    frequency:     0.2598503930
  - # 3
    frequency:     0.6150275855
  - # 4
    frequency:     2.5268738204
  - # 5
    frequency:     2.5338049892
  - # 6
    frequency:     2.5354152910
  - # 7
    frequency:     2.5404321607
  - # 8
    frequency:     2.5726052630
  - # 9
    frequency:     2.5892815756
  - # 10
    frequency:     4.3296864762
  - # 11
    frequency:     4.3300441332
  - # 12
    frequency:     4.3306627143

- q-position: [    0.0937500,    0.0312500,    0.0104167 ]
  weight: 48   
  band:
  - # 1
    frequency:     0.2888812710
  - # 2
    frequency:     0.3246141357
  - # 3
    frequency:     0.7549412619
  - # 4
    frequency:     2.5125316107
  - # 5
    frequency:     2.5210138636
  - # 6
    frequency:     2.5291754328
  - # 7
    frequency:     2.5372125847
  - # 8
    frequency:     2.5875362059
  - # 9
    frequency:     2.6055443535
  - # 10
    frequency:     4.3141678242
  - # 11
    frequency:     4.3146662224
  - # 12
    frequency:     4.3156461000

- q-position: [    0.1145833,    0.0312500,    0.0104167 ]
  weight: 48   
  band:
  - # 1
    frequency:     0.3603846538
  - # 2
    frequency:     0.3909105432
  - # 3
    frequency:     0.8977245156
  - # 4
    frequency:     2.4946888155
  - # 5
    frequency:     2.5030982739
  - # 6
    frequency:     2.5243871684
  - # 7
    frequency:     2.5333233593
  - # 8
    frequency:     2.6060558031
  - # 9
    frequency:     2.6248705179
  - # 10
    frequency:     4.2948980147
  - # 11
    frequency:     4.2955720071
  - # 12
    frequency:     4.2968378657

- q-position: [    0.1354167,    0.0312500,    0.0104167 ]
  weight: 48   
  band:
  - # 1
    frequency:     0.4318154998
  - # 2
    frequency:     0.4581473072
  - # 3
    frequency:     1.0416709915
  - # 4
    frequency:     2.4734013385
  - # 5
    frequency:     2.4817252406
  - # 6
    frequency:     2.5193490660
  - # 7
    frequency:     2.5288122541
  - # 8
    frequency:     2.6281082539
  - # 9
    frequency:     2.6473463720
  - # 10
    frequency:     4.2719618916
  - # 11
    frequency:     4.2728461066
  - # 12
    frequency:     4.2742142642

- q-position: [    0.1562500,    0.0312500,    0.0104167 ]
  weight: 48   
  band:
  - # 1
    frequency:     0.5030778915
  - # 2
    frequency:     0.5260303308
  - # 3
    frequency:     1.1857086412
  - # 4
    frequency:     2.4487355266
  - # 5
    frequency:     2.4569620884
  - # 6
    frequency:     2.5140291772
  - # 7
    frequency:     2.5237449888
  - # 8
    frequency:     2.6536161364
  - # 9
    frequency:     2.6729957528
  - # 10
    frequency:     4.2454604445
  - # 11
    frequency:     4.2465892380
  - # 12
    frequency:     4.2477480040

- q-position: [    0.1770833,    0.0312500,    0.0104167 ]
  weight: 48   
  band:
  - # 1
    frequency:     0.5741962009
  - # 2
    frequency:     0.5943946281
  - # 3
    frequency:     1.3291037673
  - # 4
    frequency:     2.4207677729
  - # 5
    frequency:     2.4288863529
  - # 6
    frequency:     2.5084385493
  - # 7
    frequency:     2.5181996505
  - # 8
    frequency:     2.6824849541
  - # 9
    frequency:     2.7017950613
  - # 10
    frequency:     4.2155103652
  - # 11
    frequency:     4.2169177707
  - # 12
    frequency:     4.2174088752

- q-position: [    0.1979167,    0.0312500,    0.0104167 ]
  weight: 48   
  band:
  - # 1
    frequency:     0.6452107244
  - # 2
    frequency:     0.6631349905
  - # 3
    frequency:     1.4713158400
  - # 4
    frequency:     2.3895840559
  - # 5
    frequency:     2.3975853261
  - # 6
    frequency:     2.5026187277
  - # 7
    frequency:     2.5122638438
  - # 8
    frequency:     2.7146048446
  - # 9
    frequency:     2.7336844927
  - # 10
    frequency:     4.1822435340
  - # 11
    frequency:     4.1831644555
  - # 12
    frequency:     4.1839632101

- q-position: [    0.2187500,    0.0312500,    0.0104167 ]
  weight: 48   
  band:
  - # 1
    frequency:     0.7161505569
  - # 2
    frequency:     0.7321740938
  - # 3
    frequency:     1.6119217457
  - # 4
    frequency:     2.3552794191
  - # 5
    frequency:     2.3631555453
  - # 6
    frequency:     2.4966327127
  - # 7
    frequency:     2.5060326761
  - # 8
    frequency:     2.7498513712
  - # 9
    frequency:     2.7685757295
  - # 10
    frequency:     4.1449808845
  - # 11
    frequency:     4.1458064386
  - # 12
    frequency:     4.1478716122

- q-position: [    0.2395833,    0.0312500,    0.0104167 ]
  weight: 48   
  band:
  - # 1
    frequency:     0.7870274238
  - # 2
    frequency:     0.8014464259
  - # 3
    frequency:     1.7505742729
  - # 4
    frequency:     2.3179573912
  - # 5
    frequency:     2.3257022274
  - # 6
    frequency:     2.4905584229
  - # 7
    frequency:     2.4996069796
  - # 8
    frequency:     2.7880860238
  - # 9
    frequency:     2.8063570759
  - # 10
    frequency:     4.1028236975
  - # 11
    frequency:     4.1063595268
  - # 12
    frequency:     4.1088029333

- q-position: [    0.2604167,    0.0312500,    0.0104167 ]
  weight: 48   
  band:
  - # 1
    frequency:     0.8578353168
  - # 2
    frequency:     0.8708895914
  - # 3
    frequency:     1.8869783905
  - # 4
    frequency:     2.2777293498
  - # 5
    frequency:     2.2853386527
  - # 6
    frequency:     2.4844838104
  - # 7
    frequency:     2.4930915645
  - # 8
    frequency:     2.8291566557
  - # 9
    frequency:     2.8468969169
  - # 10
    frequency:     4.0566587053
  - # 11
    frequency:     4.0640764977
  - # 12
    frequency:     4.0669303140

- q-position: [    0.2812500,    0.0312500,    0.0104167 ]
  weight: 48   
  band:
  - # 1
    frequency:     0.9285515952
  - # 2
    frequency:     0.9404393555
  - # 3
    frequency:     2.0208772000
  - # 4
    frequency:     2.2347138316
  - # 5
    frequency:     2.2421855001
  - # 6
    frequency:     2.4785030179
  - # 7
    frequency:     2.4865934371
  - # 8
    frequency:     2.8728979501
  - # 9
    frequency:     2.8900461384
  - # 10
    frequency:     4.0064529098
  - # 11
    frequency:     4.0191435324
  - # 12
    frequency:     4.0224393041

- q-position: [    0.3020833,    0.0312500,    0.0104167 ]
  weight: 48   
  band:
  - # 1
    frequency:     0.9991383157
  - # 2
    frequency:     1.0100267300
  - # 3
    frequency:     2.1520433529
  - # 4
    frequency:     2.1890357905
  - # 5
    frequency:     2.1963701390
  - # 6
    frequency:     2.4727131889
  - # 7
    frequency:     2.4802199667
  - # 8
    frequency:     2.9191319551
  - # 9
    frequency:     2.9356399278
  - # 10
    frequency:     3.9521754437
  - # 11
    frequency:     3.9717584710
  - # 12
    frequency:     3.9755270303

- q-position: [    0.3229167,    0.0312500,    0.0104167 ]
  weight: 48   
  band:
  - # 1
    frequency:     1.0695434796
  - # 2
    frequency:     1.0795762506
  - # 3
    frequency:     2.1408258099
  - # 4
    frequency:     2.1480258791
  - # 5
    frequency:     2.2802736630
  - # 6
    frequency:     2.4672116919
  - # 7
    frequency:     2.4740770131
  - # 8
    frequency:     2.9676687009
  - # 9
    frequency:     2.9834992171
  - # 10
    frequency:     3.8937985222
  - # 11
    frequency:     3.9221299411
  - # 12
    frequency:     3.9264013125

- q-position: [    0.3437500,    0.0312500,    0.0104167 ]
  weight: 48   
  band:
  - # 1
    frequency:     1.1397021606
  - # 2
    frequency:     1.1490049926
  - # 3
    frequency:     2.0902192702
  - # 4
    frequency:     2.0972911825
  - # 5
    frequency:     2.4053856349
  - # 6
    frequency:     2.4620936266
  - # 7
    frequency:     2.4682670391
  - # 8
    frequency:     3.0183068970
  - # 9
    frequency:     3.0334319255
  - # 10
    frequency:     3.8312983969
  - # 11
    frequency:     3.8704764476
  - # 12
    frequency:     3.8752797406

- q-position: [    0.3645833,    0.0312500,    0.0104167 ]
  weight: 48   
  band:
  - # 1
    frequency:     1.2095375446
  - # 2
    frequency:     1.2182220712
  - # 3
    frequency:     2.0373554795
  - # 4
    frequency:     2.0443088406
  - # 5
    frequency:     2.4574495422
  - # 6
    frequency:     2.4628872377
  - # 7
    frequency:     2.5272151665
  - # 8
    frequency:     3.0708346941
  - # 9
    frequency:     3.0852340850
  - # 10
    frequency:     3.7646563003
  - # 11
    frequency:     3.8170254452
  - # 12
    frequency:     3.8223887246

- q-position: [    0.3854167,    0.0312500,    0.0104167 ]
  weight: 48   
  band:
  - # 1
    frequency:     1.2789619221
  - # 2
    frequency:     1.2871284776
  - # 3
    frequency:     1.9823767710
  - # 4
    frequency:     1.9892251182
  - # 5
    frequency:     2.4533633434
  - # 6
    frequency:     2.4580277153
  - # 7
    frequency:     2.6456149788
  - # 8
    frequency:     3.1250304692
  - # 9
    frequency:     3.1386908657
  - # 10
    frequency:     3.6938593735
  - # 11
    frequency:     3.7620124356
  - # 12
    frequency:     3.7679625607

- q-position: [    0.4062500,    0.0312500,    0.0104167 ]
  weight: 48   
  band:
  - # 1
    frequency:     1.3478776592
  - # 2
    frequency:     1.3556171634
  - # 3
    frequency:     1.9254275780
  - # 4
    frequency:     1.9321888662
  - # 5
    frequency:     2.4499103828
  - # 6
    frequency:     2.4537697699
  - # 7
    frequency:     2.7604534975
  - # 8
    frequency:     3.1806635329
  - # 9
    frequency:     3.1935774213
  - # 10
    frequency:     3.6189015653
  - # 11
    frequency:     3.7056802067
  - # 12
    frequency:     3.7122426071

- q-position: [    0.4270833,    0.0312500,    0.0104167 ]
  weight: 48   
  band:
  - # 1
    frequency:     1.4161781606
  - # 2
    frequency:     1.4235733208
  - # 3
    frequency:     1.8666534927
  - # 4
    frequency:     1.8733506042
  - # 5
    frequency:     2.4471557569
  - # 6
    frequency:     2.4501843086
  - # 7
    frequency:     2.8716140118
  - # 8
    frequency:     3.2374944419
  - # 9
    frequency:     3.2496591943
  - # 10
    frequency:     3.5397844991
  - # 11
    frequency:     3.6482785936
  - # 12
    frequency:     3.6554768796

- q-position: [    0.4479167,    0.0312500,    0.0104167 ]
  weight: 48   
  band:
  - # 1
    frequency:     1.4837488257
  - # 2
    frequency:     1.4908748291
  - # 3
    frequency:     1.8062003201
  - # 4
    frequency:     1.8128615744
  - # 5
    frequency:     2.4451528293
  - # 6
    frequency:     2.4473304468
  - # 7
    frequency:     2.9789939952
  - # 8
    frequency:     3.2952736645
  - # 9
    frequency:     3.3066900707
  - # 10
    frequency:     3.4565182983
  - # 11
    frequency:     3.5900663811
  - # 12
    frequency:     3.5979213171

- q-position: [    0.4687500,    0.0312500,    0.0104167 ]
  weight: 48   
  band:
  - # 1
    frequency:     1.5504679903
  - # 2
    frequency:     1.5573928487
  - # 3
    frequency:     1.7442131365
  - # 4
    frequency:     1.7508727678
  - # 5
    frequency:     2.4439420090
  - # 6
    frequency:     2.4452543288
  - # 7
    frequency:     3.0825045170
  - # 8
    frequency:     3.3537310587
  - # 9
    frequency:     3.3643976834
  - # 10
    frequency:     3.3691223674
  - # 11
    frequency:     3.5313260547
  - # 12
    frequency:     3.5398502446

- q-position: [    0.4895833,    0.0312500,    0.0104167 ]
  weight: 48   
  band:
  - # 1
    frequency:     1.6162078499
  - # 2
    frequency:     1.6229925459
  - # 3
    frequency:     1.6808353622
  - # 4
    frequency:     1.6875339287
  - # 5
    frequency:     2.4435498087
  - # 6
    frequency:     2.4439882072
  - # 7
    frequency:     3.1820696900
  - # 8
    frequency:     3.2776261253
  - # 9
    frequency:     3.4124464810
  - # 10
    frequency:     3.4222450937
  - # 11
    frequency:     3.4726021712
  - # 12
    frequency:     3.4816857180

- q-position: [    0.0520833,    0.0520833,    0.0104167 ]
  weight: 24   
  band:
  - # 1
    frequency:     0.1622791470
  - # 2
    frequency:     0.2409325602
  - # 3
    frequency:     0.5850844515
  - # 4
    frequency:     2.5298699879
  - # 5
    frequency:     2.5357363753
  - # 6
    frequency:     2.5357363753
  - # 7
    frequency:     2.5540245640
  - # 8
    frequency:     2.5540245640
  - # 9
    frequency:     2.5901993265
  - # 10
    frequency:     4.3335591374
  - # 11
    frequency:     4.3342921048
  - # 12
    frequency:     4.3342921048

- q-position: [    0.0729167,    0.0520833,    0.0104167 ]
  weight: 48   
  band:
  - # 1
    frequency:     0.2082646797
  - # 2
    frequency:     0.2939782855
  - # 3
    frequency:     0.7046010219
  - # 4
    frequency:     2.5217865426
  - # 5
    frequency:     2.5249185430
  - # 6
    frequency:     2.5331721850
  - # 7
    frequency:     2.5431662369
  - # 8
    frequency:     2.5653360022
  - # 9
    frequency:     2.6068477159
  - # 10
    frequency:     4.3218624841
  - # 11
    frequency:     4.3229119492
  - # 12
    frequency:     4.3232600029

- q-position: [    0.0937500,    0.0520833,    0.0104167 ]
  weight: 48   
  band:
  - # 1
    frequency:     0.2711224068
  - # 2
    frequency:     0.3526274088
  - # 3
    frequency:     0.8325905997
  - # 4
    frequency:     2.5105479485
  - # 5
    frequency:     2.5141819055
  - # 6
    frequency:     2.5287430123
  - # 7
    frequency:     2.5299089591
  - # 8
    frequency:     2.5802551177
  - # 9
    frequency:     2.6258749748
  - # 10
    frequency:     4.3063472052
  - # 11
    frequency:     4.3078179925
  - # 12
    frequency:     4.3085249909

- q-position: [    0.1145833,    0.0520833,    0.0104167 ]
  weight: 48   
  band:
  - # 1
    frequency:     0.3403364756
  - # 2
    frequency:     0.4145764613
  - # 3
    frequency:     0.9655685898
  - # 4
    frequency:     2.4926697416
  - # 5
    frequency:     2.5069469652
  - # 6
    frequency:     2.5108012218
  - # 7
    frequency:     2.5259601273
  - # 8
    frequency:     2.5987612570
  - # 9
    frequency:     2.6473909510
  - # 10
    frequency:     4.2870816431
  - # 11
    frequency:     4.2890779914
  - # 12
    frequency:     4.2900659174

- q-position: [    0.1354167,    0.0520833,    0.0104167 ]
  weight: 48   
  band:
  - # 1
    frequency:     0.4118376342