   36   36    1    1
  0.1780783E+02  0.8820702E-09  0.8820702E-09  0.9483699E-09  0.5000000E-15
  1.000000000000000E-004
  CAR 
 unknown system                          
  360  123  216
 
  0.0000000E+00  0.0000000E+00  0.0000000E+00  0.4081633E-02
   1      -27.7334
   2      -27.5585
   3      -27.5583
   4      -27.5583
   5      -27.5582
   6      -27.5563
   7      -27.5562
   8      -27.5561
   9      -27.5560
  10      -27.5560
  11      -27.5560
  12      -27.5559
  13      -27.5559
  14      -27.5536
  15      -27.5535
  16      -27.5534
  17      -27.5533
  18      -27.5513
  19      -27.5509
  20      -27.5508
  21      -27.5507
  22      -27.5507
  23      -27.5504
  24      -27.4964
  25      -27.4960
  26      -27.4744
  27      -27.4742
  28      -27.4733
  29      -27.4732
  30      -27.4731
  31      -27.4730
  32      -27.4260
  33      -27.4255
  34      -27.4029
  35      -27.4026
  36      -27.4013
  37      -27.4010
  38      -27.3993
  39      -27.3990
  40      -27.3989
  41      -27.3986
  42      -27.3793
  43      -27.3792
  44      -27.3791
  45      -27.3790
  46      -27.3787
  47      -27.3786
  48      -27.3491
  49      -27.3487
  50      -27.3451
  51      -27.3448
  52      -27.3001
  53      -27.2997
  54      -27.2432
  55      -27.2430
  56      -27.2428
  57      -27.2426
  58      -27.2416
  59      -27.2413
  60      -27.2413
  61      -27.2411
  62      -27.2411
  63      -27.2410
  64      -27.2410
  65      -27.2409
  66      -27.2406
  67      -27.2405
  68      -27.2311
  69      -27.2310
  70      -27.2309
  71      -27.2308
  72      -27.1927
  73      -27.1922
  74      -27.1922
  75      -27.1919
  76      -27.1894
  77      -27.1891
  78      -27.1868
  79      -27.1867
  80      -27.1867
  81      -27.1866
  82      -27.1736
  83      -27.1735
  84      -27.1734
  85      -27.1732
  86      -27.1651
  87      -27.1649
  88      -27.1648
  89      -27.1648
  90      -27.1647
  91      -27.1646
  92      -27.1645
  93      -27.1645
  94      -27.1367
  95      -27.1276
  96      -27.1051
  97      -27.1050
  98      -27.1041
  99      -27.0980
 100      -27.0978
 101      -27.0978
 102      -27.0976
 103      -27.0929
 104      -27.0928
 105      -27.0861
 106      -27.0860
 107      -27.0488
 108      -27.0442
 109       -0.3920
 110        1.3904
 111        1.3907
 112        2.1516
 113        2.1518
 114        2.1520
 115        2.1522
 116        2.1688
 117        2.1691
 118        3.0223
 119        3.0224
 120        3.0226
 121        3.0227
 122        3.0228
 123        3.0229
 124        3.0231
 125        3.0234
 126        3.0368
 127        3.0369
 128        3.0370
 129        3.0375
 130        3.0791
 131        4.0440
 132        4.0446
 133        4.0506
 134        4.0509
 135        4.0511
 136        4.0516
 137        4.1099
 138        4.1115
 139        4.2722
 140        4.2731
 141        4.2936
 142        4.2939
 143        4.2939
 144        4.2951
 145        4.3785
 146        4.3786
 147        4.3912
 148        4.3914
 149        4.4745
 150        4.4746
 151        4.5133
 152        4.5142
 153        4.5149
 154        4.5159
 155        4.6694
 156        4.6706
 157        4.6706
 158        4.6719
 159        5.0323
 160        5.0340
 161        5.0341
 162        5.0346
 163        5.0347
 164        5.0348
 165        5.0350
 166        5.0362
 167        5.0368
 168        5.0379
 169        5.0382
 170        5.0391
 171        5.1456
 172        5.1465
 173        5.1466
 174        5.1473
 175        5.1730
 176        5.1744
 177        5.4821
 178        5.4823
 179        5.4823
 180        5.4825
 181        5.7177
 182        5.7202
 183        5.8800
 184        5.8811
 185        5.9320
 186        5.9335
 187        6.2486
 188        6.2497
 189        6.2499
 190        6.2505
 191        6.2507
 192        6.2509
 193        6.2514
 194        6.2518
 195        6.2788
 196        6.2894
 197        6.2903
 198        6.2909
 199        6.2919
 200        6.3735
 201        6.3736
 202        6.4070
 203        6.4082
 204        6.4084
 205        6.4090
 206        6.4322
 207        6.4344
 208        6.4359
 209        6.4384
 210        6.4428
 211        6.4535
 212        6.4547
 213        6.4577
 214        6.4589
 215        6.4607
 216        6.4633
 
  0.1428571E+00  0.1387779E-16  0.0000000E+00  0.8163265E-02
   1      -27.7289
   2      -27.5945
   3      -27.5944
   4      -27.5911
   5      -27.5745
   6      -27.5745
   7      -27.5726
   8      -27.5726
   9      -27.5686
  10      -27.5684
  11      -27.5650
  12      -27.5648
  13      -27.5648
  14      -27.5647
  15      -27.5356
  16      -27.5355
  17      -27.5328
  18      -27.5327
  19      -27.5289
  20      -27.5283
  21      -27.5262
  22      -27.5151
  23      -27.5149
  24      -27.5115
  25      -27.5051
  26      -27.5022
  27      -27.5011
  28      -27.4986
  29      -27.4423
  30      -27.4418
  31      -27.4275
  32      -27.4269
  33      -27.4263
  34      -27.4150
  35      -27.4121
  36      -27.4101
  37      -27.4056
  38      -27.4045
  39      -27.3879
  40      -27.3877
  41      -27.3874
  42      -27.3870
  43      -27.3857
  44      -27.3855
  45      -27.3797
  46      -27.3768
  47      -27.3556
  48      -27.3544
  49      -27.3206
  50      -27.3189
  51      -27.3152
  52      -27.2836
  53      -27.2831
  54      -27.2522
  55      -27.2491
  56      -27.2490
  57      -27.2464
  58      -27.2463
  59      -27.2457
  60      -27.2450
  61      -27.2449
  62      -27.2430
  63      -27.2413
  64      -27.2411
  65      -27.2399
  66      -27.2398
  67      -27.2332
  68      -27.2315
  69      -27.2313
  70      -27.2241
  71      -27.2165
  72      -27.2131
  73      -27.2060
  74      -27.2024
  75      -27.1873
  76      -27.1872
  77      -27.1869
  78      -27.1868
  79      -27.1816
  80      -27.1810
  81      -27.1809
  82      -27.1794
  83      -27.1766
  84      -27.1765
  85      -27.1731
  86      -27.1729
  87      -27.1694
  88      -27.1680
  89      -27.1678
  90      -27.1603
  91      -27.1601
  92      -27.1507
  93      -27.1505
  94      -27.1455
  95      -27.1320
  96      -27.1159
  97      -27.1088
  98      -27.1066
  99      -27.1059
 100      -27.1051
 101      -27.0997
 102      -27.0996
 103      -27.0985
 104      -27.0893
 105      -27.0892
 106      -27.0875
 107      -27.0584
 108      -27.0465
 109       -0.3289
 110        1.4445
 111        1.4448
 112        1.5955
 113        1.9180
 114        1.9314
 115        2.4558
 116        2.4752
 117        2.6709
 118        2.7986
 119        2.7988
 120        2.9561
 121        2.9563
 122        2.9681
 123        2.9683
 124        3.1301
 125        3.1326
 126        3.1329
 127        3.1473
 128        3.1475
 129        3.1525
 130        3.1528
 131        3.9340
 132        4.0209
 133        4.0284
 134        4.0901
 135        4.0988
 136        4.1068
 137        4.1087
 138        4.1141
 139        4.1213
 140        4.1751
 141        4.1988
 142        4.2250
 143        4.2367
 144        4.2771
 145        4.2779
 146        4.2786
 147        4.2793
 148        4.3857
 149        4.3864
 150        4.4030
 151        4.4146
 152        4.5151
 153        4.5350
 154        4.5366
 155        4.8986
 156        4.8994
 157        4.9051
 158        4.9059
 159        4.9657
 160        4.9667
 161        5.0106
 162        5.0114
 163        5.0119
 164        5.0125
 165        5.0839
 166        5.0850
 167        5.0877
 168        5.0886
 169        5.0943
 170        5.1086
 171        5.1178
 172        5.1181
 173        5.1195
 174        5.1377
 175        5.1654
 176        5.2186
 177        5.4708
 178        5.4710
 179        5.4736
 180        5.4739
 181        5.6831
 182        5.6856
 183        5.8444
 184        5.8875
 185        5.9718
 186        6.0184
 187        6.1016
 188        6.1022
 189        6.1091
 190        6.1097
 191        6.1422
 192        6.1427
 193        6.1645
 194        6.2775
 195        6.2894
 196        6.2899
 197        6.2955
 198        6.3090
 199        6.3238
 200        6.3306
 201        6.3312
 202        6.3456
 203        6.3546
 204        6.3662
 205        6.3663
 206        6.3808
 207        6.3972
 208        6.3995
 209        6.4006
 210        6.4620
 211        6.4624
 212        6.4857
 213        6.4955
 214        6.5063
 215        6.5068
 216        6.5256
 
  0.2857143E+00  0.5551115E-16  0.0000000E+00  0.8163265E-02
   1      -27.7154
   2      -27.6298
   3      -27.6236
   4      -27.6236
   5      -27.5874
   6      -27.5873
   7      -27.5863
   8      -27.5862
   9      -27.5807
  10      -27.5806
  11      -27.5782
  12      -27.5781
  13      -27.5781
  14      -27.5780
  15      -27.5643
  16      -27.5198
  17      -27.5190
  18      -27.5175
  19      -27.5174
  20      -27.5161
  21      -27.5153
  22      -27.5151
  23      -27.5147
  24      -27.5029
  25      -27.5019
  26      -27.4789
  27      -27.4786
  28      -27.4782
  29      -27.4619
  30      -27.4316
  31      -27.4300
  32      -27.4295
  33      -27.4277
  34      -27.4275
  35      -27.4249
  36      -27.4115
  37      -27.4091
  38      -27.4090
  39      -27.4074
  40      -27.3591
  41      -27.3590
  42      -27.3588
  43      -27.3576
  44      -27.3551
  45      -27.3549
  46      -27.3442
  47      -27.3438
  48      -27.3426
  49      -27.2912
  50      -27.2871
  51      -27.2705
  52      -27.2643
  53      -27.2642
  54      -27.2628
  55      -27.2600
  56      -27.2599
  57      -27.2567
  58      -27.2563
  59      -27.2479
  60      -27.2464
  61      -27.2461
  62      -27.2460
  63      -27.2412
  64      -27.2410
  65      -27.2402
  66      -27.2400
  67      -27.2391
  68      -27.2229
  69      -27.2224
  70      -27.2190
  71      -27.2165
  72      -27.2129
  73      -27.2128
  74      -27.1936
  75      -27.1884
  76      -27.1884
  77      -27.1875
  78      -27.1874
  79      -27.1871
  80      -27.1871
  81      -27.1851
  82      -27.1849
  83      -27.1815
  84      -27.1814
  85      -27.1744
  86      -27.1735
  87      -27.1730
  88      -27.1652
  89      -27.1650
  90      -27.1599
  91      -27.1598
  92      -27.1494
  93      -27.1420
  94      -27.1378
  95      -27.1355
  96      -27.1353
  97      -27.1316
  98      -27.1207
  99      -27.1206
 100      -27.1135
 101      -27.1131
 102      -27.1112
 103      -27.1085
 104      -27.0966
 105      -27.0964
 106      -27.0882
 107      -27.0766
 108      -27.0508
 109       -0.1421
 110        1.0536
 111        1.6025
 112        1.6028
 113        1.7607
 114        1.7692
 115        2.4952
 116        2.4954
 117        2.8173
 118        2.8375
 119        2.9240
 120        2.9242
 121        2.9321
 122        2.9323
 123        3.0949
 124        3.2110
 125        3.2113
 126        3.2772
 127        3.2887
 128        3.2890
 129        3.3021
 130        3.3024
 131        3.7975
 132        3.9687
 133        3.9828
 134        3.9849
 135        3.9855
 136        3.9915
 137        3.9919
 138        3.9946
 139        3.9951
 140        4.0434
 141        4.0537
 142        4.0784
 143        4.0934
 144        4.1061
 145        4.1304
 146        4.2155
 147        4.2232
 148        4.2879
 149        4.3136
 150        4.4917
 151        4.5031
 152        4.6304
 153        4.6476
 154        4.8298
 155        4.9157
 156        4.9168
 157        4.9986
 158        5.0192
 159        5.0216
 160        5.0225
 161        5.0257
 162        5.0267
 163        5.0707
 164        5.0936
 165        5.0992
 166        5.1131
 167        5.1142
 168        5.1160
 169        5.1170
 170        5.1397
 171        5.1407
 172        5.1423
 173        5.1431
 174        5.2185
 175        5.2198
 176        5.3587
 177        5.5038
 178        5.5042
 179        5.5123
 180        5.5127
 181        5.5914
 182        5.5936
 183        5.8573
 184        5.8801
 185        5.8945
 186        5.9585
 187        5.9590
 188        5.9810
 189        5.9815
 190        6.0675
 191        6.0802
 192        6.0807
 193        6.0964
 194        6.1394
 195        6.1426
 196        6.1589
 197        6.1832
 198        6.1837
 199        6.2199
 200        6.2204
 201        6.2671
 202        6.3082
 203        6.3205
 204        6.3216
 205        6.3218
 206        6.3219
 207        6.3368
 208        6.3511
 209        6.3694
 210        6.4543
 211        6.4772
 212        6.5570
 213        6.5571
 214        6.5796
 215        6.6165
 216        6.6765
 
  0.4285714E+00  0.5551115E-16  0.0000000E+00  0.8163265E-02
   1      -27.6936
   2      -27.6646
   3      -27.6393
   4      -27.6392
   5      -27.5924
   6      -27.5923
   7      -27.5920
   8      -27.5919
   9      -27.5889
  10      -27.5888
  11      -27.5888
  12      -27.5887
  13      -27.5869
  14      -27.5868
  15      -27.5843
  16      -27.5290
  17      -27.5283
  18      -27.5245
  19      -27.5235
  20      -27.5064
  21      -27.5063
  22      -27.5056
  23      -27.5054
  24      -27.4798
  25      -27.4740
  26      -27.4726
  27      -27.4578
  28      -27.4528
  29      -27.4525
  30      -27.4432
  31      -27.4414
  32      -27.4412
  33      -27.4401
  34      -27.4376
  35      -27.4372
  36      -27.4371
  37      -27.4363
  38      -27.3781
  39      -27.3760
  40      -27.3527
  41      -27.3513
  42      -27.3267
  43      -27.3238
  44      -27.3236
  45      -27.3231
  46      -27.3187
  47      -27.3186
  48      -27.2960
  49      -27.2903
  50      -27.2902
  51      -27.2901
  52      -27.2850
  53      -27.2849
  54      -27.2768
  55      -27.2658
  56      -27.2618
  57      -27.2615
  58      -27.2540
  59      -27.2462
  60      -27.2461
  61      -27.2430
  62      -27.2411
  63      -27.2411
  64      -27.2406
  65      -27.2404
  66      -27.2387
  67      -27.2188
  68      -27.2093
  69      -27.2076
  70      -27.2074
  71      -27.2042
  72      -27.1928
  73      -27.1898
  74      -27.1897
  75      -27.1896
  76      -27.1895
  77      -27.1895
  78      -27.1893
  79      -27.1877
  80      -27.1877
  81      -27.1864
  82      -27.1863
  83      -27.1847
  84      -27.1846
  85      -27.1742
  86      -27.1706
  87      -27.1700
  88      -27.1693
  89      -27.1645
  90      -27.1635
  91      -27.1635
  92      -27.1616
  93      -27.1615
  94      -27.1565
  95      -27.1514
  96      -27.1514
  97      -27.1346
  98      -27.1330
  99      -27.1227
 100      -27.1207
 101      -27.1205
 102      -27.1204
 103      -27.1202
 104      -27.1164
 105      -27.1072
 106      -27.1071
 107      -27.0663
 108      -27.0575
 109        0.1606
 110        0.5658
 111        1.6830
 112        1.6859
 113        1.8501
 114        1.8503
 115        2.1612
 116        2.1614
 117        2.9142
 118        2.9143
 119        2.9170
 120        2.9172
 121        3.2152
 122        3.2306
 123        3.2309
 124        3.2350
 125        3.3789
 126        3.4882
 127        3.4885
 128        3.4990
 129        3.4993
 130        3.5003
 131        3.6153
 132        3.6340
 133        3.6638
 134        3.7249
 135        3.7253
 136        3.7322
 137        3.7325
 138        3.7593
 139        3.9196
 140        4.0638
 141        4.0700
 142        4.0840
 143        4.0931
 144        4.1031
 145        4.1180
 146        4.1883
 147        4.2087
 148        4.3051
 149        4.3093
 150        4.5596
 151        4.5638
 152        4.7531
 153        4.7703
 154        4.8794
 155        4.8893
 156        4.8905
 157        4.8977
 158        4.9983
 159        5.0082
 160        5.0672
 161        5.0682
 162        5.0759
 163        5.0769
 164        5.1077
 165        5.1261
 166        5.1271
 167        5.1372
 168        5.1382
 169        5.1648
 170        5.1757
 171        5.1769
 172        5.1775
 173        5.1781
 174        5.3379
 175        5.3395
 176        5.4681
 177        5.4700
 178        5.5256
 179        5.5737
 180        5.7047
 181        5.7049
 182        5.7279
 183        5.7282
 184        5.8240
 185        5.8711
 186        5.8715
 187        5.8795
 188        5.8799
 189        5.9155
 190        5.9451
 191        5.9668
 192        5.9672
 193        5.9974
 194        5.9978
 195        6.0127
 196        6.0351
 197        6.1446
 198        6.1450
 199        6.2265
 200        6.2366
 201        6.2397
 202        6.2400
 203        6.2655
 204        6.2666
 205        6.2710
 206        6.2736
 207        6.3477
 208        6.3604
 209        6.3646
 210        6.3940
 211        6.4670
 212        6.6152
 213        6.6916
 214        6.7117
 215        6.7213
 216        6.7267
 
  0.0000000E+00  0.1428571E+00  0.0000000E+00  0.8163265E-02
   1      -27.7289
   2      -27.5944
   3      -27.5944
   4      -27.5912
   5      -27.5746
   6      -27.5745
   7      -27.5726
   8      -27.5726
   9      -27.5686
  10      -27.5683
  11      -27.5650
  12      -27.5649
  13      -27.5648
  14      -27.5647
  15      -27.5357
  16      -27.5355
  17      -27.5328
  18      -27.5327
  19      -27.5289
  20      -27.5282
  21      -27.5262
  22      -27.5151
  23      -27.5149
  24      -27.5116
  25      -27.5051
  26      -27.5022
  27      -27.5011
  28      -27.4986
  29      -27.4423
  30      -27.4418
  31      -27.4274
  32      -27.4269
  33      -27.4263
  34      -27.4150
  35      -27.4121
  36      -27.4101
  37      -27.4056
  38      -27.4045
  39      -27.3879
  40      -27.3877
  41      -27.3874
  42      -27.3870
  43      -27.3857
  44      -27.3854
  45      -27.3797
  46      -27.3767
  47      -27.3557
  48      -27.3544
  49      -27.3206
  50      -27.3190
  51      -27.3151
  52      -27.2836
  53      -27.2831
  54      -27.2522
  55      -27.2492
  56      -27.2490
  57      -27.2464
  58      -27.2463
  59      -27.2457
  60      -27.2451
  61      -27.2449
  62      -27.2429
  63      -27.2413
  64      -27.2411
  65      -27.2399
  66      -27.2397
  67      -27.2332
  68      -27.2315
  69      -27.2314
  70      -27.2240
  71      -27.2165
  72      -27.2131
  73      -27.2061
  74      -27.2024
  75      -27.1873
  76      -27.1872
  77      -27.1868
  78      -27.1868
  79      -27.1817
  80      -27.1810
  81      -27.1808
  82      -27.1794
  83      -27.1766
  84      -27.1764
  85      -27.1731
  86      -27.1729
  87      -27.1694
  88      -27.1680
  89      -27.1678
  90      -27.1603
  91      -27.1601
  92      -27.1507
  93      -27.1505
  94      -27.1454
  95      -27.1320
  96      -27.1159
  97      -27.1088
  98      -27.1066
  99      -27.1059
 100      -27.1051
 101      -27.0997
 102      -27.0996
 103      -27.0985
 104      -27.0893
 105      -27.0892
 106      -27.0874
 107      -27.0584
 108      -27.0465
 109       -0.3289
 110        1.4445
 111        1.4448
 112        1.5954
 113        1.9181
 114        1.9314
 115        2.4558
 116        2.4752
 117        2.6708
 118        2.7986
 119        2.7988
 120        2.9561
 121        2.9563
 122        2.9681
 123        2.9684
 124        3.1301
 125        3.1325
 126        3.1328
 127        3.1472
 128        3.1475
 129        3.1526
 130        3.1529
 131        3.9339
 132        4.0209
 133        4.0286
 134        4.0899
 135        4.0987
 136        4.1070
 137        4.1082
 138        4.1140
 139        4.1215
 140        4.1751
 141        4.1992
 142        4.2250
 143        4.2367
 144        4.2768
 145        4.2778
 146        4.2786
 147        4.2795
 148        4.3857
 149        4.3864
 150        4.4034
 151        4.4146
 152        4.5151
 153        4.5350
 154        4.5363
 155        4.8985
 156        4.8993
 157        4.9053
 158        4.9061
 159        4.9655
 160        4.9665
 161        5.0107
 162        5.0117
 163        5.0118
 164        5.0128
 165        5.0839
 166        5.0850
 167        5.0877
 168        5.0887
 169        5.0943
 170        5.1087
 171        5.1178
 172        5.1181
 173        5.1192
 174        5.1376
 175        5.1654
 176        5.2188
 177        5.4707
 178        5.4709
 179        5.4737
 180        5.4740
 181        5.6832
 182        5.6856
 183        5.8443
 184        5.8876
 185        5.9715
 186        6.0185
 187        6.1019
 188        6.1024
 189        6.1089
 190        6.1094
 191        6.1422
 192        6.1427
 193        6.1644
 194        6.2776
 195        6.2891
 196        6.2897
 197        6.2957
 198        6.3087
 199        6.3240
 200        6.3306
 201        6.3311
 202        6.3464
 203        6.3544
 204        6.3661
 205        6.3663
 206        6.3806
 207        6.3973
 208        6.3993
 209        6.4002
 210        6.4622
 211        6.4671
 212        6.4876
 213        6.4931
 214        6.5066
 215        6.5071
 216        6.5258
 
  0.1428571E+00  0.1428571E+00  0.0000000E+00  0.8163265E-02
   1      -27.7199
   2      -27.6082
   3      -27.6081
   4      -27.6081
   5      -27.6080
   6      -27.6079
   7      -27.6078
   8      -27.5788
   9      -27.5788
  10      -27.5697
  11      -27.5696
  12      -27.5522
  13      -27.5521
  14      -27.5520
  15      -27.5519
  16      -27.5443
  17      -27.5442
  18      -27.5413
  19      -27.5410
  20      -27.5240
  21      -27.5008
  22      -27.4970
  23      -27.4967
  24      -27.4967
  25      -27.4965
  26      -27.4915
  27      -27.4913
  28      -27.4686
  29      -27.4685
  30      -27.4446
  31      -27.4445
  32      -27.4303
  33      -27.4290
  34      -27.4284
  35      -27.4214
  36      -27.4054
  37      -27.3980
  38      -27.3894
  39      -27.3893
  40      -27.3770
  41      -27.3770
  42      -27.3764
  43      -27.3666
  44      -27.3664
  45      -27.3662
  46      -27.3659
  47      -27.3576
  48      -27.2985
  49      -27.2975
  50      -27.2974
  51      -27.2942
  52      -27.2636
  53      -27.2569
  54      -27.2568
  55      -27.2550
  56      -27.2549
  57      -27.2547
  58      -27.2545
  59      -27.2537
  60      -27.2502
  61      -27.2500
  62      -27.2499
  63      -27.2497
  64      -27.2489
  65      -27.2489
  66      -27.2303
  67      -27.2299
  68      -27.2260
  69      -27.2259
  70      -27.2257
  71      -27.2255
  72      -27.2030
  73      -27.2029
  74      -27.1954
  75      -27.1951
  76      -27.1884
  77      -27.1883
  78      -27.1872
  79      -27.1871
  80      -27.1826
  81      -27.1825
  82      -27.1823
  83      -27.1823
  84      -27.1781
  85      -27.1780
  86      -27.1779
  87      -27.1778
  88      -27.1644
  89      -27.1603
  90      -27.1599
  91      -27.1460
  92      -27.1458
  93      -27.1458
  94      -27.1456
  95      -27.1389
  96      -27.1268
  97      -27.1267
  98      -27.1169
  99      -27.1168
 100      -27.1145
 101      -27.1144
 102      -27.1095
 103      -27.0933
 104      -27.0932
 105      -27.0874
 106      -27.0873
 107      -27.0776
 108      -27.0494
 109       -0.2045
 110        1.3637
 111        1.3641
 112        1.5502
 113        1.5505
 114        2.3231
 115        2.3234
 116        2.6875
 117        2.6875
 118        2.6877
 119        2.6880
 120        2.9334
 121        2.9338
 122        3.1630
 123        3.1631
 124        3.1631
 125        3.1636
 126        3.2243
 127        3.2245
 128        3.2246
 129        3.2250
 130        3.2289
 131        3.8973
 132        3.8975
 133        4.0116
 134        4.0393
 135        4.0398
 136        4.0459
 137        4.0466
 138        4.0679
 139        4.0918
 140        4.0922
 141        4.0959
 142        4.1015
 143        4.1020
 144        4.1133
 145        4.1685
 146        4.1691
 147        4.2544
 148        4.2735
 149        4.2744
 150        4.4286
 151        4.5330
 152        4.6632
 153        4.6636
 154        4.6639
 155        4.9553
 156        4.9557
 157        4.9563
 158        4.9570
 159        5.0318
 160        5.0327
 161        5.0343
 162        5.0356
 163        5.0737
 164        5.0749
 165        5.0753
 166        5.0759
 167        5.0765
 168        5.0766
 169        5.1052
 170        5.1063
 171        5.1692
 172        5.1702
 173        5.1705
 174        5.1717
 175        5.2398
 176        5.2406
 177        5.4862
 178        5.4866
 179        5.4888
 180        5.4891
 181        5.6185
 182        5.6208
 183        5.8583
 184        5.8782
 185        5.9694
 186        6.0436
 187        6.0442
 188        6.0444
 189        6.0449
 190        6.0648
 191        6.0655
 192        6.0660
 193        6.0668
 194        6.0734
 195        6.0930
 196        6.1157
 197        6.2105
 198        6.2117
 199        6.2462
 200        6.2471
 201        6.3246
 202        6.3254
 203        6.3269
 204        6.3272
 205        6.3654
 206        6.3659
 207        6.4623
 208        6.4634
 209        6.5284
 210        6.5288
 211        6.5291
 212        6.5294
 213        6.5365
 214        6.5368
 215        6.5370
 216        6.5383
 
  0.2857143E+00  0.1428571E+00  0.0000000E+00  0.8163265E-02
   1      -27.7022
   2      -27.6449
   3      -27.6304
   4      -27.6303
   5      -27.6186
   6      -27.6133
   7      -27.6133
   8      -27.5962
   9      -27.5961
  10      -27.5743
  11      -27.5743
  12      -27.5735
  13      -27.5667
  14      -27.5666
  15      -27.5527
  16      -27.5487
  17      -27.5432
  18      -27.5364
  19      -27.5363
  20      -27.5100
  21      -27.4988
  22      -27.4879
  23      -27.4838
  24      -27.4836
  25      -27.4701
  26      -27.4685
  27      -27.4656
  28      -27.4653
  29      -27.4633
  30      -27.4532
  31      -27.4410
  32      -27.4400
  33      -27.4376
  34      -27.4351
  35      -27.4343
  36      -27.4338
  37      -27.4215
  38      -27.4183
  39      -27.3891
  40      -27.3454
  41      -27.3448
  42      -27.3359
  43      -27.3357
  44      -27.3332
  45      -27.3330
  46      -27.3263
  47      -27.3105
  48      -27.2934
  49      -27.2785
  50      -27.2771
  51      -27.2769
  52      -27.2767
  53      -27.2708
  54      -27.2667
  55      -27.2660
  56      -27.2659
  57      -27.2654
  58      -27.2603
  59      -27.2600
  60      -27.2517
  61      -27.2516
  62      -27.2499
  63      -27.2460
  64      -27.2404
  65      -27.2379
  66      -27.2301
  67      -27.2213
  68      -27.2212
  69      -27.2148
  70      -27.2146
  71      -27.2025
  72      -27.2024
  73      -27.1990
  74      -27.1912
  75      -27.1901
  76      -27.1900
  77      -27.1896
  78      -27.1882
  79      -27.1881
  80      -27.1873
  81      -27.1873
  82      -27.1870
  83      -27.1869
  84      -27.1849
  85      -27.1849
  86      -27.1796
  87      -27.1764
  88      -27.1763
  89      -27.1572
  90      -27.1566
  91      -27.1544
  92      -27.1456
  93      -27.1455
  94      -27.1419
  95      -27.1414
  96      -27.1397
  97      -27.1396
  98      -27.1390
  99      -27.1309
 100      -27.1307
 101      -27.1219
 102      -27.1167
 103      -27.1105
 104      -27.1027
 105      -27.1026
 106      -27.0953
 107      -27.0762
 108      -27.0564
 109        0.0398
 110        0.8460
 111        1.2239
 112        1.7531
 113        1.7533
 114        2.2311
 115        2.3631
 116        2.3632
 117        2.6228
 118        2.6229
 119        2.7679
 120        3.1905
 121        3.1907
 122        3.2386
 123        3.2611
 124        3.2614
 125        3.2922
 126        3.3542
 127        3.3546
 128        3.3863
 129        3.3866
 130        3.4148
 131        3.6524
 132        3.7622
 133        3.7794
 134        3.7798
 135        3.8663
 136        3.8666
 137        3.8697
 138        3.9151
 139        3.9205
 140        3.9534
 141        4.0162
 142        4.0269
 143        4.1001
 144        4.1090
 145        4.1277
 146        4.1906
 147        4.2407
 148        4.3450
 149        4.3554
 150        4.3969
 151        4.6068
 152        4.7608
 153        4.7965
 154        4.8839
 155        4.8974
 156        4.9198
 157        4.9209
 158        4.9687
 159        4.9899
 160        4.9909
 161        4.9987
 162        5.0777
 163        5.0935
 164        5.0943
 165        5.1302
 166        5.1312
 167        5.1320
 168        5.1328
 169        5.1344
 170        5.1352
 171        5.2163
 172        5.2174
 173        5.2251
 174        5.2741
 175        5.2755
 176        5.4266
 177        5.5120
 178        5.5140
 179        5.5549
 180        5.5556
 181        5.6599
 182        5.7116
 183        5.7118
 184        5.8641
 185        5.8644
 186        5.8754
 187        5.8993
 188        5.9202
 189        5.9206
 190        5.9406
 191        5.9838
 192        5.9843
 193        6.0484
 194        6.0841
 195        6.0845
 196        6.1334
 197        6.1412
 198        6.1627
 199        6.2218
 200        6.2468
 201        6.2590
 202        6.2593
 203        6.2740
 204        6.3167
 205        6.3324
 206        6.3328
 207        6.3580
 208        6.4028
 209        6.4196
 210        6.4704
 211        6.5508
 212        6.5602
 213        6.6645
 214        6.6806
 215        6.7130
 216        6.7152
 
  0.4285714E+00  0.1428571E+00  0.0000000E+00  0.8163265E-02
   1      -27.6769
   2      -27.6768
   3      -27.6383
   4      -27.6382
   5      -27.6221
   6      -27.6093
   7      -27.6093
   8      -27.6086
   9      -27.6086
  10      -27.5838
  11      -27.5746
  12      -27.5745
  13      -27.5741
  14      -27.5740
  15      -27.5550
  16      -27.5512
  17      -27.5508
  18      -27.5310
  19      -27.5309
  20      -27.4994
  21      -27.4940
  22      -27.4793
  23      -27.4786
  24      -27.4783
  25      -27.4763
  26      -27.4752
  27      -27.4535
  28      -27.4525
  29      -27.4513
  30      -27.4462