       N       E                     dE             d eps       ncg     rms          rms(c)
DAV:   1     0.497101413005E+04    0.49710E+04   -0.17215E+05 53824   0.180E+03
DAV:   2     0.872855758031E+02   -0.48837E+04   -0.48091E+04 53136   0.636E+02
DAV:   3    -0.293492500891E+03   -0.38078E+03   -0.35843E+03 77752   0.160E+02
DAV:   4    -0.324667647619E+03   -0.31175E+02   -0.30266E+02 72672   0.399E+01
DAV:   5    -0.325592484541E+03   -0.92484E+00   -0.90225E+00 69488   0.617E+00    0.361E+01
DAV:   6    -0.285915002764E+03    0.39677E+02   -0.12514E+02 58192   0.377E+01    0.905E+00
DAV:   7    -0.284068455149E+03    0.18465E+01   -0.15675E+01 69704   0.115E+01    0.364E+00
DAV:   8    -0.284191475144E+03   -0.12302E+00   -0.30835E+00 70704   0.719E+00    0.418E+00
DAV:   9    -0.283988552778E+03    0.20292E+00   -0.11316E+00 74784   0.481E+00    0.193E+00
DAV:  10    -0.283916944450E+03    0.71608E-01   -0.16148E-01 71632   0.149E+00    0.120E+00
DAV:  11    -0.283872891136E+03    0.44053E-01   -0.28609E-01 62640   0.178E+00    0.236E-01
DAV:  12    -0.283874095904E+03   -0.12048E-02   -0.12414E-02 71552   0.403E-01    0.273E-01
DAV:  13    -0.283872883998E+03    0.12119E-02   -0.30790E-03 69512   0.204E-01    0.145E-01
DAV:  14    -0.283872436251E+03    0.44775E-03   -0.13889E-03 69752   0.153E-01    0.575E-02
DAV:  15    -0.283872431170E+03    0.50809E-05   -0.18020E-04 73120   0.662E-02    0.416E-02
DAV:  16    -0.283872426788E+03    0.43815E-05   -0.59944E-05 73680   0.379E-02    0.302E-02
DAV:  17    -0.283872389836E+03    0.36952E-04   -0.36501E-05 68896   0.219E-02    0.162E-02
DAV:  18    -0.283872367400E+03    0.22436E-04   -0.15715E-05 69936   0.159E-02    0.491E-03
DAV:  19    -0.283872361310E+03    0.60899E-05   -0.25077E-06 72608   0.620E-03    0.239E-03
DAV:  20    -0.283872359375E+03    0.19358E-05   -0.50132E-07 72632   0.334E-03    0.761E-04
DAV:  21    -0.283872358682E+03    0.69269E-06   -0.75644E-08 54600   0.111E-03    0.418E-04
DAV:  22    -0.283872358729E+03   -0.47286E-07   -0.16492E-08 38928   0.758E-04    0.243E-04
DAV:  23    -0.283872358891E+03   -0.16202E-06   -0.79290E-09 35272   0.424E-04    0.127E-04
DAV:  24    -0.283872358953E+03   -0.61555E-07   -0.36000E-09 34480   0.280E-04    0.103E-04
DAV:  25    -0.283872358990E+03   -0.36845E-07   -0.17830E-09 33816   0.192E-04    0.608E-05
DAV:  26    -0.283872359001E+03   -0.11780E-07   -0.82738E-10 33536   0.102E-04    0.542E-05
DAV:  27    -0.283872359016E+03   -0.14326E-07   -0.38698E-10 33200   0.756E-05    0.479E-05
DAV:  28    -0.283872359018E+03   -0.22483E-08   -0.17737E-10 32712   0.423E-05
   1 F= -.28387236E+03 E0= -.28387118E+03  d E =-.235656E-02
