 vasp.4.6.28 25Jul05 complex 
 executed on             LinuxIFC date 2016.11.26  08:41:24
 running on    4 nodes
 distr:  one band on    1 nodes,    4 groups


--------------------------------------------------------------------------------------------------------


 INCAR:
 POTCAR:   PAW_PBE Ti_pv 07Sep2000                
 POTCAR:   PAW_PBE Ti_pv 07Sep2000                
   VRHFIN =Ti: d3 s1                                                            
   LEXCH  = PE                                                                  
   EATOM  =  1042.3781 eV,   76.6126 Ry                                         
                                                                                
   TITEL  = PAW_PBE Ti_pv 07Sep2000                                             
   LULTRA =        F    use ultrasoft PP ?                                      
   IUNSCR =        1    unscreen: 0-lin 1-nonlin 2-no                           
   RPACOR =    2.200    partial core radius                                     
   POMASS =   47.880; ZVAL   =   10.000    mass and valenz                      
   RCORE  =    2.500    outmost cutoff radius                                   
   RWIGS  =    2.500; RWIGS  =    1.323    wigner-seitz radius (au A)           
   ENMAX  =  222.338; ENMIN  =  166.753 eV                                      
   RCLOC  =    1.701    cutoff for local pot                                    
   LCOR   =        T    correct aug charges                                     
   LPAW   =        T    paw PP                                                  
   EAUG   =  482.848                                                            
   DEXC   =    -.008                                                            
   RMAX   =    3.092    core radius for proj-oper                               
   RAUG   =    1.300    factor for augmentation sphere                          
   RDEP   =    2.538    radius for radial grids                                 
   QCUT   =   -4.042; QGAM   =    8.085    optimization parameters              
                                                                                
   Description                                                                  
     l     E      TYP  RCUT    TYP  RCUT                                        
     1   .000     23  2.300                                                     
     1  -.100     23  2.300                                                     
     2   .000     23  2.500                                                     
     2   .000     23  2.500                                                     
     0   .000     23  2.500                                                     
     0  1.500     23  2.500                                                     
     3   .000      7   .000                                                     
  local pseudopotential read in
  partial core-charges read in
  atomic valenz-charges read in
  non local Contribution for L=           1  read in
    real space projection operators read in
  non local Contribution for L=           1  read in
    real space projection operators read in
  non local Contribution for L=           2  read in
    real space projection operators read in
  non local Contribution for L=           2  read in
    real space projection operators read in
  non local Contribution for L=           0  read in
    real space projection operators read in
  non local Contribution for L=           0  read in
    real space projection operators read in
    PAW grid and wavefunctions read in
 
   number of l-projection  operators is LMAX  =           6
   number of lm-projection operators is LMMAX =          18
 

 ----------------------------------------------------------------------------- 
|                                                                             |
|  ADVICE TO THIS USER RUNNING 'VASP/VAMP'   (HEAR YOUR MASTER'S VOICE ...):  |
|                                                                             |
|      You have a (more or less) 'large supercell' and for larger cells       |
|      it might be more efficient to use real space projection operators      |
|      So try LREAL= Auto  in the INCAR   file.                               |
|      Mind: If you want to do an extremely accurate calculations keep the    |
|      reciprocal projection scheme          (i.e. LREAL=.FALSE.)             |
|                                                                             |
 ----------------------------------------------------------------------------- 

 PAW_PBE Ti_pv 07Sep2000                :
 energy of atom  1       EATOM=-1042.3781
 kinetic energy error for atom=    0.0024 (will be added to EATOM!!)
 
 EXHCAR: internal setup
 exchange correlation table for  LEXCH =        8
   RHO(1)=    0.500       N(1)  =     2000
   RHO(2)=  100.500       N(2)  =     4000
 
 POSCAR: Ti                                      
  positions in direct lattice
  No initial velocities read in
 


--------------------------------------------------------------------------------------------------------


 ion  position               nearest neighbor table
   1  0.110  0.223  0.124-  30 2.91  31 2.91  28 2.92  21 2.92  22 2.92  19 2.93   3 2.93   4 2.94
                             7 2.94   2 2.95   9 2.95   5 2.96
   2  0.444  0.223  0.125-  19 2.92  28 2.92  23 2.92  32 2.92  29 2.92  20 2.92   3 2.94   8 2.94
                             5 2.94   1 2.95   7 2.95   6 2.95
   3  0.777  0.223  0.125-  20 2.92  29 2.92  24 2.92  33 2.92  30 2.92  21 2.92   1 2.93   2 2.94
                             9 2.94   6 2.94   8 2.95   4 2.95
   4  0.111  0.556  0.125-  24 2.92  33 2.92  25 2.92  34 2.92  22 2.92  31 2.92   1 2.94   6 2.94
                             5 2.94   7 2.94   3 2.95   8 2.95
   5  0.444  0.556  0.125-  22 2.92  31 2.92  26 2.92  35 2.92  32 2.92  23 2.92   4 2.94   6 2.94
                             2 2.94   8 2.94   9 2.95   1 2.96
   6  0.777  0.556  0.125-  23 2.92  32 2.92  27 2.92  36 2.92  33 2.92  24 2.92   4 2.94   5 2.94
                             3 2.94   9 2.94   7 2.95   2 2.95
   7  0.111  0.889  0.125-  27 2.92  36 2.92  28 2.92  19 2.92  34 2.92  25 2.92   9 2.94   8 2.94
                             4 2.94   1 2.94   2 2.95   6 2.95
   8  0.444  0.889  0.125-  25 2.92  34 2.92  29 2.92  20 2.92  26 2.92  35 2.92   7 2.94   9 2.94
                             2 2.94   5 2.94   3 2.95   4 2.95
   9  0.777  0.889  0.125-  26 2.92  35 2.92  30 2.92  21 2.92  27 2.92  36 2.92   7 2.94   8 2.94
                             3 2.94   6 2.94   1 2.95   5 2.95
  10  0.111  0.223  0.625-  21 2.92  30 2.92  22 2.92  31 2.92  19 2.92  28 2.92  12 2.94  11 2.94
                            16 2.94  13 2.94  18 2.95  14 2.95
  11  0.444  0.223  0.625-  19 2.92  28 2.92  23 2.92  32 2.92  29 2.92  20 2.92  10 2.94  12 2.94
                            17 2.94  14 2.94  16 2.95  15 2.95
  12  0.777  0.223  0.625-  20 2.92  29 2.92  24 2.92  33 2.92  30 2.92  21 2.92  10 2.94  11 2.94
                            18 2.94  15 2.94  17 2.95  13 2.95
  13  0.111  0.556  0.625-  24 2.92  33 2.92  25 2.92  34 2.92  22 2.92  31 2.92  15 2.94  14 2.94
                            10 2.94  16 2.94  12 2.95  17 2.95
  14  0.444  0.556  0.625-  22 2.92  31 2.92  26 2.92  35 2.92  32 2.92  23 2.92  13 2.94  15 2.94
                            11 2.94  17 2.94  10 2.95  18 2.95
  15  0.777  0.556  0.625-  23 2.92  32 2.92  27 2.92  36 2.92  33 2.92  24 2.92  13 2.94  14 2.94
                            12 2.94  18 2.94  16 2.95  11 2.95
  16  0.111  0.889  0.625-  27 2.92  36 2.92  28 2.92  19 2.92  34 2.92  25 2.92  18 2.94  17 2.94
                            10 2.94  13 2.94  11 2.95  15 2.95
  17  0.444  0.889  0.625-  25 2.92  34 2.92  29 2.92  20 2.92  26 2.92  35 2.92  16 2.94  18 2.94
                            11 2.94  14 2.94  12 2.95  13 2.95
  18  0.777  0.889  0.625-  26 2.92  35 2.92  30 2.92  21 2.92  27 2.92  36 2.92  16 2.94  17 2.94
                            12 2.94  15 2.94  10 2.95  14 2.95
  19  0.223  0.111  0.375-   2 2.92  11 2.92   7 2.92  16 2.92  10 2.92   1 2.93  21 2.94  20 2.94
                            25 2.94  22 2.94  27 2.95  23 2.95
  20  0.556  0.111  0.375-   3 2.92  12 2.92   8 2.92  17 2.92   2 2.92  11 2.92  19 2.94  21 2.94
                            26 2.94  23 2.94  25 2.95  24 2.95
  21  0.889  0.111  0.375-  10 2.92   9 2.92  18 2.92   1 2.92  12 2.92   3 2.92  19 2.94  20 2.94
                            27 2.94  24 2.94  26 2.95  22 2.95
  22  0.223  0.444  0.375-   5 2.92  14 2.92  10 2.92  13 2.92   4 2.92   1 2.92  24 2.94  23 2.94
                            19 2.94  25 2.94  21 2.95  26 2.95
  23  0.556  0.444  0.375-   6 2.92  15 2.92  11 2.92   2 2.92  14 2.92   5 2.92  22 2.94  24 2.94
                            20 2.94  26 2.94  19 2.95  27 2.95
  24  0.889  0.444  0.375-   4 2.92  13 2.92  12 2.92   3 2.92   6 2.92  15 2.92  22 2.94  23 2.94
                            21 2.94  27 2.94  25 2.95  20 2.95
  25  0.223  0.777  0.375-   8 2.92  17 2.92  13 2.92   4 2.92  16 2.92   7 2.92  27 2.94  26 2.94
                            19 2.94  22 2.94  20 2.95  24 2.95
  26  0.556  0.777  0.375-   9 2.92  18 2.92  14 2.92   5 2.92  17 2.92   8 2.92  25 2.94  27 2.94
                            20 2.94  23 2.94  21 2.95  22 2.95
  27  0.889  0.777  0.375-   7 2.92  16 2.92  15 2.92   6 2.92   9 2.92  18 2.92  25 2.94  26 2.94
                            21 2.94  24 2.94  19 2.95  23 2.95
  28  0.223  0.111  0.875-   2 2.92  11 2.92   7 2.92  16 2.92   1 2.92  10 2.92  30 2.94  29 2.94
                            34 2.94  31 2.94  36 2.95  32 2.95
  29  0.556  0.111  0.875-   3 2.92  12 2.92   8 2.92  17 2.92   2 2.92  11 2.92  28 2.94  30 2.94
                            35 2.94  32 2.94  34 2.95  33 2.95
  30  0.889  0.111  0.875-   1 2.91  10 2.92   9 2.92  18 2.92  12 2.92   3 2.92  28 2.94  29 2.94
                            36 2.94  33 2.94  35 2.95  31 2.95
  31  0.223  0.444  0.875-   1 2.91   5 2.92  14 2.92  10 2.92  13 2.92   4 2.92  33 2.94  32 2.94
                            28 2.94  34 2.94  30 2.95  35 2.95
  32  0.556  0.444  0.875-   6 2.92  15 2.92  11 2.92   2 2.92  14 2.92   5 2.92  31 2.94  33 2.94
                            29 2.94  35 2.94  28 2.95  36 2.95
  33  0.889  0.444  0.875-   4 2.92  13 2.92  12 2.92   3 2.92   6 2.92  15 2.92  31 2.94  32 2.94
                            30 2.94  36 2.94  34 2.95  29 2.95
  34  0.223  0.777  0.875-   8 2.92  17 2.92  13 2.92   4 2.92  16 2.92   7 2.92  36 2.94  35 2.94
                            28 2.94  31 2.94  29 2.95  33 2.95
  35  0.556  0.777  0.875-   9 2.92  18 2.92  14 2.92   5 2.92  17 2.92   8 2.92  34 2.94  36 2.94
                            29 2.94  32 2.94  30 2.95  31 2.95
  36  0.889  0.777  0.875-   7 2.92  16 2.92  15 2.92   6 2.92   9 2.92  18 2.92  34 2.94  35 2.94
                            30 2.94  33 2.94  28 2.95  32 2.95
 
  LATTYP: Found a base centered orthorhombic cell.
 ALAT       =     8.8635622795
 B/A-ratio  =     1.7208744689
 C/A-ratio  =     1.0699646938
  
  Lattice vectors:
  
 A1 = (   8.8206670999,   0.0247654402,   0.0000000000)
 A2 = (  -4.3888858705,   7.6513046101,   0.0000000000)
 A3 = (   0.0000000000,   0.0000000000,   9.4836987000)
 Subroutine PRICEL returns:
 Original cell was already a primitive cell.
 

Analysis of symmetry for initial positions (statically):

 Routine SETGRP: Setting up the symmetry group for a 
 base centered orthorhombic supercell.


 Subroutine GETGRP returns: Found  1 space group operations
 (whereof  1 operations were pure point group operations)
 out of a pool of  8 trial point group operations.


The static configuration has the point symmetry C_1 .

Analysis of symmetry for dynamics (positions and initial velocities):

 Subroutine DYNSYM returns: Found  1 space group operations
 (whereof  1 operations were pure point group operations)
 out of a pool of  1 trial space group operations
 (whereof  1 operations were pure point group operations)
 and found also     1 'primitive' translations


The dynamic configuration has the point symmetry C_1 .
 
 
 KPOINTS: Automatic mesh                          

Automatic generation of k-mesh.
 generate k-points for:   7   7   5
 
 Subroutine IBZKPT returns following result:
 ===========================================
 
 Found    123 irreducible k-points:
 
 Following reciprocal coordinates:
            Coordinates               Weight
  0.000000  0.000000  0.000000      1.000000
  0.142857  0.000000  0.000000      2.000000
  0.285714  0.000000  0.000000      2.000000
  0.428571  0.000000  0.000000      2.000000
  0.000000  0.142857  0.000000      2.000000
  0.142857  0.142857  0.000000      2.000000
  0.285714  0.142857  0.000000      2.000000
  0.428571  0.142857  0.000000      2.000000
 -0.428571  0.142857  0.000000      2.000000
 -0.285714  0.142857  0.000000      2.000000
 -0.142857  0.142857  0.000000      2.000000
  0.000000  0.285714  0.000000      2.000000
  0.142857  0.285714  0.000000      2.000000
  0.285714  0.285714  0.000000      2.000000
  0.428571  0.285714  0.000000      2.000000
 -0.428571  0.285714  0.000000      2.000000
 -0.285714  0.285714  0.000000      2.000000
 -0.142857  0.285714  0.000000      2.000000
  0.000000  0.428571  0.000000      2.000000
  0.142857  0.428571  0.000000      2.000000
  0.285714  0.428571  0.000000      2.000000
  0.428571  0.428571  0.000000      2.000000
 -0.428571  0.428571  0.000000      2.000000
 -0.285714  0.428571  0.000000      2.000000
 -0.142857  0.428571  0.000000      2.000000
  0.000000  0.000000  0.200000      2.000000
  0.142857  0.000000  0.200000      2.000000
  0.285714  0.000000  0.200000      2.000000
  0.428571  0.000000  0.200000      2.000000
 -0.428571 -0.000000  0.200000      2.000000
 -0.285714 -0.000000  0.200000      2.000000
 -0.142857 -0.000000  0.200000      2.000000
  0.000000  0.142857  0.200000      2.000000
  0.142857  0.142857  0.200000      2.000000
  0.285714  0.142857  0.200000      2.000000
  0.428571  0.142857  0.200000      2.000000
 -0.428571  0.142857  0.200000      2.000000
 -0.285714  0.142857  0.200000      2.000000
 -0.142857  0.142857  0.200000      2.000000
  0.000000  0.285714  0.200000      2.000000
  0.142857  0.285714  0.200000      2.000000
  0.285714  0.285714  0.200000      2.000000
  0.428571  0.285714  0.200000      2.000000
 -0.428571  0.285714  0.200000      2.000000
 -0.285714  0.285714  0.200000      2.000000
 -0.142857  0.285714  0.200000      2.000000
  0.000000  0.428571  0.200000      2.000000
  0.142857  0.428571  0.200000      2.000000
  0.285714  0.428571  0.200000      2.000000
  0.428571  0.428571  0.200000      2.000000
 -0.428571  0.428571  0.200000      2.000000
 -0.285714  0.428571  0.200000      2.000000
 -0.142857  0.428571  0.200000      2.000000
  0.000000 -0.428571  0.200000      2.000000
  0.142857 -0.428571  0.200000      2.000000
  0.285714 -0.428571  0.200000      2.000000
  0.428571 -0.428571  0.200000      2.000000
 -0.428571 -0.428571  0.200000      2.000000
 -0.285714 -0.428571  0.200000      2.000000
 -0.142857 -0.428571  0.200000      2.000000
 -0.000000 -0.285714  0.200000      2.000000
  0.142857 -0.285714  0.200000      2.000000
  0.285714 -0.285714  0.200000      2.000000
  0.428571 -0.285714  0.200000      2.000000
 -0.428571 -0.285714  0.200000      2.000000
 -0.285714 -0.285714  0.200000      2.000000
 -0.142857 -0.285714  0.200000      2.000000
 -0.000000 -0.142857  0.200000      2.000000
  0.142857 -0.142857  0.200000      2.000000
  0.285714 -0.142857  0.200000      2.000000
  0.428571 -0.142857  0.200000      2.000000
 -0.428571 -0.142857  0.200000      2.000000
 -0.285714 -0.142857  0.200000      2.000000
 -0.142857 -0.142857  0.200000      2.000000
  0.000000  0.000000  0.400000      2.000000
  0.142857  0.000000  0.400000      2.000000
  0.285714  0.000000  0.400000      2.000000
  0.428571  0.000000  0.400000      2.000000
 -0.428571 -0.000000  0.400000      2.000000
 -0.285714 -0.000000  0.400000      2.000000
 -0.142857 -0.000000  0.400000      2.000000
  0.000000  0.142857  0.400000      2.000000
  0.142857  0.142857  0.400000      2.000000
  0.285714  0.142857  0.400000      2.000000
  0.428571  0.142857  0.400000      2.000000
 -0.428571  0.142857  0.400000      2.000000
 -0.285714  0.142857  0.400000      2.000000
 -0.142857  0.142857  0.400000      2.000000
  0.000000  0.285714  0.400000      2.000000
  0.142857  0.285714  0.400000      2.000000
  0.285714  0.285714  0.400000      2.000000
  0.428571  0.285714  0.400000      2.000000
 -0.428571  0.285714  0.400000      2.000000
 -0.285714  0.285714  0.400000      2.000000
 -0.142857  0.285714  0.400000      2.000000
  0.000000  0.428571  0.400000      2.000000
  0.142857  0.428571  0.400000      2.000000
  0.285714  0.428571  0.400000      2.000000
  0.428571  0.428571  0.400000      2.000000
 -0.428571  0.428571  0.400000      2.000000
 -0.285714  0.428571  0.400000      2.000000
 -0.142857  0.428571  0.400000      2.000000
  0.000000 -0.428571  0.400000      2.000000
  0.142857 -0.428571  0.400000      2.000000
  0.285714 -0.428571  0.400000      2.000000
  0.428571 -0.428571  0.400000      2.000000
 -0.428571 -0.428571  0.400000      2.000000
 -0.285714 -0.428571  0.400000      2.000000
 -0.142857 -0.428571  0.400000      2.000000
 -0.000000 -0.285714  0.400000      2.000000
  0.142857 -0.285714  0.400000      2.000000
  0.285714 -0.285714  0.400000      2.000000
  0.428571 -0.285714  0.400000      2.000000
 -0.428571 -0.285714  0.400000      2.000000
 -0.285714 -0.285714  0.400000      2.000000
 -0.142857 -0.285714  0.400000      2.000000
 -0.000000 -0.142857  0.400000      2.000000
  0.142857 -0.142857  0.400000      2.000000
  0.285714 -0.142857  0.400000      2.000000
  0.428571 -0.142857  0.400000      2.000000
 -0.428571 -0.142857  0.400000      2.000000
 -0.285714 -0.142857  0.400000      2.000000
 -0.142857 -0.142857  0.400000      2.000000
 
 Following cartesian coordinates:
            Coordinates               Weight
  0.000000  0.000000  0.000000      1.000000
  0.016170  0.009275  0.000000      2.000000
  0.032339  0.018550  0.000000      2.000000
  0.048509  0.027825  0.000000      2.000000
 -0.000052  0.018641  0.000000      2.000000
  0.016117  0.027916  0.000000      2.000000
  0.032287  0.037191  0.000000      2.000000
  0.048457  0.046466  0.000000      2.000000
 -0.048561 -0.009184  0.000000      2.000000
 -0.032392  0.000091  0.000000      2.000000
 -0.016222  0.009366  0.000000      2.000000
 -0.000105  0.037282  0.000000      2.000000
  0.016065  0.046557  0.000000      2.000000
  0.032235  0.055832  0.000000      2.000000
  0.048404  0.065107  0.000000      2.000000
 -0.048614  0.009456  0.000000      2.000000
 -0.032444  0.018732  0.000000      2.000000
 -0.016274  0.028007  0.000000      2.000000
 -0.000157  0.055923  0.000000      2.000000
  0.016013  0.065198  0.000000      2.000000
  0.032182  0.074473  0.000000      2.000000
  0.048352  0.083748  0.000000      2.000000
 -0.048666  0.028097  0.000000      2.000000
 -0.032496  0.037373  0.000000      2.000000
 -0.016327  0.046648  0.000000      2.000000
  0.000000  0.000000  0.021089      2.000000
  0.016170  0.009275  0.021089      2.000000
  0.032339  0.018550  0.021089      2.000000
  0.048509  0.027825  0.021089      2.000000
 -0.048509 -0.027825  0.021089      2.000000
 -0.032339 -0.018550  0.021089      2.000000
 -0.016170 -0.009275  0.021089      2.000000
 -0.000052  0.018641  0.021089      2.000000
  0.016117  0.027916  0.021089      2.000000
  0.032287  0.037191  0.021089      2.000000
  0.048457  0.046466  0.021089      2.000000
 -0.048561 -0.009184  0.021089      2.000000
 -0.032392  0.000091  0.021089      2.000000
 -0.016222  0.009366  0.021089      2.000000
 -0.000105  0.037282  0.021089      2.000000
  0.016065  0.046557  0.021089      2.000000
  0.032235  0.055832  0.021089      2.000000
  0.048404  0.065107  0.021089      2.000000
 -0.048614  0.009456  0.021089      2.000000
 -0.032444  0.018732  0.021089      2.000000
 -0.016274  0.028007  0.021089      2.000000
 -0.000157  0.055923  0.021089      2.000000
  0.016013  0.065198  0.021089      2.000000
  0.032182  0.074473  0.021089      2.000000
  0.048352  0.083748  0.021089      2.000000
 -0.048666  0.028097  0.021089      2.000000
 -0.032496  0.037373  0.021089      2.000000
 -0.016327  0.046648  0.021089      2.000000
  0.000157 -0.055923  0.021089      2.000000
  0.016327 -0.046648  0.021089      2.000000
  0.032496 -0.037373  0.021089      2.000000
  0.048666 -0.028097  0.021089      2.000000
 -0.048352 -0.083748  0.021089      2.000000
 -0.032182 -0.074473  0.021089      2.000000
 -0.016013 -0.065198  0.021089      2.000000
  0.000105 -0.037282  0.021089      2.000000
  0.016274 -0.028007  0.021089      2.000000
  0.032444 -0.018732  0.021089      2.000000
  0.048614 -0.009456  0.021089      2.000000
 -0.048404 -0.065107  0.021089      2.000000
 -0.032235 -0.055832  0.021089      2.000000
 -0.016065 -0.046557  0.021089      2.000000
  0.000052 -0.018641  0.021089      2.000000
  0.016222 -0.009366  0.021089      2.000000
  0.032392 -0.000091  0.021089      2.000000
  0.048561  0.009184  0.021089      2.000000
 -0.048457 -0.046466  0.021089      2.000000
 -0.032287 -0.037191  0.021089      2.000000
 -0.016117 -0.027916  0.021089      2.000000
  0.000000  0.000000  0.042178      2.000000
  0.016170  0.009275  0.042178      2.000000
  0.032339  0.018550  0.042178      2.000000
  0.048509  0.027825  0.042178      2.000000
 -0.048509 -0.027825  0.042178      2.000000
 -0.032339 -0.018550  0.042178      2.000000
 -0.016170 -0.009275  0.042178      2.000000
 -0.000052  0.018641  0.042178      2.000000
  0.016117  0.027916  0.042178      2.000000
  0.032287  0.037191  0.042178      2.000000
  0.048457  0.046466  0.042178      2.000000
 -0.048561 -0.009184  0.042178      2.000000
 -0.032392  0.000091  0.042178      2.000000
 -0.016222  0.009366  0.042178      2.000000
 -0.000105  0.037282  0.042178      2.000000
  0.016065  0.046557  0.042178      2.000000
  0.032235  0.055832  0.042178      2.000000
  0.048404  0.065107  0.042178      2.000000
 -0.048614  0.009456  0.042178      2.000000
 -0.032444  0.018732  0.042178      2.000000
 -0.016274  0.028007  0.042178      2.000000
 -0.000157  0.055923  0.042178      2.000000
  0.016013  0.065198  0.042178      2.000000
  0.032182  0.074473  0.042178      2.000000
  0.048352  0.083748  0.042178      2.000000
 -0.048666  0.028097  0.042178      2.000000
 -0.032496  0.037373  0.042178      2.000000
 -0.016327  0.046648  0.042178      2.000000
  0.000157 -0.055923  0.042178      2.000000
  0.016327 -0.046648  0.042178      2.000000
  0.032496 -0.037373  0.042178      2.000000
  0.048666 -0.028097  0.042178      2.000000
 -0.048352 -0.083748  0.042178      2.000000
 -0.032182 -0.074473  0.042178      2.000000
 -0.016013 -0.065198  0.042178      2.000000
  0.000105 -0.037282  0.042178      2.000000
  0.016274 -0.028007  0.042178      2.000000
  0.032444 -0.018732  0.042178      2.000000
  0.048614 -0.009456  0.042178      2.000000
 -0.048404 -0.065107  0.042178      2.000000
 -0.032235 -0.055832  0.042178      2.000000
 -0.016065 -0.046557  0.042178      2.000000
  0.000052 -0.018641  0.042178      2.000000
  0.016222 -0.009366  0.042178      2.000000
  0.032392 -0.000091  0.042178      2.000000
  0.048561  0.009184  0.042178      2.000000
 -0.048457 -0.046466  0.042178      2.000000
 -0.032287 -0.037191  0.042178      2.000000
 -0.016117 -0.027916  0.042178      2.000000
 


--------------------------------------------------------------------------------------------------------




 Dimension of arrays:
   k-Points           NKPTS =    123   number of bands    NBANDS=    216
   number of dos      NEDOS =    301   number of ions     NIONS =     36
   non local maximal  LDIM  =      6   non local SUM 2l+1 LMDIM =     18
   total plane-waves  NPLWV = 286720
   max r-space proj   IRMAX =      1   max aug-charges    IRDMAX=  17561
   dimension x,y,z NGX =    64 NGY =   64 NGZ =   70
   dimension x,y,z NGXF=   128 NGYF=  128 NGZF=  140
   support grid    NGXF=   128 NGYF=  128 NGZF=  140
   ions per type =              36
 NGX,Y,Z   is equivalent  to a cutoff of  12.06, 12.06, 12.27 a.u.
 NGXF,Y,Z  is equivalent  to a cutoff of  24.12, 24.12, 24.54 a.u.


 I would recommend the setting:
   dimension x,y,z NGX =    64 NGY =   64 NGZ =   69
 SYSTEM =  unknown system                          
 POSCAR =  Ti                                      

 Startparameter for this run:
   NWRITE =      2    write-flag & timer
   PREC   = accura    medium, high low
   ISTART =      0    job   : 0-new  1-cont  2-samecut
   ICHARG =      2    charge: 1-file 2-atom 10-const
   ISPIN  =      1    spin polarized calculation?
   LNONCOLLINEAR =      F non collinear calculations
   LSORBIT =      F    spin-orbit coupling
   INIWAV =      1    electr: 0-lowe 1-rand  2-diag
   LASPH  =      F    aspherical Exc in radial PAW
   METAGGA=      F    non-selfconsistent MetaGGA calc.

 Electronic Relaxation 1
   ENCUT  =  500.0 eV  36.75 Ry    6.06 a.u.  16.08 16.08 17.29*2*pi/ulx,y,z
   ENINI  =  500.0     initial cutoff
   ENAUG  =  482.8 eV  augmentation charge cutoff
   NELM   =     60;   NELMIN=  2; NELMDL=  0     # of ELM steps 
   EDIFF  = 0.1E-07   stopping-criterion for ELM
   LREAL  =      F    real-space projection
   LCOMPAT=      F    compatible to vasp.4.4
   LREAL_COMPAT= F    compatible to vasp.4.5.1-3
   GGA_COMPAT  = T    GGA compatible to vasp.4.4-vasp.4.6
   LMAXPAW     = -100 max onsite density
   LMAXMIX     =    2 max onsite mixed and CHGCAR
   VOSKOWN=      0    Vosko Wilk Nusair interpolation
   ROPT   =    0.00000
 Ionic relaxation
   EDIFFG = 0.1E-06   stopping-criterion for IOM
   NSW    =      0    number of steps for IOM
   NBLOCK =      1;   KBLOCK =      1    inner block; outer block 
   IBRION =     -1    ionic relax: 0-MD 1-quasi-New 2-CG
   NFREE  =      0    steps in history (QN), initial steepest desc. (CG)
   ISIF   =      2    stress and relaxation
   IWAVPR =     10    prediction:  0-non 1-charg 2-wave 3-comb
   ISYM   =      2    0-nonsym 1-usesym 2-fastsym
   LCORR  =      T    Harris-Foulkes like correction to forces

   POTIM  =   0.50    time-step for ionic-motion
   TEIN   =    0.0    initial temperature
   TEBEG  =    0.0;   TEEND  =   0.0 temperature during run
   SMASS  =  -3.00    Nose mass-parameter (am)
   estimated Nose-frequenzy (Omega)   =  0.10E-29 period in steps =****** mass=  -0.178E-26a.u.
   NPACO  =    256;   APACO  = 16.0  distance and # of slots for P.C.
   PSTRESS=    0.0 pullay stress

  Mass of Ions in am
   POMASS =  47.88
  Ionic Valenz
   ZVAL   =  10.00
  Atomic Wigner-Seitz radii
   RWIGS  =  -1.00
   NELECT =     360.0000    total number of electrons
   NUPDOWN=      -1.0000    fix difference up-down

 DOS related values:
   EMIN   =  10.00;   EMAX   =-10.00  energy-range for DOS
   ISMEAR =     0;   SIGMA  =   0.01  broadening in eV -4-tet -1-fermi 0-gaus

 Electronic relaxation 2 (details)
   IALGO  =     38    algorithm
   LDIAG  =      T    sub-space diagonalisation
   IMIX   =      4    mixing-type and parameters
     AMIX     =   0.40;   BMIX     =  1.00
     AMIX_MAG =   1.60;   BMIX_MAG =  1.00
     AMIN     =   0.10
     WC   =   100.;   INIMIX=   1;  MIXPRE=   1

 Intra band minimization:
   WEIMIN = 0.0000     energy-eigenvalue tresh-hold
   EBREAK =  0.12E-10  absolut break condition
   DEPER  =   0.30     relativ break condition  

   TIME   =   0.10     timestep for ELM

  volume/ion in A,a.u.               =      17.81       120.17
  Fermi-wavevector in a.u.,eV,Ry     =   1.350634 24.819930  1.824213

 Second variation
   LSECVAR=     F    do a second variation
 
 Write flags
   LWAVE  =      F    write WAVECAR
   LCHARG =      F    write CHGCAR
   LVTOT  =      F    write LOCPOT, local potential
   LELF   =      F    write electronic localiz. function (ELF)
   LORBIT =      0    0 simple, 1 ext, 2 COOP (PROOUT)


 Dipole corrections
   IDIPOL =      0    1-x, 2-y, 3-z
   LDIPOL =      F    correct potential



--------------------------------------------------------------------------------------------------------


 Static calculation
 charge density will be updated during run
 non-spin polarized calculation
 Variant of blocked Davidson
 Davidson routine will perform the subspace rotation
 performe sub-space diagonalisation
    after iterative eigenvector-optimisation
 modified Broyden-mixing scheme, WC =      100.0
 initial mixing is a Kerker type mixing with AMIX =  0.4000 and BMIX =      1.0000
 Hartree-type preconditioning will be used
 using additional bands           36
 reciprocal scheme for non local part
 use partial core corrections
 calculate Harris-corrections to forces 
   (improved forces if not selfconsistent)
 use gradient corrections 
 use of overlap-Matrix (Vanderbilt PP)
 Gauss-broadening in eV      SIGMA  =   0.01


--------------------------------------------------------------------------------------------------------


  energy-cutoff  :      500.00
  volume of cell :      641.08
      direct lattice vectors                 reciprocal lattice vectors
     8.820667100  0.024765440  0.000000000     0.113187820  0.064925977  0.000000000
    -4.388885871  7.651304610  0.000000000    -0.000366362  0.130486516  0.000000000
     0.000000000  0.000000000  9.483698700     0.000000000  0.000000000  0.105444092

  length of vectors
     8.820701866  8.820701867  9.483698700     0.130487030  0.130487030  0.105444092


 
 k-points in units of 2pi/SCALE and weight: Automatic mesh                          
   0.00000000  0.00000000  0.00000000       0.004
   0.01616969  0.00927514  0.00000000       0.008
   0.03233938  0.01855028  0.00000000       0.008
   0.04850907  0.02782542  0.00000000       0.008
  -0.00005234  0.01864093  0.00000000       0.008
   0.01611735  0.02791607  0.00000000       0.008
   0.03228704  0.03719121  0.00000000       0.008
   0.04845673  0.04646635  0.00000000       0.008
  -0.04856140 -0.00918449  0.00000000       0.008
  -0.03239171  0.00009065  0.00000000       0.008
  -0.01622203  0.00936579  0.00000000       0.008
  -0.00010467  0.03728186  0.00000000       0.008
   0.01606501  0.04655700  0.00000000       0.008
   0.03223470  0.05583214  0.00000000       0.008
   0.04840439  0.06510728  0.00000000       0.008
  -0.04861374  0.00945644  0.00000000       0.008
  -0.03244405  0.01873158  0.00000000       0.008
  -0.01627436  0.02800672  0.00000000       0.008
  -0.00015701  0.05592279  0.00000000       0.008
   0.01601268  0.06519793  0.00000000       0.008
   0.03218236  0.07447307  0.00000000       0.008
   0.04835205  0.08374821  0.00000000       0.008
  -0.04866608  0.02809737  0.00000000       0.008
  -0.03249639  0.03737251  0.00000000       0.008
  -0.01632670  0.04664765  0.00000000       0.008
   0.00000000  0.00000000  0.02108882       0.008
   0.01616969  0.00927514  0.02108882       0.008
   0.03233938  0.01855028  0.02108882       0.008
   0.04850907  0.02782542  0.02108882       0.008
  -0.04850907 -0.02782542  0.02108882       0.008
  -0.03233938 -0.01855028  0.02108882       0.008
  -0.01616969 -0.00927514  0.02108882       0.008
  -0.00005234  0.01864093  0.02108882       0.008
   0.01611735  0.02791607  0.02108882       0.008
   0.03228704  0.03719121  0.02108882       0.008
   0.04845673  0.04646635  0.02108882       0.008
  -0.04856140 -0.00918449  0.02108882       0.008
  -0.03239171  0.00009065  0.02108882       0.008
  -0.01622203  0.00936579  0.02108882       0.008
  -0.00010467  0.03728186  0.02108882       0.008
   0.01606501  0.04655700  0.02108882       0.008
   0.03223470  0.05583214  0.02108882       0.008
   0.04840439  0.06510728  0.02108882       0.008
  -0.04861374  0.00945644  0.02108882       0.008
  -0.03244405  0.01873158  0.02108882       0.008
  -0.01627436  0.02800672  0.02108882       0.008
  -0.00015701  0.05592279  0.02108882       0.008
   0.01601268  0.06519793  0.02108882       0.008
   0.03218236  0.07447307  0.02108882       0.008
   0.04835205  0.08374821  0.02108882       0.008
  -0.04866608  0.02809737  0.02108882       0.008
  -0.03249639  0.03737251  0.02108882       0.008
  -0.01632670  0.04664765  0.02108882       0.008
   0.00015701 -0.05592279  0.02108882       0.008
   0.01632670 -0.04664765  0.02108882       0.008
   0.03249639 -0.03737251  0.02108882       0.008
   0.04866608 -0.02809737  0.02108882       0.008
  -0.04835205 -0.08374821  0.02108882       0.008
  -0.03218236 -0.07447307  0.02108882       0.008
  -0.01601268 -0.06519793  0.02108882       0.008
   0.00010467 -0.03728186  0.02108882       0.008
   0.01627436 -0.02800672  0.02108882       0.008
   0.03244405 -0.01873158  0.02108882       0.008
   0.04861374 -0.00945644  0.02108882       0.008
  -0.04840439 -0.06510728  0.02108882       0.008
  -0.03223470 -0.05583214  0.02108882       0.008
  -0.01606501 -0.04655700  0.02108882       0.008
   0.00005234 -0.01864093  0.02108882       0.008
   0.01622203 -0.00936579  0.02108882       0.008
   0.03239171 -0.00009065  0.02108882       0.008
   0.04856140  0.00918449  0.02108882       0.008
  -0.04845673 -0.04646635  0.02108882       0.008
  -0.03228704 -0.03719121  0.02108882       0.008
  -0.01611735 -0.02791607  0.02108882       0.008
   0.00000000  0.00000000  0.04217764       0.008
   0.01616969  0.00927514  0.04217764       0.008
   0.03233938  0.01855028  0.04217764       0.008
   0.04850907  0.02782542  0.04217764       0.008
  -0.04850907 -0.02782542  0.04217764       0.008
  -0.03233938 -0.01855028  0.04217764       0.008
  -0.01616969 -0.00927514  0.04217764       0.008
  -0.00005234  0.01864093  0.04217764       0.008
   0.01611735  0.02791607  0.04217764       0.008
   0.03228704  0.03719121  0.04217764       0.008
   0.04845673  0.04646635  0.04217764       0.008
  -0.04856140 -0.00918449  0.04217764       0.008
  -0.03239171  0.00009065  0.04217764       0.008
  -0.01622203  0.00936579  0.04217764       0.008
  -0.00010467  0.03728186  0.04217764       0.008
   0.01606501  0.04655700  0.04217764       0.008
   0.03223470  0.05583214  0.04217764       0.008
   0.04840439  0.06510728  0.04217764       0.008
  -0.04861374  0.00945644  0.04217764       0.008
  -0.03244405  0.01873158  0.04217764       0.008
  -0.01627436  0.02800672  0.04217764       0.008
  -0.00015701  0.05592279  0.04217764       0.008
   0.01601268  0.06519793  0.04217764       0.008
   0.03218236  0.07447307  0.04217764       0.008
   0.04835205  0.08374821  0.04217764       0.008
  -0.04866608  0.02809737  0.04217764       0.008
  -0.03249639  0.03737251  0.04217764       0.008
  -0.01632670  0.04664765  0.04217764       0.008
   0.00015701 -0.05592279  0.04217764       0.008
   0.01632670 -0.04664765  0.04217764       0.008
   0.03249639 -0.03737251  0.04217764       0.008
   0.04866608 -0.02809737  0.04217764       0.008
  -0.04835205 -0.08374821  0.04217764       0.008
  -0.03218236 -0.07447307  0.04217764       0.008
  -0.01601268 -0.06519793  0.04217764       0.008
   0.00010467 -0.03728186  0.04217764       0.008
   0.01627436 -0.02800672  0.04217764       0.008
   0.03244405 -0.01873158  0.04217764       0.008
   0.04861374 -0.00945644  0.04217764       0.008
  -0.04840439 -0.06510728  0.04217764       0.008
  -0.03223470 -0.05583214  0.04217764       0.008
  -0.01606501 -0.04655700  0.04217764       0.008
   0.00005234 -0.01864093  0.04217764       0.008
   0.01622203 -0.00936579  0.04217764       0.008
   0.03239171 -0.00009065  0.04217764       0.008
   0.04856140  0.00918449  0.04217764       0.008
  -0.04845673 -0.04646635  0.04217764       0.008
  -0.03228704 -0.03719121  0.04217764       0.008
  -0.01611735 -0.02791607  0.04217764       0.008
 
 k-points in reciprocal lattice and weights: Automatic mesh                          
   0.00000000  0.00000000  0.00000000       0.004
   0.14285714  0.00000000  0.00000000       0.008
   0.28571429  0.00000000  0.00000000       0.008
   0.42857143  0.00000000  0.00000000       0.008
   0.00000000  0.14285714  0.00000000       0.008
   0.14285714  0.14285714  0.00000000       0.008
   0.28571429  0.14285714  0.00000000       0.008
   0.42857143  0.14285714  0.00000000       0.008
  -0.42857143  0.14285714  0.00000000       0.008
  -0.28571429  0.14285714  0.00000000       0.008
  -0.14285714  0.14285714  0.00000000       0.008
   0.00000000  0.28571429  0.00000000       0.008
   0.14285714  0.28571429  0.00000000       0.008
   0.28571429  0.28571429  0.00000000       0.008
   0.42857143  0.28571429  0.00000000       0.008
  -0.42857143  0.28571429  0.00000000       0.008
  -0.28571429  0.28571429  0.00000000       0.008
  -0.14285714  0.28571429  0.00000000       0.008
   0.00000000  0.42857143  0.00000000       0.008
   0.14285714  0.42857143  0.00000000       0.008
   0.28571429  0.42857143  0.00000000       0.008
   0.42857143  0.42857143  0.00000000       0.008
  -0.42857143  0.42857143  0.00000000       0.008
  -0.28571429  0.42857143  0.00000000       0.008
  -0.14285714  0.42857143  0.00000000       0.008
   0.00000000  0.00000000  0.20000000       0.008
   0.14285714  0.00000000  0.20000000       0.008
   0.28571429  0.00000000  0.20000000       0.008
   0.42857143  0.00000000  0.20000000       0.008
  -0.42857143 -0.00000000  0.20000000       0.008
  -0.28571429 -0.00000000  0.20000000       0.008
  -0.14285714 -0.00000000  0.20000000       0.008
   0.00000000  0.14285714  0.20000000       0.008
   0.14285714  0.14285714  0.20000000       0.008
   0.28571429  0.14285714  0.20000000       0.008
   0.42857143  0.14285714  0.20000000       0.008
  -0.42857143  0.14285714  0.20000000       0.008
  -0.28571429  0.14285714  0.20000000       0.008
  -0.14285714  0.14285714  0.20000000       0.008
   0.00000000  0.28571429  0.20000000       0.008
   0.14285714  0.28571429  0.20000000       0.008
   0.28571429  0.28571429  0.20000000       0.008
   0.42857143  0.28571429  0.20000000       0.008
  -0.42857143  0.28571429  0.20000000       0.008
  -0.28571429  0.28571429  0.20000000       0.008
  -0.14285714  0.28571429  0.20000000       0.008
   0.00000000  0.42857143  0.20000000       0.008
   0.14285714  0.42857143  0.20000000       0.008
   0.28571429  0.42857143  0.20000000       0.008
   0.42857143  0.42857143  0.20000000       0.008
  -0.42857143  0.42857143  0.20000000       0.008
  -0.28571429  0.42857143  0.20000000       0.008
  -0.14285714  0.42857143  0.20000000       0.008
   0.00000000 -0.42857143  0.20000000       0.008
   0.14285714 -0.42857143  0.20000000       0.008
   0.28571429 -0.42857143  0.20000000       0.008
   0.42857143 -0.42857143  0.20000000       0.008
  -0.42857143 -0.42857143  0.20000000       0.008
  -0.28571429 -0.42857143  0.20000000       0.008
  -0.14285714 -0.42857143  0.20000000       0.008
  -0.00000000 -0.28571429  0.20000000       0.008
   0.14285714 -0.28571429  0.20000000       0.008
   0.28571429 -0.28571429  0.20000000       0.008
   0.42857143 -0.28571429  0.20000000       0.008
  -0.42857143 -0.28571429  0.20000000       0.008
  -0.28571429 -0.28571429  0.20000000       0.008
  -0.14285714 -0.28571429  0.20000000       0.008
  -0.00000000 -0.14285714  0.20000000       0.008
   0.14285714 -0.14285714  0.20000000       0.008
   0.28571429 -0.14285714  0.20000000       0.008
   0.42857143 -0.14285714  0.20000000       0.008
  -0.42857143 -0.14285714  0.20000000       0.008
  -0.28571429 -0.14285714  0.20000000       0.008
  -0.14285714 -0.14285714  0.20000000       0.008
   0.00000000  0.00000000  0.40000000       0.008
   0.14285714  0.00000000  0.40000000       0.008
   0.28571429  0.00000000  0.40000000       0.008
   0.42857143  0.00000000  0.40000000       0.008
  -0.42857143 -0.00000000  0.40000000       0.008
  -0.28571429 -0.00000000  0.40000000       0.008
  -0.14285714 -0.00000000  0.40000000       0.008
   0.00000000  0.14285714  0.40000000       0.008
   0.14285714  0.14285714  0.40000000       0.008
   0.28571429  0.14285714  0.40000000       0.008
   0.42857143  0.14285714  0.40000000       0.008
  -0.42857143  0.14285714  0.40000000       0.008
  -0.28571429  0.14285714  0.40000000       0.008
  -0.14285714  0.14285714  0.40000000       0.008
   0.00000000  0.28571429  0.40000000       0.008
   0.14285714  0.28571429  0.40000000       0.008
   0.28571429  0.28571429  0.40000000       0.008
   0.42857143  0.28571429  0.40000000       0.008
  -0.42857143  0.28571429  0.40000000       0.008
  -0.28571429  0.28571429  0.40000000       0.008
  -0.14285714  0.28571429  0.40000000       0.008
   0.00000000  0.42857143  0.40000000       0.008
   0.14285714  0.42857143  0.40000000       0.008
   0.28571429  0.42857143  0.40000000       0.008
   0.42857143  0.42857143  0.40000000       0.008
  -0.42857143  0.42857143  0.40000000       0.008
  -0.28571429  0.42857143  0.40000000       0.008
  -0.14285714  0.42857143  0.40000000       0.008
   0.00000000 -0.42857143  0.40000000       0.008
   0.14285714 -0.42857143  0.40000000       0.008
   0.28571429 -0.42857143  0.40000000       0.008
   0.42857143 -0.42857143  0.40000000       0.008
  -0.42857143 -0.42857143  0.40000000       0.008
  -0.28571429 -0.42857143  0.40000000       0.008
  -0.14285714 -0.42857143  0.40000000       0.008
  -0.00000000 -0.28571429  0.40000000       0.008
   0.14285714 -0.28571429  0.40000000       0.008
   0.28571429 -0.28571429  0.40000000       0.008
   0.42857143 -0.28571429  0.40000000       0.008
  -0.42857143 -0.28571429  0.40000000       0.008
  -0.28571429 -0.28571429  0.40000000       0.008
  -0.14285714 -0.28571429  0.40000000       0.008
  -0.00000000 -0.14285714  0.40000000       0.008
   0.14285714 -0.14285714  0.40000000       0.008
   0.28571429 -0.14285714  0.40000000       0.008
   0.42857143 -0.14285714  0.40000000       0.008
  -0.42857143 -0.14285714  0.40000000       0.008
  -0.28571429 -0.14285714  0.40000000       0.008
  -0.14285714 -0.14285714  0.40000000       0.008
 
 position of ions in fractional coordinates (direct lattice) 
   0.10997129  0.22258994  0.12422790
   0.44407673  0.22258994  0.12500000
   0.77741006  0.22258994  0.12500000
   0.11074339  0.55592327  0.12500000
   0.44407673  0.55592327  0.12500000
   0.77741006  0.55592327  0.12500000
   0.11074339  0.88925661  0.12500000
   0.44407673  0.88925661  0.12500000
   0.77741006  0.88925661  0.12500000
   0.11074339  0.22258994  0.62500000
   0.44407673  0.22258994  0.62500000
   0.77741006  0.22258994  0.62500000
   0.11074339  0.55592327  0.62500000
   0.44407673  0.55592327  0.62500000
   0.77741006  0.55592327  0.62500000
   0.11074339  0.88925661  0.62500000
   0.44407673  0.88925661  0.62500000
   0.77741006  0.88925661  0.62500000
   0.22258994  0.11074339  0.37500000
   0.55592327  0.11074339  0.37500000
   0.88925661  0.11074339  0.37500000
   0.22258994  0.44407673  0.37500000
   0.55592327  0.44407673  0.37500000
   0.88925661  0.44407673  0.37500000
   0.22258994  0.77741006  0.37500000
   0.55592327  0.77741006  0.37500000
   0.88925661  0.77741006  0.37500000
   0.22258994  0.11074339  0.87500000
   0.55592327  0.11074339  0.87500000
   0.88925661  0.11074339  0.87500000
   0.22258994  0.44407673  0.87500000
   0.55592327  0.44407673  0.87500000
   0.88925661  0.44407673  0.87500000
   0.22258994  0.77741006  0.87500000
   0.55592327  0.77741006  0.87500000
   0.88925661  0.77741006  0.87500000
 
 position of ions in cartesian coordinates  (Angst):
  -0.00690167  1.70582691  1.17813995
   2.94013115  1.71410118  1.18546234
   5.88035352  1.72235633  1.18546234
  -1.46305318  4.25628090  1.18546234
   1.47716919  4.26453605  1.18546234
   4.41739156  4.27279120  1.18546234
  -2.92601513  6.80671577  1.18546234
   0.01420723  6.81497092  1.18546234
   2.95442960  6.82322607  1.18546234
  -0.00009122  1.70584603  5.92731169
   2.94013115  1.71410118  5.92731169
   5.88035352  1.72235633  5.92731169
  -1.46305318  4.25628090  5.92731169
   1.47716919  4.26453605  5.92731169
   4.41739156  4.27279120  5.92731169
  -2.92601513  6.80671577  5.92731169
   0.01420723  6.81497092  5.92731169
   2.95442960  6.82322607  5.92731169
   1.47735163  0.85284398  3.55638701
   4.41757399  0.86109913  3.55638701
   7.35779636  0.86935428  3.55638701
   0.01438967  3.40327885  3.55638701
   2.95461204  3.41153400  3.55638701
   5.89483440  3.41978915  3.55638701
  -1.44857229  5.95371372  3.55638701
   1.49165008  5.96196887  3.55638701
   4.43187245  5.97022402  3.55638701
   1.47735163  0.85284398  8.29823636
   4.41757399  0.86109913  8.29823636
   7.35779636  0.86935428  8.29823636
   0.01438967  3.40327885  8.29823636
   2.95461204  3.41153400  8.29823636
   5.89483440  3.41978915  8.29823636
  -1.44857229  5.95371372  8.29823636
   1.49165008  5.96196887  8.29823636
   4.43187245  5.97022402  8.29823636
 


--------------------------------------------------------------------------------------------------------


 k-point  1 :  0.00000.00000.0000  plane waves:  16249
 k-point  2 :  0.14290.00000.0000  plane waves:  16265
 k-point  3 :  0.28570.00000.0000  plane waves:  16287
 k-point  4 :  0.42860.00000.0000  plane waves:  16284
 k-point  5 :  0.00000.14290.0000  plane waves:  16265
 k-point  6 :  0.14290.14290.0000  plane waves:  16288
 k-point  7 :  0.28570.14290.0000  plane waves:  16270
 k-point  8 :  0.42860.14290.0000  plane waves:  16280
 k-point  9 :  -.42860.14290.0000  plane waves:  16276
 k-point 10 :  -.28570.14290.0000  plane waves:  16268
 k-point 11 :  -.14290.14290.0000  plane waves:  16274
 k-point 12 :  0.00000.28570.0000  plane waves:  16287
 k-point 13 :  0.14290.28570.0000  plane waves:  16270
 k-point 14 :  0.28570.28570.0000  plane waves:  16278
 k-point 15 :  0.42860.28570.0000  plane waves:  16281
 k-point 16 :  -.42860.28570.0000  plane waves:  16265
 k-point 17 :  -.28570.28570.0000  plane waves:  16282
 k-point 18 :  -.14290.28570.0000  plane waves:  16268
 k-point 19 :  0.00000.42860.0000  plane waves:  16284
 k-point 20 :  0.14290.42860.0000  plane waves:  16280
 k-point 21 :  0.28570.42860.0000  plane waves:  16281
 k-point 22 :  0.42860.42860.0000  plane waves:  16302
 k-point 23 :  -.42860.42860.0000  plane waves:  16294
 k-point 24 :  -.28570.42860.0000  plane waves:  16265
 k-point 25 :  -.14290.42860.0000  plane waves:  16276
 k-point 26 :  0.00000.00000.2000  plane waves:  16259
 k-point 27 :  0.14290.00000.2000  plane waves:  16254
 k-point 28 :  0.28570.00000.2000  plane waves:  16275
 k-point 29 :  0.42860.00000.2000  plane waves:  16279
 k-point 30 :  -.4286-.00000.2000  plane waves:  16279
 k-point 31 :  -.2857-.00000.2000  plane waves:  16275
 k-point 32 :  -.1429-.00000.2000  plane waves:  16254
 k-point 33 :  0.00000.14290.2000  plane waves:  16254
 k-point 34 :  0.14290.14290.2000  plane waves:  16272
 k-point 35 :  0.28570.14290.2000  plane waves:  16286
 k-point 36 :  0.42860.14290.2000  plane waves:  16275
 k-point 37 :  -.42860.14290.2000  plane waves:  16282
 k-point 38 :  -.28570.14290.2000  plane waves:  16264
 k-point 39 :  -.14290.14290.2000  plane waves:  16273
 k-point 40 :  0.00000.28570.2000  plane waves:  16275
 k-point 41 :  0.14290.28570.2000  plane waves:  16286
 k-point 42 :  0.28570.28570.2000  plane waves:  16282
 k-point 43 :  0.42860.28570.2000  plane waves:  16268
 k-point 44 :  -.42860.28570.2000  plane waves:  16285
 k-point 45 :  -.28570.28570.2000  plane waves:  16274
 k-point 46 :  -.14290.28570.2000  plane waves:  16264
 k-point 47 :  0.00000.42860.2000  plane waves:  16279
 k-point 48 :  0.14290.42860.2000  plane waves:  16275
 k-point 49 :  0.28570.42860.2000  plane waves:  16268
 k-point 50 :  0.42860.42860.2000  plane waves:  16282
 k-point 51 :  -.42860.42860.2000  plane waves:  16295
 k-point 52 :  -.28570.42860.2000  plane waves:  16285
 k-point 53 :  -.14290.42860.2000  plane waves:  16282
 k-point 54 :  0.0000-.42860.2000  plane waves:  16279
 k-point 55 :  0.1429-.42860.2000  plane waves:  16282
 k-point 56 :  0.2857-.42860.2000  plane waves:  16285
 k-point 57 :  0.4286-.42860.2000  plane waves:  16295
 k-point 58 :  -.4286-.42860.2000  plane waves:  16282
 k-point 59 :  -.2857-.42860.2000  plane waves:  16268
 k-point 60 :  -.1429-.42860.2000  plane waves:  16275
 k-point 61 :  -.0000-.28570.2000  plane waves:  16275
 k-point 62 :  0.1429-.28570.2000  plane waves:  16264
 k-point 63 :  0.2857-.28570.2000  plane waves:  16274
 k-point 64 :  0.4286-.28570.2000  plane waves:  16285
 k-point 65 :  -.4286-.28570.2000  plane waves:  16268
 k-point 66 :  -.2857-.28570.2000  plane waves:  16282
 k-point 67 :  -.1429-.28570.2000  plane waves:  16286
 k-point 68 :  -.0000-.14290.2000  plane waves:  16254
 k-point 69 :  0.1429-.14290.2000  plane waves:  16273
 k-point 70 :  0.2857-.14290.2000  plane waves:  16264
 k-point 71 :  0.4286-.14290.2000  plane waves:  16282
 k-point 72 :  -.4286-.14290.2000  plane waves:  16275
 k-point 73 :  -.2857-.14290.2000  plane waves:  16286
 k-point 74 :  -.1429-.14290.2000  plane waves:  16272
 k-point 75 :  0.00000.00000.4000  plane waves:  16234
 k-point 76 :  0.14290.00000.4000  plane waves:  16246
 k-point 77 :  0.28570.00000.4000  plane waves:  16262
 k-point 78 :  0.42860.00000.4000  plane waves:  16274
 k-point 79 :  -.4286-.00000.4000  plane waves:  16274
 k-point 80 :  -.2857-.00000.4000  plane waves:  16262
 k-point 81 :  -.1429-.00000.4000  plane waves:  16246
 k-point 82 :  0.00000.14290.4000  plane waves:  16246
 k-point 83 :  0.14290.14290.4000  plane waves:  16266
 k-point 84 :  0.28570.14290.4000  plane waves:  16288
 k-point 85 :  0.42860.14290.4000  plane waves:  16277
 k-point 86 :  -.42860.14290.4000  plane waves:  16289
 k-point 87 :  -.28570.14290.4000  plane waves:  16266
 k-point 88 :  -.14290.14290.4000  plane waves:  16257
 k-point 89 :  0.00000.28570.4000  plane waves:  16262
 k-point 90 :  0.14290.28570.4000  plane waves:  16288
 k-point 91 :  0.28570.28570.4000  plane waves:  16290
 k-point 92 :  0.42860.28570.4000  plane waves:  16287
 k-point 93 :  -.42860.28570.4000  plane waves:  16289
 k-point 94 :  -.28570.28570.4000  plane waves:  16287
 k-point 95 :  -.14290.28570.4000  plane waves:  16266
 k-point 96 :  0.00000.42860.4000  plane waves:  16274
 k-point 97 :  0.14290.42860.4000  plane waves:  16277
 k-point 98 :  0.28570.42860.4000  plane waves:  16287
 k-point 99 :  0.42860.42860.4000  plane waves:  16281
 k-point ** :  -.42860.42860.4000  plane waves:  16293
 k-point ** :  -.28570.42860.4000  plane waves:  16289
 k-point ** :  -.14290.42860.4000  plane waves:  16289
 k-point ** :  0.0000-.42860.4000  plane waves:  16274
 k-point ** :  0.1429-.42860.4000  plane waves:  16289
 k-point ** :  0.2857-.42860.4000  plane waves:  16289
 k-point ** :  0.4286-.42860.4000  plane waves:  16293
 k-point ** :  -.4286-.42860.4000  plane waves:  16281
 k-point ** :  -.2857-.42860.4000  plane waves:  16287
 k-point ** :  -.1429-.42860.4000  plane waves:  16277
 k-point ** :  -.0000-.28570.4000  plane waves:  16262
 k-point ** :  0.1429-.28570.4000  plane waves:  16266
 k-point ** :  0.2857-.28570.4000  plane waves:  16287
 k-point ** :  0.4286-.28570.4000  plane waves:  16289
 k-point ** :  -.4286-.28570.4000  plane waves:  16287
 k-point ** :  -.2857-.28570.4000  plane waves:  16290
 k-point ** :  -.1429-.28570.4000  plane waves:  16288
 k-point ** :  -.0000-.14290.4000  plane waves:  16246
 k-point ** :  0.1429-.14290.4000  plane waves:  16257
 k-point ** :  0.2857-.14290.4000  plane waves:  16266
 k-point ** :  0.4286-.14290.4000  plane waves:  16289
 k-point ** :  -.4286-.14290.4000  plane waves:  16277
 k-point ** :  -.2857-.14290.4000  plane waves:  16288
 k-point ** :  -.1429-.14290.4000  plane waves:  16266

 maximum and minimum number of plane-waves per node :  16302 16234

 maximum number of plane-waves:  16302
 maximal index in each direction: 
   IXMAX= 16   IYMAX= 16   IZMAX= 17
   IXMIN=-16   IYMIN=-16   IZMIN=-17

 WARNING: wrap around error must be expected set NGX to  66
 WARNING: wrap around error must be expected set NGY to  66
 NGZ is ok and might be reduce to  70

 parallel 3dFFT wavefunction:
    minimum data exchange during FFTs selected (reduces bandwidth)
 parallel 3dFFT charge:
    minimum data exchange during FFTs selected (reduces bandwidth)

 For storing wavefunctions 6918.57 MBYTES are necessary
 For predicting wavefunctions  122.91 MBYTES are necessary
Broyden mixing: mesh for mixing (old mesh)
   NGX = 33   NGY = 33   NGZ = 35
  (NGX  =128   NGY  =128   NGZ  =140)
 gives a total of  38115 points
 initial charge density was supplied:
 charge density of overlapping atoms calculated
 number of electron  360.0000000 magnetization 
 keeping initial charge density in first step


--------------------------------------------------------------------------------------------------------


 Maximum index for augmentation-charges         4228 (set IRDMAX)


--------------------------------------------------------------------------------------------------------


 First call to EWALD:  gamma=   0.206
 Maximum number of real-space cells 3x 3x 3
 Maximum number of reciprocal cells 3x 3x 3

    FEWALD:  VPU time    0.01: CPU time    0.01


----------------------------------------- Iteration    1(   1)  ---------------------------------------


    POTLOK:  VPU time    1.03: CPU time    1.04
    SETDIJ:  VPU time    0.07: CPU time    0.07
    EDDAV :  VPU time 2649.25: CPU time 2652.13
    DOS   :  VPU time    0.00: CPU time   -0.00
    ------------------------------------------
      LOOP:  VPU time 2650.61: CPU time 2653.50

 eigenvalue-minimisations  : 53824
 total energy-change (2. order) : 0.4971014E+04  (-0.1721508E+05)
 number of electron  360.0000000 magnetization 
 augmentation part   360.0000000 magnetization 

 Free energy of the ion-electron system (eV)
  ---------------------------------------------------
  alpha Z        PSCENC =      2204.38059661
  Ewald energy   TEWEN  =    -28665.87859960
  -1/2 Hartree   DENC   =     -8100.18534508
  -V(xc)+E(xc)   XCENC  =      1290.25619610
  PAW double counting   =     25711.31321228   -25685.71707589
  entropy T*S    EENTRO =        -0.00077023
  eigenvalues    EBANDS =       691.32167800
  atomic energy  EATOM  =     37525.52423787
  ---------------------------------------------------
  free energy    TOTEN  =      4971.01413005 eV

  energy without entropy =     4971.01490028  energy(sigma->0) =     4971.01451517


--------------------------------------------------------------------------------------------------------




----------------------------------------- Iteration    1(   2)  ---------------------------------------


    EDDAV :  VPU time 2802.70: CPU time 2804.64
    DOS   :  VPU time    0.00: CPU time   -0.00
    ------------------------------------------
      LOOP:  VPU time 2802.96: CPU time 2804.90

 eigenvalue-minimisations  : 53136
 total energy-change (2. order) :-0.4883729E+04  (-0.4809058E+04)
 number of electron  360.0000000 magnetization 
 augmentation part   360.0000000 magnetization 

 Free energy of the ion-electron system (eV)
  ---------------------------------------------------
  alpha Z        PSCENC =      2204.38059661
  Ewald energy   TEWEN  =    -28665.87859960
  -1/2 Hartree   DENC   =     -8100.18534508
  -V(xc)+E(xc)   XCENC  =      1290.25619610
  PAW double counting   =     25711.31321228   -25685.71707589
  entropy T*S    EENTRO =        -0.00148691
  eigenvalues    EBANDS =     -4192.40615958
  atomic energy  EATOM  =     37525.52423787
  ---------------------------------------------------
  free energy    TOTEN  =        87.28557580 eV

  energy without entropy =       87.28706271  energy(sigma->0) =       87.28631926


--------------------------------------------------------------------------------------------------------




----------------------------------------- Iteration    1(   3)  ---------------------------------------


    EDDAV :  VPU time 3914.02: CPU time 3916.74
    DOS   :  VPU time    0.00: CPU time   -0.00
    ------------------------------------------
      LOOP:  VPU time 3914.28: CPU time 3917.00

 eigenvalue-minimisations  : 77752
 total energy-change (2. order) :-0.3807781E+03  (-0.3584327E+03)
 number of electron  360.0000000 magnetization 
 augmentation part   360.0000000 magnetization 

 Free energy of the ion-electron system (eV)
  ---------------------------------------------------
  alpha Z        PSCENC =      2204.38059661
  Ewald energy   TEWEN  =    -28665.87859960
  -1/2 Hartree   DENC   =     -8100.18534508
  -V(xc)+E(xc)   XCENC  =      1290.25619610
  PAW double counting   =     25711.31321228   -25685.71707589
  entropy T*S    EENTRO =        -0.00139381
  eigenvalues    EBANDS =     -4573.18432937
  atomic energy  EATOM  =     37525.52423787
  ---------------------------------------------------
  free energy    TOTEN  =      -293.49250089 eV

  energy without entropy =     -293.49110709  energy(sigma->0) =     -293.49180399


--------------------------------------------------------------------------------------------------------




----------------------------------------- Iteration    1(   4)  ---------------------------------------


    EDDAV :  VPU time 3711.67: CPU time 3714.27
    DOS   :  VPU time    0.00: CPU time   -0.00
    ------------------------------------------
      LOOP:  VPU time 3711.93: CPU time 3714.53

 eigenvalue-minimisations  : 72672
 total energy-change (2. order) :-0.3117515E+02  (-0.3026639E+02)
 number of electron  360.0000000 magnetization 
 augmentation part   360.0000000 magnetization 

 Free energy of the ion-electron system (eV)
  ---------------------------------------------------
  alpha Z        PSCENC =      2204.38059661
  Ewald energy   TEWEN  =    -28665.87859960
  -1/2 Hartree   DENC   =     -8100.18534508
  -V(xc)+E(xc)   XCENC  =      1290.25619610
  PAW double counting   =     25711.31321228   -25685.71707589
  entropy T*S    EENTRO =        -0.00096098
  eigenvalues    EBANDS =     -4604.35990893
  atomic energy  EATOM  =     37525.52423787
  ---------------------------------------------------
  free energy    TOTEN  =      -324.66764762 eV

  energy without entropy =     -324.66668664  energy(sigma->0) =     -324.66716713


--------------------------------------------------------------------------------------------------------




----------------------------------------- Iteration    1(   5)  ---------------------------------------


    EDDAV :  VPU time 3600.87: CPU time 3603.40
    DOS   :  VPU time   -0.00: CPU time   -0.00
    CHARGE:  VPU time  108.76: CPU time  108.85
    MIXING:  VPU time    0.02: CPU time    0.02
    ------------------------------------------
      LOOP:  VPU time 3709.91: CPU time 3712.54

 eigenvalue-minimisations  : 69488
 total energy-change (2. order) :-0.9248369E+00  (-0.9022521E+00)
 number of electron  359.9999877 magnetization 
 augmentation part   156.9433987 magnetization 

 Broyden mixing:
  rms(total) = 0.36135E+01    rms(broyden)= 0.36135E+01
  rms(prec ) = 0.50928E+01
  weight for this iteration     100.00

 Free energy of the ion-electron system (eV)
  ---------------------------------------------------
  alpha Z        PSCENC =      2204.38059661
  Ewald energy   TEWEN  =    -28665.87859960
  -1/2 Hartree   DENC   =     -8100.18534508
  -V(xc)+E(xc)   XCENC  =      1290.25619610
  PAW double counting   =     25711.31321228   -25685.71707589
  entropy T*S    EENTRO =        -0.00093426
  eigenvalues    EBANDS =     -4605.28477256
  atomic energy  EATOM  =     37525.52423787
  ---------------------------------------------------
  free energy    TOTEN  =      -325.59248454 eV

  energy without entropy =     -325.59155028  energy(sigma->0) =     -325.59201741


--------------------------------------------------------------------------------------------------------




----------------------------------------- Iteration    1(   6)  ---------------------------------------


    POTLOK:  VPU time    0.91: CPU time    0.91
    SETDIJ:  VPU time    0.06: CPU time    0.06
    EDDAV :  VPU time 3043.37: CPU time 3048.81
    DOS   :  VPU time    0.00: CPU time   -0.00
    CHARGE:  VPU time  101.55: CPU time  101.76
    MIXING:  VPU time    0.02: CPU time    0.03
    ------------------------------------------
      LOOP:  VPU time 3146.19: CPU time 3151.84

 eigenvalue-minimisations  : 58192
 total energy-change (2. order) : 0.3967748E+02  (-0.1251391E+02)
 number of electron  359.9999867 magnetization 
 augmentation part   166.5350824 magnetization 

 Broyden mixing:
  rms(total) = 0.90539E+00    rms(broyden)= 0.90534E+00
  rms(prec ) = 0.12930E+01
  weight for this iteration     100.00

 eigenvalues of (default mixing * dielectric matrix)
  average eigenvalue GAMMA=   1.2562
  1.2562

 Free energy of the ion-electron system (eV)
  ---------------------------------------------------
  alpha Z        PSCENC =      2204.38059661
  Ewald energy   TEWEN  =    -28665.87859960
  -1/2 Hartree   DENC   =     -7375.85855206
  -V(xc)+E(xc)   XCENC  =      1251.98404060
  PAW double counting   =     24833.76122958   -24875.93113817
  entropy T*S    EENTRO =        -0.00177612
  eigenvalues    EBANDS =     -5183.89504148
  atomic energy  EATOM  =     37525.52423787
  ---------------------------------------------------
  free energy    TOTEN  =      -285.91500276 eV

  energy without entropy =     -285.91322665  energy(sigma->0) =     -285.91411471


--------------------------------------------------------------------------------------------------------




----------------------------------------- Iteration    1(   7)  ---------------------------------------


    POTLOK:  VPU time    1.05: CPU time    1.05
    SETDIJ:  VPU time    0.07: CPU time    0.07
    EDDAV :  VPU time 3310.24: CPU time 3314.35
    DOS   :  VPU time    0.00: CPU time   -0.00
    CHARGE:  VPU time  107.30: CPU time  107.42
    MIXING:  VPU time    0.02: CPU time    0.02
    ------------------------------------------
      LOOP:  VPU time 3418.94: CPU time 3423.18

 eigenvalue-minimisations  : 69704
 total energy-change (2. order) : 0.1846548E+01  (-0.1567537E+01)
 number of electron  359.9999864 magnetization 
 augmentation part   169.9689802 magnetization 

 Broyden mixing:
  rms(total) = 0.36420E+00    rms(broyden)= 0.36418E+00
  rms(prec ) = 0.43400E+00
  weight for this iteration     100.00

 eigenvalues of (default mixing * dielectric matrix)
  average eigenvalue GAMMA=   1.8318
  1.4149  2.2486

 Free energy of the ion-electron system (eV)
  ---------------------------------------------------
  alpha Z        PSCENC =      2204.38059661
  Ewald energy   TEWEN  =    -28665.87859960
  -1/2 Hartree   DENC   =     -7165.90609085
  -V(xc)+E(xc)   XCENC  =      1241.66043669
  PAW double counting   =     24929.56220676   -25010.20871222
  entropy T*S    EENTRO =        -0.00240774
  eigenvalues    EBANDS =     -5343.20012267
  atomic energy  EATOM  =     37525.52423787
  ---------------------------------------------------
  free energy    TOTEN  =      -284.06845515 eV

  energy without entropy =     -284.06604741  energy(sigma->0) =     -284.06725128


--------------------------------------------------------------------------------------------------------




----------------------------------------- Iteration    1(   8)  ---------------------------------------


    POTLOK:  VPU time    0.98: CPU time    0.98
    SETDIJ:  VPU time    0.07: CPU time    0.08
    EDDAV :  VPU time 3621.87: CPU time 3627.60
    DOS   :  VPU time    0.00: CPU time   -0.00
    CHARGE:  VPU time  109.50: CPU time  109.70
    MIXING:  VPU time    0.02: CPU time    0.02
    ------------------------------------------
      LOOP:  VPU time 3732.70: CPU time 3738.64

 eigenvalue-minimisations  : 70704
 total energy-change (2. order) :-0.1230200E+00  (-0.3083481E+00)
 number of electron  359.9999864 magnetization 
 augmentation part   168.9589754 magnetization 

 Broyden mixing:
  rms(total) = 0.41792E+00    rms(broyden)= 0.41791E+00
  rms(prec ) = 0.92477E+00
  weight for this iteration     100.00

 eigenvalues of (default mixing * dielectric matrix)
  average eigenvalue GAMMA=   1.3640
  2.4908  1.3687  0.2324

 Free energy of the ion-electron system (eV)
  ---------------------------------------------------
  alpha Z        PSCENC =      2204.38059661
  Ewald energy   TEWEN  =    -28665.87859960
  -1/2 Hartree   DENC   =     -7208.15497094
  -V(xc)+E(xc)   XCENC  =      1244.90914994
  PAW double counting   =     25416.60810508   -25512.46587534
  entropy T*S    EENTRO =        -0.00228465
  eigenvalues    EBANDS =     -5289.11183411
  atomic energy  EATOM  =     37525.52423787
  ---------------------------------------------------
  free energy    TOTEN  =      -284.19147514 eV

  energy without entropy =     -284.18919050  energy(sigma->0) =     -284.19033282


--------------------------------------------------------------------------------------------------------




----------------------------------------- Iteration    1(   9)  ---------------------------------------


    POTLOK:  VPU time    1.02: CPU time    1.02
    SETDIJ:  VPU time    0.07: CPU time    0.07
    EDDAV :  VPU time 3792.92: CPU time 3795.54
    DOS   :  VPU time    0.00: CPU time   -0.00
    CHARGE:  VPU time  107.80: CPU time  107.88
    MIXING:  VPU time    0.03: CPU time    0.03
    ------------------------------------------
      LOOP:  VPU time 3902.09: CPU time 3904.80

 eigenvalue-minimisations  : 74784
 total energy-change (2. order) : 0.2029224E+00  (-0.1131561E+00)
 number of electron  359.9999864 magnetization 
 augmentation part   168.8413308 magnetization 

 Broyden mixing:
  rms(total) = 0.19297E+00    rms(broyden)= 0.19296E+00
  rms(prec ) = 0.27829E+00
  weight for this iteration     100.00

 eigenvalues of (default mixing * dielectric matrix)
  average eigenvalue GAMMA=   1.1410
  2.5420  1.3034  0.5017  0.2169

 Free energy of the ion-electron system (eV)
  ---------------------------------------------------
  alpha Z        PSCENC =      2204.38059661
  Ewald energy   TEWEN  =    -28665.87859960
  -1/2 Hartree   DENC   =     -7208.65496455
  -V(xc)+E(xc)   XCENC  =      1245.27760970
  PAW double counting   =     25550.96730004   -25652.37990152
  entropy T*S    EENTRO =        -0.00230551
  eigenvalues    EBANDS =     -5283.22252581
  atomic energy  EATOM  =     37525.52423787
  ---------------------------------------------------
  free energy    TOTEN  =      -283.98855278 eV

  energy without entropy =     -283.98624727  energy(sigma->0) =     -283.98740002


--------------------------------------------------------------------------------------------------------




----------------------------------------- Iteration    1(  10)  ---------------------------------------


    POTLOK:  VPU time    0.99: CPU time    1.00
    SETDIJ:  VPU time    0.06: CPU time    0.07
    EDDAV :  VPU time 3665.00: CPU time 3667.51
    DOS   :  VPU time    0.00: CPU time   -0.00
    CHARGE:  VPU time  108.84: CPU time  108.93
    MIXING:  VPU time    0.02: CPU time    0.03
    ------------------------------------------
      LOOP:  VPU time 3775.18: CPU time 3777.79

 eigenvalue-minimisations  : 71632
 total energy-change (2. order) : 0.7160833E-01  (-0.1614760E-01)
 number of electron  359.9999864 magnetization 
 augmentation part   169.0776590 magnetization 

 Broyden mixing:
  rms(total) = 0.11990E+00    rms(broyden)= 0.11990E+00
  rms(prec ) = 0.16941E+00
  weight for this iteration     100.00

 eigenvalues of (default mixing * dielectric matrix)
  average eigenvalue GAMMA=   1.0810
  2.5981  1.1754  1.1754  0.2281  0.2281

 Free energy of the ion-electron system (eV)
  ---------------------------------------------------
  alpha Z        PSCENC =      2204.38059661
  Ewald energy   TEWEN  =    -28665.87859960
  -1/2 Hartree   DENC   =     -7192.20456254
  -V(xc)+E(xc)   XCENC  =      1244.40542025
  PAW double counting   =     25524.26199894   -25626.35953000
  entropy T*S    EENTRO =        -0.00214156
  eigenvalues    EBANDS =     -5298.04436441
  atomic energy  EATOM  =     37525.52423787
  ---------------------------------------------------
  free energy    TOTEN  =      -283.91694445 eV

  energy without entropy =     -283.91480289  energy(sigma->0) =     -283.91587367


--------------------------------------------------------------------------------------------------------




----------------------------------------- Iteration    1(  11)  ---------------------------------------


    POTLOK:  VPU time    0.98: CPU time    0.98
    SETDIJ:  VPU time    0.07: CPU time    0.07
    EDDAV :  VPU time 3352.79: CPU time 3357.59
    DOS   :  VPU time    0.00: CPU time   -0.00
    CHARGE:  VPU time   88.59: CPU time   88.74
    MIXING:  VPU time    0.03: CPU time    0.03
    ------------------------------------------
      LOOP:  VPU time 3442.72: CPU time 3447.68

 eigenvalue-minimisations  : 62640
 total energy-change (2. order) : 0.4405331E-01  (-0.2860880E-01)
 number of electron  359.9999864 magnetization 
 augmentation part   169.5583262 magnetization 

 Broyden mixing:
  rms(total) = 0.23590E-01    rms(broyden)= 0.23586E-01
  rms(prec ) = 0.37722E-01
  weight for this iteration     100.00

 eigenvalues of (default mixing * dielectric matrix)
  average eigenvalue GAMMA=   0.9813
  2.5978  1.2445  1.2445  0.3346  0.2133  0.2533

 Free energy of the ion-electron system (eV)
  ---------------------------------------------------
  alpha Z        PSCENC =      2204.38059661
  Ewald energy   TEWEN  =    -28665.87859960
  -1/2 Hartree   DENC   =     -7165.11451019
  -V(xc)+E(xc)   XCENC  =      1242.94727634
  PAW double counting   =     25473.02616139   -25575.58849611
  entropy T*S    EENTRO =        -0.00236707
  eigenvalues    EBANDS =     -5323.16719038
  atomic energy  EATOM  =     37525.52423787
  ---------------------------------------------------
  free energy    TOTEN  =      -283.87289114 eV

  energy without entropy =     -283.87052406  energy(sigma->0) =     -283.87170760


--------------------------------------------------------------------------------------------------------




----------------------------------------- Iteration    1(  12)  ---------------------------------------


    POTLOK:  VPU time    1.04: CPU time    1.04
    SETDIJ:  VPU time    0.08: CPU time    0.08
    EDDAV :  VPU time 3524.55: CPU time 3526.97
    DOS   :  VPU time   -0.00: CPU time   -0.00
    CHARGE:  VPU time  100.55: CPU time  100.62
    MIXING:  VPU time    0.03: CPU time    0.03
    ------------------------------------------
      LOOP:  VPU time 3626.50: CPU time 3629.00

 eigenvalue-minimisations  : 71552
 total energy-change (2. order) :-0.1204767E-02  (-0.1241374E-02)
 number of electron  359.9999864 magnetization 
 augmentation part   169.6044955 magnetization 

 Broyden mixing:
  rms(total) = 0.27326E-01    rms(broyden)= 0.27325E-01
  rms(prec ) = 0.37290E-01
  weight for this iteration     100.00

 eigenvalues of (default mixing * dielectric matrix)
  average eigenvalue GAMMA=   1.0486
  2.5524  1.9666  1.1923  0.8988  0.2121  0.2592  0.2592

 Free energy of the ion-electron system (eV)
  ---------------------------------------------------
  alpha Z        PSCENC =      2204.38059661
  Ewald energy   TEWEN  =    -28665.87859960
  -1/2 Hartree   DENC   =     -7163.49271393
  -V(xc)+E(xc)   XCENC  =      1242.85880186
  PAW double counting   =     25469.75270910   -25571.92698951
  entropy T*S    EENTRO =        -0.00238394
  eigenvalues    EBANDS =     -5325.08975436
  atomic energy  EATOM  =     37525.52423787
  ---------------------------------------------------
  free energy    TOTEN  =      -283.87409590 eV

  energy without entropy =     -283.87171196  energy(sigma->0) =     -283.87290393


--------------------------------------------------------------------------------------------------------




----------------------------------------- Iteration    1(  13)  ---------------------------------------


    POTLOK:  VPU time    0.75: CPU time    0.75
    SETDIJ:  VPU time    0.05: CPU time    0.06
    EDDAV :  VPU time 3324.01: CPU time 3328.65
    DOS   :  VPU time    0.00: CPU time   -0.00
    CHARGE:  VPU time  100.15: CPU time  100.34
    MIXING:  VPU time    0.03: CPU time    0.03
    ------------------------------------------
      LOOP:  VPU time 3425.26: CPU time 3430.10

 eigenvalue-minimisations  : 69512
 total energy-change (2. order) : 0.1211905E-02  (-0.3079033E-03)
 number of electron  359.9999864 magnetization 
 augmentation part   169.5650754 magnetization 

 Broyden mixing:
  rms(total) = 0.14502E-01    rms(broyden)= 0.14502E-01
  rms(prec ) = 0.21628E-01
  weight for this iteration     100.00

 eigenvalues of (default mixing * dielectric matrix)
  average eigenvalue GAMMA=   1.0069
  2.4462  2.4462  1.0521  1.0521  0.3389  0.2135  0.2581  0.2484

 Free energy of the ion-electron system (eV)
  ---------------------------------------------------
  alpha Z        PSCENC =      2204.38059661
  Ewald energy   TEWEN  =    -28665.87859960
  -1/2 Hartree   DENC   =     -7167.02774502
  -V(xc)+E(xc)   XCENC  =      1243.04821772
  PAW double counting   =     25476.17897053   -25576.98246299
  entropy T*S    EENTRO =        -0.00237186
  eigenvalues    EBANDS =     -5323.11372726
  atomic energy  EATOM  =     37525.52423787
  ---------------------------------------------------
  free energy    TOTEN  =      -283.87288400 eV

  energy without entropy =     -283.87051214  energy(sigma->0) =     -283.87169807


--------------------------------------------------------------------------------------------------------




----------------------------------------- Iteration    1(  14)  ---------------------------------------


    POTLOK:  VPU time    1.01: CPU time    1.01
    SETDIJ:  VPU time    0.06: CPU time    0.06
    EDDAV :  VPU time 3650.55: CPU time 3653.08
    DOS   :  VPU time   -0.00: CPU time   -0.00
    CHARGE:  VPU time  106.68: CPU time  106.77
    MIXING:  VPU time    0.02: CPU time    0.02
    ------------------------------------------
      LOOP:  VPU time 3758.58: CPU time 3761.20

 eigenvalue-minimisations  : 69752
 total energy-change (2. order) : 0.4477473E-03  (-0.1388909E-03)
 number of electron  359.9999864 magnetization 
 augmentation part   169.5383928 magnetization 

 Broyden mixing:
  rms(total) = 0.57518E-02    rms(broyden)= 0.57514E-02
  rms(prec ) = 0.96318E-02
  weight for this iteration     100.00

 eigenvalues of (default mixing * dielectric matrix)
  average eigenvalue GAMMA=   0.9661
  2.6075  2.0188  1.2361  0.9285  0.9285  0.2123  0.2580  0.2580  0.2471

 Free energy of the ion-electron system (eV)
  ---------------------------------------------------
  alpha Z        PSCENC =      2204.38059661
  Ewald energy   TEWEN  =    -28665.87859960
  -1/2 Hartree   DENC   =     -7169.22958902
  -V(xc)+E(xc)   XCENC  =      1243.16819766
  PAW double counting   =     25480.69445557   -25580.72547507
  entropy T*S    EENTRO =        -0.00236332
  eigenvalues    EBANDS =     -5321.80389695
  atomic energy  EATOM  =     37525.52423787
  ---------------------------------------------------
  free energy    TOTEN  =      -283.87243625 eV

  energy without entropy =     -283.87007293  energy(sigma->0) =     -283.87125459


--------------------------------------------------------------------------------------------------------




----------------------------------------- Iteration    1(  15)  ---------------------------------------


    POTLOK:  VPU time    0.81: CPU time    0.81
    SETDIJ:  VPU time    0.07: CPU time    0.07
    EDDAV :  VPU time 3734.98: CPU time 3741.50
    DOS   :  VPU time    0.00: CPU time   -0.00
    CHARGE:  VPU time  108.74: CPU time  108.96
    MIXING:  VPU time    0.03: CPU time    0.03
    ------------------------------------------
      LOOP:  VPU time 3844.88: CPU time 3851.63

 eigenvalue-minimisations  : 73120
 total energy-change (2. order) : 0.5080874E-05  (-0.1802034E-04)
 number of electron  359.9999864 magnetization 
 augmentation part   169.5361316 magnetization 

 Broyden mixing:
  rms(total) = 0.41559E-02    rms(broyden)= 0.41559E-02
  rms(prec ) = 0.70592E-02
  weight for this iteration     100.00

 eigenvalues of (default mixing * dielectric matrix)
  average eigenvalue GAMMA=   0.9036
  2.6166  1.9226  1.3108  0.9882  0.9882  0.2707  0.2707  0.2119  0.2282  0.2282

 Free energy of the ion-electron system (eV)
  ---------------------------------------------------
  alpha Z        PSCENC =      2204.38059661
  Ewald energy   TEWEN  =    -28665.87859960
  -1/2 Hartree   DENC   =     -7169.31198531
  -V(xc)+E(xc)   XCENC  =      1243.17577569
  PAW double counting   =     25481.61784589   -25581.69552163
  entropy T*S    EENTRO =        -0.00236182
  eigenvalues    EBANDS =     -5321.68241887
  atomic energy  EATOM  =     37525.52423787
  ---------------------------------------------------
  free energy    TOTEN  =      -283.87243117 eV

  energy without entropy =     -283.87006935  energy(sigma->0) =     -283.87125026


--------------------------------------------------------------------------------------------------------




----------------------------------------- Iteration    1(  16)  ---------------------------------------


    POTLOK:  VPU time    0.93: CPU time    0.93
    SETDIJ:  VPU time    0.07: CPU time    0.07
    EDDAV :  VPU time 3718.45: CPU time 3721.00
    DOS   :  VPU time    0.00: CPU time   -0.00
    CHARGE:  VPU time  109.19: CPU time  109.28
    MIXING:  VPU time    0.03: CPU time    0.03
    ------------------------------------------
      LOOP:  VPU time 3828.93: CPU time 3831.58

 eigenvalue-minimisations  : 73680
 total energy-change (2. order) : 0.4381545E-05  (-0.5994383E-05)
 number of electron  359.9999864 magnetization 
 augmentation part   169.5351225 magnetization 

 Broyden mixing:
  rms(total) = 0.30238E-02    rms(broyden)= 0.30238E-02
  rms(prec ) = 0.41385E-02
  weight for this iteration     100.00

 eigenvalues of (default mixing * dielectric matrix)
  average eigenvalue GAMMA=   0.9585
  2.6171  1.8276  1.8276  1.1289  1.1289  0.8223  0.2705  0.2515  0.2515  0.2115
  0.2059

 Free energy of the ion-electron system (eV)
  ---------------------------------------------------
  alpha Z        PSCENC =      2204.38059661
  Ewald energy   TEWEN  =    -28665.87859960
  -1/2 Hartree   DENC   =     -7169.32314577
  -V(xc)+E(xc)   XCENC  =      1243.17752096
  PAW double counting   =     25481.84550191   -25581.94491348
  entropy T*S    EENTRO =        -0.00236104
  eigenvalues    EBANDS =     -5321.65126423
  atomic energy  EATOM  =     37525.52423787
  ---------------------------------------------------
  free energy    TOTEN  =      -283.87242679 eV

  energy without entropy =     -283.87006574  energy(sigma->0) =     -283.87124627


--------------------------------------------------------------------------------------------------------




----------------------------------------- Iteration    1(  17)  ---------------------------------------


    POTLOK:  VPU time    0.95: CPU time    0.96
    SETDIJ:  VPU time    0.07: CPU time    0.07
    EDDAV :  VPU time 3393.03: CPU time 3395.35
    DOS   :  VPU time    0.00: CPU time   -0.00
    CHARGE:  VPU time   99.69: CPU time   99.77
    MIXING:  VPU time    0.03: CPU time    0.03
    ------------------------------------------
      LOOP:  VPU time 3494.04: CPU time 3496.44

 eigenvalue-minimisations  : 68896
 total energy-change (2. order) : 0.3695191E-04  (-0.3650103E-05)
 number of electron  359.9999864 magnetization 
 augmentation part   169.5303661 magnetization 

 Broyden mixing:
[...]
     97     -27.1300      2.00000
     98     -27.1294      2.00000
     99     -27.1293      2.00000
    100     -27.1205      2.00000
    101     -27.1118      2.00000
    102     -27.1116      2.00000
    103     -27.0987      2.00000
    104     -27.0986      2.00000
    105     -27.0853      2.00000
    106     -27.0770      2.00000
    107     -27.0677      2.00000
    108     -27.0579      2.00000
    109       0.1087      2.00000
    110       0.4841      2.00000
    111       1.5983      2.00000
    112       1.5987      2.00000
    113       1.8797      2.00000
    114       1.8801      2.00000
    115       2.4694      2.00000
    116       2.4696      2.00000
    117       2.6465      2.00000
    118       2.6466      2.00000
    119       2.6588      2.00000
    120       2.9261      2.00000
    121       2.9263      2.00000
    122       2.9658      2.00000
    123       2.9659      2.00000
    124       3.0110      2.00000
    125       3.6018      2.00000
    126       3.6024      2.00000
    127       3.6264      2.00000
    128       3.6271      2.00000
    129       3.7563      2.00000
    130       3.7570      2.00000
    131       3.7729      2.00000
    132       3.7737      2.00000
    133       3.8830      2.00000
    134       3.8855      2.00000
    135       3.9429      2.00000
    136       3.9434      2.00000
    137       3.9949      2.00000
    138       3.9957      2.00000
    139       4.0414      2.00000
    140       4.0650      2.00000
    141       4.1040      2.00000
    142       4.1062      2.00000
    143       4.2859      2.00000
    144       4.3241      2.00000
    145       4.3426      2.00000
    146       4.3430      2.00000
    147       4.4073      2.00000
    148       4.4077      2.00000
    149       4.5148      2.00000
    150       4.5232      2.00000
    151       4.5436      2.00000
    152       4.5438      2.00000
    153       4.5790      2.00000
    154       4.5796      2.00000
    155       4.5990      2.00000
    156       4.5994      2.00000
    157       4.6224      2.00000
    158       4.6383      2.00000
    159       4.6988      2.00000
    160       4.6993      2.00000
    161       4.7028      2.00000
    162       4.7437      2.00000
    163       4.8113      2.00000
    164       4.9551      2.00000
    165       4.9883      2.00000
    166       4.9892      2.00000
    167       5.0450      2.00000
    168       5.0462      2.00000
    169       5.1364      2.00000
    170       5.1379      2.00000
    171       5.2252      2.00000
    172       5.2266      2.00000
    173       5.3384      2.00000
    174       5.3392      2.00000
    175       5.4192      2.00000
    176       5.4201      2.00000
    177       5.4485      2.00000
    178       5.6029      2.00000
    179       5.6046      2.00000
    180       5.6265      2.00000
    181       5.7725      0.00000
    182       5.7904      0.00000
    183       5.8434      0.00000
    184       5.8464      0.00000
    185       5.8721      0.00000
    186       5.9325      0.00000
    187       5.9337      0.00000
    188       5.9731      0.00000
    189       5.9734      0.00000
    190       5.9819      0.00000
    191       6.0716      0.00000
    192       6.0722      0.00000
    193       6.0971      0.00000
    194       6.0987      0.00000
    195       6.0996      0.00000
    196       6.1181      0.00000
    197       6.1668      0.00000
    198       6.2858      0.00000
    199       6.2861      0.00000
    200       6.3207      0.00000
    201       6.3213      0.00000
    202       6.3728      0.00000
    203       6.4183      0.00000
    204       6.4189      0.00000
    205       6.4531      0.00000
    206       6.4539      0.00000
    207       6.4720      0.00000
    208       6.5228      0.00000
    209       6.5461      0.00000
    210       6.5469      0.00000
    211       6.5571      0.00000
    212       6.5578      0.00000
    213       6.5757      0.00000
    214       6.5768      0.00000
    215       6.6208      0.00000
    216       6.6310      0.00000


--------------------------------------------------------------------------------------------------------


 soft charge-density along one line, spin component           1
         0         1         2         3         4         5         6         7         8         9
 total charge-density along one line
 
 pseudopotential strength for first ion, spin component:           1
-29.177   0.000  -0.000  13.084  -0.000   0.000   0.001   0.001
  0.000 -29.226  -0.000  -0.000  13.121   0.000   0.000  -0.000
 -0.000  -0.000 -29.176   0.000   0.000  13.083   0.004   0.000
 13.084  -0.000   0.000  -0.921   0.000  -0.000  -0.001  -0.001
 -0.000  13.121   0.000   0.000  -0.945  -0.000  -0.000   0.000
  0.000   0.000  13.083  -0.000  -0.000  -0.921  -0.002  -0.000
  0.001   0.000   0.004  -0.001  -0.000  -0.002  -2.983  -0.000
  0.001  -0.000   0.000  -0.001   0.000  -0.000  -0.000  -3.006
  0.000   0.001  -0.001  -0.000  -0.001   0.001  -0.000   0.000
  0.000   0.001   0.001  -0.000  -0.001  -0.001  -0.000  -0.000
  0.005  -0.000   0.001  -0.003   0.000  -0.001  -0.000  -0.000
  0.000   0.000   0.001  -0.000  -0.000  -0.001   0.504  -0.000
  0.000  -0.000   0.000  -0.000   0.000  -0.000  -0.000   0.499
  0.000   0.000  -0.000  -0.000  -0.000   0.000   0.000   0.000
  0.000   0.000   0.000  -0.000  -0.000  -0.000  -0.000  -0.000
  0.001  -0.000   0.000  -0.001   0.000  -0.000  -0.000  -0.000
  0.000  -0.000  -0.001  -0.000   0.000   0.000   0.000  -0.000
 -0.000   0.000   0.000   0.000  -0.000  -0.000  -0.000   0.000
 total augmentation occupancy for first ion, spin component:           1
  1.975   0.000  -0.000   0.001  -0.000   0.000  -0.000  -0.000  -0.000   0.000  -0.016   0.000   0.000  -0.000   0.000   0.006
  0.000   1.974   0.000   0.000  -0.001  -0.000   0.000   0.000  -0.000  -0.000  -0.000   0.000   0.000   0.000   0.000  -0.000
 -0.000   0.000   1.975   0.000  -0.000   0.001  -0.016   0.000   0.000  -0.000  -0.000   0.006   0.000  -0.000   0.000   0.000
  0.001   0.000   0.000   0.182  -0.000   0.001  -0.001  -0.001  -0.000   0.000  -0.068   0.001   0.001   0.000  -0.000   0.018
 -0.000  -0.001  -0.000  -0.000   0.170  -0.000   0.000  -0.000  -0.001  -0.001  -0.000  -0.000  -0.000   0.001   0.001   0.000
  0.000  -0.000   0.001   0.001  -0.000   0.181  -0.068   0.000   0.001  -0.001  -0.001   0.018  -0.000  -0.000   0.001   0.001
 -0.000   0.000  -0.016  -0.001   0.000  -0.068   0.591   0.000   0.001  -0.000  -0.001  -0.259  -0.000   0.001   0.000   0.001
 -0.000   0.000   0.000  -0.001  -0.000   0.000   0.000   0.467   0.000  -0.001  -0.000  -0.000  -0.230  -0.000   0.001   0.000
 -0.000  -0.000   0.000  -0.000  -0.001   0.001   0.001   0.000   0.637  -0.000  -0.000   0.001  -0.000  -0.264   0.000  -0.000
  0.000  -0.000  -0.000   0.000  -0.001  -0.001  -0.000  -0.001  -0.000   0.468   0.000   0.000   0.001   0.000  -0.231  -0.000
 -0.016  -0.000  -0.000  -0.068  -0.000  -0.001  -0.001  -0.000  -0.000   0.000   0.591   0.001   0.000  -0.000  -0.000  -0.258
  0.000   0.000   0.006   0.001  -0.000   0.018  -0.259  -0.000   0.001   0.000   0.001   0.133   0.000  -0.001  -0.000  -0.001
  0.000   0.000   0.000   0.001  -0.000  -0.000  -0.000  -0.230  -0.000   0.001   0.000   0.000   0.129   0.000  -0.001  -0.000
 -0.000   0.000  -0.000   0.000   0.001  -0.000   0.001  -0.000  -0.264   0.000  -0.000  -0.001   0.000   0.129  -0.000   0.000
  0.000   0.000   0.000  -0.000   0.001   0.001   0.000   0.001   0.000  -0.231  -0.000  -0.000  -0.001  -0.000   0.129   0.000
  0.006  -0.000   0.000   0.018   0.000   0.001   0.001   0.000  -0.000  -0.000  -0.258  -0.001  -0.000   0.000   0.000   0.132
 -0.000  -0.001  -0.001  -0.001  -0.002  -0.000   0.000   0.000   0.030  -0.000   0.001  -0.000   0.000  -0.014   0.000  -0.000
  0.000  -0.001  -0.001  -0.000   0.000   0.000  -0.000  -0.000   0.011   0.000  -0.000   0.000   0.000  -0.004  -0.000   0.000


------------------------ aborting loop because EDIFF is reached ----------------------------------------




--------------------------------------------------------------------------------------------------------


    CHARGE:  VPU time   93.52: CPU time   93.59
    FORLOC:  VPU time    0.19: CPU time    0.19
    FORNL :  VPU time  695.48: CPU time  696.47
    STRESS:  VPU time 2544.76: CPU time 2548.61
    FORCOR:  VPU time    1.11: CPU time    1.11
    FORHAR:  VPU time    0.40: CPU time    0.40
    MIXING:  VPU time    0.05: CPU time    0.05


--------------------------------------------------------------------------------------------------------



  FREE ENERGIE OF THE ION-ELECTRON SYSTEM (eV)
  ---------------------------------------------------
  free  energy   TOTEN  =      -283.872359 eV

  energy  without entropy=     -283.870002  energy(sigma->0) =     -283.871181
 

  FORCE on cell =-STRESS in cart. coord.  units (eV/reduce length):
  Direction    X        Y        Z        XY       YZ       ZX
  --------------------------------------------------------------------------------------
  Alpha Z   2204.38   2204.38   2204.38
  Ewald    -9609.90  -9623.98  -9432.10    -11.77      0.00     -0.01
  Hartree   2370.21   2363.66   2436.18     -5.46      0.00     -0.01
  E(xc)    -1692.17  -1692.17  -1691.82     -0.00      0.00     -0.00
  Local     2400.65   2421.18   2201.13     17.16     -0.00      0.02
  n-local   -865.38   -865.12   -849.74      0.24      0.00     -0.00
  augment   1840.65   1840.32   1815.72     -0.29      0.00     -0.00
  Kinetic   3343.43   3342.67   3300.25     -0.65      0.00     -0.00
  -------------------------------------------------------------------------------------
  Total       -8.13     -9.06    -15.99     -0.79      0.00     -0.00
  in kB      -20.33    -22.65    -39.97     -1.97      0.00     -0.00
  external pressure =      -27.65 kB  Pullay stress =        0.00 kB


 VOLUME and BASIS-vectors are now :
 -----------------------------------------------------------------------------
  energy-cutoff  :      500.00
  volume of cell :      641.08
      direct lattice vectors                 reciprocal lattice vectors
     8.820667100  0.024765440  0.000000000     0.113187820  0.064925977  0.000000000
    -4.388885871  7.651304610  0.000000000    -0.000366362  0.130486516  0.000000000
     0.000000000  0.000000000  9.483698700     0.000000000  0.000000000  0.105444092

  length of vectors
     8.820701866  8.820701867  9.483698700     0.130487030  0.130487030  0.105444092


 FORCES acting on ions
    electron-ion (+dipol)            ewald-force                    non-local-force                 convergence-correction
 -----------------------------------------------------------------------------------------------
   -.203E+01 -.904E-01 -.244E+01   0.210E+01 0.662E-01 0.248E+01   -.343E-01 0.228E-01 0.234E-02   -.251E-04 -.381E-05 -.498E-05
   0.104E+01 -.790E-01 -.408E+00   -.997E+00 0.603E-01 0.406E+00   -.449E-01 0.214E-01 0.465E-03   0.648E-05 0.738E-05 0.180E-04
   0.104E+01 -.887E-01 -.414E+00   -.999E+00 0.603E-01 0.411E+00   -.450E-01 0.238E-01 0.705E-03   0.176E-04 -.461E-05 -.821E-05
   0.128E+00 -.602E+00 -.412E+00   -.872E-01 0.581E+00 0.410E+00   -.417E-01 0.269E-01 0.704E-03   -.311E-05 -.817E-05 0.129E-05
   0.140E+00 0.427E+00 -.403E+00   -.991E-01 -.453E+00 0.401E+00   -.422E-01 0.183E-01 0.593E-03   0.250E-05 0.907E-05 0.520E-05
   0.314E+00 -.873E-01 -.147E+00   -.275E+00 0.637E-01 0.149E+00   -.397E-01 0.225E-01 -.309E-02   0.672E-06 0.940E-05 0.101E-04
   0.128E+00 -.608E+00 -.409E+00   -.909E-01 0.583E+00 0.407E+00   -.386E-01 0.241E-01 0.482E-03   -.149E-04 -.122E-04 0.149E-04
   0.314E+00 -.862E-01 -.149E+00   -.275E+00 0.627E-01 0.149E+00   -.392E-01 0.228E-01 -.130E-02   0.137E-04 -.336E-05 0.538E-05
   0.133E+00 0.430E+00 -.406E+00   -.954E-01 -.451E+00 0.404E+00   -.391E-01 0.215E-01 0.607E-03   0.105E-05 0.687E-05 -.659E-05
   0.470E-01 -.869E-01 0.421E+00   -.381E-02 0.635E-01 -.433E+00   -.396E-01 0.228E-01 0.248E-03   -.133E-04 0.235E-05 0.458E-05
   0.200E+00 -.876E-01 0.196E+00   -.161E+00 0.627E-01 -.197E+00   -.393E-01 0.230E-01 0.108E-02   0.222E-06 0.915E-05 -.180E-04
   0.200E+00 -.849E-01 0.197E+00   -.161E+00 0.627E-01 -.198E+00   -.392E-01 0.222E-01 0.120E-02   0.130E-04 -.148E-05 0.837E-05
   0.130E+00 -.129E+00 0.197E+00   -.892E-01 0.104E+00 -.198E+00   -.394E-01 0.230E-01 0.119E-02   0.241E-05 -.191E-05 -.954E-06
   0.131E+00 -.453E-01 0.195E+00   -.906E-01 0.225E-01 -.196E+00   -.391E-01 0.222E-01 0.133E-02   -.260E-06 0.525E-05 -.498E-05
   0.190E+00 -.866E-01 0.127E+00   -.148E+00 0.629E-01 -.123E+00   -.400E-01 0.227E-01 -.263E-02   -.241E-05 0.936E-05 -.100E-04
   0.129E+00 -.125E+00 0.196E+00   -.891E-01 0.104E+00 -.197E+00   -.391E-01 0.224E-01 0.108E-02   -.971E-05 -.115E-04 -.149E-04
   0.190E+00 -.863E-01 0.124E+00   -.148E+00 0.627E-01 -.123E+00   -.398E-01 0.230E-01 0.410E-03   0.772E-05 -.972E-05 -.544E-05
   0.131E+00 -.475E-01 0.195E+00   -.907E-01 0.221E-01 -.196E+00   -.394E-01 0.231E-01 0.134E-02   0.188E-05 -.505E-06 0.712E-05
   0.312E+00 -.370E+00 0.946E+00   -.358E+00 0.397E+00 -.943E+00   0.349E-01 -.204E-01 -.112E-01   -.167E-05 -.544E-05 0.318E-06
   0.557E-01 0.684E-01 0.199E-01   -.970E-01 -.441E-01 -.202E-01   0.400E-01 -.238E-01 0.681E-03   0.141E-06 -.765E-06 -.346E-05
   -.681E+00 -.312E-01 0.290E-01   0.639E+00 0.543E-01 -.306E-01   0.415E-01 -.213E-01 0.296E-02   0.200E-05 -.698E-05 -.806E-05
   -.476E+00 0.662E+00 0.498E+00   0.436E+00 -.641E+00 -.497E+00   0.386E-01 -.263E-01 -.386E-02   0.155E-05 0.413E-05 0.142E-05
   0.119E+00 0.273E+00 0.169E+00   -.162E+00 -.250E+00 -.174E+00   0.439E-01 -.206E-01 0.645E-02   0.308E-05 0.971E-05 0.106E-05
   -.154E+00 0.556E-01 -.756E-01   0.112E+00 -.311E-01 0.768E-01   0.418E-01 -.230E-01 -.162E-02   -.428E-05 0.906E-05 -.422E-05
   -.109E+00 -.626E-02 0.358E-01   0.672E-01 0.296E-01 -.371E-01   0.397E-01 -.228E-01 0.145E-02   -.543E-05 -.272E-05 0.105E-05
   -.139E+00 0.199E+00 0.569E-02   0.984E-01 -.176E+00 -.532E-02   0.384E-01 -.217E-01 -.377E-03   0.692E-05 -.327E-05 -.161E-05
   -.205E+00 -.687E-01 0.474E-01   0.164E+00 0.927E-01 -.490E-01   0.407E-01 -.241E-01 0.245E-02   -.135E-05 -.445E-05 -.355E-05
   -.676E+00 0.197E+00 0.198E-01   0.635E+00 -.173E+00 -.209E-01   0.414E-01 -.242E-01 0.273E-02   -.276E-04 -.152E-05 -.122E-06
   0.579E-01 0.107E+00 0.207E-01   -.995E-01 -.845E-01 -.212E-01   0.400E-01 -.226E-01 0.690E-03   0.332E-04 -.388E-05 0.341E-05
   0.309E+00 0.555E+00 0.959E+00   -.356E+00 -.535E+00 -.957E+00   0.354E-01 -.249E-01 -.108E-01   -.609E-05 -.390E-06 0.811E-05
   -.491E+00 -.485E+00 0.484E+00   0.451E+00 0.512E+00 -.483E+00   0.388E-01 -.192E-01 -.400E-02   -.174E-04 -.351E-05 -.150E-05
   -.147E+00 0.118E+00 -.746E-01   0.104E+00 -.954E-01 0.760E-01   0.414E-01 -.221E-01 -.174E-02   0.212E-05 0.205E-04 -.957E-06
   0.125E+00 -.106E+00 0.177E+00   -.167E+00 0.130E+00 -.181E+00   0.438E-01 -.241E-01 0.574E-02   0.153E-04 -.902E-05 0.395E-05
   -.142E+00 -.271E-01 0.468E-02   0.101E+00 0.513E-01 -.428E-02   0.387E-01 -.235E-01 -.996E-04   0.503E-05 -.182E-04 -.883E-06
   -.107E+00 0.182E+00 0.342E-01   0.653E-01 -.158E+00 -.352E-01   0.398E-01 -.225E-01 0.123E-02   0.124E-04 0.108E-04 0.950E-06
   -.205E+00 0.241E+00 0.480E-01   0.164E+00 -.218E+00 -.497E-01   0.407E-01 -.212E-01 0.226E-02   -.167E-04 0.513E-05 0.342E-05
 -----------------------------------------------------------------------------------------------
   -.147E-04 -.140E-03 -.279E-04   -.603E-13 -.333E-12 -.371E-12   0.997E-04 0.134E-03 -.242E-03   -.323E-06 0.824E-06 0.240E-06
 
 
 POSITION                                       TOTAL-FORCE (eV/Angst)
 -----------------------------------------------------------------------------------
     -0.00690      1.70583      1.17814         0.043062     -0.001388      0.040220
      2.94013      1.71410      1.18546        -0.006650      0.002711     -0.001814
      5.88035      1.72236      1.18546        -0.006805     -0.004629     -0.001807
     -1.46305      4.25628      1.18546        -0.001147      0.005750     -0.001813
      1.47717      4.26454      1.18546        -0.001313     -0.007614     -0.001728
      4.41739      4.27279      1.18546        -0.000424     -0.001039     -0.001118
     -2.92602      6.80672      1.18546        -0.001097     -0.001196     -0.001817
      0.01421      6.81497      1.18546        -0.000275     -0.000740     -0.001111
      2.95443      6.82323      1.18546        -0.001465      0.000010     -0.001729
     -0.00009      1.70585      5.92731         0.003588     -0.000664     -0.012343
      2.94013      1.71410      5.92731         0.000456     -0.001829     -0.000059
      5.88035      1.72236      5.92731         0.000436     -0.000006     -0.000047
     -1.46305      4.25628      5.92731         0.001244     -0.001554     -0.000056
      1.47717      4.26454      5.92731         0.001285     -0.000646      0.000058
      4.41739      4.27279      5.92731         0.002274     -0.000949      0.001250
     -2.92602      6.80672      5.92731         0.001280      0.000648     -0.000059
      0.01421      6.81497      5.92731         0.002413     -0.000622      0.001245
      2.95443      6.82323      5.92731         0.001173     -0.002292      0.000064
      1.47735      0.85284      3.55639        -0.011273      0.006377     -0.008656
      4.41757      0.86110      3.55639        -0.001344      0.000584      0.000320
      7.35780      0.86935      3.55639        -0.000294      0.001837      0.001375
      0.01439      3.40328      3.55639        -0.002058     -0.005346     -0.003695
      2.95461      3.41153      3.55639         0.000621      0.001610      0.001643
      5.89483      3.41979      3.55639        -0.000613      0.001447     -0.000433
     -1.44857      5.95371      3.55639        -0.001659      0.000452      0.000150
      1.49165      5.96197      3.55639        -0.002086      0.001248      0.000004
      4.43187      5.97022      3.55639        -0.000276     -0.000128      0.000779
      1.47735      0.85284      8.29824        -0.000114     -0.000044      0.001659
      4.41757      0.86110      8.29824        -0.001523      0.000318      0.000154
      7.35780      0.86935      8.29824        -0.011616     -0.004691     -0.009203
      0.01439      3.40328      8.29824        -0.002049      0.007552     -0.003858
      2.95461      3.41153      8.29824        -0.001467      0.000652     -0.000296
      5.89483      3.41979      8.29824         0.001551      0.000195      0.001573
     -1.44857      5.95371      8.29824        -0.001510      0.000734      0.000312
      1.49165      5.96197      8.29824        -0.001830      0.001091      0.000256
      4.43187      5.97022      8.29824        -0.000496      0.002162      0.000582
 -----------------------------------------------------------------------------------
    total drift:                                0.000085     -0.000005     -0.000270


--------------------------------------------------------------------------------------------------------



 mean value of Nose-termostat <S>:     1.000 mean value of <T> :     0.000
 mean temperature <T/S>/<1/S>  :     0.000

     LOOP+:  VPU time92767.90: CPU time92859.75
  
  
 General timing and accounting informations for this job:
 ========================================================
  
                  Total CPU time used (sec):    93213.032
                            User time (sec):    89143.153
                          System time (sec):     4069.879
                         Elapsed time (sec):    93305.527
  
                   Maximum memory used (kb):    11895872.
                   Average memory used (kb):           0.
  
                          Minor page faults:      2475546
                          Major page faults:            0
                 Voluntary context switches:         1192
