32   
1    

1    
  0.0100000000000000   0.0000000000000000   0.0000000000000000
  -0.0652308600   -0.0000000000    0.0000000000
   0.0009622000   -0.0000000000    0.0000000000
  -0.0004321700   -0.0000000000   -0.0000000000
  -0.0000425600    0.0000000000    0.0000000000
  -0.0004321700    0.0000000000    0.0000000000
  -0.0000425600    0.0000000000   -0.0000000000
  -0.0001184500    0.0000000000   -0.0000000000
  -0.0001968800   -0.0000000000    0.0000000000
   0.0080389200    0.0092027200   -0.0000000000
   0.0077872800   -0.0088534400   -0.0000000000
   0.0080389200   -0.0092027200   -0.0000000000
   0.0077872800    0.0088534400   -0.0000000000
   0.0002964400    0.0001427700    0.0000000000
   0.0002968800   -0.0001473000    0.0000000000
   0.0002964400   -0.0001427700    0.0000000000
   0.0002968800    0.0001473000   -0.0000000000
   0.0080389200    0.0000000000    0.0092027200
   0.0077872800    0.0000000000   -0.0088534400
   0.0002964400    0.0000000000    0.0001427700
   0.0002968800    0.0000000000   -0.0001473000
   0.0080389200    0.0000000000   -0.0092027200
   0.0077872800    0.0000000000    0.0088534400
   0.0002964400    0.0000000000   -0.0001427700
   0.0002968800    0.0000000000    0.0001473000
  -0.0006821400   -0.0000184000   -0.0000184000
   0.0006459700    0.0000013200    0.0000013200
  -0.0006821400    0.0000184000   -0.0000184000
   0.0006459700   -0.0000013200    0.0000013200
  -0.0006821400   -0.0000184000    0.0000184000
   0.0006459700    0.0000013200   -0.0000013200
  -0.0006821400    0.0000184000    0.0000184000
   0.0006459700   -0.0000013200   -0.0000013200
