mesh: [    48,    48,    48 ]
nqpoint: 2600   
reciprocal_lattice:
- [   0.27499605,   0.00000000,   0.00000000 ] # a*
- [   0.00000000,   0.27499605,   0.00000000 ] # b*
- [   0.00000000,   0.00000000,   0.27499605 ] # c*
natom:   4      
lattice:
- [     3.636415811733052,     0.000000000000000,     0.000000000000000 ] # a
- [     0.000000000000000,     3.636415811733052,     0.000000000000000 ] # b
- [     0.000000000000000,     0.000000000000000,     3.636415811733052 ] # c
points:
- symbol: Cu # 1
  coordinates: [  0.000000000000000,  0.000000000000000,  0.000000000000000 ]
  mass: 63.546000
- symbol: Cu # 2
  coordinates: [  0.500000000000000,  0.500000000000000,  0.000000000000000 ]
  mass: 63.546000
- symbol: Cu # 3
  coordinates: [  0.500000000000000,  0.000000000000000,  0.500000000000000 ]
  mass: 63.546000
- symbol: Cu # 4
  coordinates: [  0.000000000000000,  0.500000000000000,  0.500000000000000 ]
  mass: 63.546000
phonon:
- q-position: [    0.0104167,    0.0104167,    0.0104167 ]
  weight: 8    
  band:
  - # 1
    frequency:     0.1234201362
  - # 2
    frequency:     0.1234201362
  - # 3
    frequency:     0.2460761359
  - # 4
    frequency:     5.0130666616
  - # 5
    frequency:     5.0130666616
  - # 6
    frequency:     5.0130666616
  - # 7
    frequency:     5.0160774806
  - # 8
    frequency:     5.0160774806
  - # 9
    frequency:     5.0160774806
  - # 10
    frequency:     7.1058010434
  - # 11
    frequency:     7.1058010434
  - # 12
    frequency:     7.1058010434

- q-position: [    0.0312500,    0.0104167,    0.0104167 ]
  weight: 24   
  band:
  - # 1
    frequency:     0.2460697831
  - # 2
    frequency:     0.2676091807
  - # 3
    frequency:     0.4484140750
  - # 4
    frequency:     5.0079607249
  - # 5
    frequency:     5.0107560655
  - # 6
    frequency:     5.0107560655
  - # 7
    frequency:     5.0109594380
  - # 8
    frequency:     5.0212499517
  - # 9
    frequency:     5.0212499517
  - # 10
    frequency:     7.0997134923
  - # 11
    frequency:     7.1010737111
  - # 12
    frequency:     7.1010737111

- q-position: [    0.0520833,    0.0104167,    0.0104167 ]
  weight: 24   
  band:
  - # 1
    frequency:     0.4109320578
  - # 2
    frequency:     0.4290735040
  - # 3
    frequency:     0.6806874957
  - # 4
    frequency:     4.9977517755
  - # 5
    frequency:     5.0007263407
  - # 6
    frequency:     5.0078851051
  - # 7
    frequency:     5.0078851051
  - # 8
    frequency:     5.0298539695
  - # 9
    frequency:     5.0298539695
  - # 10
    frequency:     7.0875293957
  - # 11
    frequency:     7.0916415955
  - # 12
    frequency:     7.0916415955

- q-position: [    0.0729167,    0.0104167,    0.0104167 ]
  weight: 24   
  band:
  - # 1
    frequency:     0.5790597989
  - # 2
    frequency:     0.5934245497
  - # 3
    frequency:     0.9219561541
  - # 4
    frequency:     4.9824456844
  - # 5
    frequency:     4.9853841858
  - # 6
    frequency:     5.0040603033
  - # 7
    frequency:     5.0040603033
  - # 8
    frequency:     5.0423011928
  - # 9
    frequency:     5.0423011928
  - # 10
    frequency:     7.0692309539
  - # 11
    frequency:     7.0775496822
  - # 12
    frequency:     7.0775496822

- q-position: [    0.0937500,    0.0104167,    0.0104167 ]
  weight: 24   
  band:
  - # 1
    frequency:     0.7466579634
  - # 2
    frequency:     0.7582498668
  - # 3
    frequency:     1.1662734483
  - # 4
    frequency:     4.9620513140
  - # 5
    frequency:     4.9649420213
  - # 6
    frequency:     4.9991984875
  - # 7
    frequency:     4.9991984875
  - # 8
    frequency:     5.0587009960
  - # 9
    frequency:     5.0587009960
  - # 10
    frequency:     7.0447919364
  - # 11
    frequency:     7.0588651667
  - # 12
    frequency:     7.0588651667

- q-position: [    0.1145833,    0.0104167,    0.0104167 ]
  weight: 24   
  band:
  - # 1
    frequency:     0.9131350929
  - # 2
    frequency:     0.9227092718
  - # 3
    frequency:     1.4111001869
  - # 4
    frequency:     4.9365805852
  - # 5
    frequency:     4.9394120081
  - # 6
    frequency:     4.9933291186
  - # 7
    frequency:     4.9933291186
  - # 8
    frequency:     5.0790568809
  - # 9
    frequency:     5.0790568809
  - # 10
    frequency:     7.0141782371
  - # 11
    frequency:     7.0356771162
  - # 12
    frequency:     7.0356771162

- q-position: [    0.1354167,    0.0104167,    0.0104167 ]
  weight: 24   
  band:
  - # 1
    frequency:     1.0782943834
  - # 2
    frequency:     1.0863523827
  - # 3
    frequency:     1.6550694212
  - # 4
    frequency:     4.9060485640
  - # 5
    frequency:     4.9088095025
  - # 6
    frequency:     4.9865291241
  - # 7
    frequency:     4.9865291241
  - # 8
    frequency:     5.1033300097
  - # 9
    frequency:     5.1033300097
  - # 10
    frequency:     6.9773486008
  - # 11
    frequency:     7.0080960204
  - # 12
    frequency:     7.0080960204

- q-position: [    0.1562500,    0.0104167,    0.0104167 ]
  weight: 24   
  band:
  - # 1
    frequency:     1.2419858517
  - # 2
    frequency:     1.2488639226
  - # 3
    frequency:     1.8972992199
  - # 4
    frequency:     4.8704735695
  - # 5
    frequency:     4.8731531553
  - # 6
    frequency:     4.9789022460
  - # 7
    frequency:     4.9789022460
  - # 8
    frequency:     5.1314578841
  - # 9
    frequency:     5.1314578841
  - # 10
    frequency:     6.9342555115
  - # 11
    frequency:     6.9762532314
  - # 12
    frequency:     6.9762532314

- q-position: [    0.1770833,    0.0104167,    0.0104167 ]
  weight: 24   
  band:
  - # 1
    frequency:     1.4040562894
  - # 2
    frequency:     1.4099868058
  - # 3
    frequency:     2.1371382886
  - # 4
    frequency:     4.8298772983
  - # 5
    frequency:     4.8324650303
  - # 6
    frequency:     4.9705709750
  - # 7
    frequency:     4.9705709750
  - # 8
    frequency:     5.1633601407
  - # 9
    frequency:     5.1633601407
  - # 10
    frequency:     6.8848462274
  - # 11
    frequency:     6.9403002949
  - # 12
    frequency:     6.9403002949

- q-position: [    0.1979167,    0.0104167,    0.0104167 ]
  weight: 24   
  band:
  - # 1
    frequency:     1.5643448998
  - # 2
    frequency:     1.5694935981
  - # 3
    frequency:     2.3740591790
  - # 4
    frequency:     4.7842849666
  - # 5
    frequency:     4.7867707371
  - # 6
    frequency:     4.9616722324
  - # 7
    frequency:     4.9616722324
  - # 8
    frequency:     5.1989403528
  - # 9
    frequency:     5.1989403528
  - # 10
    frequency:     6.8290639493
  - # 11
    frequency:     6.9004081754
  - # 12
    frequency:     6.9004081754

- q-position: [    0.2187500,    0.0104167,    0.0104167 ]
  weight: 24   
  band:
  - # 1
    frequency:     1.7226858744
  - # 2
    frequency:     1.7271743755
  - # 3
    frequency:     2.6076089926
  - # 4
    frequency:     4.7337254670
  - # 5
    frequency:     4.7360995783
  - # 6
    frequency:     4.9523542131
  - # 7
    frequency:     4.9523542131
  - # 8
    frequency:     5.2380864749
  - # 9
    frequency:     5.2380864749
  - # 10
    frequency:     6.7668491050
  - # 11
    frequency:     6.8567663756
  - # 12
    frequency:     6.8567663756

- q-position: [    0.2395833,    0.0104167,    0.0104167 ]
  weight: 24   
  band:
  - # 1
    frequency:     1.8789112750
  - # 2
    frequency:     1.8828310580
  - # 3
    frequency:     2.8373849254
  - # 4
    frequency:     4.6782315367
  - # 5
    frequency:     4.6804847091
  - # 6
    frequency:     4.9427735594
  - # 7
    frequency:     4.9427735594
  - # 8
    frequency:     5.2806708210
  - # 9
    frequency:     5.2806708210
  - # 10
    frequency:     6.6981407314
  - # 11
    frequency:     6.8095819554
  - # 12
    frequency:     6.8095819554

- q-position: [    0.2604167,    0.0104167,    0.0104167 ]
  weight: 24   
  band:
  - # 1
    frequency:     2.0328532497
  - # 2
    frequency:     2.0362745974
  - # 3
    frequency:     3.0630214739
  - # 4
    frequency:     4.6178399374
  - # 5
    frequency:     4.6199633067
  - # 6
    frequency:     4.9330925829
  - # 7
    frequency:     4.9330925829
  - # 8
    frequency:     5.3265499162
  - # 9
    frequency:     5.3265499162
  - # 10
    frequency:     6.6228779355
  - # 11
    frequency:     6.7590784513
  - # 12
    frequency:     6.7590784513

- q-position: [    0.2812500,    0.0104167,    0.0104167 ]
  weight: 24   
  band:
  - # 1
    frequency:     2.1843456283
  - # 2
    frequency:     2.1873235345
  - # 3
    frequency:     3.2841834854
  - # 4
    frequency:     4.5525916423
  - # 5
    frequency:     4.5545767470
  - # 6
    frequency:     4.9234764433
  - # 7
    frequency:     4.9234764433
  - # 8
    frequency:     5.3755643761
  - # 9
    frequency:     5.3755643761
  - # 10
    frequency:     6.5410014152
  - # 11
    frequency:     6.7054947013
  - # 12
    frequency:     6.7054947013

- q-position: [    0.3020833,    0.0104167,    0.0104167 ]
  weight: 24   
  band:
  - # 1
    frequency:     2.3332250689
  - # 2
    frequency:     2.3358032538
  - # 3
    frequency:     3.5005622879
  - # 4
    frequency:     4.4825320288
  - # 5
    frequency:     4.4843707873
  - # 6
    frequency:     4.9140902694
  - # 7
    frequency:     4.9140902694
  - # 8
    frequency:     5.4275388884
  - # 9
    frequency:     5.4275388884
  - # 10
    frequency:     6.4524550194
  - # 11
    frequency:     6.6490835802
  - # 12
    frequency:     6.6490835802

- q-position: [    0.3229167,    0.0104167,    0.0104167 ]
  weight: 24   
  band:
  - # 1
    frequency:     2.4793318966
  - # 2
    frequency:     2.4815456089
  - # 3
    frequency:     3.7118735031
  - # 4
    frequency:     4.4077110737
  - # 5
    frequency:     4.4093957511
  - # 6
    frequency:     4.9050962441
  - # 7
    frequency:     4.9050962441
  - # 8
    frequency:     5.4822823396
  - # 9
    frequency:     5.4822823396
  - # 10
    frequency:     6.3571873289
  - # 11
    frequency:     6.5901106500
  - # 12
    frequency:     6.5901106500

- q-position: [    0.3437500,    0.0104167,    0.0104167 ]
  weight: 24   
  band:
  - # 1
    frequency:     2.6225107295
  - # 2
    frequency:     2.6243887493
  - # 3
    frequency:     3.9178557939
  - # 4
    frequency:     4.3281835487
  - # 5
    frequency:     4.3297067132
  - # 6
    frequency:     4.8966506911
  - # 7
    frequency:     4.8966506911
  - # 8
    frequency:     5.5395881076
  - # 9
    frequency:     5.5395881076
  - # 10
    frequency:     6.2551532374
  - # 11
    frequency:     6.5288527328
  - # 12
    frequency:     6.5288527328

- q-position: [    0.3645833,    0.0104167,    0.0104167 ]
  weight: 24   
  band:
  - # 1
    frequency:     2.7626109544
  - # 2
    frequency:     2.7641770579
  - # 3
    frequency:     4.1182701300
  - # 4
    frequency:     4.2440092138
  - # 5
    frequency:     4.2453636819
  - # 6
    frequency:     4.8889012138
  - # 7
    frequency:     4.8889012138
  - # 8
    frequency:     5.5992345284
  - # 9
    frequency:     5.5992345284
  - # 10
    frequency:     6.1463155156
  - # 11
    frequency:     6.4655964173
  - # 12
    frequency:     6.4655964173

- q-position: [    0.3854167,    0.0104167,    0.0104167 ]
  weight: 24   
  band:
  - # 1
    frequency:     2.8994870930
  - # 2
    frequency:     2.9007611443
  - # 3
    frequency:     4.1552530051
  - # 4
    frequency:     4.1564317757
  - # 5
    frequency:     4.3128993269
  - # 6
    frequency:     4.8819839424
  - # 7
    frequency:     4.8819839424
  - # 8
    frequency:     5.6609855329
  - # 9
    frequency:     5.6609855329
  - # 10
    frequency:     6.0306463400
  - # 11
    frequency:     6.4006365115
  - # 12
    frequency:     6.4006365115

- q-position: [    0.4062500,    0.0104167,    0.0104167 ]
  weight: 24   
  band:
  - # 1
    frequency:     3.0329990824
  - # 2
    frequency:     3.0339978636
  - # 3
    frequency:     4.0619852150
  - # 4
    frequency:     4.0629813921
  - # 5
    frequency:     4.5015477102
  - # 6
    frequency:     4.8760209490
  - # 7
    frequency:     4.8760209490
  - # 8
    frequency:     5.7245914266
  - # 9
    frequency:     5.7245914266
  - # 10
    frequency:     5.9081287704
  - # 11
    frequency:     6.3342744744
  - # 12
    frequency:     6.3342744744

- q-position: [    0.4270833,    0.0104167,    0.0104167 ]
  weight: 24   
  band:
  - # 1
    frequency:     3.1630124891
  - # 2
    frequency:     3.1637503432
  - # 3
    frequency:     3.9642816624
  - # 4
    frequency:     3.9650883646
  - # 5
    frequency:     4.6840408157
  - # 6
    frequency:     4.8711178911
  - # 7
    frequency:     4.8711178911
  - # 8
    frequency:     5.7787581611
  - # 9
    frequency:     5.7897897349
  - # 10
    frequency:     5.7897897349
  - # 11
    frequency:     6.2668169044
  - # 12
    frequency:     6.2668169044

- q-position: [    0.4479167,    0.0104167,    0.0104167 ]
  weight: 24   
  band:
  - # 1
    frequency:     3.2893986667
  - # 2
    frequency:     3.2898880030
  - # 3
    frequency:     3.8622238507
  - # 4
    frequency:     3.8628341065
  - # 5
    frequency:     4.8602250635
  - # 6
    frequency:     4.8673619414
  - # 7
    frequency:     4.8673619414
  - # 8
    frequency:     5.6425434929
  - # 9
    frequency:     5.8563058068
  - # 10
    frequency:     5.8563058068
  - # 11
    frequency:     6.1985743899
  - # 12
    frequency:     6.1985743899

- q-position: [    0.4687500,    0.0104167,    0.0104167 ]
  weight: 24   
  band:
  - # 1
    frequency:     3.4120348662
  - # 2
    frequency:     3.4122865652
  - # 3
    frequency:     3.7558991105
  - # 4
    frequency:     3.7563057378
  - # 5
    frequency:     4.8648200598
  - # 6
    frequency:     4.8648200598
  - # 7
    frequency:     5.0299673713
  - # 8
    frequency:     5.4995086135
  - # 9
    frequency:     5.9238513078
  - # 10
    frequency:     5.9238513078
  - # 11
    frequency:     6.1298625866
  - # 12
    frequency:     6.1298625866

- q-position: [    0.4895833,    0.0104167,    0.0104167 ]
  weight: 24   
  band:
  - # 1
    frequency:     3.5308043039
  - # 2
    frequency:     3.5308280454
  - # 3
    frequency:     3.6454007265
  - # 4
    frequency:     3.6455961924
  - # 5
    frequency:     4.8635376515
  - # 6
    frequency:     4.8635376515
  - # 7
    frequency:     5.1931546799
  - # 8
    frequency:     5.3496933778
  - # 9
    frequency:     5.9920891642
  - # 10
    frequency:     5.9920891642
  - # 11
    frequency:     6.0610369562
  - # 12
    frequency:     6.0610369562

- q-position: [    0.0312500,    0.0312500,    0.0104167 ]
  weight: 24   
  band:
  - # 1
    frequency:     0.2833685461
  - # 2
    frequency:     0.3535349359
  - # 3
    frequency:     0.6078865019
  - # 4
    frequency:     5.0039084374
  - # 5
    frequency:     5.0056396132
  - # 6
    frequency:     5.0056396132
  - # 7
    frequency:     5.0161209882
  - # 8
    frequency:     5.0161209882
  - # 9
    frequency:     5.0309130462
  - # 10
    frequency:     7.0950381071
  - # 11
    frequency:     7.0950381071
  - # 12
    frequency:     7.0963505758

- q-position: [    0.0520833,    0.0312500,    0.0104167 ]
  weight: 48   
  band:
  - # 1
    frequency:     0.4037164254
  - # 2
    frequency:     0.4870291097
  - # 3
    frequency:     0.8101801958
  - # 4
    frequency:     4.9954093897
  - # 5
    frequency:     4.9971744324
  - # 6
    frequency:     5.0027215124
  - # 7
    frequency:     5.0058665326
  - # 8
    frequency:     5.0247290890
  - # 9
    frequency:     5.0432878150
  - # 10
    frequency:     7.0829577803
  - # 11
    frequency:     7.0857098189
  - # 12
    frequency:     7.0869267953

- q-position: [    0.0729167,    0.0312500,    0.0104167 ]
  weight: 48   
  band:
  - # 1
    frequency:     0.5582420921
  - # 2
    frequency:     0.6364585825
  - # 3
    frequency:     1.0291181007
  - # 4
    frequency:     4.9800707805
  - # 5
    frequency:     4.9904935436
  - # 6
    frequency:     4.9905074306
  - # 7
    frequency:     4.9988153119
  - # 8
    frequency:     5.0371926722
  - # 9
    frequency:     5.0584400968
  - # 10
    frequency:     7.0648146878
  - # 11
    frequency:     7.0717734782
  - # 12
    frequency:     7.0728472369

- q-position: [    0.0937500,    0.0312500,    0.0104167 ]
  weight: 48   
  band:
  - # 1
    frequency:     0.7224912106
  - # 2
    frequency:     0.7922750477
  - # 3
    frequency:     1.2564643344
  - # 4
    frequency:     4.9596319205
  - # 5
    frequency:     4.9700124979
  - # 6
    frequency:     4.9836433296
  - # 7
    frequency:     4.9938404015
  - # 8
    frequency:     5.0536180274
  - # 9
    frequency:     5.0766617219
  - # 10
    frequency:     7.0405822484
  - # 11
    frequency:     7.0532960753
  - # 12
    frequency:     7.0541789209

- q-position: [    0.1145833,    0.0312500,    0.0104167 ]
  weight: 48   
  band:
  - # 1
    frequency:     0.8890451726
  - # 2
    frequency:     0.9507664169
  - # 3
    frequency:     1.4881623470
  - # 4
    frequency:     4.9341037641
  - # 5
    frequency:     4.9444374344
  - # 6
    frequency:     4.9763994246
  - # 7
    frequency:     4.9878274654
  - # 8
    frequency:     5.0740067706
  - # 9
    frequency:     5.0981703407
  - # 10
    frequency:     7.0102259140
  - # 11
    frequency:     7.0303663986
  - # 12
    frequency:     7.0310106845

- q-position: [    0.1354167,    0.0312500,    0.0104167 ]
  weight: 48   
  band:
  - # 1
    frequency:     1.0554196879
  - # 2
    frequency:     1.1101833666
  - # 3
    frequency:     1.7217730265
  - # 4
    frequency:     4.9035001783
  - # 5
    frequency:     4.9137860109
  - # 6
    frequency:     4.9686832842
  - # 7
    frequency:     4.9808539539
  - # 8
    frequency:     5.0983187675
  - # 9
    frequency:     5.1230988705
  - # 10
    frequency:     6.9737039184
  - # 11
    frequency:     7.0030945813
  - # 12
    frequency:     7.0034527352

- q-position: [    0.1562500,    0.0312500,    0.0104167 ]
  weight: 48   
  band:
  - # 1
    frequency:     1.2206414405
  - # 2
    frequency:     1.2695520140
  - # 3
    frequency:     1.9556641825
  - # 4
    frequency:     4.8678380633
  - # 5
    frequency:     4.8780795685
  - # 6
    frequency:     4.9604758694
  - # 7
    frequency:     4.9730238441
  - # 8
    frequency:     5.1264904333
  - # 9
    frequency:     5.1515103508
  - # 10
    frequency:     6.9309681899
  - # 11
    frequency:     6.9716115354
  - # 12
    frequency:     6.9716360948

- q-position: [    0.1770833,    0.0312500,    0.0104167 ]
  weight: 48   
  band:
  - # 1
    frequency:     1.3842514614
  - # 2
    frequency:     1.4282494399
  - # 3
    frequency:     2.1886609922
  - # 4
    frequency:     4.8271374985
  - # 5
    frequency:     4.8373432022
  - # 6
    frequency:     4.9518133536
  - # 7
    frequency:     4.9644597660
  - # 8
    frequency:     5.1584403749
  - # 9
    frequency:     5.1834137939
  - # 10
    frequency:     6.8819654175
  - # 11
    frequency:     6.9357119357
  - # 12
    frequency:     6.9360682769

- q-position: [    0.1979167,    0.0312500,    0.0104167 ]
  weight: 48   
  band:
  - # 1
    frequency:     1.5459796296
  - # 2
    frequency:     1.5858299518
  - # 3
    frequency:     2.4198679419
  - # 4
    frequency:     4.7814219178
  - # 5
    frequency:     4.7916058346
  - # 6
    frequency:     4.9427722487
  - # 7
    frequency:     4.9552987809
  - # 8
    frequency:     5.1940711369
  - # 9
    frequency:     5.2187764752
  - # 10
    frequency:     6.8266382515
  - # 11
    frequency:     6.8958508120
  - # 12
    frequency:     6.8966351439

- q-position: [    0.2187500,    0.0312500,    0.0104167 ]
  weight: 48   
  band:
  - # 1
    frequency:     1.7056284224
  - # 2
    frequency:     1.7419458375
  - # 3
    frequency:     2.6485698657
  - # 4
    frequency:     4.7307183118
  - # 5
    frequency:     4.7409002878
  - # 6
    frequency:     4.9334580836
  - # 7
    frequency:     4.9456892824
  - # 8
    frequency:     5.2332696335
  - # 9
    frequency:     5.2575324726
  - # 10
    frequency:     6.7649266237
  - # 11
    frequency:     6.8522417870
  - # 12
    frequency:     6.8535009083

- q-position: [    0.2395833,    0.0312500,    0.0104167 ]
  weight: 48   
  band:
  - # 1
    frequency:     1.8630289347
  - # 2
    frequency:     1.8963079869
  - # 3
    frequency:     2.8741740618
  - # 4
    frequency:     4.6750574567
  - # 5
    frequency:     4.6852633551
  - # 6
    frequency:     4.9239968368
  - # 7
    frequency:     4.9357882127
  - # 8
    frequency:     5.2759071265
  - # 9
    frequency:     5.2995883106
  - # 10
    frequency:     6.6967691685
  - # 11
    frequency:     6.8050914614
  - # 12
    frequency:     6.8068717866

- q-position: [    0.2604167,    0.0312500,    0.0104167 ]
  weight: 48   
  band:
  - # 1
    frequency:     2.0180238226
  - # 2
    frequency:     2.0486649462
  - # 3
    frequency:     3.0961752184
  - # 4
    frequency:     4.6144741649
  - # 5
    frequency:     4.6247358700
  - # 6
    frequency:     4.9145282665
  - # 7
    frequency:     4.9257583193
  - # 8
    frequency:     5.3218390855
  - # 9
    frequency:     5.3448266287
  - # 10
    frequency:     6.6221047241
  - # 11
    frequency:     6.7546229062
  - # 12
    frequency:     6.7569703525

- q-position: [    0.2812500,    0.0312500,    0.0104167 ]
  weight: 48   
  band:
  - # 1
    frequency:     2.1704608214
  - # 2
    frequency:     2.1987911522
  - # 3
    frequency:     3.3141335638
  - # 4
    frequency:     4.5490075502
  - # 5
    frequency:     4.5593627788
  - # 6
    frequency:     4.9052004870
  - # 7
    frequency:     4.9157653649
  - # 8
    frequency:     5.3709050721
  - # 9
    frequency:     5.3931085844
  - # 10
    frequency:     6.5408738962
  - # 11
    frequency:     6.7010745045
  - # 12
    frequency:     6.7040343567

- q-position: [    0.3020833,    0.0312500,    0.0104167 ]
  weight: 48   
  band:
  - # 1
    frequency:     2.3201905435
  - # 2
    frequency:     2.3464800254
  - # 3
    frequency:     3.5276609288
  - # 4
    frequency:     4.4787012955
  - # 5
    frequency:     4.4891932218
  - # 6
    frequency:     4.8961653509
  - # 7
    frequency:     4.9059752773
  - # 8
    frequency:     5.4229287224
  - # 9
    frequency:     5.4442754942
  - # 10
    frequency:     6.4530206637
  - # 11
    frequency:     6.6446987118
  - # 12
    frequency:     6.6483154616

- q-position: [    0.3229167,    0.0312500,    0.0104167 ]
  weight: 48   
  band:
  - # 1
    frequency:     2.4670660173
  - # 2
    frequency:     2.4915397673
  - # 3
    frequency:     3.7364116639
  - # 4
    frequency:     4.4036039118
  - # 5
    frequency:     4.4142806317
  - # 6
    frequency:     4.8875743687
  - # 7
    frequency:     4.8965512598
  - # 8
    frequency:     5.4777178615
  - # 9
    frequency:     5.4981500392
  - # 10
    frequency:     6.3584940068
  - # 11
    frequency:     6.5857607443
  - # 12
    frequency:     6.5900779012

- q-position: [    0.3437500,    0.0312500,    0.0104167 ]
  weight: 48   
  band:
  - # 1
    frequency:     2.6109429064
  - # 2
    frequency:     2.6337907262
  - # 3
    frequency:     3.9400765940
  - # 4
    frequency:     4.3237689729
  - # 5
    frequency:     4.3346828591
  - # 6
    frequency:     4.8795750096
  - # 7
    frequency:     4.8876509005
  - # 8
    frequency:     5.5350647611
  - # 9
    frequency:     5.5545372405
  - # 10
    frequency:     6.2572495398
  - # 11
    frequency:     6.5245372154
  - # 12
    frequency:     6.5295970833

- q-position: [    0.3645833,    0.0312500,    0.0104167 ]
  weight: 48   
  band:
  - # 1
    frequency:     2.7516799579
  - # 2
    frequency:     2.7730637021
  - # 3
    frequency:     4.1383789014
  - # 4
    frequency:     4.2392553158
  - # 5
    frequency:     4.2504623294
  - # 6
    frequency:     4.8723073085
  - # 7
    frequency:     4.8794233303
  - # 8
    frequency:     5.5947465252
  - # 9
    frequency:     5.6132253147
  - # 10
    frequency:     6.1492511306
  - # 11
    frequency:     6.4613147560
  - # 12
    frequency:     6.4671581677

- q-position: [    0.3854167,    0.0312500,    0.0104167 ]
  weight: 48   
  band:
  - # 1
    frequency:     2.8891394910
  - # 2
    frequency:     2.9091988312
  - # 3
    frequency:     4.1501271989
  - # 4
    frequency:     4.1616862356
  - # 5
    frequency:     4.3310712421
  - # 6
    frequency:     4.8659007512
  - # 7
    frequency:     4.8720064849
  - # 8
    frequency:     5.6565255434
  - # 9
    frequency:     5.6739864186
  - # 10
    frequency:     6.0344724912
  - # 11
    frequency:     6.3963887010
  - # 12
    frequency:     6.4030546893

- q-position: [    0.4062500,    0.0312500,    0.0104167 ]
  weight: 48   
  band:
  - # 1
    frequency:     3.0231878503
  - # 2
    frequency:     3.0420448305
  - # 3
    frequency:     4.0564544160
  - # 4
    frequency:     4.0684267612
  - # 5
    frequency:     4.5179336512
  - # 6
    frequency:     4.8604714458
  - # 7
    frequency:     4.8655245301
  - # 8
    frequency:     5.7201498354
  - # 9
    frequency:     5.7365771290
  - # 10
    frequency:     5.9128987249
  - # 11
    frequency:     6.3300620579
  - # 12
    frequency:     6.3375874085

- q-position: [    0.4270833,    0.0312500,    0.0104167 ]
  weight: 48   
  band:
  - # 1
    frequency:     3.1536957949
  - # 2
    frequency:     3.1714584717
  - # 3
    frequency:     3.9583123698
  - # 4
    frequency:     3.9707613280
  - # 5
    frequency:     4.6987719474
  - # 6
    frequency:     4.8561196025
  - # 7
    frequency:     4.8600855111
  - # 8
    frequency:     5.7845278172
  - # 9
    frequency:     5.7853527220
  - # 10
    frequency:     5.8007379867
  - # 11
    frequency:     6.2626454629
  - # 12
    frequency:     6.2710639536

- q-position: [    0.4479167,    0.0312500,    0.0104167 ]
  weight: 48   
  band:
  - # 1
    frequency:     3.2805388203
  - # 2
    frequency:     3.2973041981
  - # 3
    frequency:     3.8557821095
  - # 4
    frequency:     3.8687728559
  - # 5
    frequency:     4.8529273576
  - # 6
    frequency:     4.8557792845
  - # 7
    frequency:     4.8734164423
  - # 8
    frequency:     5.6493720619
  - # 9
    frequency:     5.8518495382
  - # 10
    frequency:     5.8661891242
  - # 11
    frequency:     6.1944611270
  - # 12
    frequency:     6.2038015378

- q-position: [    0.4687500,    0.0312500,    0.0104167 ]
  weight: 48   
  band:
  - # 1
    frequency:     3.4035974159
  - # 2
    frequency:     3.4194538298
  - # 3
    frequency:     3.7489503402
  - # 4
    frequency:     3.7625500246
  - # 5
    frequency:     4.8509569774
  - # 6
    frequency:     4.8526757871
  - # 7
    frequency:     5.0417208260
  - # 8
    frequency:     5.5074594135
  - # 9
    frequency:     5.9193177041
  - # 10
    frequency:     5.9326021428
  - # 11
    frequency:     6.1258706197
  - # 12
    frequency:     6.1361464320

- q-position: [    0.4895833,    0.0312500,    0.0104167 ]
  weight: 48   
  band:
  - # 1
    frequency:     3.5227572670
  - # 2
    frequency:     3.5377863185
  - # 3
    frequency:     3.6379094086
  - # 4
    frequency:     3.6521875285
  - # 5
    frequency:     4.8502494781
  - # 6
    frequency:     4.8508236904
  - # 7
    frequency:     5.2035611379
  - # 8
    frequency:     5.3588347633
  - # 9
    frequency:     5.9871638032
  - # 10
    frequency:     5.9991581912
  - # 11
    frequency:     6.0577165427
  - # 12
    frequency:     6.0687065391

- q-position: [    0.0520833,    0.0520833,    0.0104167 ]
  weight: 24   
  band:
  - # 1
    frequency:     0.4577474168
  - # 2
    frequency:     0.5909690959
  - # 3
    frequency:     0.9884197834
  - # 4
    frequency:     4.9857088823
  - # 5
    frequency:     4.9923967940
  - # 6
    frequency:     4.9923967940
  - # 7
    frequency:     5.0144835259
  - # 8
    frequency:     5.0144835259
  - # 9
    frequency:     5.0602105667
  - # 10
    frequency:     7.0738368680
  - # 11
    frequency:     7.0738368680
  - # 12
    frequency:     7.0775195667

- q-position: [    0.0729167,    0.0520833,    0.0104167 ]
  weight: 48   
  band:
  - # 1
    frequency:     0.5694862599
  - # 2
    frequency:     0.7189815531
  - # 3
    frequency:     1.1873727139
  - # 4
    frequency:     4.9745696318
  - # 5
    frequency:     4.9769159453
  - # 6
    frequency:     4.9883280563
  - # 7
    frequency:     4.9991256423
  - # 8
    frequency:     5.0269804147
  - # 9
    frequency:     5.0795622935
  - # 10
    frequency:     7.0560041540
  - # 11
    frequency:     7.0602111788
  - # 12
    frequency:     7.0634645425

- q-position: [    0.0937500,    0.0520833,    0.0104167 ]
  weight: 48   
  band:
  - # 1
    frequency:     0.7114439988
  - # 2
    frequency:     0.8598319306
  - # 3
    frequency:     1.3975372112
  - # 4
    frequency:     4.9562866107
  - # 5
    frequency:     4.9637576990
  - # 6
    frequency:     4.9786678985
  - # 7
    frequency:     4.9831277796
  - # 8
    frequency:     5.0434573249
  - # 9
    frequency:     5.1013726927
  - # 10
    frequency:     7.0321843058
  - # 11
    frequency:     7.0421472003
  - # 12
    frequency:     7.0448283944

- q-position: [    0.1145833,    0.0520833,    0.0104167 ]
  weight: 48   
  band:
  - # 1
    frequency:     0.8669109181
  - # 2
    frequency:     1.0076055743
  - # 3
    frequency:     1.6143113620
  - # 4
    frequency:     4.9305192595
  - # 5
    frequency:     4.9531267609
  - # 6
    frequency:     4.9531663159
  - # 7
    frequency:     4.9768291572
  - # 8
    frequency:     5.0639121679
  - # 9
    frequency:     5.1257873618
  - # 10
    frequency:     7.0023417760
  - # 11
    frequency:     7.0197330380
  - # 12
    frequency:     7.0216995021

- q-position: [    0.1354167,    0.0520833,    0.0104167 ]
  weight: 48   
  band:
  - # 1
    frequency:     1.0280022877
  - # 2