# Thermal properties / unit cell (natom)

unit:
  temperature:   K
  free_energy:   kJ/mol
  entropy:       J/K/mol
  heat_capacity: J/K/mol

natom:     4
num_modes: 1327104
num_integrated_modes: 1327104

zero_point_energy:      11.5371184
high_T_entropy:        395.3736217

thermal_properties:
- temperature:         0.0000000
  free_energy:        11.5371184
  entropy:             0.0000000
  heat_capacity:       0.0000000
  energy:             11.5371184

- temperature:        10.0000000
  free_energy:        11.5369954
  entropy:             0.0500842
  heat_capacity:       0.1554282
  energy:             11.5374962

- temperature:        20.0000000
  free_energy:        11.5348954
  entropy:             0.4833130
  heat_capacity:       1.6889323
  energy:             11.5445617

- temperature:        30.0000000
  free_energy:        11.5236534
  entropy:             2.0095845
  heat_capacity:       6.8929882
  energy:             11.5839410

- temperature:        40.0000000
  free_energy:        11.4893235
  entropy:             5.1253530
  heat_capacity:      15.6126282
  energy:             11.6943377

- temperature:        50.0000000
  free_energy:        11.4162657
  entropy:             9.6967830
  heat_capacity:      25.8269424
  energy:             11.9011049

- temperature:        60.0000000
  free_energy:        11.2919319
  entropy:            15.3058678
  heat_capacity:      35.8924321
  energy:             12.2102839

- temperature:        70.0000000
  free_energy:        11.1080897
  entropy:            21.5360714
  heat_capacity:      44.9749314
  energy:             12.6156147

- temperature:        80.0000000
  free_energy:        10.8602197
  entropy:            28.0669499
  heat_capacity:      52.8045736
  energy:             13.1055756

- temperature:        90.0000000
  free_energy:        10.5464894
  entropy:            34.6788599
  heat_capacity:      59.4019925
  energy:             13.6675868

- temperature:       100.0000000
  free_energy:        10.1668471
  entropy:            41.2312083
  heat_capacity:      64.9059600
  energy:             14.2899679

- temperature:       110.0000000
  free_energy:         9.7223516
  entropy:            47.6388599
  heat_capacity:      69.4856246
  energy:             14.9626262

- temperature:       120.0000000
  free_energy:         9.2147157
  entropy:            53.8535293
  heat_capacity:      73.3021857
  energy:             15.6771392

- temperature:       130.0000000
  free_energy:         8.6460077
  entropy:            59.8506682
  heat_capacity:      76.4953420
  energy:             16.4265946

- temperature:       140.0000000
  free_energy:         8.0184604
  entropy:            65.6206862
  heat_capacity:      79.1808911
  energy:             17.2053565

- temperature:       150.0000000
  free_energy:         7.3343529
  entropy:            71.1632175
  heat_capacity:      81.4527575
  energy:             18.0088355

- temperature:       160.0000000
  free_energy:         6.5959375
  entropy:            76.4834270
  heat_capacity:      83.3863731
  energy:             18.8332858

- temperature:       170.0000000
  free_energy:         5.8053978
  entropy:            81.5896486
  heat_capacity:      85.0421204
  energy:             19.6756381

- temperature:       180.0000000
  free_energy:         4.9648246
  entropy:            86.4918873
  heat_capacity:      86.4683626
  energy:             20.5333643

- temperature:       190.0000000
  free_energy:         4.0762042
  entropy:            91.2008757
  heat_capacity:      87.7039481
  energy:             21.4043706

- temperature:       200.0000000
  free_energy:         3.1414149
  entropy:            95.7274894
  heat_capacity:      88.7802145
  energy:             22.2869128

- temperature:       210.0000000
  free_energy:         2.1622268
  entropy:           100.0823918
  heat_capacity:      89.7225679
  energy:             23.1795291

- temperature:       220.0000000
  free_energy:         1.1403053
  entropy:           104.2758272
  heat_capacity:      90.5517179
  energy:             24.0809872

- temperature:       230.0000000
  free_energy:         0.0772160
  entropy:           108.3175086
  heat_capacity:      91.2846408
  energy:             24.9902430

- temperature:       240.0000000
  free_energy:        -1.0255696
  entropy:           112.2165658
  heat_capacity:      91.9353312
  energy:             25.9064062

- temperature:       250.0000000
  free_energy:        -2.1666684
  entropy:           115.9815311
  heat_capacity:      92.5153904
  energy:             26.8287144

- temperature:       260.0000000
  free_energy:        -3.3447798
  entropy:           119.6203490
  heat_capacity:      93.0344882
  energy:             27.7565110

- temperature:       270.0000000
  free_energy:        -4.5586795
  entropy:           123.1403987
  heat_capacity:      93.5007274
  energy:             28.6892281

- temperature:       280.0000000
  free_energy:        -5.8072147
  entropy:           126.5485247
  heat_capacity:      93.9209323
  energy:             29.6263722

- temperature:       290.0000000
  free_energy:        -7.0892982
  entropy:           129.8510717
  heat_capacity:      94.3008784
  energy:             30.5675126

- temperature:       300.0000000
  free_energy:        -8.4039039
  entropy:           133.0539196
  heat_capacity:      94.6454774
  energy:             31.5122720

- temperature:       310.0000000
  free_energy:        -9.7500624
  entropy:           136.1625189
  heat_capacity:      94.9589245
  energy:             32.4603184

- temperature:       320.0000000
  free_energy:       -11.1268570
  entropy:           139.1819241
  heat_capacity:      95.2448189
  energy:             33.4113587

- temperature:       330.0000000
  free_energy:       -12.5334193
  entropy:           142.1168261
  heat_capacity:      95.5062608
  energy:             34.3651333

- temperature:       340.0000000
  free_energy:       -13.9689264
  entropy:           144.9715817
  heat_capacity:      95.7459314
  energy:             35.3214114

- temperature:       350.0000000
  free_energy:       -15.4325973
  entropy:           147.7502413
  heat_capacity:      95.9661584
  energy:             36.2799872

- temperature:       360.0000000
  free_energy:       -16.9236901
  entropy:           150.4565742
  heat_capacity:      96.1689693
  energy:             37.2406766

- temperature:       370.0000000
  free_energy:       -18.4414994
  entropy:           153.0940915
  heat_capacity:      96.3561369
  energy:             38.2033144

- temperature:       380.0000000
  free_energy:       -19.9853535
  entropy:           155.6660681
  heat_capacity:      96.5292159
  energy:             39.1677524

- temperature:       390.0000000
  free_energy:       -21.5546125
  entropy:           158.1755613
  heat_capacity:      96.6895742
  energy:             40.1338564

- temperature:       400.0000000
  free_energy:       -23.1486660
  entropy:           160.6254287
  heat_capacity:      96.8384190
  energy:             41.1015055

- temperature:       410.0000000
  free_energy:       -24.7669313
  entropy:           163.0183445
  heat_capacity:      96.9768186
  energy:             42.0705900

- temperature:       420.0000000
  free_energy:       -26.4088514
  entropy:           165.3568134
  heat_capacity:      97.1057213
  energy:             43.0410102

- temperature:       430.0000000
  free_energy:       -28.0738939
  entropy:           167.6431848
  heat_capacity:      97.2259708
  energy:             44.0126755

- temperature:       440.0000000
  free_energy:       -29.7615488
  entropy:           169.8796639
  heat_capacity:      97.3383197
  energy:             44.9855033

- temperature:       450.0000000
  free_energy:       -31.4713278
  entropy:           172.0683237
  heat_capacity:      97.4434411
  energy:             45.9594179

- temperature:       460.0000000
  free_energy:       -33.2027624
  entropy:           174.2111141
  heat_capacity:      97.5419383
  energy:             46.9343500

- temperature:       470.0000000
  free_energy:       -34.9554033
  entropy:           176.3098716
  heat_capacity:      97.6343535
  energy:             47.9102364

- temperature:       480.0000000
  free_energy:       -36.7288189
  entropy:           178.3663278
  heat_capacity:      97.7211745
  energy:             48.8870185

- temperature:       490.0000000
  free_energy:       -38.5225943
  entropy:           180.3821163
  heat_capacity:      97.8028417
  energy:             49.8646427

- temperature:       500.0000000
  free_energy:       -40.3363308
  entropy:           182.3587805
  heat_capacity:      97.8797530
  energy:             50.8430595

- temperature:       510.0000000
  free_energy:       -42.1696444
  entropy:           184.2977794
  heat_capacity:      97.9522691
  energy:             51.8222231

- temperature:       520.0000000
  free_energy:       -44.0221654
  entropy:           186.2004937
  heat_capacity:      98.0207169
  energy:             52.8020913

- temperature:       530.0000000
  free_energy:       -45.8935377
  entropy:           188.0682312
  heat_capacity:      98.0853940
  energy:             53.7826249

- temperature:       540.0000000
  free_energy:       -47.7834176
  entropy:           189.9022317
  heat_capacity:      98.1465711
  energy:             54.7637875

- temperature:       550.0000000
  free_energy:       -49.6914738
  entropy:           191.7036713
  heat_capacity:      98.2044953
  energy:             55.7455454

- temperature:       560.0000000
  free_energy:       -51.6173862
  entropy:           193.4736670
  heat_capacity:      98.2593922
  energy:             56.7278673

- temperature:       570.0000000
  free_energy:       -53.5608459
  entropy:           195.2132802
  heat_capacity:      98.3114685
  energy:             57.7107239

- temperature:       580.0000000
  free_energy:       -55.5215539
  entropy:           196.9235204
  heat_capacity:      98.3609135
  energy:             58.6940879

- temperature:       590.0000000
  free_energy:       -57.4992216
  entropy:           198.6053483
  heat_capacity:      98.4079007
  energy:             59.6779340

- temperature:       600.0000000
  free_energy:       -59.4935692
  entropy:           200.2596792
  heat_capacity:      98.4525900
  energy:             60.6622383

- temperature:       610.0000000
  free_energy:       -61.5043264
  entropy:           201.8873852
  heat_capacity:      98.4951282
  energy:             61.6469786

- temperature:       620.0000000
  free_energy:       -63.5312310
  entropy:           203.4892985
  heat_capacity:      98.5356508
  energy:             62.6321341

- temperature:       630.0000000
  free_energy:       -65.5740290
  entropy:           205.0662133
  heat_capacity:      98.5742829
  energy:             63.6176853

- temperature:       640.0000000
  free_energy:       -67.6324744
  entropy:           206.6188880
  heat_capacity:      98.6111397
  energy:             64.6036139

- temperature:       650.0000000
  free_energy:       -69.7063284
  entropy:           208.1480476
  heat_capacity:      98.6463282
  energy:             65.5899025

- temperature:       660.0000000
  free_energy:       -71.7953593
  entropy:           209.6543856
  heat_capacity:      98.6799472
  energy:             66.5765352

- temperature:       670.0000000
  free_energy:       -73.8993423
  entropy:           211.1385654
  heat_capacity:      98.7120885
  energy:             67.5634966

- temperature:       680.0000000
  free_energy:       -76.0180589
  entropy:           212.6012224
  heat_capacity:      98.7428372
  energy:             68.5507723

- temperature:       690.0000000
  free_energy:       -78.1512970
  entropy:           214.0429651
  heat_capacity:      98.7722724
  energy:             69.5383489

- temperature:       700.0000000
  free_energy:       -80.2988504
  entropy:           215.4643772
  heat_capacity:      98.8004676
  energy:             70.5262136

- temperature:       710.0000000
  free_energy:       -82.4605187
  entropy:           216.8660184
  heat_capacity:      98.8274915
  energy:             71.5143544

- temperature:       720.0000000
  free_energy:       -84.6361067
  entropy:           218.2484256
  heat_capacity:      98.8534078
  energy:             72.5027598

- temperature:       730.0000000
  free_energy:       -86.8254248
  entropy:           219.6121148
  heat_capacity:      98.8782760
  energy:             73.4914190

- temperature:       740.0000000
  free_energy:       -89.0282882
  entropy:           220.9575814
  heat_capacity:      98.9021519
  energy:             74.4803220

- temperature:       750.0000000
  free_energy:       -91.2445173
  entropy:           222.2853016
  heat_capacity:      98.9250875
  energy:             75.4694589

- temperature:       760.0000000
  free_energy:       -93.4739366
  entropy:           223.5957334
  heat_capacity:      98.9471313
  energy:             76.4588208

- temperature:       770.0000000
  free_energy:       -95.7163758
  entropy:           224.8893175
  heat_capacity:      98.9683289
  energy:             77.4483987

- temperature:       780.0000000
  free_energy:       -97.9716683
  entropy:           226.1664781
  heat_capacity:      98.9887229
  energy:             78.4381847

- temperature:       790.0000000
  free_energy:      -100.2396519
  entropy:           227.4276236
  heat_capacity:      99.0083535
  energy:             79.4281707

- temperature:       800.0000000
  free_energy:      -102.5201687
  entropy:           228.6731475
  heat_capacity:      99.0272582
  energy:             80.4183493

- temperature:       810.0000000
  free_energy:      -104.8130641
  entropy:           229.9034291
  heat_capacity:      99.0454722
  energy:             81.4087135

- temperature:       820.0000000
  free_energy:      -107.1181877
  entropy:           231.1188344
  heat_capacity:      99.0630288
  energy:             82.3992566

- temperature:       830.0000000
  free_energy:      -109.4353924
  entropy:           232.3197161
  heat_capacity:      99.0799591
  energy:             83.3899720

- temperature:       840.0000000
  free_energy:      -111.7645347
  entropy:           233.5064148
  heat_capacity:      99.0962926
  energy:             84.3808538

- temperature:       850.0000000
  free_energy:      -114.1054745
  entropy:           234.6792594
  heat_capacity:      99.1120569
  energy:             85.3718960

- temperature:       860.0000000
  free_energy:      -116.4580748
  entropy:           235.8385673
  heat_capacity:      99.1272781
  energy:             86.3630931

- temperature:       870.0000000
  free_energy:      -118.8222017
  entropy:           236.9846454
  heat_capacity:      99.1419808
  energy:             87.3544398

- temperature:       880.0000000
  free_energy:      -121.1977246
  entropy:           238.1177905
  heat_capacity:      99.1561883
  energy:             88.3459311

- temperature:       890.0000000
  free_energy:      -123.5845154
  entropy:           239.2382892
  heat_capacity:      99.1699226
  energy:             89.3375620

- temperature:       900.0000000
  free_energy:      -125.9824491
  entropy:           240.3464190
  heat_capacity:      99.1832044
  energy:             90.3293280

- temperature:       910.0000000
  free_energy:      -128.3914034
  entropy:           241.4424484
  heat_capacity:      99.1960533
  energy:             91.3212246

- temperature:       920.0000000
  free_energy:      -130.8112586
  entropy:           242.5266373
  heat_capacity:      99.2084879
  energy:             92.3132477

- temperature:       930.0000000
  free_energy:      -133.2418975
  entropy:           243.5992372
  heat_capacity:      99.2205258
  energy:             93.3053931

- temperature:       940.0000000
  free_energy:      -135.6832056
  entropy:           244.6604920
  heat_capacity:      99.2321837
  energy:             94.2976569

- temperature:       950.0000000
  free_energy:      -138.1350704
  entropy:           245.7106378
  heat_capacity:      99.2434774
  energy:             95.2900355

- temperature:       960.0000000
  free_energy:      -140.5973820
  entropy:           246.7499035
  heat_capacity:      99.2544218
  energy:             96.2825253

- temperature:       970.0000000
  free_energy:      -143.0700329
  entropy:           247.7785111
  heat_capacity:      99.2650313
  energy:             97.2751229

- temperature:       980.0000000
  free_energy:      -145.5529175
  entropy:           248.7966758
  heat_capacity:      99.2753194
  energy:             98.2678249

- temperature:       990.0000000
  free_energy:      -148.0459323
  entropy:           249.8046066
  heat_capacity:      99.2852988
  energy:             99.2606282

- temperature:      1000.0000000
  free_energy:      -150.5489761
  entropy:           250.8025060
  heat_capacity:      99.2949817
  energy:            100.2535299

- temperature:      1010.0000000
  free_energy:      -153.0619496
  entropy:           251.7905708
  heat_capacity:      99.3043799
  energy:            101.2465269

- temperature:      1020.0000000
  free_energy:      -155.5847554
  entropy:           252.7689921
  heat_capacity:      99.3135043
  energy:            102.2396165

- temperature:      1030.0000000
  free_energy:      -158.1172980
  entropy:           253.7379554
  heat_capacity:      99.3223655
  energy:            103.2327961

- temperature:      1040.0000000
  free_energy:      -160.6594836
  entropy:           254.6976410
  heat_capacity:      99.3309734
  energy:            104.2260630

- temperature:      1050.0000000
  free_energy:      -163.2112204
  entropy:           255.6482240
  heat_capacity:      99.3393377
  energy:            105.2194148

- temperature:      1060.0000000
  free_energy:      -165.7724183
  entropy:           256.5898748
  heat_capacity:      99.3474673
  energy:            106.2128490

- temperature:      1070.0000000
  free_energy:      -168.3429887
  entropy:           257.5227589
  heat_capacity:      99.3553711
  energy:            107.2063634

- temperature:      1080.0000000
  free_energy:      -170.9228448
  entropy:           258.4470375
  heat_capacity:      99.3630573
  energy:            108.1999557

- temperature:      1090.0000000
  free_energy:      -173.5119013
  entropy:           259.3628671
  heat_capacity:      99.3705338
  energy:            109.1936238

- temperature:      1100.0000000
  free_energy:      -176.1100745
  entropy:           260.2704001
  heat_capacity:      99.3778081
  energy:            110.1873657

- temperature:      1110.0000000
  free_energy:      -178.7172821
  entropy:           261.1697851
  heat_capacity:      99.3848875
  energy:            111.1811793

- temperature:      1120.0000000
  free_energy:      -181.3334435
  entropy:           262.0611663
  heat_capacity:      99.3917788
  energy:            112.1750628

- temperature:      1130.0000000
  free_energy:      -183.9584793
  entropy:           262.9446846
  heat_capacity:      99.3984887
  energy:            113.1690143

- temperature:      1140.0000000
  free_energy:      -186.5923115
  entropy:           263.8204767
  heat_capacity:      99.4050235
  energy:            114.1630320

- temperature:      1150.0000000
  free_energy:      -189.2348635
  entropy:           264.6886762
  heat_capacity:      99.4113892
  energy:            115.1571142

- temperature:      1160.0000000
  free_energy:      -191.8860601
  entropy:           265.5494132
  heat_capacity:      99.4175915
  energy:            116.1512592

- temperature:      1170.0000000
  free_energy:      -194.5458273
  entropy:           266.4028144
  heat_capacity:      99.4236361
  energy:            117.1454655

- temperature:      1180.0000000
  free_energy:      -197.2140923
  entropy:           267.2490032
  heat_capacity:      99.4295282
  energy:            118.1397314

- temperature:      1190.0000000
  free_energy:      -199.8907837
  entropy:           268.0881002
  heat_capacity:      99.4352728
  energy:            119.1340556

- temperature:      1200.0000000
  free_energy:      -202.5758311
  entropy:           268.9202229
  heat_capacity:      99.4408750
  energy:            120.1284364

- temperature:      1210.0000000
  free_energy:      -205.2691653
  entropy:           269.7454859
  heat_capacity:      99.4463393
  energy:            121.1228726

- temperature:      1220.0000000
  free_energy:      -207.9707183
  entropy:           270.5640009
  heat_capacity:      99.4516702
  energy:            122.1173628

- temperature:      1230.0000000
  free_energy:      -210.6804232
  entropy:           271.3758771
  heat_capacity:      99.4568720
  energy:            123.1119056

- temperature:      1240.0000000
  free_energy:      -213.3982141
  entropy:           272.1812209
  heat_capacity:      99.4619489
  energy:            124.1064998

- temperature:      1250.0000000
  free_energy:      -216.1240262
  entropy:           272.9801363
  heat_capacity:      99.4669048
  energy:            125.1011442

- temperature:      1260.0000000
  free_energy:      -218.8577957
  entropy:           273.7727248
  heat_capacity:      99.4717436
  energy:            126.0958375

- temperature:      1270.0000000
  free_energy:      -221.5994599
  entropy:           274.5590855
  heat_capacity:      99.4764688
  energy:            127.0905786

- temperature:      1280.0000000
  free_energy:      -224.3489570
  entropy:           275.3393152
  heat_capacity:      99.4810841
  energy:            128.0853665

- temperature:      1290.0000000
  free_energy:      -227.1062261
  entropy:           276.1135086
  heat_capacity:      99.4855928
  energy:            129.0802000

- temperature:      1300.0000000
  free_energy:      -229.8712074
  entropy:           276.8817580
  heat_capacity:      99.4899981
  energy:            130.0750780

- temperature:      1310.0000000
  free_energy:      -232.6438418
  entropy:           277.6441537
  heat_capacity:      99.4943032
  energy:            131.0699996

- temperature:      1320.0000000
  free_energy:      -235.4240712
  entropy:           278.4007841
  heat_capacity:      99.4985111
  energy:            132.0649638

- temperature:      1330.0000000
  free_energy:      -238.2118385
  entropy:           279.1517354
  heat_capacity:      99.5026248
  energy:            133.0599695

- temperature:      1340.0000000
  free_energy:      -241.0070873
  entropy:           279.8970920
  heat_capacity:      99.5066469
  energy:            134.0550159

- temperature:      1350.0000000
  free_energy:      -243.8097620
  entropy:           280.6369364
  heat_capacity:      99.5105802
  energy:            135.0501022

- temperature:      1360.0000000
  free_energy:      -246.6198079
  entropy:           281.3713494
  heat_capacity:      99.5144273
  energy:            136.0452273

- temperature:      1370.0000000
  free_energy:      -249.4371711
  entropy:           282.1004099
  heat_capacity:      99.5181906
  energy:            137.0403904

- temperature:      1380.0000000
  free_energy:      -252.2617985
  entropy:           282.8241952
  heat_capacity:      99.5218727
  energy:            138.0355908

- temperature:      1390.0000000
  free_energy:      -255.0936377
  entropy:           283.5427808
  heat_capacity:      99.5254758
  energy:            139.0308276

- temperature:      1400.0000000
  free_energy:      -257.9326370
  entropy:           284.2562408
  heat_capacity:      99.5290022
  energy:            140.0261001

- temperature:      1410.0000000
  free_energy:      -260.7787457
  entropy:           284.9646476
  heat_capacity:      99.5324539
  energy:            141.0214074

- temperature:      1420.0000000
  free_energy:      -263.6319134
  entropy:           285.6680720
  heat_capacity:      99.5358332
  energy:            142.0167489

- temperature:      1430.0000000
  free_energy:      -266.4920907
  entropy:           286.3665836
  heat_capacity:      99.5391420
  energy:            143.0121238

- temperature:      1440.0000000
  free_energy:      -269.3592289
  entropy:           287.0602503
  heat_capacity:      99.5423823
  energy:            144.0075315

- temperature:      1450.0000000
  free_energy:      -272.2332798
  entropy:           287.7491387
  heat_capacity:      99.5455559
  energy:            145.0029713

- temperature:      1460.0000000
  free_energy:      -275.1141960
  entropy:           288.4333140
  heat_capacity:      99.5486647
  energy:            145.9984424

- temperature:      1470.0000000
  free_energy:      -278.0019306
  entropy:           289.1128401
  heat_capacity:      99.5517104
  energy:            146.9939443

- temperature:      1480.0000000
  free_energy:      -280.8964375
  entropy:           289.7877797
  heat_capacity:      99.5546947
  energy:            147.9894764

- temperature:      1490.0000000
  free_energy:      -283.7976711
  entropy:           290.4581941
  heat_capacity:      99.5576193
  energy:            148.9850380

- temperature:      1500.0000000
  free_energy:      -286.7055865
  entropy:           291.1241434
  heat_capacity:      99.5604856
  energy:            149.9806286

- temperature:      1510.0000000
  free_energy:      -289.6201393
  entropy:           291.7856867
  heat_capacity:      99.5632954
  energy:            150.9762476

- temperature:      1520.0000000
  free_energy:      -292.5412857
  entropy:           292.4428816
  heat_capacity:      99.5660500
  energy:            151.9718943

- temperature:      1530.0000000
  free_energy:      -295.4689826
  entropy:           293.0957850
  heat_capacity:      99.5687509
  energy:            152.9675684

- temperature:      1540.0000000
  free_energy:      -298.4031873
  entropy:           293.7444523
  heat_capacity:      99.5713994
  energy:            153.9632692

- temperature:      1550.0000000
  free_energy:      -301.3438577
  entropy:           294.3889380
  heat_capacity:      99.5739969
  energy:            154.9589962

- temperature:      1560.0000000
  free_energy:      -304.2909523
  entropy:           295.0292957
  heat_capacity:      99.5765448
  energy:            155.9547490

- temperature:      1570.0000000
  free_energy:      -307.2444300
  entropy:           295.6655777
  heat_capacity:      99.5790442
  energy:            156.9505269

- temperature:      1580.0000000
  free_energy:      -310.2042504
  entropy:           296.2978355
  heat_capacity:      99.5814964
  energy:            157.9463297

- temperature:      1590.0000000
  free_energy:      -313.1703735
  entropy:           296.9261196
  heat_capacity:      99.5839026
  energy:            158.9421567

- temperature:      1600.0000000
  free_energy:      -316.1427598
  entropy:           297.5504796
  heat_capacity:      99.5862639
  energy:            159.9380076

- temperature:      1610.0000000
  free_energy:      -319.1213702
  entropy:           298.1709640
  heat_capacity:      99.5885814
  energy:            160.9338818

- temperature:      1620.0000000
  free_energy:      -322.1061663
  entropy:           298.7876206
  heat_capacity:      99.5908562
  energy:            161.9297791

- temperature:      1630.0000000
  free_energy:      -325.0971100
  entropy:           299.4004962
  heat_capacity:      99.5930893
  energy:            162.9256988

- temperature:      1640.0000000
  free_energy:      -328.0941638
  entropy:           300.0096369
  heat_capacity:      99.5952818
  energy:            163.9216407

- temperature:      1650.0000000
  free_energy:      -331.0972904
  entropy:           300.6150877
  heat_capacity:      99.5974346
  energy:            164.9176043

- temperature:      1660.0000000
  free_energy:      -334.1064534
  entropy:           301.2168932
  heat_capacity:      99.5995487
  energy:            165.9135893

- temperature:      1670.0000000
  free_energy:      -337.1216163
  entropy:           301.8150967
  heat_capacity:      99.6016250
  energy:            166.9095952

- temperature:      1680.0000000
  free_energy:      -340.1427434
  entropy:           302.4097411
  heat_capacity:      99.6036644
  energy:            167.9056217

- temperature:      1690.0000000
  free_energy:      -343.1697994
  entropy:           303.0008685
  heat_capacity:      99.6056678
  energy:            168.9016683

- temperature:      1700.0000000
  free_energy:      -346.2027492
  entropy:           303.5885201
  heat_capacity:      99.6076360
  energy:            169.8977349

- temperature:      1710.0000000
  free_energy:      -349.2415583
  entropy:           304.1727364
  heat_capacity:      99.6095698
  energy:            170.8938210

- temperature:      1720.0000000
  free_energy:      -352.2861926
  entropy:           304.7535574
  heat_capacity:      99.6114700
  energy:            171.8899262

- temperature:      1730.0000000
  free_energy:      -355.3366183
  entropy:           305.3310223
  heat_capacity:      99.6133374
  energy:            172.8860502

- temperature:      1740.0000000
  free_energy:      -358.3928020
  entropy:           305.9051694
  heat_capacity:      99.6151728
  energy:            173.8821928

- temperature:      1750.0000000
  free_energy:      -361.4547108
  entropy:           306.4760368
  heat_capacity:      99.6169769
  energy:            174.8783536

- temperature:      1760.0000000
  free_energy:      -364.5223119
  entropy:           307.0436615
  heat_capacity:      99.6187503
  energy:            175.8745323

- temperature:      1770.0000000
  free_energy:      -367.5955733
  entropy:           307.6080801
  heat_capacity:      99.6204938
  energy:            176.8707285

- temperature:      1780.0000000
  free_energy:      -370.6744630
  entropy:           308.1693287
  heat_capacity:      99.6222081