<?xml version="1.0" encoding="ISO-8859-1"?>
<modeling>
 <generator>
  <i name="program" type="string">vasp</i>
  <i name="version" type="string">4.6.28 </i>
  <i name="subversion" type="string">25Jul05 complex  parallel</i>
  <i name="platform" type="string">LinuxIFC</i>
  <i name="date" type="string">2017 01 11</i>
  <i name="time" type="string">07:27:22</i>
 </generator>
 <incar>
  <i type="string" name="PREC">accurate</i>
  <i type="int" name="IALGO">    38</i>
  <i type="logical" name="ADDGRID"> T  </i>
  <i name="EDIFF">      0.00000001</i>
  <i type="int" name="IBRION">    -1</i>
  <i name="ENCUT">    750.00000000</i>
  <i type="logical" name="LREAL"> F  </i>
  <i type="int" name="ISMEAR">     0</i>
  <i name="SIGMA">      0.01000000</i>
  <i type="logical" name="LWAVE"> F  </i>
  <i type="logical" name="LCHARG"> F  </i>
 </incar>
 <kpoints>
  <generation param="Gamma">
   <v type="int" name="divisions">      12      12      12</v>
   <v name="usershift">      0.00000000      0.00000000      0.00000000</v>
   <v name="genvec1">      0.08333333      0.00000000      0.00000000</v>
   <v name="genvec2">      0.00000000      0.08333333      0.00000000</v>
   <v name="genvec3">      0.00000000      0.00000000      0.08333333</v>
   <v name="shift">      0.00000000      0.00000000      0.00000000</v>
  </generation>
  <varray name="kpointlist" >
   <v>       0.00000000      0.00000000      0.00000000</v>
   <v>       0.08333333      0.00000000      0.00000000</v>
   <v>       0.16666667      0.00000000      0.00000000</v>
   <v>       0.25000000      0.00000000      0.00000000</v>
   <v>       0.33333333      0.00000000      0.00000000</v>
   <v>       0.41666667      0.00000000      0.00000000</v>
   <v>       0.50000000      0.00000000      0.00000000</v>
   <v>       0.00000000      0.08333333      0.00000000</v>
   <v>       0.08333333      0.08333333      0.00000000</v>
   <v>       0.16666667      0.08333333      0.00000000</v>
   <v>       0.25000000      0.08333333      0.00000000</v>
   <v>       0.33333333      0.08333333      0.00000000</v>
   <v>       0.41666667      0.08333333      0.00000000</v>
   <v>       0.50000000      0.08333333      0.00000000</v>
   <v>       0.00000000      0.16666667      0.00000000</v>
   <v>       0.08333333      0.16666667      0.00000000</v>
   <v>       0.16666667      0.16666667      0.00000000</v>
   <v>       0.25000000      0.16666667      0.00000000</v>
   <v>       0.33333333      0.16666667      0.00000000</v>
   <v>       0.41666667      0.16666667      0.00000000</v>
   <v>       0.50000000      0.16666667      0.00000000</v>
   <v>       0.00000000      0.25000000      0.00000000</v>
   <v>       0.08333333      0.25000000      0.00000000</v>
   <v>       0.16666667      0.25000000      0.00000000</v>
   <v>       0.25000000      0.25000000      0.00000000</v>
   <v>       0.33333333      0.25000000      0.00000000</v>
   <v>       0.41666667      0.25000000      0.00000000</v>
   <v>       0.50000000      0.25000000      0.00000000</v>
   <v>       0.00000000      0.33333333      0.00000000</v>
   <v>       0.08333333      0.33333333      0.00000000</v>
   <v>       0.16666667      0.33333333      0.00000000</v>
   <v>       0.25000000      0.33333333      0.00000000</v>
   <v>       0.33333333      0.33333333      0.00000000</v>
   <v>       0.41666667      0.33333333      0.00000000</v>
   <v>       0.50000000      0.33333333      0.00000000</v>
   <v>       0.00000000      0.41666667      0.00000000</v>
   <v>       0.08333333      0.41666667      0.00000000</v>
   <v>       0.16666667      0.41666667      0.00000000</v>
   <v>       0.25000000      0.41666667      0.00000000</v>
   <v>       0.33333333      0.41666667      0.00000000</v>
   <v>       0.41666667      0.41666667      0.00000000</v>
   <v>       0.50000000      0.41666667      0.00000000</v>
   <v>       0.00000000      0.50000000      0.00000000</v>
   <v>       0.08333333      0.50000000      0.00000000</v>
   <v>       0.16666667      0.50000000      0.00000000</v>
   <v>       0.25000000      0.50000000      0.00000000</v>
   <v>       0.33333333      0.50000000      0.00000000</v>
   <v>       0.41666667      0.50000000      0.00000000</v>
   <v>       0.50000000      0.50000000      0.00000000</v>
   <v>       0.00000000      0.08333333      0.08333333</v>
   <v>       0.08333333      0.08333333      0.08333333</v>
   <v>       0.16666667      0.08333333      0.08333333</v>
   <v>       0.25000000      0.08333333      0.08333333</v>
   <v>       0.33333333      0.08333333      0.08333333</v>
   <v>       0.41666667      0.08333333      0.08333333</v>
   <v>       0.50000000      0.08333333      0.08333333</v>
   <v>       0.00000000      0.16666667      0.08333333</v>
   <v>       0.08333333      0.16666667      0.08333333</v>
   <v>       0.16666667      0.16666667      0.08333333</v>
   <v>       0.25000000      0.16666667      0.08333333</v>
   <v>       0.33333333      0.16666667      0.08333333</v>
   <v>       0.41666667      0.16666667      0.08333333</v>
   <v>       0.50000000      0.16666667      0.08333333</v>
   <v>       0.00000000      0.25000000      0.08333333</v>
   <v>       0.08333333      0.25000000      0.08333333</v>
   <v>       0.16666667      0.25000000      0.08333333</v>
   <v>       0.25000000      0.25000000      0.08333333</v>
   <v>       0.33333333      0.25000000      0.08333333</v>
   <v>       0.41666667      0.25000000      0.08333333</v>
   <v>       0.50000000      0.25000000      0.08333333</v>
   <v>       0.00000000      0.33333333      0.08333333</v>
   <v>       0.08333333      0.33333333      0.08333333</v>
   <v>       0.16666667      0.33333333      0.08333333</v>
   <v>       0.25000000      0.33333333      0.08333333</v>
   <v>       0.33333333      0.33333333      0.08333333</v>
   <v>       0.41666667      0.33333333      0.08333333</v>
   <v>       0.50000000      0.33333333      0.08333333</v>
   <v>       0.00000000      0.41666667      0.08333333</v>
   <v>       0.08333333      0.41666667      0.08333333</v>
   <v>       0.16666667      0.41666667      0.08333333</v>
   <v>       0.25000000      0.41666667      0.08333333</v>
   <v>       0.33333333      0.41666667      0.08333333</v>
   <v>       0.41666667      0.41666667      0.08333333</v>
   <v>       0.50000000      0.41666667      0.08333333</v>
   <v>       0.00000000      0.50000000      0.08333333</v>
   <v>       0.08333333      0.50000000      0.08333333</v>
   <v>       0.16666667      0.50000000      0.08333333</v>
   <v>       0.25000000      0.50000000      0.08333333</v>
   <v>       0.33333333      0.50000000      0.08333333</v>
   <v>       0.41666667      0.50000000      0.08333333</v>
   <v>       0.50000000      0.50000000      0.08333333</v>
   <v>       0.00000000      0.16666667      0.16666667</v>
   <v>       0.08333333      0.16666667      0.16666667</v>
   <v>       0.16666667      0.16666667      0.16666667</v>
   <v>       0.25000000      0.16666667      0.16666667</v>
   <v>       0.33333333      0.16666667      0.16666667</v>
   <v>       0.41666667      0.16666667      0.16666667</v>
   <v>       0.50000000      0.16666667      0.16666667</v>
   <v>       0.00000000      0.25000000      0.16666667</v>
   <v>       0.08333333      0.25000000      0.16666667</v>
   <v>       0.16666667      0.25000000      0.16666667</v>
   <v>       0.25000000      0.25000000      0.16666667</v>
   <v>       0.33333333      0.25000000      0.16666667</v>
   <v>       0.41666667      0.25000000      0.16666667</v>
   <v>       0.50000000      0.25000000      0.16666667</v>
   <v>       0.00000000      0.33333333      0.16666667</v>
   <v>       0.08333333      0.33333333      0.16666667</v>
   <v>       0.16666667      0.33333333      0.16666667</v>
   <v>       0.25000000      0.33333333      0.16666667</v>
   <v>       0.33333333      0.33333333      0.16666667</v>
   <v>       0.41666667      0.33333333      0.16666667</v>
   <v>       0.50000000      0.33333333      0.16666667</v>
   <v>       0.00000000      0.41666667      0.16666667</v>
   <v>       0.08333333      0.41666667      0.16666667</v>
   <v>       0.16666667      0.41666667      0.16666667</v>
   <v>       0.25000000      0.41666667      0.16666667</v>
   <v>       0.33333333      0.41666667      0.16666667</v>
   <v>       0.41666667      0.41666667      0.16666667</v>
   <v>       0.50000000      0.41666667      0.16666667</v>
   <v>       0.00000000      0.50000000      0.16666667</v>
   <v>       0.08333333      0.50000000      0.16666667</v>
   <v>       0.16666667      0.50000000      0.16666667</v>
   <v>       0.25000000      0.50000000      0.16666667</v>
   <v>       0.33333333      0.50000000      0.16666667</v>
   <v>       0.41666667      0.50000000      0.16666667</v>
   <v>       0.50000000      0.50000000      0.16666667</v>
   <v>       0.00000000      0.25000000      0.25000000</v>
   <v>       0.08333333      0.25000000      0.25000000</v>
   <v>       0.16666667      0.25000000      0.25000000</v>
   <v>       0.25000000      0.25000000      0.25000000</v>
   <v>       0.33333333      0.25000000      0.25000000</v>
   <v>       0.41666667      0.25000000      0.25000000</v>
   <v>       0.50000000      0.25000000      0.25000000</v>
   <v>       0.00000000      0.33333333      0.25000000</v>
   <v>       0.08333333      0.33333333      0.25000000</v>
   <v>       0.16666667      0.33333333      0.25000000</v>
   <v>       0.25000000      0.33333333      0.25000000</v>
   <v>       0.33333333      0.33333333      0.25000000</v>
   <v>       0.41666667      0.33333333      0.25000000</v>
   <v>       0.50000000      0.33333333      0.25000000</v>
   <v>       0.00000000      0.41666667      0.25000000</v>
   <v>       0.08333333      0.41666667      0.25000000</v>
   <v>       0.16666667      0.41666667      0.25000000</v>
   <v>       0.25000000      0.41666667      0.25000000</v>
   <v>       0.33333333      0.41666667      0.25000000</v>
   <v>       0.41666667      0.41666667      0.25000000</v>
   <v>       0.50000000      0.41666667      0.25000000</v>
   <v>       0.00000000      0.50000000      0.25000000</v>
   <v>       0.08333333      0.50000000      0.25000000</v>
   <v>       0.16666667      0.50000000      0.25000000</v>
   <v>       0.25000000      0.50000000      0.25000000</v>
   <v>       0.33333333      0.50000000      0.25000000</v>
   <v>       0.41666667      0.50000000      0.25000000</v>
   <v>       0.50000000      0.50000000      0.25000000</v>
   <v>       0.00000000      0.33333333      0.33333333</v>
   <v>       0.08333333      0.33333333      0.33333333</v>
   <v>       0.16666667      0.33333333      0.33333333</v>
   <v>       0.25000000      0.33333333      0.33333333</v>
   <v>       0.33333333      0.33333333      0.33333333</v>
   <v>       0.41666667      0.33333333      0.33333333</v>
   <v>       0.50000000      0.33333333      0.33333333</v>
   <v>       0.00000000      0.41666667      0.33333333</v>
   <v>       0.08333333      0.41666667      0.33333333</v>
   <v>       0.16666667      0.41666667      0.33333333</v>
   <v>       0.25000000      0.41666667      0.33333333</v>
   <v>       0.33333333      0.41666667      0.33333333</v>
   <v>       0.41666667      0.41666667      0.33333333</v>
   <v>       0.50000000      0.41666667      0.33333333</v>
   <v>       0.00000000      0.50000000      0.33333333</v>
   <v>       0.08333333      0.50000000      0.33333333</v>
   <v>       0.16666667      0.50000000      0.33333333</v>
   <v>       0.25000000      0.50000000      0.33333333</v>
   <v>       0.33333333      0.50000000      0.33333333</v>
   <v>       0.41666667      0.50000000      0.33333333</v>
   <v>       0.50000000      0.50000000      0.33333333</v>
   <v>       0.00000000      0.41666667      0.41666667</v>
   <v>       0.08333333      0.41666667      0.41666667</v>
   <v>       0.16666667      0.41666667      0.41666667</v>
   <v>       0.25000000      0.41666667      0.41666667</v>
   <v>       0.33333333      0.41666667      0.41666667</v>
   <v>       0.41666667      0.41666667      0.41666667</v>
   <v>       0.50000000      0.41666667      0.41666667</v>
   <v>       0.00000000      0.50000000      0.41666667</v>
   <v>       0.08333333      0.50000000      0.41666667</v>
   <v>       0.16666667      0.50000000      0.41666667</v>
   <v>       0.25000000      0.50000000      0.41666667</v>
   <v>       0.33333333      0.50000000      0.41666667</v>
   <v>       0.41666667      0.50000000      0.41666667</v>
   <v>       0.50000000      0.50000000      0.41666667</v>
   <v>       0.00000000      0.50000000      0.50000000</v>
   <v>       0.08333333      0.50000000      0.50000000</v>
   <v>       0.16666667      0.50000000      0.50000000</v>
   <v>       0.25000000      0.50000000      0.50000000</v>
   <v>       0.33333333      0.50000000      0.50000000</v>
   <v>       0.41666667      0.50000000      0.50000000</v>
   <v>       0.50000000      0.50000000      0.50000000</v>
  </varray>
  <varray name="weights" >
   <v>       0.00057870</v>
   <v>       0.00115741</v>
   <v>       0.00115741</v>
   <v>       0.00115741</v>
   <v>       0.00115741</v>
   <v>       0.00115741</v>
   <v>       0.00057870</v>
   <v>       0.00231481</v>
   <v>       0.00462963</v>
   <v>       0.00462963</v>
   <v>       0.00462963</v>
   <v>       0.00462963</v>
   <v>       0.00462963</v>
   <v>       0.00231481</v>
   <v>       0.00231481</v>
   <v>       0.00462963</v>
   <v>       0.00462963</v>
   <v>       0.00462963</v>
   <v>       0.00462963</v>
   <v>       0.00462963</v>
   <v>       0.00231481</v>
   <v>       0.00231481</v>
   <v>       0.00462963</v>
   <v>       0.00462963</v>
   <v>       0.00462963</v>
   <v>       0.00462963</v>
   <v>       0.00462963</v>
   <v>       0.00231481</v>
   <v>       0.00231481</v>
   <v>       0.00462963</v>
   <v>       0.00462963</v>
   <v>       0.00462963</v>
   <v>       0.00462963</v>
   <v>       0.00462963</v>
   <v>       0.00231481</v>
   <v>       0.00231481</v>
   <v>       0.00462963</v>
   <v>       0.00462963</v>
   <v>       0.00462963</v>
   <v>       0.00462963</v>
   <v>       0.00462963</v>
   <v>       0.00231481</v>
   <v>       0.00115741</v>
   <v>       0.00231481</v>
   <v>       0.00231481</v>
   <v>       0.00231481</v>
   <v>       0.00231481</v>
   <v>       0.00231481</v>
   <v>       0.00115741</v>
   <v>       0.00231481</v>
   <v>       0.00462963</v>
   <v>       0.00462963</v>
   <v>       0.00462963</v>
   <v>       0.00462963</v>
   <v>       0.00462963</v>
   <v>       0.00231481</v>
   <v>       0.00462963</v>
   <v>       0.00925926</v>
   <v>       0.00925926</v>
   <v>       0.00925926</v>
   <v>       0.00925926</v>
   <v>       0.00925926</v>
   <v>       0.00462963</v>
   <v>       0.00462963</v>
   <v>       0.00925926</v>
   <v>       0.00925926</v>
   <v>       0.00925926</v>
   <v>       0.00925926</v>
   <v>       0.00925926</v>
   <v>       0.00462963</v>
   <v>       0.00462963</v>
   <v>       0.00925926</v>
   <v>       0.00925926</v>
   <v>       0.00925926</v>
   <v>       0.00925926</v>
   <v>       0.00925926</v>
   <v>       0.00462963</v>
   <v>       0.00462963</v>
   <v>       0.00925926</v>
   <v>       0.00925926</v>
   <v>       0.00925926</v>
   <v>       0.00925926</v>
   <v>       0.00925926</v>
   <v>       0.00462963</v>
   <v>       0.00231481</v>
   <v>       0.00462963</v>
   <v>       0.00462963</v>
   <v>       0.00462963</v>
   <v>       0.00462963</v>
   <v>       0.00462963</v>
   <v>       0.00231481</v>
   <v>       0.00231481</v>
   <v>       0.00462963</v>
   <v>       0.00462963</v>
   <v>       0.00462963</v>
   <v>       0.00462963</v>
   <v>       0.00462963</v>
   <v>       0.00231481</v>
   <v>       0.00462963</v>
   <v>       0.00925926</v>
   <v>       0.00925926</v>
   <v>       0.00925926</v>
   <v>       0.00925926</v>
   <v>       0.00925926</v>
   <v>       0.00462963</v>
   <v>       0.00462963</v>
   <v>       0.00925926</v>
   <v>       0.00925926</v>
   <v>       0.00925926</v>
   <v>       0.00925926</v>
   <v>       0.00925926</v>
   <v>       0.00462963</v>
   <v>       0.00462963</v>
   <v>       0.00925926</v>
   <v>       0.00925926</v>
   <v>       0.00925926</v>
   <v>       0.00925926</v>
   <v>       0.00925926</v>
   <v>       0.00462963</v>
   <v>       0.00231481</v>
   <v>       0.00462963</v>
   <v>       0.00462963</v>
   <v>       0.00462963</v>
   <v>       0.00462963</v>
   <v>       0.00462963</v>
   <v>       0.00231481</v>
   <v>       0.00231481</v>
   <v>       0.00462963</v>
   <v>       0.00462963</v>
   <v>       0.00462963</v>
   <v>       0.00462963</v>
   <v>       0.00462963</v>
   <v>       0.00231481</v>
   <v>       0.00462963</v>
   <v>       0.00925926</v>
   <v>       0.00925926</v>
   <v>       0.00925926</v>
   <v>       0.00925926</v>
   <v>       0.00925926</v>
   <v>       0.00462963</v>
   <v>       0.00462963</v>
   <v>       0.00925926</v>
   <v>       0.00925926</v>
   <v>       0.00925926</v>
   <v>       0.00925926</v>
   <v>       0.00925926</v>
   <v>       0.00462963</v>
   <v>       0.00231481</v>
   <v>       0.00462963</v>
   <v>       0.00462963</v>
   <v>       0.00462963</v>
   <v>       0.00462963</v>
   <v>       0.00462963</v>
   <v>       0.00231481</v>
   <v>       0.00231481</v>
   <v>       0.00462963</v>
   <v>       0.00462963</v>
   <v>       0.00462963</v>
   <v>       0.00462963</v>
   <v>       0.00462963</v>
   <v>       0.00231481</v>
   <v>       0.00462963</v>
   <v>       0.00925926</v>
   <v>       0.00925926</v>
   <v>       0.00925926</v>
   <v>       0.00925926</v>
   <v>       0.00925926</v>
   <v>       0.00462963</v>
   <v>       0.00231481</v>
   <v>       0.00462963</v>
   <v>       0.00462963</v>
   <v>       0.00462963</v>
   <v>       0.00462963</v>
   <v>       0.00462963</v>
   <v>       0.00231481</v>
   <v>       0.00231481</v>
   <v>       0.00462963</v>
   <v>       0.00462963</v>
   <v>       0.00462963</v>
   <v>       0.00462963</v>
   <v>       0.00462963</v>
   <v>       0.00231481</v>
   <v>       0.00231481</v>
   <v>       0.00462963</v>
   <v>       0.00462963</v>
   <v>       0.00462963</v>
   <v>       0.00462963</v>
   <v>       0.00462963</v>
   <v>       0.00231481</v>
   <v>       0.00057870</v>
   <v>       0.00115741</v>
   <v>       0.00115741</v>
   <v>       0.00115741</v>
   <v>       0.00115741</v>
   <v>       0.00115741</v>
   <v>       0.00057870</v>
  </varray>
 </kpoints>
 <parameters>
  <separator name="general" >
   <i type="string" name="SYSTEM">unknown system</i>
   <i type="logical" name="LCOMPAT"> F  </i>
  </separator>
  <separator name="electronic" >
   <i type="string" name="PREC">accura</i>
   <i name="ENMAX">    750.00000000</i>
   <i name="ENAUG">    516.45600000</i>
   <i name="EDIFF">      0.00000001</i>
   <i type="int" name="IALGO">    38</i>
   <i type="int" name="IWAVPR">    10</i>
   <i type="int" name="NBANDS">   211</i>
   <i name="NELECT">    352.00000000</i>
   <separator name="electronic smearing" >
    <i type="int" name="ISMEAR">     0</i>
    <i name="SIGMA">      0.01000000</i>
   </separator>
   <separator name="electronic projectors" >
    <i type="logical" name="LREAL"> F  </i>
    <v name="ROPT">      0.00000000</v>
    <i type="int" name="LMAXPAW">  -100</i>
    <i type="int" name="LMAXMIX">     2</i>
   </separator>
   <separator name="electronic startup" >
    <i type="int" name="ISTART">     0</i>
    <i type="int" name="ICHARG">     2</i>
    <i type="int" name="INIWAV">     1</i>
   </separator>
   <separator name="electronic spin" >
    <i type="int" name="ISPIN">     1</i>
    <i type="logical" name="LNONCOLLINEAR"> F  </i>
    <v name="MAGMOM">      1.00000000      1.00000000      1.00000000      1.00000000      1.00000000      1.00000000      1.00000000      1.00000000      1.00000000      1.00000000      1.00000000      1.00000000      1.00000000      1.00000000      1.00000000      1.00000000      1.00000000      1.00000000      1.00000000      1.00000000
      1.00000000      1.00000000      1.00000000      1.00000000      1.00000000      1.00000000      1.00000000      1.00000000      1.00000000      1.00000000      1.00000000      1.00000000</v>
    <i name="NUPDOWN">     -1.00000000</i>
    <i type="logical" name="LSORBIT"> F  </i>
    <v name="SAXIS">      0.00000000      0.00000000      1.00000000</v>
    <i type="logical" name="LSPIRAL"> F  </i>
    <v name="QSPIRAL">      0.00000000      0.00000000      0.00000000</v>
    <i type="logical" name="LZEROZ"> F  </i>
   </separator>
   <separator name="electronic exchange-correlation" >
    <i type="string" name="GGA">--</i>
    <i type="int" name="VOSKOWN">     0</i>
    <i type="logical" name="LASPH"> F  </i>
    <i type="logical" name="LMETAGGA"> F  </i>
    <i type="string" name="GGA2">--</i>
   </separator>
   <separator name="electronic convergence" >
    <i type="int" name="NELM">    60</i>
    <i type="int" name="NELMDL">    -5</i>
    <i type="int" name="NELMIN">     2</i>
    <i name="ENINI">    750.00000000</i>
    <separator name="electronic convergence detail" >
     <i type="logical" name="LDIAG"> T  </i>
     <i name="WEIMIN">      0.00000000</i>
     <i name="EBREAK">      0.00000000</i>
     <i name="DEPER">      0.30000000</i>
     <i type="int" name="NRMM">     4</i>
     <i name="TIME">      0.10000000</i>
    </separator>
   </separator>
   <separator name="electronic mixer" >
    <i name="AMIX">      0.40000000</i>
    <i name="BMIX">      1.00000000</i>
    <i name="AMIN">      0.10000000</i>
    <i name="AMIX_MAG">      1.60000000</i>
    <i name="BMIX_MAG">      1.00000000</i>
    <separator name="electronic mixer details" >
     <i type="int" name="IMIX">     4</i>
     <i type="int" name="MAXMIX">   -45</i>
     <i name="WC">    100.00000000</i>
     <i type="int" name="INIMIX">     1</i>
     <i type="int" name="MIXPRE">     1</i>
     <i type="int" name="MREMOVE">     5</i>
    </separator>
   </separator>
   <separator name="electronic dipolcorrection" >
    <i type="int" name="IDIPOL">     0</i>
    <i type="logical" name="LDIPOL"> F  </i>
    <v name="DIPOL">   -100.00000000</v>
    <i name="EFIELD">      0.00000000</i>
   </separator>
  </separator>
  <separator name="grids" >
   <i type="int" name="NGX">    70</i>
   <i type="int" name="NGY">    70</i>
   <i type="int" name="NGZ">    70</i>
   <i type="int" name="NGXF">   140</i>
   <i type="int" name="NGYF">   140</i>
   <i type="int" name="NGZF">   140</i>
   <i type="logical" name="ADDGRID"> T  </i>
  </separator>
  <separator name="ionic" >
   <i type="int" name="NSW">     0</i>
   <i type="int" name="IBRION">    -1</i>
   <i type="int" name="ISIF">     2</i>
   <i name="PSTRESS">      0.00000000</i>
   <i name="EDIFFG">      0.00000010</i>
   <i type="int" name="NFREE">     0</i>
   <i name="POTIM">      0.50000000</i>
   <i name="SMASS">     -3.00000000</i>
  </separator>
  <separator name="ionic md" >
   <i name="TEBEG">      0.00010000</i>
   <i name="TEEND">      0.00010000</i>
   <i type="int" name="NBLOCK">     1</i>
   <i type="int" name="KBLOCK">     1</i>
   <i type="int" name="NPACO">   256</i>
   <i name="APACO">     16.00000000</i>
  </separator>
  <separator name="symmetry" >
   <i type="int" name="ISYM">     2</i>
   <i name="SYMPREC">      0.00001000</i>
  </separator>
  <separator name="dos" >
   <i type="logical" name="LORBIT"> F  </i>
   <v name="RWIGS">     -1.00000000</v>
   <i type="int" name="NEDOS">   301</i>
   <i name="EMIN">     10.00000000</i>
   <i name="EMAX">    -10.00000000</i>
  </separator>
  <separator name="writing" >
   <i type="int" name="NWRITE">     2</i>
   <i type="logical" name="LWAVE"> F  </i>
   <i type="logical" name="LCHARG"> F  </i>
   <i type="logical" name="LPARD"> F  </i>
   <i type="logical" name="LVTOT"> F  </i>
   <i type="logical" name="LELF"> F  </i>
   <i type="logical" name="LOPTICS"> F  </i>
   <i name="STM">      0.00000000</i>
  </separator>
  <separator name="performance" >
   <i type="int" name="NPAR">     4</i>
   <i type="int" name="NSIM">     4</i>
   <i type="int" name="NBLK">   256</i>
   <i type="logical" name="LPLANE"> T  </i>
   <i type="logical" name="LCRITICAL_MEM"> F  </i>
   <i type="logical" name="LSCALAPACK"> F  </i>
   <i type="logical" name="LSCALU"> F  </i>
   <i type="logical" name="LASYNC"> F  </i>
  </separator>
  <separator name="miscellaneous" >
   <i type="int" name="IDIOT">     3</i>
   <i type="logical" name="LMUSIC"> F  </i>
   <v name="POMASS">     63.54600000</v>
   <i type="logical" name="LCORR"> T  </i>
  </separator>
  <i type="logical" name="LREAL_COMPAT"> F  </i>
  <i type="logical" name="GGA_COMPAT"> T  </i>
  <i type="logical" name="LBERRY"> F  </i>
  <i type="int" name="ICORELEVEL">     0</i>
  <i type="logical" name="LDAU"> F  </i>
  <i type="int" name="I_CONSTRAINED_M">     0</i>
 </parameters>
 <atominfo>
  <atoms>      32</atoms>
  <types>       1</types>
  <array name="atoms" >
   <dimension dim="1">ion</dimension>
   <field type="string">element</field>
   <field type="int">atomtype</field>
   <set>
    <rc><c>Cu</c><c>   1</c></rc>
    <rc><c>Cu</c><c>   1</c></rc>
    <rc><c>Cu</c><c>   1</c></rc>
    <rc><c>Cu</c><c>   1</c></rc>
    <rc><c>Cu</c><c>   1</c></rc>
    <rc><c>Cu</c><c>   1</c></rc>
    <rc><c>Cu</c><c>   1</c></rc>
    <rc><c>Cu</c><c>   1</c></rc>
    <rc><c>Cu</c><c>   1</c></rc>
    <rc><c>Cu</c><c>   1</c></rc>
    <rc><c>Cu</c><c>   1</c></rc>
    <rc><c>Cu</c><c>   1</c></rc>
    <rc><c>Cu</c><c>   1</c></rc>
    <rc><c>Cu</c><c>   1</c></rc>
    <rc><c>Cu</c><c>   1</c></rc>
    <rc><c>Cu</c><c>   1</c></rc>
    <rc><c>Cu</c><c>   1</c></rc>
    <rc><c>Cu</c><c>   1</c></rc>
    <rc><c>Cu</c><c>   1</c></rc>
    <rc><c>Cu</c><c>   1</c></rc>
    <rc><c>Cu</c><c>   1</c></rc>
    <rc><c>Cu</c><c>   1</c></rc>
    <rc><c>Cu</c><c>   1</c></rc>
    <rc><c>Cu</c><c>   1</c></rc>
    <rc><c>Cu</c><c>   1</c></rc>
    <rc><c>Cu</c><c>   1</c></rc>
    <rc><c>Cu</c><c>   1</c></rc>
    <rc><c>Cu</c><c>   1</c></rc>
    <rc><c>Cu</c><c>   1</c></rc>
    <rc><c>Cu</c><c>   1</c></rc>
    <rc><c>Cu</c><c>   1</c></rc>
    <rc><c>Cu</c><c>   1</c></rc>
   </set>
  </array>
  <array name="atomtypes" >
   <dimension dim="1">type</dimension>
   <field type="int">atomspertype</field>
   <field type="string">element</field>
   <field>mass</field>
   <field>valence</field>
   <field type="string">pseudopotential</field>
   <set>
    <rc><c>  32</c><c>Cu</c><c>     63.54600000</c><c>     11.00000000</c><c> PAW_PBE Cu 05Jan2001                   </c></rc>
   </set>
  </array>
 </atominfo>
 <structure name="initialpos" >
  <crystal>
   <varray name="basis" >
    <v>       7.27283162      0.00000000      0.00000000</v>
    <v>       0.00000000      7.27283162      0.00000000</v>
    <v>       0.00000000      0.00000000      7.27283162</v>
   </varray>
   <i name="volume">    384.68973643</i>
   <varray name="rec_basis" >
    <v>       0.13749803      0.00000000      0.00000000</v>
    <v>       0.00000000      0.13749803      0.00000000</v>
    <v>       0.00000000      0.00000000      0.13749803</v>
   </varray>
  </crystal>
  <varray name="positions" >
   <v>       0.00137498      0.00000000      0.00000000</v>
   <v>       0.50000000      0.00000000      0.00000000</v>
   <v>       0.00000000      0.50000000      0.00000000</v>
   <v>       0.50000000      0.50000000      0.00000000</v>
   <v>       0.00000000      0.00000000      0.50000000</v>
   <v>       0.50000000      0.00000000      0.50000000</v>
   <v>       0.00000000      0.50000000      0.50000000</v>
   <v>       0.50000000      0.50000000      0.50000000</v>
   <v>       0.25000000      0.25000000      0.00000000</v>
   <v>       0.75000000      0.25000000      0.00000000</v>
   <v>       0.25000000      0.75000000      0.00000000</v>
   <v>       0.75000000      0.75000000      0.00000000</v>
   <v>       0.25000000      0.25000000      0.50000000</v>
   <v>       0.75000000      0.25000000      0.50000000</v>
   <v>       0.25000000      0.75000000      0.50000000</v>
   <v>       0.75000000      0.75000000      0.50000000</v>
   <v>       0.25000000      0.00000000      0.25000000</v>
   <v>       0.75000000      0.00000000      0.25000000</v>
   <v>       0.25000000      0.50000000      0.25000000</v>
   <v>       0.75000000      0.50000000      0.25000000</v>
   <v>       0.25000000      0.00000000      0.75000000</v>
   <v>       0.75000000      0.00000000      0.75000000</v>
   <v>       0.25000000      0.50000000      0.75000000</v>
   <v>       0.75000000      0.50000000      0.75000000</v>
   <v>       0.00000000      0.25000000      0.25000000</v>
   <v>       0.50000000      0.25000000      0.25000000</v>
   <v>       0.00000000      0.75000000      0.25000000</v>
   <v>       0.50000000      0.75000000      0.25000000</v>
   <v>       0.00000000      0.25000000      0.75000000</v>
   <v>       0.50000000      0.25000000      0.75000000</v>
   <v>       0.00000000      0.75000000      0.75000000</v>
   <v>       0.50000000      0.75000000      0.75000000</v>
  </varray>
 </structure>
 <calculation>
  <scstep>
   <time name="dav"> 6183.37 6191.60</time>
   <time name="total"> 6187.23 6195.46</time>
   <energy>
    <i name="alphaZ">   3400.89143748</i>
    <i name="ewald"> -35149.07107625</i>
    <i name="hartreedc"> -10547.90492891</i>
    <i name="XCdc">   1403.29602162</i>
    <i name="pawpsdc">  34625.67335558</i>
    <i name="pawaedc"> -39234.46421604</i>
    <i name="eentropy">     -0.00022750</i>
    <i name="bandstr">   4973.20769525</i>
    <i name="atom">  44511.34040493</i>
    <i name="e_fr_energy">   3982.96846616</i>
    <i name="e_wo_entrp">   3982.96869366</i>
    <i name="e_0_energy">   3982.96857991</i>
   </energy>
  </scstep>
  <scstep>
   <time name="dav"> 6183.00 6190.70</time>
   <time name="total"> 6183.36 6191.06</time>
   <energy>
    <i name="e_fr_energy">    459.17305066</i>
    <i name="e_wo_entrp">    459.17338412</i>
    <i name="e_0_energy">    459.17321739</i>
   </energy>
  </scstep>
  <scstep>
   <time name="dav"> 6166.75 6182.87</time>
   <time name="total"> 6167.12 6183.23</time>
   <energy>
    <i name="e_fr_energy">   -108.32290700</i>
    <i name="e_wo_entrp">   -108.32231573</i>
    <i name="e_0_energy">   -108.32261137</i>
   </energy>
  </scstep>
  <scstep>
   <time name="dav"> 6395.79 6404.63</time>
   <time name="total"> 6396.15 6404.99</time>
   <energy>
    <i name="e_fr_energy">   -146.26847078</i>
    <i name="e_wo_entrp">   -146.26771488</i>
    <i name="e_0_energy">   -146.26809283</i>
   </energy>
  </scstep>
  <scstep>
   <time name="dav"> 6492.24 6497.99</time>
   <time name="total"> 6678.40 6684.33</time>
   <energy>
    <i name="e_fr_energy">   -146.71947005</i>
    <i name="e_wo_entrp">   -146.71865906</i>
    <i name="e_0_energy">   -146.71906456</i>
   </energy>
  </scstep>
  <scstep>
   <time name="dav"> 6676.26 6680.02</time>
   <time name="total"> 6879.64 6883.54</time>
   <energy>
    <i name="e_fr_energy">   -129.16636844</i>
    <i name="e_wo_entrp">   -129.16613450</i>
    <i name="e_0_energy">   -129.16625147</i>
   </energy>
  </scstep>
  <scstep>
   <time name="dav"> 6900.99 6906.77</time>
   <time name="total"> 7105.42 7111.39</time>
   <energy>
    <i name="e_fr_energy">   -119.30968194</i>
    <i name="e_wo_entrp">   -119.30910928</i>
    <i name="e_0_energy">   -119.30939561</i>
   </energy>
  </scstep>
  <scstep>
   <time name="dav"> 6651.99 6655.74</time>
   <time name="total"> 6858.08 6861.97</time>
   <energy>
    <i name="e_fr_energy">   -119.07096810</i>
    <i name="e_wo_entrp">   -119.07044984</i>
    <i name="e_0_energy">   -119.07070897</i>
   </energy>
  </scstep>
  <scstep>
   <time name="dav"> 6879.42 6885.60</time>
   <time name="total"> 7086.86 7093.27</time>
   <energy>
    <i name="e_fr_energy">   -118.98365669</i>
    <i name="e_wo_entrp">   -118.98285546</i>
    <i name="e_0_energy">   -118.98325607</i>
   </energy>
  </scstep>
  <scstep>
   <time name="dav"> 7351.73 7358.31</time>
   <time name="total"> 7584.29 7591.16</time>
   <energy>
    <i name="e_fr_energy">   -118.98248435</i>
    <i name="e_wo_entrp">   -118.98150670</i>
    <i name="e_0_energy">   -118.98199553</i>
   </energy>
  </scstep>
  <scstep>
   <time name="dav"> 6726.02 6729.97</time>
   <time name="total"> 6971.06 6975.17</time>
   <energy>
    <i name="e_fr_energy">   -118.98264304</i>
    <i name="e_wo_entrp">   -118.98169901</i>
    <i name="e_0_energy">   -118.98217103</i>
   </energy>
  </scstep>
  <scstep>
   <time name="dav"> 6911.15 6925.25</time>
   <time name="total"> 7158.01 7172.70</time>
   <energy>
    <i name="e_fr_energy">   -118.98255627</i>
    <i name="e_wo_entrp">   -118.98162891</i>
    <i name="e_0_energy">   -118.98209259</i>
   </energy>
  </scstep>
  <scstep>
   <time name="dav"> 6916.96 6922.31</time>
   <time name="total"> 7163.50 7169.18</time>
   <energy>
    <i name="e_fr_energy">   -118.98254367</i>
    <i name="e_wo_entrp">   -118.98162394</i>
    <i name="e_0_energy">   -118.98208381</i>
   </energy>
  </scstep>
  <scstep>
   <time name="dav"> 6769.79 6783.51</time>
   <time name="total"> 7016.85 7031.15</time>
   <energy>
    <i name="e_fr_energy">   -118.98254828</i>
    <i name="e_wo_entrp">   -118.98162801</i>
    <i name="e_0_energy">   -118.98208815</i>
   </energy>
  </scstep>
  <scstep>
   <time name="dav"> 6452.43 6466.47</time>
   <time name="total"> 6709.95 6724.64</time>
   <energy>
    <i name="e_fr_energy">   -118.98254737</i>
    <i name="e_wo_entrp">   -118.98162737</i>
    <i name="e_0_energy">   -118.98208737</i>
   </energy>
  </scstep>
  <scstep>
   <time name="dav"> 4843.00 4845.99</time>
   <time name="total"> 4956.51 4959.64</time>
   <energy>
    <i name="e_fr_energy">   -118.98254469</i>
    <i name="e_wo_entrp">   -118.98162545</i>
    <i name="e_0_energy">   -118.98208507</i>
   </energy>
  </scstep>
  <scstep>
   <time name="dav"> 1834.89 1836.74</time>
   <time name="total"> 1913.37 1915.31</time>
   <energy>
    <i name="e_fr_energy">   -118.98254584</i>
    <i name="e_wo_entrp">   -118.98162725</i>
    <i name="e_0_energy">   -118.98208654</i>
   </energy>
  </scstep>
  <scstep>
   <time name="dav"> 1587.52 1588.73</time>
   <time name="total"> 1666.44 1667.71</time>
   <energy>
    <i name="e_fr_energy">   -118.98254623</i>
    <i name="e_wo_entrp">   -118.98162782</i>
    <i name="e_0_energy">   -118.98208703</i>
   </energy>
  </scstep>
  <scstep>
   <time name="dav"> 1430.72 1431.29</time>
   <time name="total"> 1508.54 1509.14</time>
   <energy>
    <i name="e_fr_energy">   -118.98254628</i>
    <i name="e_wo_entrp">   -118.98162820</i>
    <i name="e_0_energy">   -118.98208724</i>
   </energy>
  </scstep>
  <scstep>
   <time name="dav">  988.78  989.82</time>
   <time name="total"> 1066.81 1067.94</time>
   <energy>
    <i name="e_fr_energy">   -118.98254629</i>
    <i name="e_wo_entrp">   -118.98162812</i>
    <i name="e_0_energy">   -118.98208720</i>
   </energy>
  </scstep>
  <scstep>
   <time name="dav">  981.92  982.97</time>
   <time name="total"> 1058.21 1059.34</time>
   <energy>
    <i name="e_fr_energy">   -118.98254626</i>
    <i name="e_wo_entrp">   -118.98162799</i>
    <i name="e_0_energy">   -118.98208712</i>
   </energy>
  </scstep>
  <scstep>
   <time name="dav">  985.25  985.65</time>
   <time name="total"> 1059.44 1059.87</time>
   <energy>
    <i name="e_fr_energy">   -118.98254620</i>
    <i name="e_wo_entrp">   -118.98162785</i>
    <i name="e_0_energy">   -118.98208702</i>
   </energy>
  </scstep>
  <scstep>
   <time name="dav">  979.39  980.22</time>
   <time name="total"> 1054.93 1055.82</time>
   <energy>
    <i name="e_fr_energy">   -118.98254621</i>
    <i name="e_wo_entrp">   -118.98162786</i>
    <i name="e_0_energy">   -118.98208703</i>
   </energy>
  </scstep>
  <scstep>
   <time name="dav">  980.59  981.63</time>
   <time name="total"> 1056.00 1057.12</time>
   <energy>
    <i name="e_fr_energy">   -118.98254626</i>
    <i name="e_wo_entrp">   -118.98162793</i>
    <i name="e_0_energy">   -118.98208710</i>
   </energy>
  </scstep>
  <scstep>
   <time name="dav">  978.60  979.65</time>
   <time name="total">  980.41  981.46</time>
   <energy>
    <i name="alphaZ">   3400.89143748</i>
    <i name="ewald"> -35149.07107625</i>
    <i name="hartreedc">  -9846.02735164</i>
    <i name="XCdc">   1368.73255661</i>
    <i name="pawpsdc">  35065.28510413</i>
    <i name="pawaedc"> -39695.17754592</i>
    <i name="eentropy">     -0.00091831</i>
    <i name="bandstr">    225.04484271</i>
    <i name="atom">  44511.34040493</i>
    <i name="e_fr_energy">   -118.98254626</i>
    <i name="e_wo_entrp">   -118.98162795</i>
    <i name="e_0_energy">   -118.98208710</i>
   </energy>
  </scstep>
  <structure>
   <crystal>
    <varray name="basis" >
     <v>       7.27283162      0.00000000      0.00000000</v>
     <v>       0.00000000      7.27283162      0.00000000</v>
     <v>       0.00000000      0.00000000      7.27283162</v>
    </varray>
    <i name="volume">    384.68973643</i>
    <varray name="rec_basis" >
     <v>       0.13749803      0.00000000      0.00000000</v>
     <v>       0.00000000      0.13749803      0.00000000</v>
     <v>       0.00000000      0.00000000      0.13749803</v>
    </varray>
   </crystal>
   <varray name="positions" >
    <v>       0.00137498      0.00000000      0.00000000</v>
    <v>       0.50000000      0.00000000      0.00000000</v>
    <v>       0.00000000      0.50000000      0.00000000</v>
    <v>       0.50000000      0.50000000      0.00000000</v>
    <v>       0.00000000      0.00000000      0.50000000</v>
    <v>       0.50000000      0.00000000      0.50000000</v>
    <v>       0.00000000      0.50000000      0.50000000</v>
    <v>       0.50000000      0.50000000      0.50000000</v>
    <v>       0.25000000      0.25000000      0.00000000</v>
    <v>       0.75000000      0.25000000      0.00000000</v>
    <v>       0.25000000      0.75000000      0.00000000</v>
    <v>       0.75000000      0.75000000      0.00000000</v>
    <v>       0.25000000      0.25000000      0.50000000</v>
    <v>       0.75000000      0.25000000      0.50000000</v>
    <v>       0.25000000      0.75000000      0.50000000</v>
    <v>       0.75000000      0.75000000      0.50000000</v>
    <v>       0.25000000      0.00000000      0.25000000</v>
    <v>       0.75000000      0.00000000      0.25000000</v>
    <v>       0.25000000      0.50000000      0.25000000</v>
    <v>       0.75000000      0.50000000      0.25000000</v>
    <v>       0.25000000      0.00000000      0.75000000</v>
    <v>       0.75000000      0.00000000      0.75000000</v>
    <v>       0.25000000      0.50000000      0.75000000</v>
    <v>       0.75000000      0.50000000      0.75000000</v>
    <v>       0.00000000      0.25000000      0.25000000</v>
    <v>       0.50000000      0.25000000      0.25000000</v>
    <v>       0.00000000      0.75000000      0.25000000</v>
    <v>       0.50000000      0.75000000      0.25000000</v>
    <v>       0.00000000      0.25000000      0.75000000</v>
    <v>       0.50000000      0.25000000      0.75000000</v>
    <v>       0.00000000      0.75000000      0.75000000</v>
    <v>       0.50000000      0.75000000      0.75000000</v>
   </varray>
  </structure>
  <varray name="forces" >
   <v>      -0.06523086     -0.00000000      0.00000000</v>
   <v>       0.00096220     -0.00000000      0.00000000</v>
   <v>      -0.00043217     -0.00000000     -0.00000000</v>
   <v>      -0.00004256      0.00000000      0.00000000</v>
   <v>      -0.00043217      0.00000000      0.00000000</v>
   <v>      -0.00004256      0.00000000     -0.00000000</v>
   <v>      -0.00011845      0.00000000     -0.00000000</v>
   <v>      -0.00019688     -0.00000000      0.00000000</v>
   <v>       0.00803892      0.00920272     -0.00000000</v>
   <v>       0.00778728     -0.00885344     -0.00000000</v>
   <v>       0.00803892     -0.00920272     -0.00000000</v>
   <v>       0.00778728      0.00885344     -0.00000000</v>
   <v>       0.00029644      0.00014277      0.00000000</v>
   <v>       0.00029688     -0.00014730      0.00000000</v>
   <v>       0.00029644     -0.00014277      0.00000000</v>
   <v>       0.00029688      0.00014730     -0.00000000</v>
   <v>       0.00803892      0.00000000      0.00920272</v>
   <v>       0.00778728      0.00000000     -0.00885344</v>
   <v>       0.00029644      0.00000000      0.00014277</v>
   <v>       0.00029688      0.00000000     -0.00014730</v>
   <v>       0.00803892      0.00000000     -0.00920272</v>
   <v>       0.00778728      0.00000000      0.00885344</v>
   <v>       0.00029644      0.00000000     -0.00014277</v>
   <v>       0.00029688      0.00000000      0.00014730</v>
   <v>      -0.00068214     -0.00001840     -0.00001840</v>
   <v>       0.00064597      0.00000132      0.00000132</v>
   <v>      -0.00068214      0.00001840     -0.00001840</v>
   <v>       0.00064597     -0.00000132      0.00000132</v>
   <v>      -0.00068214     -0.00001840      0.00001840</v>
   <v>       0.00064597      0.00000132     -0.00000132</v>
   <v>      -0.00068214      0.00001840      0.00001840</v>
   <v>       0.00064597     -0.00000132     -0.00000132</v>
  </varray>
  <varray name="stress" >
   <v>       0.28335253      0.00000000      0.00000000</v>
   <v>      -0.00000000      0.28404049      0.00000000</v>
   <v>       0.00000000      0.00000000      0.28404049</v>
  </varray>
  <energy>
   <i name="e_fr_energy">   -118.98254626</i>
   <i name="e_wo_entrp">   -118.98208710</i>
   <i name="e_0_energy">     -0.00091831</i>
  </energy>
  <eigenvalues>
   <array>
    <dimension dim="1">band</dimension>
    <dimension dim="2">kpoint</dimension>
    <dimension dim="3">spin</dimension>
    <field>eigene</field>
    <field>occ</field>
    <set>
     <set comment="spin 1">
      <set comment="kpoint 1">
       <r>  -5.5733  1.0000</r>
       <r>  -2.8449  1.0000</r>
       <r>  -2.8417  1.0000</r>
       <r>  -2.8417  1.0000</r>
       <r>  -2.8417  1.0000</r>
       <r>  -2.8417  1.0000</r>
       <r>  -2.8385  1.0000</r>
       <r>  -1.3529  1.0000</r>
       <r>  -1.3529  1.0000</r>
       <r>  -1.3529  1.0000</r>
       <r>  -1.3529  1.0000</r>
       <r>  -1.1513  1.0000</r>
       <r>  -1.1512  1.0000</r>
       <r>  -1.1512  1.0000</r>
       <r>  -0.9795  1.0000</r>
       <r>  -0.9773  1.0000</r>
       <r>  -0.9773  1.0000</r>
       <r>  -0.9762  1.0000</r>
       <r>  -0.9760  1.0000</r>
       <r>  -0.9760  1.0000</r>
       <r>  -0.9759  1.0000</r>
       <r>  -0.9759  1.0000</r>
       <r>  -0.9757  1.0000</r>
       <r>  -0.9746  1.0000</r>
       <r>  -0.9746  1.0000</r>
       <r>  -0.9724  1.0000</r>
       <r>  -0.7104  1.0000</r>
       <r>  -0.7104  1.0000</r>
       <r>  -0.7104  1.0000</r>
       <r>  -0.4304  1.0000</r>
       <r>  -0.4284  1.0000</r>
       <r>  -0.4284  1.0000</r>
       <r>  -0.4284  1.0000</r>
       <r>  -0.4284  1.0000</r>
       <r>  -0.4265  1.0000</r>
       <r>  -0.0530  1.0000</r>
       <r>  -0.0513  1.0000</r>
       <r>  -0.0513  1.0000</r>
       <r>  -0.0512  1.0000</r>
       <r>  -0.0512  1.0000</r>
       <r>  -0.0496  1.0000</r>
       <r>   0.1534  1.0000</r>
       <r>   0.1539  1.0000</r>
       <r>   0.1539  1.0000</r>
       <r>   0.1560  1.0000</r>
       <r>   0.1560  1.0000</r>
       <r>   0.1561  1.0000</r>
       <r>   0.1561  1.0000</r>
       <r>   0.1561  1.0000</r>
       <r>   0.1562  1.0000</r>
       <r>   0.1562  1.0000</r>
       <r>   0.1573  1.0000</r>
       <r>   0.1573  1.0000</r>
       <r>   0.1577  1.0000</r>
       <r>   0.1587  1.0000</r>
       <r>   0.1587  1.0000</r>
       <r>   0.1591  1.0000</r>
       <r>   0.1591  1.0000</r>
       <r>   0.1591  1.0000</r>
       <r>   0.1591  1.0000</r>
       <r>   0.1592  1.0000</r>
       <r>   0.1592  1.0000</r>
       <r>   0.1606  1.0000</r>
       <r>   0.1606  1.0000</r>
       <r>   0.1632  1.0000</r>
       <r>   0.3602  1.0000</r>
       <r>   0.3626  1.0000</r>
       <r>   0.3626  1.0000</r>
       <r>   0.3629  1.0000</r>
       <r>   0.3631  1.0000</r>
       <r>   0.3631  1.0000</r>
       <r>   0.3631  1.0000</r>
       <r>   0.3632  1.0000</r>
       <r>   0.3633  1.0000</r>
       <r>   0.3637  1.0000</r>
       <r>   0.3637  1.0000</r>
       <r>   0.3661  1.0000</r>
       <r>   0.6146  1.0000</r>
       <r>   0.6146  1.0000</r>
       <r>   0.6146  1.0000</r>
       <r>   0.6146  1.0000</r>
       <r>   0.6146  1.0000</r>
       <r>   0.6146  1.0000</r>
       <r>   0.6147  1.0000</r>
       <r>   0.6147  1.0000</r>
       <r>   0.6429  1.0000</r>
       <r>   0.6429  1.0000</r>
       <r>   0.6429  1.0000</r>
       <r>   1.0075  1.0000</r>
       <r>   1.0091  1.0000</r>
       <r>   1.0092  1.0000</r>
       <r>   1.0092  1.0000</r>
       <r>   1.0092  1.0000</r>
       <r>   1.0108  1.0000</r>
       <r>   1.1325  1.0000</r>
       <r>   1.1330  1.0000</r>
       <r>   1.1338  1.0000</r>
       <r>   1.1338  1.0000</r>
       <r>   1.1343  1.0000</r>
       <r>   1.1343  1.0000</r>
       <r>   1.1343  1.0000</r>
       <r>   1.1343  1.0000</r>
       <r>   1.1348  1.0000</r>
       <r>   1.1348  1.0000</r>
       <r>   1.1356  1.0000</r>
       <r>   1.1360  1.0000</r>
       <r>   1.2847  1.0000</r>
       <r>   1.2847  1.0000</r>
       <r>   1.2864  1.0000</r>
       <r>   1.2864  1.0000</r>
       <r>   1.2866  1.0000</r>
       <r>   1.2866  1.0000</r>
       <r>   1.2867  1.0000</r>
       <r>   1.2867  1.0000</r>
       <r>   1.2869  1.0000</r>
       <r>   1.2869  1.0000</r>
       <r>   1.2885  1.0000</r>
       <r>   1.2885  1.0000</r>
       <r>   1.4098  1.0000</r>
       <r>   1.4108  1.0000</r>
       <r>   1.4108  1.0000</r>
       <r>   1.4109  1.0000</r>
       <r>   1.4109  1.0000</r>
       <r>   1.4119  1.0000</r>
       <r>   1.4406  1.0000</r>
       <r>   1.4406  1.0000</r>
       <r>   1.4421  1.0000</r>
       <r>   1.4424  1.0000</r>
       <r>   1.4424  1.0000</r>
       <r>   1.4425  1.0000</r>
       <r>   1.4425  1.0000</r>
       <r>   1.4425  1.0000</r>
       <r>   1.4426  1.0000</r>
       <r>   1.4430  1.0000</r>
       <r>   1.4445  1.0000</r>
       <r>   1.4445  1.0000</r>
       <r>   1.4483  1.0000</r>
       <r>   1.4486  1.0000</r>
       <r>   1.7122  1.0000</r>
       <r>   1.7130  1.0000</r>
       <r>   1.7130  1.0000</r>
       <r>   1.7130  1.0000</r>
       <r>   1.7130  1.0000</r>
       <r>   1.7139  1.0000</r>
       <r>   1.9833  1.0000</r>
       <r>   1.9833  1.0000</r>
       <r>   1.9834  1.0000</r>
       <r>   1.9972  1.0000</r>
       <r>   1.9972  1.0000</r>
       <r>   1.9972  1.0000</r>
       <r>   1.9972  1.0000</r>
       <r>   1.9972  1.0000</r>
       <r>   1.9972  1.0000</r>
       <r>   1.9972  1.0000</r>
       <r>   1.9972  1.0000</r>
       <r>   2.1329  1.0000</r>
       <r>   2.1333  1.0000</r>
       <r>   2.1333  1.0000</r>
       <r>   2.1333  1.0000</r>
       <r>   2.1333  1.0000</r>
       <r>   2.1333  1.0000</r>
       <r>   2.1340  1.0000</r>
       <r>   2.1341  1.0000</r>
       <r>   2.1341  1.0000</r>
       <r>   2.1341  1.0000</r>
       <r>   2.1341  1.0000</r>
       <r>   2.1345  1.0000</r>
       <r>   2.6961  1.0000</r>
       <r>   2.6961  1.0000</r>
       <r>   2.6961  1.0000</r>
       <r>   2.6961  1.0000</r>
       <r>   3.3051  1.0000</r>
       <r>   3.3053  1.0000</r>
       <r>   3.3053  1.0000</r>
       <r>   3.3062  1.0000</r>
       <r>   3.3065  1.0000</r>
       <r>   3.3065  1.0000</r>
       <r>   3.3065  1.0000</r>
       <r>   3.3065  1.0000</r>
       <r>   3.3068  1.0000</r>
       <r>   3.3078  1.0000</r>
       <r>   3.3078  1.0000</r>
       <r>   3.3080  1.0000</r>
       <r>   5.1655  0.0000</r>
       <r>   5.1655  0.0000</r>
       <r>   5.1655  0.0000</r>
       <r>   7.3030  0.0000</r>
       <r>   7.3030  0.0000</r>
       <r>   7.3030  0.0000</r>
       <r>   7.3030  0.0000</r>
       <r>   9.7844  0.0000</r>
       <r>   9.7844  0.0000</r>
       <r>   9.7880  0.0000</r>
       <r>   9.7880  0.0000</r>
       <r>   9.7884  0.0000</r>
       <r>   9.7884  0.0000</r>
       <r>   9.7884  0.0000</r>
       <r>   9.7884  0.0000</r>
       <r>   9.7888  0.0000</r>
       <r>   9.7888  0.0000</r>
       <r>   9.7923  0.0000</r>
       <r>   9.7923  0.0000</r>
       <r>  10.6360  0.0000</r>
       <r>  10.6360  0.0000</r>
       <r>  10.6360  0.0000</r>
       <r>  11.8709  0.0000</r>
       <r>  11.8737  0.0000</r>
       <r>  11.8737  0.0000</r>
       <r>  11.8737  0.0000</r>
       <r>  11.8737  0.0000</r>
       <r>  11.8764  0.0000</r>
       <r>  12.3200  0.0000</r>
      </set>
      <set comment="kpoint 2">
       <r>  -5.5525  1.0000</r>
       <r>  -3.2253  1.0000</r>
       <r>  -2.8247  1.0000</r>
       <r>  -2.8247  1.0000</r>
       <r>  -2.8247  1.0000</r>
       <r>  -2.8247  1.0000</r>
       <r>  -2.4620  1.0000</r>
       <r>  -1.3482  1.0000</r>
       <r>  -1.3482  1.0000</r>
       <r>  -1.3482  1.0000</r>
       <r>  -1.3482  1.0000</r>
       <r>  -1.1843  1.0000</r>
       <r>  -1.1842  1.0000</r>
       <r>  -1.1842  1.0000</r>
       <r>  -1.1842  1.0000</r>
       <r>  -1.1512  1.0000</r>
       <r>  -1.1415  1.0000</r>
       <r>  -1.1415  1.0000</r>
       <r>  -0.9858  1.0000</r>
       <r>  -0.9858  1.0000</r>
       <r>  -0.9858  1.0000</r>
       <r>  -0.9858  1.0000</r>
       <r>  -0.7869  1.0000</r>
       <r>  -0.7869  1.0000</r>
       <r>  -0.7869  1.0000</r>
       <r>  -0.7868  1.0000</r>
       <r>  -0.7049  1.0000</r>
       <r>  -0.7046  1.0000</r>
       <r>  -0.7046  1.0000</r>
       <r>  -0.4453  1.0000</r>
       <r>  -0.4451  1.0000</r>
       <r>  -0.4209  1.0000</r>
       <r>  -0.4209  1.0000</r>
       <r>  -0.4209  1.0000</r>
       <r>  -0.4208  1.0000</r>
       <r>  -0.1392  1.0000</r>
       <r>  -0.0489  1.0000</r>
       <r>  -0.0489  1.0000</r>
       <r>  -0.0489  1.0000</r>
       <r>  -0.0488  1.0000</r>
       <r>   0.0146  1.0000</r>
       <r>   0.0146  1.0000</r>
       <r>   0.0373  1.0000</r>
       <r>   0.1422  1.0000</r>
       <r>   0.1426  1.0000</r>
       <r>   0.1426  1.0000</r>
       <r>   0.1427  1.0000</r>
       <r>   0.1480  1.0000</r>
       <r>   0.1480  1.0000</r>
       <r>   0.1480  1.0000</r>
       <r>   0.1480  1.0000</r>
       <r>   0.1568  1.0000</r>
       <r>   0.1570  1.0000</r>
       <r>   0.1570  1.0000</r>
       <r>   0.1570  1.0000</r>
       <r>   0.1714  1.0000</r>
       <r>   0.1714  1.0000</r>
       <r>   0.1714  1.0000</r>
       <r>   0.1716  1.0000</r>
       <r>   0.1819  1.0000</r>
       <r>   0.1819  1.0000</r>
       <r>   0.1819  1.0000</r>
       <r>   0.1823  1.0000</r>
       <r>   0.2929  1.0000</r>
       <r>   0.2929  1.0000</r>
       <r>   0.2929  1.0000</r>
       <r>   0.2929  1.0000</r>
       <r>   0.3106  1.0000</r>
       <r>   0.3106  1.0000</r>
       <r>   0.3680  1.0000</r>
       <r>   0.3680  1.0000</r>
       <r>   0.3680  1.0000</r>
       <r>   0.3681  1.0000</r>
       <r>   0.4207  1.0000</r>
       <r>   0.4207  1.0000</r>
       <r>   0.4207  1.0000</r>
       <r>   0.4208  1.0000</r>
       <r>   0.6107  1.0000</r>
       <r>   0.6107  1.0000</r>
       <r>   0.6108  1.0000</r>
       <r>   0.6108  1.0000</r>
       <r>   0.6199  1.0000</r>
       <r>   0.6199  1.0000</r>
       <r>   0.6199  1.0000</r>
       <r>   0.6200  1.0000</r>
       <r>   0.6368  1.0000</r>
       <r>   0.6477  1.0000</r>
       <r>   0.6477  1.0000</r>
       <r>   0.9797  1.0000</r>
       <r>   0.9797  1.0000</r>
       <r>   0.9797  1.0000</r>
       <r>   0.9797  1.0000</r>
       <r>   1.0160  1.0000</r>
       <r>   1.0428  1.0000</r>
       <r>   1.1112  1.0000</r>
       <r>   1.1113  1.0000</r>
       <r>   1.1113  1.0000</r>
       <r>   1.1113  1.0000</r>
       <r>   1.1326  1.0000</r>
       <r>   1.1326  1.0000</r>
       <r>   1.1326  1.0000</r>
       <r>   1.1326  1.0000</r>
       <r>   1.1584  1.0000</r>
       <r>   1.1584  1.0000</r>
       <r>   1.1585  1.0000</r>
       <r>   1.1585  1.0000</r>
       <r>   1.1932  1.0000</r>
       <r>   1.1932  1.0000</r>
       <r>   1.2866  1.0000</r>
       <r>   1.2866  1.0000</r>
       <r>   1.2866  1.0000</r>
       <r>   1.2866  1.0000</r>
       <r>   1.3120  1.0000</r>
       <r>   1.3120  1.0000</r>
       <r>   1.3120  1.0000</r>
       <r>   1.3120  1.0000</r>
       <r>   1.3833  1.0000</r>
       <r>   1.3833  1.0000</r>
       <r>   1.3981  1.0000</r>
       <r>   1.3981  1.0000</r>
       <r>   1.3982  1.0000</r>
       <r>   1.3982  1.0000</r>
       <r>   1.4109  1.0000</r>
       <r>   1.4110  1.0000</r>
       <r>   1.4110  1.0000</r>
       <r>   1.4110  1.0000</r>
       <r>   1.4250  1.0000</r>
       <r>   1.4250  1.0000</r>
       <r>   1.4428  1.0000</r>
       <r>   1.4505  1.0000</r>
       <r>   1.4661  1.0000</r>
       <r>   1.4661  1.0000</r>
       <r>   1.4661  1.0000</r>
       <r>   1.4663  1.0000</r>
       <r>   1.4961  1.0000</r>
       <r>   1.4961  1.0000</r>
       <r>   1.4961  1.0000</r>
       <r>   1.4961  1.0000</r>
       <r>   1.6782  1.0000</r>
       <r>   1.7191  1.0000</r>
       <r>   1.7191  1.0000</r>
       <r>   1.7191  1.0000</r>
       <r>   1.7191  1.0000</r>
       <r>   1.7480  1.0000</r>
       <r>   1.9223  1.0000</r>
       <r>   1.9223  1.0000</r>
       <r>   1.9223  1.0000</r>
       <r>   1.9223  1.0000</r>
       <r>   1.9762  1.0000</r>
       <r>   1.9762  1.0000</r>
       <r>   1.9810  1.0000</r>
       <r>   1.9913  1.0000</r>
       <r>   1.9913  1.0000</r>
       <r>   1.9913  1.0000</r>
       <r>   1.9913  1.0000</r>
       <r>   2.0959  1.0000</r>
       <r>   2.0959  1.0000</r>
       <r>   2.1249  1.0000</r>
       <r>   2.1249  1.0000</r>
       <r>   2.1249  1.0000</r>
       <r>   2.1249  1.0000</r>
       <r>   2.1249  1.0000</r>
       <r>   2.1249  1.0000</r>
       <r>   2.1329  1.0000</r>
       <r>   2.1333  1.0000</r>
       <r>   2.1341  1.0000</r>
       <r>   2.1345  1.0000</r>
       <r>   2.7472  1.0000</r>
       <r>   2.7472  1.0000</r>
       <r>   2.7472  1.0000</r>
       <r>   2.7472  1.0000</r>
       <r>   3.0388  1.0000</r>
       <r>   3.0388  1.0000</r>
       <r>   3.0388  1.0000</r>
       <r>   3.0388  1.0000</r>
       <r>   3.3042  1.0000</r>
       <r>   3.3042  1.0000</r>
       <r>   3.3042  1.0000</r>
       <r>   3.3042  1.0000</r>
       <r>   3.6201  1.0000</r>
       <r>   3.6201  1.0000</r>
       <r>   3.6201  1.0000</r>
       <r>   3.6201  1.0000</r>
       <r>   5.0228  0.0000</r>
       <r>   5.2216  0.0000</r>
       <r>   5.2216  0.0000</r>
       <r>   7.3633  0.0000</r>
       <r>   7.3633  0.0000</r>
       <r>   7.3633  0.0000</r>
       <r>   7.3633  0.0000</r>
       <r>   9.2180  0.0000</r>
       <r>   9.2180  0.0000</r>
       <r>   9.4780  0.0000</r>
       <r>   9.4780  0.0000</r>
       <r>   9.4780  0.0000</r>
       <r>   9.4780  0.0000</r>
       <r>   9.8165  0.0000</r>
       <r>   9.8166  0.0000</r>
       <r>   9.8166  0.0000</r>
       <r>   9.8166  0.0000</r>
       <r>  10.3790  0.0000</r>
       <r>  10.3790  0.0000</r>
       <r>  10.6438  0.0000</r>
       <r>  10.6438  0.0000</r>
       <r>  10.8202  0.0000</r>
       <r>  11.7511  0.0000</r>
       <r>  11.7511  0.0000</r>
       <r>  12.0257  0.0000</r>
       <r>  12.0257  0.0000</r>
       <r>  12.0257  0.0000</r>
       <r>  12.0257  0.0000</r>
       <r>  12.4831  0.0000</r>
      </set>
      <set comment="kpoint 3">
       <r>  -5.4899  1.0000</r>
       <r>  -3.5987  1.0000</r>
       <r>  -2.7739  1.0000</r>
       <r>  -2.7739  1.0000</r>
       <r>  -2.7739  1.0000</r>
       <r>  -2.7739  1.0000</r>
       <r>  -2.1056  1.0000</r>
       <r>  -1.4054  1.0000</r>
       <r>  -1.4054  1.0000</r>
       <r>  -1.4054  1.0000</r>
       <r>  -1.4054  1.0000</r>
       <r>  -1.3343  1.0000</r>
       <r>  -1.3343  1.0000</r>
       <r>  -1.3343  1.0000</r>
       <r>  -1.3342  1.0000</r>
       <r>  -1.1522  1.0000</r>
       <r>  -1.1126  1.0000</r>
       <r>  -1.1126  1.0000</r>
       <r>  -1.0133  1.0000</r>
       <r>  -1.0133  1.0000</r>
       <r>  -1.0133  1.0000</r>
       <r>  -1.0133  1.0000</r>
       <r>  -0.6885  1.0000</r>
       <r>  -0.6872  1.0000</r>
       <r>  -0.6872  1.0000</r>
       <r>  -0.6206  1.0000</r>
       <r>  -0.6206  1.0000</r>
       <r>  -0.6206  1.0000</r>
       <r>  -0.6206  1.0000</r>
       <r>  -0.4925  1.0000</r>
       <r>  -0.4924  1.0000</r>
       <r>  -0.3987  1.0000</r>
       <r>  -0.3987  1.0000</r>
       <r>  -0.3987  1.0000</r>
       <r>  -0.3987  1.0000</r>
       <r>  -0.2251  1.0000</r>
       <r>  -0.1140  1.0000</r>
       <r>  -0.1140  1.0000</r>
       <r>  -0.0418  1.0000</r>
       <r>  -0.0418  1.0000</r>
       <r>  -0.0418  1.0000</r>
       <r>  -0.0418  1.0000</r>
       <r>   0.1224  1.0000</r>
       <r>   0.1226  1.0000</r>
       <r>   0.1226  1.0000</r>
       <r>   0.1227  1.0000</r>
       <r>   0.1243  1.0000</r>
       <r>   0.1243  1.0000</r>
       <r>   0.1243  1.0000</r>
       <r>   0.1243  1.0000</r>
       <r>   0.1249  1.0000</r>
       <r>   0.1592  1.0000</r>
       <r>   0.1593  1.0000</r>
       <r>   0.1593  1.0000</r>
       <r>   0.1593  1.0000</r>
       <r>   0.1793  1.0000</r>
       <r>   0.1793  1.0000</r>
       <r>   0.1793  1.0000</r>
       <r>   0.1796  1.0000</r>
       <r>   0.2127  1.0000</r>
       <r>   0.2127  1.0000</r>
       <r>   0.2127  1.0000</r>
       <r>   0.2127  1.0000</r>
       <r>   0.2482  1.0000</r>
       <r>   0.2483  1.0000</r>
       <r>   0.2483  1.0000</r>
       <r>   0.2483  1.0000</r>
       <r>   0.3825  1.0000</r>
       <r>   0.3825  1.0000</r>
       <r>   0.3825  1.0000</r>
       <r>   0.3825  1.0000</r>
       <r>   0.4670  1.0000</r>
       <r>   0.4670  1.0000</r>
       <r>   0.4670  1.0000</r>
       <r>   0.4670  1.0000</r>
       <r>   0.4774  1.0000</r>
       <r>   0.4774  1.0000</r>
       <r>   0.5992  1.0000</r>
       <r>   0.5992  1.0000</r>
       <r>   0.5992  1.0000</r>
       <r>   0.5993  1.0000</r>
       <r>   0.6186  1.0000</r>
       <r>   0.6358  1.0000</r>
       <r>   0.6358  1.0000</r>
       <r>   0.6358  1.0000</r>
       <r>   0.6359  1.0000</r>
       <r>   0.6624  1.0000</r>
       <r>   0.6624  1.0000</r>
       <r>   0.9147  1.0000</r>
       <r>   0.9147  1.0000</r>
       <r>   0.9147  1.0000</r>
       <r>   0.9147  1.0000</r>
       <r>   1.0486  1.0000</r>
       <r>   1.0569  1.0000</r>
       <r>   1.0569  1.0000</r>
       <r>   1.0569  1.0000</r>
       <r>   1.0569  1.0000</r>
       <r>   1.1045  1.0000</r>
       <r>   1.1045  1.0000</r>
       <r>   1.1360  1.0000</r>
       <r>   1.1539  1.0000</r>
       <r>   1.1539  1.0000</r>
       <r>   1.1539  1.0000</r>
       <r>   1.1542  1.0000</r>
       <r>   1.1988  1.0000</r>
       <r>   1.1988  1.0000</r>
       <r>   1.1988  1.0000</r>
       <r>   1.1989  1.0000</r>
       <r>   1.2865  1.0000</r>
       <r>   1.2865  1.0000</r>
       <r>   1.2865  1.0000</r>
       <r>   1.2865  1.0000</r>
       <r>   1.3598  1.0000</r>
       <r>   1.3598  1.0000</r>
       <r>   1.3600  1.0000</r>
       <r>   1.3600  1.0000</r>
       <r>   1.3629  1.0000</r>
       <r>   1.3629  1.0000</r>
       <r>   1.3631  1.0000</r>
       <r>   1.3631  1.0000</r>
       <r>   1.4107  1.0000</r>
       <r>   1.4107  1.0000</r>
       <r>   1.4107  1.0000</r>
       <r>   1.4107  1.0000</r>
       <r>   1.4263  1.0000</r>
       <r>   1.4572  1.0000</r>
       <r>   1.4649  1.0000</r>
       <r>   1.4650  1.0000</r>
       <r>   1.4819  1.0000</r>
       <r>   1.4819  1.0000</r>
       <r>   1.5222  1.0000</r>
       <r>   1.5222  1.0000</r>
       <r>   1.5222  1.0000</r>
       <r>   1.5223  1.0000</r>
       <r>   1.5582  1.0000</r>
       <r>   1.5582  1.0000</r>
       <r>   1.5583  1.0000</r>
       <r>   1.5583  1.0000</r>
       <r>   1.6440  1.0000</r>
       <r>   1.7422  1.0000</r>
       <r>   1.7422  1.0000</r>
       <r>   1.7422  1.0000</r>
       <r>   1.7422  1.0000</r>
       <r>   1.7458  1.0000</r>
       <r>   1.7458  1.0000</r>
       <r>   1.7458  1.0000</r>
       <r>   1.7458  1.0000</r>
       <r>   1.7824  1.0000</r>
       <r>   1.9549  1.0000</r>
       <r>   1.9549  1.0000</r>
       <r>   1.9736  1.0000</r>
       <r>   1.9736  1.0000</r>
       <r>   1.9736  1.0000</r>
       <r>   1.9736  1.0000</r>
       <r>   1.9741  1.0000</r>
       <r>   1.9912  1.0000</r>
       <r>   1.9912  1.0000</r>
       <r>   2.0979  1.0000</r>
       <r>   2.0979  1.0000</r>
       <r>   2.0979  1.0000</r>
       <r>   2.0979  1.0000</r>
       <r>   2.0997  1.0000</r>
       <r>   2.0997  1.0000</r>
       <r>   2.1329  1.0000</r>
       <r>   2.1334  1.0000</r>
       <r>   2.1340  1.0000</r>
       <r>   2.1345  1.0000</r>
       <r>   2.8081  1.0000</r>
       <r>   2.8081  1.0000</r>
       <r>   2.8081  1.0000</r>
       <r>   2.8081  1.0000</r>
       <r>   2.8548  1.0000</r>
       <r>   2.8549  1.0000</r>
       <r>   2.8549  1.0000</r>
       <r>   2.8549  1.0000</r>
       <r>   3.2969  1.0000</r>
       <r>   3.2969  1.0000</r>
       <r>   3.2969  1.0000</r>
       <r>   3.2969  1.0000</r>
       <r>   3.9870  0.0000</r>
       <r>   3.9870  0.0000</r>
       <r>   3.9870  0.0000</r>
       <r>   3.9870  0.0000</r>
       <r>   4.6445  0.0000</r>
       <r>   5.3824  0.0000</r>
       <r>   5.3824  0.0000</r>
       <r>   7.5417  0.0000</r>
       <r>   7.5417  0.0000</r>
       <r>   7.5418  0.0000</r>
       <r>   7.5418  0.0000</r>
       <r>   8.6691  0.0000</r>
       <r>   8.6691  0.0000</r>
       <r>   8.8321  0.0000</r>
       <r>   8.8321  0.0000</r>
       <r>   8.8321  0.0000</r>
       <r>   8.8321  0.0000</r>
       <r>   9.9005  0.0000</r>
       <r>   9.9005  0.0000</r>
       <r>   9.9005  0.0000</r>
       <r>   9.9005  0.0000</r>
       <r>  10.6675  0.0000</r>
       <r>  10.6675  0.0000</r>
       <r>  10.9886  0.0000</r>
       <r>  10.9886  0.0000</r>
       <r>  11.3239  0.0000</r>
       <r>  11.5510  0.0000</r>
       <r>  11.5510  0.0000</r>
       <r>  12.0438  0.0000</r>
       <r>  12.0438  0.0000</r>
       <r>  12.0439  0.0000</r>
       <r>  12.0443  0.0000</r>
       <r>  12.1476  0.0000</r>
      </set>
      <set comment="kpoint 4">
       <r>  -5.3860  1.0000</r>
       <r>  -3.9519  1.0000</r>
       <r>  -2.6902  1.0000</r>
       <r>  -2.6902  1.0000</r>
       <r>  -2.6902  1.0000</r>
       <r>  -2.6902  1.0000</r>
       <r>  -1.7952  1.0000</r>
       <r>  -1.6313  1.0000</r>
       <r>  -1.6313  1.0000</r>
       <r>  -1.6313  1.0000</r>
       <r>  -1.6313  1.0000</r>
       <r>  -1.3114  1.0000</r>
       <r>  -1.3114  1.0000</r>
       <r>  -1.3114  1.0000</r>
       <r>  -1.3114  1.0000</r>
       <r>  -1.1571  1.0000</r>
       <r>  -1.0656  1.0000</r>
       <r>  -1.0656  1.0000</r>
       <r>  -1.0534  1.0000</r>
       <r>  -1.0534  1.0000</r>
       <r>  -1.0534  1.0000</r>
       <r>  -1.0534  1.0000</r>
       <r>  -0.6614  1.0000</r>
       <r>  -0.6581  1.0000</r>
       <r>  -0.6581  1.0000</r>
       <r>  -0.5636  1.0000</r>
       <r>  -0.5636  1.0000</r>
       <r>  -0.4782  1.0000</r>
       <r>  -0.4782  1.0000</r>
       <r>  -0.4781  1.0000</r>
       <r>  -0.4781  1.0000</r>
       <r>  -0.3629  1.0000</r>
       <r>  -0.3629  1.0000</r>
       <r>  -0.3629  1.0000</r>
       <r>  -0.3629  1.0000</r>
       <r>  -0.3075  1.0000</r>
       <r>  -0.2296  1.0000</r>
       <r>  -0.2296  1.0000</r>
       <r>  -0.0303  1.0000</r>
       <r>  -0.0302  1.0000</r>
       <r>  -0.0302  1.0000</r>
       <r>  -0.0302  1.0000</r>
       <r>   0.0864  1.0000</r>
       <r>   0.0865  1.0000</r>
       <r>   0.0865  1.0000</r>
       <r>   0.0865  1.0000</r>
       <r>   0.0998  1.0000</r>
       <r>   0.0998  1.0000</r>
       <r>   0.0998  1.0000</r>
       <r>   0.0999  1.0000</r>
       <r>   0.1273  1.0000</r>
       <r>   0.1273  1.0000</r>
       <r>   0.1273  1.0000</r>
       <r>   0.1273  1.0000</r>
       <r>   0.1629  1.0000</r>
       <r>   0.1630  1.0000</r>
       <r>   0.1630  1.0000</r>
       <r>   0.1631  1.0000</r>
       <r>   0.1833  1.0000</r>
       <r>   0.1833  1.0000</r>
       <r>   0.1833  1.0000</r>
       <r>   0.1835  1.0000</r>
       <r>   0.2103  1.0000</r>
       <r>   0.3516  1.0000</r>
       <r>   0.3516  1.0000</r>
       <r>   0.3516  1.0000</r>
       <r>   0.3517  1.0000</r>
       <r>   0.4070  1.0000</r>
       <r>   0.4070  1.0000</r>
       <r>   0.4070  1.0000</r>
       <r>   0.4070  1.0000</r>
       <r>   0.5069  1.0000</r>
       <r>   0.5069  1.0000</r>
       <r>   0.5069  1.0000</r>
       <r>   0.5070  1.0000</r>
       <r>   0.5807  1.0000</r>
       <r>   0.5807  1.0000</r>
       <r>   0.5807  1.0000</r>
       <r>   0.5807  1.0000</r>
       <r>   0.5888  1.0000</r>
       <r>   0.6559  1.0000</r>
       <r>   0.6559  1.0000</r>
       <r>   0.6620  1.0000</r>
       <r>   0.6620  1.0000</r>
       <r>   0.6620  1.0000</r>
       <r>   0.6620  1.0000</r>
       <r>   0.6867  1.0000</r>
       <r>   0.6867  1.0000</r>
       <r>   0.8403  1.0000</r>
       <r>   0.8404  1.0000</r>
       <r>   0.8404  1.0000</r>
       <r>   0.8404  1.0000</r>
       <r>   0.9907  1.0000</r>
       <r>   0.9907  1.0000</r>
       <r>   0.9907  1.0000</r>
       <r>   0.9907  1.0000</r>
       <r>   1.0215  1.0000</r>
       <r>   1.0215  1.0000</r>
       <r>   1.0964  1.0000</r>
       <r>   1.1930  1.0000</r>
       <r>   1.1931  1.0000</r>
       <r>   1.1931  1.0000</r>
       <r>   1.1931  1.0000</r>
       <r>   1.2468  1.0000</r>
       <r>   1.2468  1.0000</r>
       <r>   1.2468  1.0000</r>
       <r>   1.2468  1.0000</r>
       <r>   1.2867  1.0000</r>
       <r>   1.2867  1.0000</r>
       <r>   1.2867  1.0000</r>
       <r>   1.2867  1.0000</r>
       <r>   1.3121  1.0000</r>
       <r>   1.3361  1.0000</r>
       <r>   1.3361  1.0000</r>
       <r>   1.3361  1.0000</r>
       <r>   1.3361  1.0000</r>
       <r>   1.3941  1.0000</r>
       <r>   1.3941  1.0000</r>
       <r>   1.3941  1.0000</r>
       <r>   1.3942  1.0000</r>
       <r>   1.3994  1.0000</r>
       <r>   1.4085  1.0000</r>
       <r>   1.4085  1.0000</r>
       <r>   1.4085  1.0000</r>
       <r>   1.4085  1.0000</r>
       <r>   1.4683  1.0000</r>
       <r>   1.5243  1.0000</r>
       <r>   1.5243  1.0000</r>
       <r>   1.5276  1.0000</r>
       <r>   1.5276  1.0000</r>
       <r>   1.5276  1.0000</r>
       <r>   1.5276  1.0000</r>
       <r>   1.5806  1.0000</r>
       <r>   1.5806  1.0000</r>
       <r>   1.5912  1.0000</r>
       <r>   1.5912  1.0000</r>
       <r>   1.5912  1.0000</r>
       <r>   1.5912  1.0000</r>
       <r>   1.6111  1.0000</r>
       <r>   1.6277  1.0000</r>
       <r>   1.6277  1.0000</r>
       <r>   1.6277  1.0000</r>
       <r>   1.6277  1.0000</r>
       <r>   1.7932  1.0000</r>
       <r>   1.7932  1.0000</r>
       <r>   1.7932  1.0000</r>
       <r>   1.7932  1.0000</r>
       <r>   1.8158  1.0000</r>
       <r>   1.8372  1.0000</r>
       <r>   1.8372  1.0000</r>
       <r>   1.9200  1.0000</r>
       <r>   1.9200  1.0000</r>
       <r>   1.9447  1.0000</r>
       <r>   1.9447  1.0000</r>
       <r>   1.9447  1.0000</r>
       <r>   1.9447  1.0000</r>
       <r>   1.9626  1.0000</r>
       <r>   2.0549  1.0000</r>
       <r>   2.0549  1.0000</r>
       <r>   2.0549  1.0000</r>
       <r>   2.0549  1.0000</r>
       <r>   2.0588  1.0000</r>
       <r>   2.0588  1.0000</r>
       <r>   2.1329  1.0000</r>
       <r>   2.1334  1.0000</r>
       <r>   2.1340  1.0000</r>
       <r>   2.1345  1.0000</r>
       <r>   2.6064  1.0000</r>
       <r>   2.6064  1.0000</r>
       <r>   2.6064  1.0000</r>
       <r>   2.6064  1.0000</r>
       <r>   2.9661  1.0000</r>
       <r>   2.9661  1.0000</r>
       <r>   2.9661  1.0000</r>
       <r>   2.9661  1.0000</r>
       <r>   3.2839  1.0000</r>
       <r>   3.2839  1.0000</r>
       <r>   3.2839  1.0000</r>
       <r>   3.2839  1.0000</r>
       <r>   4.1282  0.0000</r>
       <r>   4.4124  0.0000</r>
       <r>   4.4124  0.0000</r>
       <r>   4.4124  0.0000</r>
       <r>   4.4124  0.0000</r>
       <r>   5.6298  0.0000</r>
       <r>   5.6298  0.0000</r>
       <r>   7.8310  0.0000</r>
       <r>   7.8310  0.0000</r>
       <r>   7.8311  0.0000</r>
       <r>   7.8311  0.0000</r>
       <r>   8.1086  0.0000</r>
       <r>   8.1086  0.0000</r>
       <r>   8.1086  0.0000</r>
       <r>   8.1087  0.0000</r>
       <r>   8.1431  0.0000</r>
       <r>   8.1431  0.0000</r>
       <r>  10.0386  0.0000</r>
       <r>  10.0386  0.0000</r>
       <r>  10.0386  0.0000</r>
       <r>  10.0386  0.0000</r>
       <r>  10.7076  0.0000</r>
       <r>  10.7076  0.0000</r>
       <r>  11.2828  0.0000</r>
       <r>  11.2828  0.0000</r>
       <r>  11.2828  0.0000</r>
       <r>  11.2828  0.0000</r>
       <r>  11.3619  0.0000</r>
       <r>  11.3619  0.0000</r>
       <r>  11.6160  0.0000</r>
       <r>  11.6160  0.0000</r>
       <r>  11.8492  0.0000</r>
       <r>  11.8492  0.0000</r>
      </set>
      <set comment="kpoint 5">
       <r>  -5.2414  1.0000</r>
       <r>  -4.2783  1.0000</r>
       <r>  -2.5750  1.0000</r>
       <r>  -2.5749  1.0000</r>
       <r>  -2.5749  1.0000</r>
       <r>  -2.5749  1.0000</r>
       <r>  -1.8538  1.0000</r>
       <r>  -1.8538  1.0000</r>
       <r>  -1.8538  1.0000</r>
       <r>  -1.8538  1.0000</r>
       <r>  -1.5501  1.0000</r>
       <r>  -1.2804  1.0000</r>
       <r>  -1.2804  1.0000</r>
       <r>  -1.2804  1.0000</r>
       <r>  -1.2804  1.0000</r>
       <r>  -1.1714  1.0000</r>
       <r>  -1.1005  1.0000</r>
       <r>  -1.1005  1.0000</r>
       <r>  -1.1005  1.0000</r>
       <r>  -1.1005  1.0000</r>
       <r>  -1.0023  1.0000</r>
       <r>  -1.0022  1.0000</r>
       <r>  -0.6502  1.0000</r>
       <r>  -0.6502  1.0000</r>
       <r>  -0.6240  1.0000</r>
       <r>  -0.6173  1.0000</r>
       <r>  -0.6173  1.0000</r>
       <r>  -0.3850  1.0000</r>
       <r>  -0.3594  1.0000</r>
       <r>  -0.3594  1.0000</r>
       <r>  -0.3594  1.0000</r>
       <r>  -0.3594  1.0000</r>
       <r>  -0.3322  1.0000</r>
       <r>  -0.3322  1.0000</r>
       <r>  -0.3160  1.0000</r>
       <r>  -0.3160  1.0000</r>
       <r>  -0.3160  1.0000</r>
       <r>  -0.3160  1.0000</r>
       <r>  -0.0146  1.0000</r>
       <r>  -0.0146  1.0000</r>
       <r>  -0.0146  1.0000</r>
       <r>  -0.0145  1.0000</r>
       <r>   0.0371  1.0000</r>
       <r>   0.0373  1.0000</r>
       <r>   0.0373  1.0000</r>
       <r>   0.0373  1.0000</r>
       <r>   0.0433  1.0000</r>
       <r>   0.0434  1.0000</r>
       <r>   0.0434  1.0000</r>
       <r>   0.0435  1.0000</r>
       <r>   0.0754  1.0000</r>
       <r>   0.0754  1.0000</r>
       <r>   0.0754  1.0000</r>
       <r>   0.0755  1.0000</r>
       <r>   0.1675  1.0000</r>
       <r>   0.1677  1.0000</r>
       <r>   0.1677  1.0000</r>
       <r>   0.1677  1.0000</r>
       <r>   0.1838  1.0000</r>
       <r>   0.1838  1.0000</r>
       <r>   0.1838  1.0000</r>
       <r>   0.1841  1.0000</r>
       <r>   0.2914  1.0000</r>
       <r>   0.4273  1.0000</r>
       <r>   0.4273  1.0000</r>
       <r>   0.4273  1.0000</r>
       <r>   0.4273  1.0000</r>
       <r>   0.4991  1.0000</r>
       <r>   0.4991  1.0000</r>
       <r>   0.4991  1.0000</r>
       <r>   0.4991  1.0000</r>
       <r>   0.5465  1.0000</r>
       <r>   0.5465  1.0000</r>
       <r>   0.5465  1.0000</r>
       <r>   0.5465  1.0000</r>
       <r>   0.5478  1.0000</r>
       <r>   0.5561  1.0000</r>
       <r>   0.5561  1.0000</r>
       <r>   0.5562  1.0000</r>
       <r>   0.5562  1.0000</r>
       <r>   0.6980  1.0000</r>
       <r>   0.6980  1.0000</r>
       <r>   0.6980  1.0000</r>
       <r>   0.6980  1.0000</r>
       <r>   0.7205  1.0000</r>
       <r>   0.7205  1.0000</r>
       <r>   0.7676  1.0000</r>
       <r>   0.7676  1.0000</r>
       <r>   0.7676  1.0000</r>
       <r>   0.7676  1.0000</r>
       <r>   0.8451  1.0000</r>
       <r>   0.8451  1.0000</r>
       <r>   0.9224  1.0000</r>
       <r>   0.9225  1.0000</r>
       <r>   0.9225  1.0000</r>
       <r>   0.9225  1.0000</r>
       <r>   0.9452  1.0000</r>
       <r>   0.9452  1.0000</r>
       <r>   1.1519  1.0000</r>
       <r>   1.2423  1.0000</r>
       <r>   1.2423  1.0000</r>
       <r>   1.2423  1.0000</r>
       <r>   1.2423  1.0000</r>
       <r>   1.2875  1.0000</r>
       <r>   1.2876  1.0000</r>
       <r>   1.2876  1.0000</r>
       <r>   1.2876  1.0000</r>
       <r>   1.2941  1.0000</r>
       <r>   1.2941  1.0000</r>
       <r>   1.2941  1.0000</r>
       <r>   1.2941  1.0000</r>
       <r>   1.2979  1.0000</r>
       <r>   1.2979  1.0000</r>
       <r>   1.2979  1.0000</r>
       <r>   1.2979  1.0000</r>
       <r>   1.3167  1.0000</r>
       <r>   1.3167  1.0000</r>
       <r>   1.3167  1.0000</r>
       <r>   1.3168  1.0000</r>
       <r>   1.3629  1.0000</r>
       <r>   1.3992  1.0000</r>
       <r>   1.3993  1.0000</r>
       <r>   1.3994  1.0000</r>
       <r>   1.3994  1.0000</r>
       <r>   1.4021  1.0000</r>
       <r>   1.4021  1.0000</r>
       <r>   1.4021  1.0000</r>
       <r>   1.4023  1.0000</r>
       <r>   1.4835  1.0000</r>
       <r>   1.5800  1.0000</r>
       <r>   1.5881  1.0000</r>
       <r>   1.5954  1.0000</r>
       <r>   1.5957  1.0000</r>
       <r>   1.6526  1.0000</r>
       <r>   1.6526  1.0000</r>
       <r>   1.6631  1.0000</r>
       <r>   1.6631  1.0000</r>
       <r>   1.6631  1.0000</r>
       <r>   1.6631  1.0000</r>
       <r>   1.6774  1.0000</r>
       <r>   1.6774  1.0000</r>
       <r>   1.7024  1.0000</r>
       <r>   1.7024  1.0000</r>
       <r>   1.7024  1.0000</r>
       <r>   1.7024  1.0000</r>
       <r>   1.8475  1.0000</r>
       <r>   1.8722  1.0000</r>
       <r>   1.8722  1.0000</r>
       <r>   1.8772  1.0000</r>
       <r>   1.8772  1.0000</r>
       <r>   1.8772  1.0000</r>
       <r>   1.8772  1.0000</r>
       <r>   1.9050  1.0000</r>
       <r>   1.9050  1.0000</r>
       <r>   1.9050  1.0000</r>
       <r>   1.9051  1.0000</r>
       <r>   1.9468  1.0000</r>
       <r>   1.9983  1.0000</r>
       <r>   1.9983  1.0000</r>
       <r>   1.9983  1.0000</r>
       <r>   1.9983  1.0000</r>
       <r>   2.0035  1.0000</r>
       <r>   2.0035  1.0000</r>
       <r>   2.1330  1.0000</r>
       <r>   2.1335  1.0000</r>
       <r>   2.1339  1.0000</r>
       <r>   2.1345  1.0000</r>
       <r>   2.4271  1.0000</r>
       <r>   2.4271  1.0000</r>
       <r>   2.4271  1.0000</r>
       <r>   2.4271  1.0000</r>
       <r>   3.0612  1.0000</r>
       <r>   3.0612  1.0000</r>
       <r>   3.0612  1.0000</r>
       <r>   3.0612  1.0000</r>
       <r>   3.2636  1.0000</r>
       <r>   3.2637  1.0000</r>
       <r>   3.2637  1.0000</r>
       <r>   3.2637  1.0000</r>
       <r>   3.5552  1.0000</r>
       <r>   4.8983  0.0000</r>
       <r>   4.8983  0.0000</r>
       <r>   4.8983  0.0000</r>
       <r>   4.8983  0.0000</r>
       <r>   5.9449  0.0000</r>
       <r>   5.9449  0.0000</r>
       <r>   7.3870  0.0000</r>
       <r>   7.3870  0.0000</r>
       <r>   7.3871  0.0000</r>
       <r>   7.3871  0.0000</r>
       <r>   7.6415  0.0000</r>
       <r>   7.6415  0.0000</r>
       <r>   8.2208  0.0000</r>
       <r>   8.2208  0.0000</r>
       <r>   8.2208  0.0000</r>
       <r>   8.2208  0.0000</r>
       <r>  10.2286  0.0000</r>
       <r>  10.2286  0.0000</r>
       <r>  10.2286  0.0000</r>
       <r>  10.2286  0.0000</r>
       <r>  10.5557  0.0000</r>
       <r>  10.5558  0.0000</r>
       <r>  10.5558  0.0000</r>
       <r>  10.5558  0.0000</r>
       <r>  10.7650  0.0000</r>
       <r>  10.7650  0.0000</r>
       <r>  11.1961  0.0000</r>
       <r>  11.1961  0.0000</r>
       <r>  11.4456  0.0000</r>
       <r>  11.4456  0.0000</r>
       <r>  11.4456  0.0000</r>
       <r>  11.4456  0.0000</r>
      </set>
      <set comment="kpoint 6">
       <r>  -5.0568  1.0000</r>
       <r>  -4.5733  1.0000</r>
       <r>  -2.4302  1.0000</r>
       <r>  -2.4302  1.0000</r>
       <r>  -2.4302  1.0000</r>
       <r>  -2.4302  1.0000</r>
       <r>  -2.0651  1.0000</r>
       <r>  -2.0651  1.0000</r>
       <r>  -2.0651  1.0000</r>
       <r>  -2.0651  1.0000</r>
       <r>  -1.3768  1.0000</r>
       <r>  -1.2421  1.0000</r>
       <r>  -1.2421  1.0000</r>
       <r>  -1.2421  1.0000</r>
       <r>  -1.2421  1.0000</r>
       <r>  -1.2037  1.0000</r>
       <r>  -1.1499  1.0000</r>
       <r>  -1.1499  1.0000</r>
       <r>  -1.1499  1.0000</r>
       <r>  -1.1499  1.0000</r>
       <r>  -0.9250  1.0000</r>
       <r>  -0.9250  1.0000</r>
       <r>  -0.7438  1.0000</r>
       <r>  -0.7438  1.0000</r>
       <r>  -0.5769  1.0000</r>
       <r>  -0.5644  1.0000</r>
       <r>  -0.5644  1.0000</r>
       <r>  -0.4565  1.0000</r>
       <r>  -0.4221  1.0000</r>
       <r>  -0.4221  1.0000</r>
       <r>  -0.2692  1.0000</r>
       <r>  -0.2692  1.0000</r>
       <r>  -0.2692  1.0000</r>
       <r>  -0.2691  1.0000</r>
       <r>  -0.2646  1.0000</r>
       <r>  -0.2646  1.0000</r>
       <r>  -0.2645  1.0000</r>
       <r>  -0.2645  1.0000</r>
       <r>  -0.0276  1.0000</r>
       <r>  -0.0276  1.0000</r>
       <r>  -0.0276  1.0000</r>
       <r>  -0.0276  1.0000</r>
       <r>  -0.0170  1.0000</r>
       <r>  -0.0170  1.0000</r>
       <r>  -0.0170  1.0000</r>
       <r>  -0.0169  1.0000</r>
       <r>   0.0046  1.0000</r>
       <r>   0.0047  1.0000</r>
       <r>   0.0047  1.0000</r>
       <r>   0.0047  1.0000</r>
       <r>   0.0507  1.0000</r>
       <r>   0.0507  1.0000</r>
       <r>   0.0507  1.0000</r>
       <r>   0.0507  1.0000</r>
       <r>   0.1724  1.0000</r>
       <r>   0.1728  1.0000</r>
       <r>   0.1728  1.0000</r>
       <r>   0.1729  1.0000</r>
       <r>   0.1817  1.0000</r>
       <r>   0.1817  1.0000</r>
       <r>   0.1817  1.0000</r>
       <r>   0.1822  1.0000</r>
       <r>   0.3670  1.0000</r>
       <r>   0.4610  1.0000</r>
       <r>   0.4610  1.0000</r>
       <r>   0.4611  1.0000</r>
       <r>   0.4611  1.0000</r>
       <r>   0.4965  1.0000</r>
       <r>   0.5268  1.0000</r>
       <r>   0.5268  1.0000</r>
       <r>   0.5269  1.0000</r>
       <r>   0.5269  1.0000</r>
       <r>   0.5904  1.0000</r>
       <r>   0.5905  1.0000</r>
       <r>   0.5905  1.0000</r>
       <r>   0.5905  1.0000</r>
       <r>   0.6660  1.0000</r>
       <r>   0.6660  1.0000</r>
       <r>   0.6660  1.0000</r>
       <r>   0.6660  1.0000</r>
       <r>   0.7006  1.0000</r>
       <r>   0.7007  1.0000</r>
       <r>   0.7007  1.0000</r>
       <r>   0.7007  1.0000</r>
       <r>   0.7432  1.0000</r>
       <r>   0.7432  1.0000</r>
       <r>   0.7432  1.0000</r>
       <r>   0.7432  1.0000</r>
       <r>   0.7636  1.0000</r>
       <r>   0.7636  1.0000</r>
       <r>   0.8569  1.0000</r>
       <r>   0.8569  1.0000</r>
       <r>   0.8569  1.0000</r>
       <r>   0.8569  1.0000</r>
       <r>   0.8764  1.0000</r>
       <r>   0.8764  1.0000</r>
       <r>   1.0431  1.0000</r>
       <r>   1.0431  1.0000</r>
       <r>   1.0719  1.0000</r>
       <r>   1.0719  1.0000</r>
       <r>   1.0719  1.0000</r>
       <r>   1.0719  1.0000</r>
       <r>   1.2098  1.0000</r>
       <r>   1.2901  1.0000</r>
       <r>   1.2901  1.0000</r>
       <r>   1.2901  1.0000</r>
       <r>   1.2901  1.0000</r>
       <r>   1.2940  1.0000</r>
       <r>   1.2941  1.0000</r>
       <r>   1.2941  1.0000</r>
       <r>   1.2941  1.0000</r>
       <r>   1.3035  1.0000</r>
       <r>   1.3035  1.0000</r>
[...]
       <r>   0.8055  1.0000</r>
       <r>   0.8056  1.0000</r>
       <r>   0.8056  1.0000</r>
       <r>   0.8056  1.0000</r>
       <r>   0.8235  1.0000</r>
       <r>   0.8235  1.0000</r>
       <r>   0.8235  1.0000</r>
       <r>   0.8235  1.0000</r>
       <r>   1.1284  1.0000</r>
       <r>   1.1284  1.0000</r>
       <r>   1.1284  1.0000</r>
       <r>   1.1284  1.0000</r>
       <r>   1.1756  1.0000</r>
       <r>   1.1756  1.0000</r>
       <r>   1.1759  1.0000</r>
       <r>   1.1759  1.0000</r>
       <r>   1.1759  1.0000</r>
       <r>   1.1759  1.0000</r>
       <r>   1.1762  1.0000</r>
       <r>   1.1762  1.0000</r>
       <r>   1.3975  1.0000</r>
       <r>   1.3981  1.0000</r>
       <r>   1.3981  1.0000</r>
       <r>   1.3983  1.0000</r>
       <r>   1.4047  1.0000</r>
       <r>   1.4047  1.0000</r>
       <r>   1.4052  1.0000</r>
       <r>   1.4052  1.0000</r>
       <r>   1.4052  1.0000</r>
       <r>   1.4056  1.0000</r>
       <r>   1.4058  1.0000</r>
       <r>   1.4058  1.0000</r>
       <r>   1.4094  1.0000</r>
       <r>   1.4095  1.0000</r>
       <r>   1.4095  1.0000</r>
       <r>   1.4098  1.0000</r>
       <r>   1.5514  1.0000</r>
       <r>   1.5514  1.0000</r>
       <r>   1.5514  1.0000</r>
       <r>   1.5514  1.0000</r>
       <r>   1.5625  1.0000</r>
       <r>   1.5625  1.0000</r>
       <r>   1.5625  1.0000</r>
       <r>   1.5626  1.0000</r>
       <r>   1.6628  1.0000</r>
       <r>   1.6628  1.0000</r>
       <r>   1.6628  1.0000</r>
       <r>   1.6628  1.0000</r>
       <r>   2.0043  1.0000</r>
       <r>   2.0043  1.0000</r>
       <r>   2.0045  1.0000</r>
       <r>   2.0045  1.0000</r>
       <r>   2.0045  1.0000</r>
       <r>   2.0045  1.0000</r>
       <r>   2.0046  1.0000</r>
       <r>   2.0046  1.0000</r>
       <r>   2.0131  1.0000</r>
       <r>   2.0131  1.0000</r>
       <r>   2.0132  1.0000</r>
       <r>   2.0132  1.0000</r>
       <r>   2.0241  1.0000</r>
       <r>   2.0241  1.0000</r>
       <r>   2.0243  1.0000</r>
       <r>   2.0243  1.0000</r>
       <r>   2.0243  1.0000</r>
       <r>   2.0243  1.0000</r>
       <r>   2.0245  1.0000</r>
       <r>   2.0245  1.0000</r>
       <r>   2.0252  1.0000</r>
       <r>   2.0252  1.0000</r>
       <r>   2.0252  1.0000</r>
       <r>   2.0252  1.0000</r>
       <r>   3.4754  1.0000</r>
       <r>   3.4754  1.0000</r>
       <r>   3.4754  1.0000</r>
       <r>   3.4754  1.0000</r>
       <r>   4.1825  0.0000</r>
       <r>   4.1825  0.0000</r>
       <r>   4.1829  0.0000</r>
       <r>   4.1829  0.0000</r>
       <r>   4.1829  0.0000</r>
       <r>   4.1829  0.0000</r>
       <r>   4.1833  0.0000</r>
       <r>   4.1833  0.0000</r>
       <r>   5.0160  0.0000</r>
       <r>   5.0160  0.0000</r>
       <r>   5.0171  0.0000</r>
       <r>   5.0171  0.0000</r>
       <r>   5.0171  0.0000</r>
       <r>   5.0171  0.0000</r>
       <r>   5.0182  0.0000</r>
       <r>   5.0182  0.0000</r>
       <r>   5.8315  0.0000</r>
       <r>   5.8315  0.0000</r>
       <r>   5.8315  0.0000</r>
       <r>   5.8315  0.0000</r>
       <r>   9.1032  0.0000</r>
       <r>   9.1032  0.0000</r>
       <r>   9.1041  0.0000</r>
       <r>   9.1041  0.0000</r>
       <r>   9.1041  0.0000</r>
       <r>   9.1041  0.0000</r>
       <r>   9.1050  0.0000</r>
       <r>   9.1050  0.0000</r>
       <r>   9.8125  0.0000</r>
       <r>   9.8125  0.0000</r>
       <r>   9.8125  0.0000</r>
       <r>   9.8125  0.0000</r>
       <r>  10.8885  0.0000</r>
       <r>  10.8885  0.0000</r>
       <r>  10.8885  0.0000</r>
       <r>  10.8885  0.0000</r>
       <r>  11.6415  0.0000</r>
       <r>  11.6417  0.0000</r>
       <r>  11.6419  0.0000</r>
       <r>  11.6422  0.0000</r>
      </set>
      <set comment="kpoint 195">
       <r>  -3.6702  1.0000</r>
       <r>  -3.6702  1.0000</r>
       <r>  -3.6702  1.0000</r>
       <r>  -3.6701  1.0000</r>
       <r>  -3.2537  1.0000</r>
       <r>  -3.2537  1.0000</r>
       <r>  -3.2537  1.0000</r>
       <r>  -3.2536  1.0000</r>
       <r>  -0.8158  1.0000</r>
       <r>  -0.8158  1.0000</r>
       <r>  -0.8158  1.0000</r>
       <r>  -0.8158  1.0000</r>
       <r>  -0.7539  1.0000</r>
       <r>  -0.7539  1.0000</r>
       <r>  -0.7536  1.0000</r>
       <r>  -0.7536  1.0000</r>
       <r>  -0.7536  1.0000</r>
       <r>  -0.7536  1.0000</r>
       <r>  -0.7533  1.0000</r>
       <r>  -0.7533  1.0000</r>
       <r>  -0.6867  1.0000</r>
       <r>  -0.6867  1.0000</r>
       <r>  -0.6861  1.0000</r>
       <r>  -0.6860  1.0000</r>
       <r>  -0.6860  1.0000</r>
       <r>  -0.6860  1.0000</r>
       <r>  -0.6854  1.0000</r>
       <r>  -0.6854  1.0000</r>
       <r>  -0.6539  1.0000</r>
       <r>  -0.6539  1.0000</r>
       <r>  -0.6539  1.0000</r>
       <r>  -0.6538  1.0000</r>
       <r>  -0.2258  1.0000</r>
       <r>  -0.2255  1.0000</r>
       <r>  -0.2254  1.0000</r>
       <r>  -0.2254  1.0000</r>
       <r>  -0.2199  1.0000</r>
       <r>  -0.2199  1.0000</r>
       <r>  -0.2194  1.0000</r>
       <r>  -0.2194  1.0000</r>
       <r>  -0.2194  1.0000</r>
       <r>  -0.2192  1.0000</r>
       <r>  -0.2190  1.0000</r>
       <r>  -0.2190  1.0000</r>
       <r>  -0.0981  1.0000</r>
       <r>  -0.0981  1.0000</r>
       <r>  -0.0978  1.0000</r>
       <r>  -0.0977  1.0000</r>
       <r>  -0.0977  1.0000</r>
       <r>  -0.0976  1.0000</r>
       <r>  -0.0973  1.0000</r>
       <r>  -0.0973  1.0000</r>
       <r>  -0.0887  1.0000</r>
       <r>  -0.0887  1.0000</r>
       <r>  -0.0887  1.0000</r>
       <r>  -0.0886  1.0000</r>
       <r>   0.3968  1.0000</r>
       <r>   0.3974  1.0000</r>
       <r>   0.3974  1.0000</r>
       <r>   0.3975  1.0000</r>
       <r>   0.4031  1.0000</r>
       <r>   0.4031  1.0000</r>
       <r>   0.4032  1.0000</r>
       <r>   0.4038  1.0000</r>
       <r>   0.6248  1.0000</r>
       <r>   0.6248  1.0000</r>
       <r>   0.6248  1.0000</r>
       <r>   0.6249  1.0000</r>
       <r>   0.6319  1.0000</r>
       <r>   0.6319  1.0000</r>
       <r>   0.6330  1.0000</r>
       <r>   0.6330  1.0000</r>
       <r>   0.6330  1.0000</r>
       <r>   0.6330  1.0000</r>
       <r>   0.6342  1.0000</r>
       <r>   0.6342  1.0000</r>
       <r>   0.7122  1.0000</r>
       <r>   0.7122  1.0000</r>
       <r>   0.7131  1.0000</r>
       <r>   0.7132  1.0000</r>
       <r>   0.7132  1.0000</r>
       <r>   0.7132  1.0000</r>
       <r>   0.7141  1.0000</r>
       <r>   0.7141  1.0000</r>
       <r>   0.7282  1.0000</r>
       <r>   0.7282  1.0000</r>
       <r>   0.7282  1.0000</r>
       <r>   0.7282  1.0000</r>
       <r>   0.7881  1.0000</r>
       <r>   0.7881  1.0000</r>
       <r>   0.7881  1.0000</r>
       <r>   0.7881  1.0000</r>
       <r>   0.7936  1.0000</r>
       <r>   0.7936  1.0000</r>
       <r>   0.7936  1.0000</r>
       <r>   0.7937  1.0000</r>
       <r>   0.8019  1.0000</r>
       <r>   0.8019  1.0000</r>
       <r>   0.8019  1.0000</r>
       <r>   0.8019  1.0000</r>
       <r>   0.8072  1.0000</r>
       <r>   0.8072  1.0000</r>
       <r>   0.8073  1.0000</r>
       <r>   0.8073  1.0000</r>
       <r>   1.1973  1.0000</r>
       <r>   1.1973  1.0000</r>
       <r>   1.1973  1.0000</r>
       <r>   1.1974  1.0000</r>
       <r>   1.2174  1.0000</r>
       <r>   1.2174  1.0000</r>
       <r>   1.2178  1.0000</r>
       <r>   1.2178  1.0000</r>
       <r>   1.2178  1.0000</r>
       <r>   1.2179  1.0000</r>
       <r>   1.2182  1.0000</r>
       <r>   1.2182  1.0000</r>
       <r>   1.3300  1.0000</r>
       <r>   1.3300  1.0000</r>
       <r>   1.3305  1.0000</r>
       <r>   1.3306  1.0000</r>
       <r>   1.3306  1.0000</r>
       <r>   1.3306  1.0000</r>
       <r>   1.3311  1.0000</r>
       <r>   1.3311  1.0000</r>
       <r>   1.3400  1.0000</r>
       <r>   1.3400  1.0000</r>
       <r>   1.3400  1.0000</r>
       <r>   1.3401  1.0000</r>
       <r>   1.4616  1.0000</r>
       <r>   1.4616  1.0000</r>
       <r>   1.4616  1.0000</r>
       <r>   1.4616  1.0000</r>
       <r>   1.5277  1.0000</r>
       <r>   1.5277  1.0000</r>
       <r>   1.5277  1.0000</r>
       <r>   1.5277  1.0000</r>
       <r>   1.5424  1.0000</r>
       <r>   1.5424  1.0000</r>
       <r>   1.5425  1.0000</r>
       <r>   1.5425  1.0000</r>
       <r>   1.5958  1.0000</r>
       <r>   1.5958  1.0000</r>
       <r>   1.5958  1.0000</r>
       <r>   1.5958  1.0000</r>
       <r>   2.0238  1.0000</r>
       <r>   2.0238  1.0000</r>
       <r>   2.0239  1.0000</r>
       <r>   2.0239  1.0000</r>
       <r>   2.0239  1.0000</r>
       <r>   2.0239  1.0000</r>
       <r>   2.0239  1.0000</r>
       <r>   2.0239  1.0000</r>
       <r>   2.0284  1.0000</r>
       <r>   2.0284  1.0000</r>
       <r>   2.0285  1.0000</r>
       <r>   2.0285  1.0000</r>
       <r>   2.0352  1.0000</r>
       <r>   2.0352  1.0000</r>
       <r>   2.0352  1.0000</r>
       <r>   2.0352  1.0000</r>
       <r>   2.0373  1.0000</r>
       <r>   2.0373  1.0000</r>
       <r>   2.0374  1.0000</r>
       <r>   2.0374  1.0000</r>
       <r>   2.0374  1.0000</r>
       <r>   2.0374  1.0000</r>
       <r>   2.0375  1.0000</r>
       <r>   2.0375  1.0000</r>
       <r>   3.9878  0.0000</r>
       <r>   3.9878  0.0000</r>
       <r>   3.9878  0.0000</r>
       <r>   3.9878  0.0000</r>
       <r>   4.3561  0.0000</r>
       <r>   4.3561  0.0000</r>
       <r>   4.3567  0.0000</r>
       <r>   4.3567  0.0000</r>
       <r>   4.3567  0.0000</r>
       <r>   4.3567  0.0000</r>
       <r>   4.3573  0.0000</r>
       <r>   4.3573  0.0000</r>
       <r>   4.7789  0.0000</r>
       <r>   4.7789  0.0000</r>
       <r>   4.7798  0.0000</r>
       <r>   4.7798  0.0000</r>
       <r>   4.7798  0.0000</r>
       <r>   4.7798  0.0000</r>
       <r>   4.7807  0.0000</r>
       <r>   4.7807  0.0000</r>
       <r>   5.1760  0.0000</r>
       <r>   5.1760  0.0000</r>
       <r>   5.1760  0.0000</r>
       <r>   5.1761  0.0000</r>
       <r>   9.6619  0.0000</r>
       <r>   9.6619  0.0000</r>
       <r>   9.6627  0.0000</r>
       <r>   9.6627  0.0000</r>
       <r>   9.6627  0.0000</r>
       <r>   9.6627  0.0000</r>
       <r>   9.6634  0.0000</r>
       <r>   9.6634  0.0000</r>
       <r>  10.0253  0.0000</r>
       <r>  10.0253  0.0000</r>
       <r>  10.0253  0.0000</r>
       <r>  10.0253  0.0000</r>
       <r>  10.5641  0.0000</r>
       <r>  10.5641  0.0000</r>
       <r>  10.5641  0.0000</r>
       <r>  10.5641  0.0000</r>
       <r>  10.9369  0.0000</r>
       <r>  10.9373  0.0000</r>
       <r>  10.9374  0.0000</r>
       <r>  10.9378  0.0000</r>
      </set>
      <set comment="kpoint 196">
       <r>  -3.4809  1.0000</r>
       <r>  -3.4772  1.0000</r>
       <r>  -3.4772  1.0000</r>
       <r>  -3.4766  1.0000</r>
       <r>  -3.4765  1.0000</r>
       <r>  -3.4759  1.0000</r>
       <r>  -3.4759  1.0000</r>
       <r>  -3.4722  1.0000</r>
       <r>  -0.7218  1.0000</r>
       <r>  -0.7205  1.0000</r>
       <r>  -0.7205  1.0000</r>
       <r>  -0.7199  1.0000</r>
       <r>  -0.7197  1.0000</r>
       <r>  -0.7194  1.0000</r>
       <r>  -0.7185  1.0000</r>
       <r>  -0.7185  1.0000</r>
       <r>  -0.7185  1.0000</r>
       <r>  -0.7184  1.0000</r>
       <r>  -0.7184  1.0000</r>
       <r>  -0.7183  1.0000</r>
       <r>  -0.7182  1.0000</r>
       <r>  -0.7182  1.0000</r>
       <r>  -0.7182  1.0000</r>
       <r>  -0.7181  1.0000</r>
       <r>  -0.7181  1.0000</r>
       <r>  -0.7181  1.0000</r>
       <r>  -0.7172  1.0000</r>
       <r>  -0.7169  1.0000</r>
       <r>  -0.7167  1.0000</r>
       <r>  -0.7162  1.0000</r>
       <r>  -0.7162  1.0000</r>
       <r>  -0.7149  1.0000</r>
       <r>  -0.1649  1.0000</r>
       <r>  -0.1644  1.0000</r>
       <r>  -0.1628  1.0000</r>
       <r>  -0.1628  1.0000</r>
       <r>  -0.1623  1.0000</r>
       <r>  -0.1619  1.0000</r>
       <r>  -0.1619  1.0000</r>
       <r>  -0.1619  1.0000</r>
       <r>  -0.1618  1.0000</r>
       <r>  -0.1617  1.0000</r>
       <r>  -0.1617  1.0000</r>
       <r>  -0.1617  1.0000</r>
       <r>  -0.1615  1.0000</r>
       <r>  -0.1615  1.0000</r>
       <r>  -0.1615  1.0000</r>
       <r>  -0.1614  1.0000</r>
       <r>  -0.1613  1.0000</r>
       <r>  -0.1613  1.0000</r>
       <r>  -0.1613  1.0000</r>
       <r>  -0.1609  1.0000</r>
       <r>  -0.1605  1.0000</r>
       <r>  -0.1605  1.0000</r>
       <r>  -0.1589  1.0000</r>
       <r>  -0.1583  1.0000</r>
       <r>   0.4008  1.0000</r>
       <r>   0.4028  1.0000</r>
       <r>   0.4028  1.0000</r>
       <r>   0.4028  1.0000</r>
       <r>   0.4029  1.0000</r>
       <r>   0.4029  1.0000</r>
       <r>   0.4029  1.0000</r>
       <r>   0.4049  1.0000</r>
       <r>   0.6702  1.0000</r>
       <r>   0.6702  1.0000</r>
       <r>   0.6709  1.0000</r>
       <r>   0.6711  1.0000</r>
       <r>   0.6719  1.0000</r>
       <r>   0.6729  1.0000</r>
       <r>   0.6729  1.0000</r>
       <r>   0.6729  1.0000</r>
       <r>   0.6730  1.0000</r>
       <r>   0.6730  1.0000</r>
       <r>   0.6730  1.0000</r>
       <r>   0.6730  1.0000</r>
       <r>   0.6731  1.0000</r>
       <r>   0.6732  1.0000</r>
       <r>   0.6732  1.0000</r>
       <r>   0.6732  1.0000</r>
       <r>   0.6733  1.0000</r>
       <r>   0.6733  1.0000</r>
       <r>   0.6733  1.0000</r>
       <r>   0.6742  1.0000</r>
       <r>   0.6750  1.0000</r>
       <r>   0.6753  1.0000</r>
       <r>   0.6759  1.0000</r>
       <r>   0.6759  1.0000</r>
       <r>   0.7956  1.0000</r>
       <r>   0.7956  1.0000</r>
       <r>   0.7959  1.0000</r>
       <r>   0.7962  1.0000</r>
       <r>   0.7965  1.0000</r>
       <r>   0.7966  1.0000</r>
       <r>   0.7967  1.0000</r>
       <r>   0.7967  1.0000</r>
       <r>   0.7970  1.0000</r>
       <r>   0.7970  1.0000</r>
       <r>   0.7971  1.0000</r>
       <r>   0.7971  1.0000</r>
       <r>   0.7975  1.0000</r>
       <r>   0.7977  1.0000</r>
       <r>   0.7980  1.0000</r>
       <r>   0.7980  1.0000</r>
       <r>   1.2654  1.0000</r>
       <r>   1.2663  1.0000</r>
       <r>   1.2663  1.0000</r>
       <r>   1.2679  1.0000</r>
       <r>   1.2681  1.0000</r>
       <r>   1.2681  1.0000</r>
       <r>   1.2681  1.0000</r>
       <r>   1.2683  1.0000</r>
       <r>   1.2684  1.0000</r>
       <r>   1.2684  1.0000</r>
       <r>   1.2684  1.0000</r>
       <r>   1.2685  1.0000</r>
       <r>   1.2686  1.0000</r>
       <r>   1.2686  1.0000</r>
       <r>   1.2686  1.0000</r>
       <r>   1.2686  1.0000</r>
       <r>   1.2687  1.0000</r>
       <r>   1.2689  1.0000</r>
       <r>   1.2690  1.0000</r>
       <r>   1.2690  1.0000</r>
       <r>   1.2691  1.0000</r>
       <r>   1.2707  1.0000</r>
       <r>   1.2707  1.0000</r>
       <r>   1.2716  1.0000</r>
       <r>   1.5260  1.0000</r>
       <r>   1.5272  1.0000</r>
       <r>   1.5272  1.0000</r>
       <r>   1.5272  1.0000</r>
       <r>   1.5278  1.0000</r>
       <r>   1.5278  1.0000</r>
       <r>   1.5280  1.0000</r>
       <r>   1.5281  1.0000</r>
       <r>   1.5282  1.0000</r>
       <r>   1.5283  1.0000</r>
       <r>   1.5285  1.0000</r>
       <r>   1.5285  1.0000</r>
       <r>   1.5291  1.0000</r>
       <r>   1.5291  1.0000</r>
       <r>   1.5291  1.0000</r>
       <r>   1.5303  1.0000</r>
       <r>   2.0356  1.0000</r>
       <r>   2.0356  1.0000</r>
       <r>   2.0357  1.0000</r>
       <r>   2.0357  1.0000</r>
       <r>   2.0358  1.0000</r>
       <r>   2.0358  1.0000</r>
       <r>   2.0359  1.0000</r>
       <r>   2.0359  1.0000</r>
       <r>   2.0359  1.0000</r>
       <r>   2.0360  1.0000</r>
       <r>   2.0360  1.0000</r>
       <r>   2.0361  1.0000</r>
       <r>   2.0362  1.0000</r>
       <r>   2.0363  1.0000</r>
       <r>   2.0363  1.0000</r>
       <r>   2.0363  1.0000</r>
       <r>   2.0364  1.0000</r>
       <r>   2.0365  1.0000</r>
       <r>   2.0365  1.0000</r>
       <r>   2.0365  1.0000</r>
       <r>   2.0366  1.0000</r>
       <r>   2.0366  1.0000</r>
       <r>   2.0367  1.0000</r>
       <r>   2.0367  1.0000</r>
       <r>   4.5518  0.0000</r>
       <r>   4.5537  0.0000</r>
       <r>   4.5537  0.0000</r>
       <r>   4.5566  0.0000</r>
       <r>   4.5571  0.0000</r>
       <r>   4.5571  0.0000</r>
       <r>   4.5571  0.0000</r>
       <r>   4.5572  0.0000</r>
       <r>   4.5573  0.0000</r>
       <r>   4.5573  0.0000</r>
       <r>   4.5574  0.0000</r>
       <r>   4.5574  0.0000</r>
       <r>   4.5576  0.0000</r>
       <r>   4.5576  0.0000</r>
       <r>   4.5576  0.0000</r>
       <r>   4.5577  0.0000</r>
       <r>   4.5577  0.0000</r>
       <r>   4.5578  0.0000</r>
       <r>   4.5578  0.0000</r>
       <r>   4.5578  0.0000</r>
       <r>   4.5584  0.0000</r>
       <r>   4.5612  0.0000</r>
       <r>   4.5612  0.0000</r>
       <r>   4.5632  0.0000</r>
       <r>  10.2696  0.0000</r>
       <r>  10.2696  0.0000</r>
       <r>  10.2712  0.0000</r>
       <r>  10.2752  0.0000</r>
       <r>  10.2754  0.0000</r>
       <r>  10.2754  0.0000</r>
       <r>  10.2756  0.0000</r>
       <r>  10.2758  0.0000</r>
       <r>  10.2759  0.0000</r>
       <r>  10.2759  0.0000</r>
       <r>  10.2760  0.0000</r>
       <r>  10.2761  0.0000</r>
       <r>  10.2761  0.0000</r>
       <r>  10.2763  0.0000</r>
       <r>  10.2764  0.0000</r>
       <r>  10.2766  0.0000</r>
       <r>  10.2766  0.0000</r>
       <r>  10.2768  0.0000</r>
       <r>  10.2779  0.0000</r>
       <r>  10.2791  0.0000</r>
      </set>
     </set>
    </set>
   </array>
  </eigenvalues>
 </calculation>
 <structure name="finalpos" >
  <crystal>
   <varray name="basis" >
    <v>       7.27283162      0.00000000      0.00000000</v>
    <v>       0.00000000      7.27283162      0.00000000</v>
    <v>       0.00000000      0.00000000      7.27283162</v>
   </varray>
   <i name="volume">    384.68973643</i>
   <varray name="rec_basis" >
    <v>       0.13749803      0.00000000      0.00000000</v>
    <v>       0.00000000      0.13749803      0.00000000</v>
    <v>       0.00000000      0.00000000      0.13749803</v>
   </varray>
  </crystal>
  <varray name="positions" >
   <v>       0.00137498      0.00000000      0.00000000</v>
   <v>       0.50000000      0.00000000      0.00000000</v>
   <v>       0.00000000      0.50000000      0.00000000</v>
   <v>       0.50000000      0.50000000      0.00000000</v>
   <v>       0.00000000      0.00000000      0.50000000</v>
   <v>       0.50000000      0.00000000      0.50000000</v>
   <v>       0.00000000      0.50000000      0.50000000</v>
   <v>       0.50000000      0.50000000      0.50000000</v>
   <v>       0.25000000      0.25000000      0.00000000</v>
   <v>       0.75000000      0.25000000      0.00000000</v>
   <v>       0.25000000      0.75000000      0.00000000</v>
   <v>       0.75000000      0.75000000      0.00000000</v>
   <v>       0.25000000      0.25000000      0.50000000</v>
   <v>       0.75000000      0.25000000      0.50000000</v>
   <v>       0.25000000      0.75000000      0.50000000</v>
   <v>       0.75000000      0.75000000      0.50000000</v>
   <v>       0.25000000      0.00000000      0.25000000</v>
   <v>       0.75000000      0.00000000      0.25000000</v>
   <v>       0.25000000      0.50000000      0.25000000</v>
   <v>       0.75000000      0.50000000      0.25000000</v>
   <v>       0.25000000      0.00000000      0.75000000</v>
   <v>       0.75000000      0.00000000      0.75000000</v>
   <v>       0.25000000      0.50000000      0.75000000</v>
   <v>       0.75000000      0.50000000      0.75000000</v>
   <v>       0.00000000      0.25000000      0.25000000</v>
   <v>       0.50000000      0.25000000      0.25000000</v>
   <v>       0.00000000      0.75000000      0.25000000</v>
   <v>       0.50000000      0.75000000      0.25000000</v>
   <v>       0.00000000      0.25000000      0.75000000</v>
   <v>       0.50000000      0.25000000      0.75000000</v>
   <v>       0.00000000      0.75000000      0.75000000</v>
   <v>       0.50000000      0.75000000      0.75000000</v>
  </varray>
 </structure>
</modeling>
