32   
1    

1    
  0.0100000000000000   0.0000000000000000   0.0000000000000000
  -0.0521791100   -0.0000000000   -0.0000000000
   0.0045970800    0.0000000000   -0.0000000000
  -0.0007732000    0.0000000000    0.0000000000
  -0.0021077200    0.0000000000   -0.0000000000
  -0.0007732000   -0.0000000000    0.0000000000
  -0.0021077200   -0.0000000000   -0.0000000000
   0.0001434000   -0.0000000000   -0.0000000000
  -0.0002910000   -0.0000000000    0.0000000000
   0.0078544500    0.0098724200    0.0000000000
   0.0075929200   -0.0095022700    0.0000000000
   0.0078544500   -0.0098724200    0.0000000000
   0.0075929200    0.0095022700   -0.0000000000
   0.0002610200    0.0001168400    0.0000000000
   0.0002603900   -0.0001102000   -0.0000000000
   0.0002610200   -0.0001168400   -0.0000000000
   0.0002603900    0.0001102000   -0.0000000000
   0.0078544500    0.0000000000    0.0098724200
   0.0075929200    0.0000000000   -0.0095022700
   0.0002610200    0.0000000000    0.0001168400
   0.0002603900    0.0000000000   -0.0001102000
   0.0078544500   -0.0000000000   -0.0098724200
   0.0075929200    0.0000000000    0.0095022700
   0.0002610200   -0.0000000000   -0.0001168400
   0.0002603900    0.0000000000    0.0001102000
  -0.0033657300   -0.0000068500   -0.0000068500
   0.0007698100    0.0000043700    0.0000043700
  -0.0033657300    0.0000068500   -0.0000068500
   0.0007698100   -0.0000043700    0.0000043700
  -0.0033657300   -0.0000068500    0.0000068500
   0.0007698100    0.0000043700   -0.0000043700
  -0.0033657300    0.0000068500    0.0000068500
   0.0007698100   -0.0000043700   -0.0000043700
