mesh: [    48,    48,    48 ]
nqpoint: 2600   
reciprocal_lattice:
- [   0.23964426,   0.00000000,   0.00000000 ] # a*
- [   0.00000000,   0.23964426,   0.00000000 ] # b*
- [   0.00000000,   0.00000000,   0.23964426 ] # c*
natom:   4      
lattice:
- [     4.172851902314868,     0.000000000000000,     0.000000000000000 ] # a
- [     0.000000000000000,     4.172851902314868,     0.000000000000000 ] # b
- [     0.000000000000000,     0.000000000000000,     4.172851902314868 ] # c
points:
- symbol: Au # 1
  coordinates: [  0.000000000000000,  0.000000000000000,  0.000000000000000 ]
  mass: 196.966569
- symbol: Au # 2
  coordinates: [  0.500000000000000,  0.500000000000000,  0.000000000000000 ]
  mass: 196.966569
- symbol: Au # 3
  coordinates: [  0.500000000000000,  0.000000000000000,  0.500000000000000 ]
  mass: 196.966569
- symbol: Au # 4
  coordinates: [  0.000000000000000,  0.500000000000000,  0.500000000000000 ]
  mass: 196.966569
phonon:
- q-position: [    0.0104167,    0.0104167,    0.0104167 ]
  weight: 8    
  band:
  - # 1
    frequency:     0.0411119681
  - # 2
    frequency:     0.0411119681
  - # 3
    frequency:     0.1315770987
  - # 4
    frequency:     2.3114227251
  - # 5
    frequency:     2.3114227251
  - # 6
    frequency:     2.3114227251
  - # 7
    frequency:     2.3136734288
  - # 8
    frequency:     2.3136734288
  - # 9
    frequency:     2.3136734288
  - # 10
    frequency:     3.9799920613
  - # 11
    frequency:     3.9799920613
  - # 12
    frequency:     3.9799920613

- q-position: [    0.0312500,    0.0104167,    0.0104167 ]
  weight: 24   
  band:
  - # 1
    frequency:     0.0851830649
  - # 2
    frequency:     0.0944938854
  - # 3
    frequency:     0.2441603546
  - # 4
    frequency:     2.3080387773
  - # 5
    frequency:     2.3093448523
  - # 6
    frequency:     2.3093448523
  - # 7
    frequency:     2.3102833957
  - # 8
    frequency:     2.3173727556
  - # 9
    frequency:     2.3173727556
  - # 10
    frequency:     3.9760886573
  - # 11
    frequency:     3.9760886573
  - # 12
    frequency:     3.9765824233

- q-position: [    0.0520833,    0.0104167,    0.0104167 ]
  weight: 24   
  band:
  - # 1
    frequency:     0.1459509912
  - # 2
    frequency:     0.1530677339
  - # 3
    frequency:     0.3755884733
  - # 4
    frequency:     2.3012821941
  - # 5
    frequency:     2.3035146793
  - # 6
    frequency:     2.3063896632
  - # 7
    frequency:     2.3063896632
  - # 8
    frequency:     2.3235913310
  - # 9
    frequency:     2.3235913310
  - # 10
    frequency:     3.9683010088
  - # 11
    frequency:     3.9683010088
  - # 12
    frequency:     3.9697580867

- q-position: [    0.0729167,    0.0104167,    0.0104167 ]
  weight: 24   
  band:
  - # 1
    frequency:     0.2073236210
  - # 2
    frequency:     0.2126893442
  - # 3
    frequency:     0.5118986115
  - # 4
    frequency:     2.2911755367
  - # 5
    frequency:     2.2933899142
  - # 6
    frequency:     2.3022811407
  - # 7
    frequency:     2.3022811407
  - # 8
    frequency:     2.3326454690
  - # 9
    frequency:     2.3326454690
  - # 10
    frequency:     3.9566673470
  - # 11
    frequency:     3.9566673470
  - # 12
    frequency:     3.9595090371

- q-position: [    0.0937500,    0.0104167,    0.0104167 ]
  weight: 24   
  band:
  - # 1
    frequency:     0.2686042468
  - # 2
    frequency:     0.2727904405
  - # 3
    frequency:     0.6496004493
  - # 4
    frequency:     2.2777524871
  - # 5
    frequency:     2.2799428903
  - # 6
    frequency:     2.2969865668
  - # 7
    frequency:     2.2969865668
  - # 8
    frequency:     2.3446267054
  - # 9
    frequency:     2.3446267054
  - # 10
    frequency:     3.9412447987
  - # 11
    frequency:     3.9412447987
  - # 12
    frequency:     3.9458205160

- q-position: [    0.1145833,    0.0104167,    0.0104167 ]
  weight: 24   
  band:
  - # 1
    frequency:     0.3298785928
  - # 2
    frequency:     0.3332335638
  - # 3
    frequency:     0.7873572635
  - # 4
    frequency:     2.2610576584
  - # 5
    frequency:     2.2632183595
  - # 6
    frequency:     2.2905570064
  - # 7
    frequency:     2.2905570064
  - # 8
    frequency:     2.3595594181
  - # 9
    frequency:     2.3595594181
  - # 10
    frequency:     3.9221091221
  - # 11
    frequency:     3.9221091221
  - # 12
    frequency:     3.9286733339

- q-position: [    0.1354167,    0.0104167,    0.0104167 ]
  weight: 24   
  band:
  - # 1
    frequency:     0.3912444720
  - # 2
    frequency:     0.3939808740
  - # 3
    frequency:     0.9244792933
  - # 4
    frequency:     2.2411463406
  - # 5
    frequency:     2.2432717790
  - # 6
    frequency:     2.2830812740
  - # 7
    frequency:     2.2830812740
  - # 8
    frequency:     2.3774444278
  - # 9
    frequency:     2.3774444278
  - # 10
    frequency:     3.8993543546
  - # 11
    frequency:     3.8993543546
  - # 12
    frequency:     3.9080442781

- q-position: [    0.1562500,    0.0104167,    0.0104167 ]
  weight: 24   
  band:
  - # 1
    frequency:     0.4527688720
  - # 2
    frequency:     0.4550231373
  - # 3
    frequency:     1.0605221890
  - # 4
    frequency:     2.2180841870
  - # 5
    frequency:     2.2201689915
  - # 6
    frequency:     2.2746723032
  - # 7
    frequency:     2.2746723032
  - # 8
    frequency:     2.3982697283
  - # 9
    frequency:     2.3982697283
  - # 10
    frequency:     3.8730923735
  - # 11
    frequency:     3.8730923735
  - # 12
    frequency:     3.8839066118

- q-position: [    0.1770833,    0.0104167,    0.0104167 ]
  weight: 24   
  band:
  - # 1
    frequency:     0.5144936508
  - # 2
    frequency:     0.5163576989
  - # 3
    frequency:     1.1951526222
  - # 4
    frequency:     2.1919468376
  - # 5
    frequency:     2.1939858455
  - # 6
    frequency:     2.2654617948
  - # 7
    frequency:     2.2654617948
  - # 8
    frequency:     2.4220125549
  - # 9
    frequency:     2.4220125549
  - # 10
    frequency:     3.8434523679
  - # 11
    frequency:     3.8434523679
  - # 12
    frequency:     3.8562306560

- q-position: [    0.1979167,    0.0104167,    0.0104167 ]
  weight: 24   
  band:
  - # 1
    frequency:     0.5764413796
  - # 2
    frequency:     0.5779797891
  - # 3
    frequency:     1.3280954823
  - # 4
    frequency:     2.1628194853
  - # 5
    frequency:     2.1648077551
  - # 6
    frequency:     2.2555971117
  - # 7
    frequency:     2.2555971117
  - # 8
    frequency:     2.4486389069
  - # 9
    frequency:     2.4486389069
  - # 10
    frequency:     3.8105802238
  - # 11
    frequency:     3.8105802238
  - # 12
    frequency:     3.8249844458

- q-position: [    0.2187500,    0.0104167,    0.0104167 ]
  weight: 24   
  band:
  - # 1
    frequency:     0.6386186853
  - # 2
    frequency:     0.6398784418
  - # 3
    frequency:     1.4591105985
  - # 4
    frequency:     2.1307963830
  - # 5
    frequency:     2.1327292018
  - # 6
    frequency:     2.2452387449
  - # 7
    frequency:     2.2452387449
  - # 8
    frequency:     2.4781022890
  - # 9
    frequency:     2.4781022890
  - # 10
    frequency:     3.7746378205
  - # 11
    frequency:     3.7746378205
  - # 12
    frequency:     3.7901344510

- q-position: [    0.2395833,    0.0104167,    0.0104167 ]
  weight: 24   
  band:
  - # 1
    frequency:     0.7010180290
  - # 2
    frequency:     0.7020343324
  - # 3
    frequency:     1.5879815980
  - # 4
    frequency:     2.0959802948
  - # 5
    frequency:     2.0978531811
  - # 6
    frequency:     2.2345578176
  - # 7
    frequency:     2.2345578176
  - # 8
    frequency:     2.5103422857
  - # 9
    frequency:     2.5103422857
  - # 10
    frequency:     3.7358022400
  - # 11
    frequency:     3.7358022400
  - # 12
    frequency:     3.7516463526

- q-position: [    0.2604167,    0.0104167,    0.0104167 ]
  weight: 24   
  band:
  - # 1
    frequency:     0.7636186788
  - # 2
    frequency:     0.7644185580
  - # 3
    frequency:     1.7145102602
  - # 4
    frequency:     2.0584818941
  - # 5
    frequency:     2.0602905940
  - # 6
    frequency:     2.2237334422
  - # 7
    frequency:     2.2237334422
  - # 8
    frequency:     2.5452832336
  - # 9
    frequency:     2.5452832336
  - # 10
    frequency:     3.6942648883
  - # 11
    frequency:     3.6942648883
  - # 12
    frequency:     3.7094858621

- q-position: [    0.2812500,    0.0104167,    0.0104167 ]
  weight: 24   
  band:
  - # 1
    frequency:     0.8263873041
  - # 2
    frequency:     0.8269919563
  - # 3
    frequency:     1.8385135509
  - # 4
    frequency:     2.0184191087
  - # 5
    frequency:     2.0201595873
  - # 6
    frequency:     2.2129498641
  - # 7
    frequency:     2.2129498641
  - # 8
    frequency:     2.5828331272
  - # 9
    frequency:     2.5828331272
  - # 10
    frequency:     3.6502305294
  - # 11
    frequency:     3.6502305294
  - # 12
    frequency:     3.6636195748

- q-position: [    0.3020833,    0.0104167,    0.0104167 ]
  weight: 24   
  band:
  - # 1
    frequency:     0.8892784213
  - # 2
    frequency:     0.8897047762
  - # 3
    frequency:     1.9598220361
  - # 4
    frequency:     1.9759164175
  - # 5
    frequency:     1.9775848453
  - # 6
    frequency:     2.2023933836
  - # 7
    frequency:     2.2023933836
  - # 8
    frequency:     2.6228828315
  - # 9
    frequency:     2.6228828315
  - # 10
    frequency:     3.6039162312
  - # 11
    frequency:     3.6039162312
  - # 12
    frequency:     3.6140158445

- q-position: [    0.3229167,    0.0104167,    0.0104167 ]
  weight: 24   
  band:
  - # 1
    frequency:     0.9522348073
  - # 2
    frequency:     0.9524966053
  - # 3
    frequency:     1.9311041000
  - # 4
    frequency:     1.9326968347
  - # 5
    frequency:     2.0782790322
  - # 6
    frequency:     2.1922490754
  - # 7
    frequency:     2.1922490754
  - # 8
    frequency:     2.6653056415
  - # 9
    frequency:     2.6653056415
  - # 10
    frequency:     3.5555502245
  - # 11
    frequency:     3.5555502245
  - # 12
    frequency:     3.5606456691

- q-position: [    0.3437500,    0.0104167,    0.0104167 ]
  weight: 24   
  band:
  - # 1
    frequency:     1.0151879446
  - # 2
    frequency:     1.0152965001
  - # 3
    frequency:     1.8841174436
  - # 4
    frequency:     1.8856310064
  - # 5
    frequency:     2.1826973499
  - # 6
    frequency:     2.1826973499
  - # 7
    frequency:     2.1937401525
  - # 8
    frequency:     2.7099572001
  - # 9
    frequency:     2.7099572001
  - # 10
    frequency:     3.5034835767
  - # 11
    frequency:     3.5053706761
  - # 12
    frequency:     3.5053706761

- q-position: [    0.3645833,    0.0104167,    0.0104167 ]
  weight: 24   
  band:
  - # 1
    frequency:     1.0780232808
  - # 2
    frequency:     1.0780585268
  - # 3
    frequency:     1.8350959095
  - # 4
    frequency:     1.8365269583
  - # 5
    frequency:     2.1739104192
  - # 6
    frequency:     2.1739104192
  - # 7
    frequency:     2.3060730644
  - # 8
    frequency:     2.7566757680
  - # 9
    frequency:     2.7566757680
  - # 10
    frequency:     3.4425085012
  - # 11
    frequency:     3.4536243775
  - # 12
    frequency:     3.4536243775

- q-position: [    0.3854167,    0.0104167,    0.0104167 ]
  weight: 24   
  band:
  - # 1
    frequency:     1.1405859666
  - # 2
    frequency:     1.1407570363
  - # 3
    frequency:     1.7841822638
  - # 4
    frequency:     1.7855275609
  - # 5
    frequency:     2.1660487510
  - # 6
    frequency:     2.1660487510
  - # 7
    frequency:     2.4151573474
  - # 8
    frequency:     2.8052828188
  - # 9
    frequency:     2.8052828188
  - # 10
    frequency:     3.3777046372
  - # 11
    frequency:     3.4005653554
  - # 12
    frequency:     3.4005653554

- q-position: [    0.4062500,    0.0104167,    0.0104167 ]
  weight: 24   
  band:
  - # 1
    frequency:     1.2028843288
  - # 2
    frequency:     1.2031843982
  - # 3
    frequency:     1.7315216761
  - # 4
    frequency:     1.7327780522
  - # 5
    frequency:     2.1592576079
  - # 6
    frequency:     2.1592576079
  - # 7
    frequency:     2.5208843882
  - # 8
    frequency:     2.8555839187
  - # 9
    frequency:     2.8555839187
  - # 10
    frequency:     3.3090622665
  - # 11
    frequency:     3.3464534153
  - # 12
    frequency:     3.3464534153

- q-position: [    0.4270833,    0.0104167,    0.0104167 ]
  weight: 24   
  band:
  - # 1
    frequency:     1.2648095444
  - # 2
    frequency:     1.2652327039
  - # 3
    frequency:     1.6772607906
  - # 4
    frequency:     1.6784251046
  - # 5
    frequency:     2.1536637801
  - # 6
    frequency:     2.1536637801
  - # 7
    frequency:     2.6231572716
  - # 8
    frequency:     2.9073698140
  - # 9
    frequency:     2.9073698140
  - # 10
    frequency:     3.2365785461
  - # 11
    frequency:     3.2915526567
  - # 12
    frequency:     3.2915526567

- q-position: [    0.4479167,    0.0104167,    0.0104167 ]
  weight: 24   
  band:
  - # 1
    frequency:     1.3262449342
  - # 2
    frequency:     1.3267860004
  - # 3
    frequency:     1.6215467759
  - # 4
    frequency:     1.6226158695
  - # 5
    frequency:     2.1493726286
  - # 6
    frequency:     2.1493726286
  - # 7
    frequency:     2.7218906415
  - # 8
    frequency:     2.9604175406
  - # 9
    frequency:     2.9604175406
  - # 10
    frequency:     3.1602582514
  - # 11
    frequency:     3.2361301079
  - # 12
    frequency:     3.2361301079

- q-position: [    0.4687500,    0.0104167,    0.0104167 ]
  weight: 24   
  band:
  - # 1
    frequency:     1.3870667697
  - # 2
    frequency:     1.3877211349
  - # 3
    frequency:     1.5645263580
  - # 4
    frequency:     1.5654970047
  - # 5
    frequency:     2.1464655514
  - # 6
    frequency:     2.1464655514
  - # 7
    frequency:     2.8170105165
  - # 8
    frequency:     3.0144906023
  - # 9
    frequency:     3.0144906023
  - # 10
    frequency:     3.0801144667
  - # 11
    frequency:     3.1804553973
  - # 12
    frequency:     3.1804553973

- q-position: [    0.4895833,    0.0104167,    0.0104167 ]
  weight: 24   
  band:
  - # 1
    frequency:     1.4471451367
  - # 2
    frequency:     1.4479086459
  - # 3
    frequency:     1.5063448429
  - # 4
    frequency:     1.5072136914
  - # 5
    frequency:     2.1449979776
  - # 6
    frequency:     2.1449979776
  - # 7
    frequency:     2.9084540486
  - # 8
    frequency:     2.9961692188
  - # 9
    frequency:     3.0693227479
  - # 10
    frequency:     3.0693227479
  - # 11
    frequency:     3.1248168943
  - # 12
    frequency:     3.1248168943

- q-position: [    0.0312500,    0.0312500,    0.0104167 ]
  weight: 24   
  band:
  - # 1
    frequency:     0.0894978314
  - # 2
    frequency:     0.1253421016
  - # 3
    frequency:     0.3273366278
  - # 4
    frequency:     2.3040728582
  - # 5
    frequency:     2.3059662433
  - # 6
    frequency:     2.3059662433
  - # 7
    frequency:     2.3139785408
  - # 8
    frequency:     2.3139785408
  - # 9
    frequency:     2.3242571893
  - # 10
    frequency:     3.9721874796
  - # 11
    frequency:     3.9727141947
  - # 12
    frequency:     3.9727141947

- q-position: [    0.0520833,    0.0312500,    0.0104167 ]
  weight: 48   
  band:
  - # 1
    frequency:     0.1335503945
  - # 2
    frequency:     0.1737922407
  - # 3
    frequency:     0.4390383304
  - # 4
    frequency:     2.2984719329
  - # 5
    frequency:     2.2992203043
  - # 6
    frequency:     2.3030145776
  - # 7
    frequency:     2.3072015246
  - # 8
    frequency:     2.3201955362
  - # 9
    frequency:     2.3331035230
  - # 10
    frequency:     3.9644042671
  - # 11
    frequency:     3.9649968260
  - # 12
    frequency:     3.9659599927

- q-position: [    0.0729167,    0.0312500,    0.0104167 ]
  weight: 48   
  band:
  - # 1
    frequency:     0.1927118601
  - # 2
    frequency:     0.2281108564
  - # 3
    frequency:     0.5621106526
  - # 4
    frequency:     2.2891295273
  - # 5
    frequency:     2.2925097491
  - # 6
    frequency:     2.2970644675
  - # 7
    frequency:     2.2989082542
  - # 8
    frequency:     2.3292494686
  - # 9
    frequency:     2.3439844800
  - # 10
    frequency:     3.9527772180
  - # 11
    frequency:     3.9534684060
  - # 12
    frequency:     3.9558156095

- q-position: [    0.0937500,    0.0312500,    0.0104167 ]
  weight: 48   
  band:
  - # 1
    frequency:     0.2550119467
  - # 2
    frequency:     0.2850460646
  - # 3
    frequency:     0.6906384187
  - # 4
    frequency:     2.2757274864
  - # 5
    frequency:     2.2836013446
  - # 6
    frequency:     2.2859857400
  - # 7
    frequency:     2.2936141945
  - # 8
    frequency:     2.3412311418
  - # 9
    frequency:     2.3571595895
  - # 10
    frequency:     3.9373634097
  - # 11
    frequency:     3.9381858477
  - # 12
    frequency:     3.9422656601

- q-position: [    0.1145833,    0.0312500,    0.0104167 ]
  weight: 48   
  band:
  - # 1
    frequency:     0.3178803326
  - # 2
    frequency:     0.3434129320
  - # 3
    frequency:     0.8217809641
  - # 4
    frequency:     2.2590586414
  - # 5
    frequency:     2.2668571482
  - # 6
    frequency:     2.2787784002
  - # 7
    frequency:     2.2871824054
  - # 8
    frequency:     2.3561645604
  - # 9
    frequency:     2.3728259828
  - # 10
    frequency:     3.9182385355
  - # 11
    frequency:     3.9192246232
  - # 12
    frequency:     3.9252901443

- q-position: [    0.1354167,    0.0312500,    0.0104167 ]
  weight: 48   
  band:
  - # 1
    frequency:     0.3807927964
  - # 2
    frequency:     0.4027056733
  - # 3
    frequency:     0.9539488678
  - # 4
    frequency:     2.2391780776
  - # 5
    frequency:     2.2468876260
  - # 6
    frequency:     2.2708474965
  - # 7
    frequency:     2.2797001917
  - # 8
    frequency:     2.3740503037
  - # 9
    frequency:     2.3911137401
  - # 10
    frequency:     3.8954965535
  - # 11
    frequency:     3.8966784123
  - # 12
    frequency:     3.9048648764

- q-position: [    0.1562500,    0.0312500,    0.0104167 ]
  weight: 48   
  band:
  - # 1
    frequency:     0.4436811460
  - # 2
    frequency:     0.4626793766
  - # 3
    frequency:     1.0861537391
  - # 4
    frequency:     2.2161511820
  - # 5
    frequency:     2.2237589571
  - # 6
    frequency:     2.2622165221
  - # 7
    frequency:     2.2712786449
  - # 8
    frequency:     2.3948761665
  - # 9
    frequency:     2.4121005219
  - # 10
    frequency:     3.8692492475
  - # 11
    frequency:     3.8706586608
  - # 12
    frequency:     3.8809620084

- q-position: [    0.1770833,    0.0312500,    0.0104167 ]
  weight: 48   
  band:
  - # 1
    frequency:     0.5065773997
  - # 2
    frequency:     0.5232011087
  - # 3
    frequency:     1.2177230819
  - # 4
    frequency:     2.1900532570
  - # 5
    frequency:     2.1975473671
  - # 6
    frequency:     2.2529561900
  - # 7
    frequency:     2.2620473574
  - # 8
    frequency:     2.4186191944
  - # 9
    frequency:     2.4358247719
  - # 10
    frequency:     3.8396257013
  - # 11
    frequency:     3.8412940525
  - # 12
    frequency:     3.8535506401

- q-position: [    0.1979167,    0.0312500,    0.0104167 ]
  weight: 48   
  band:
  - # 1
    frequency:     0.5695248636
  - # 2
    frequency:     0.5841887558
  - # 3
    frequency:     1.3481627422
  - # 4
    frequency:     2.1609690739
  - # 5
    frequency:     2.1683386848
  - # 6
    frequency:     2.2431718848
  - # 7
    frequency:     2.2521513698
  - # 8
    frequency:     2.4452451961
  - # 9
    frequency:     2.4622946601
  - # 10
    frequency:     3.8067716848
  - # 11
    frequency:     3.8087298927
  - # 12
    frequency:     3.8225975054

- q-position: [    0.2187500,    0.0312500,    0.0104167 ]
  weight: 48   
  band:
  - # 1
    frequency:     0.6325551216
  - # 2
    frequency:     0.6455828398
  - # 3
    frequency:     1.4770861496
  - # 4
    frequency:     2.1289923667
  - # 5
    frequency:     2.1362278422
  - # 6
    frequency:     2.2329945037
  - # 7
    frequency:     2.2417486883
  - # 8
    frequency:     2.4747074821
  - # 9
    frequency:     2.4914934187
  - # 10
    frequency:     3.7708489534
  - # 11
    frequency:     3.7731274034
  - # 12
    frequency:     3.7880677263

- q-position: [    0.2395833,    0.0312500,    0.0104167 ]
  weight: 48   
  band:
  - # 1
    frequency:     0.6956827922
  - # 2
    frequency:     0.7073322976
  - # 3
    frequency:     1.6041759726
  - # 4
    frequency:     2.0942252675
  - # 5
    frequency:     2.1013183218
  - # 6
    frequency:     2.2225735989
  - # 7
    frequency:     2.2310078452
  - # 8
    frequency:     2.5069454381
  - # 9
    frequency:     2.5233822483
  - # 10
    frequency:     3.7320344603
  - # 11
    frequency:     3.7346629312
  - # 12
    frequency:     3.7499256222

- q-position: [    0.2604167,    0.0312500,    0.0104167 ]
  weight: 48   
  band:
  - # 1
    frequency:     0.7589051926
  - # 2
    frequency:     0.7693867895
  - # 3
    frequency:     1.7291624054
  - # 4
    frequency:     2.0567776873
  - # 5
    frequency:     2.0637215518
  - # 6
    frequency:     2.2120719237
  - # 7
    frequency:     2.2201053182
  - # 8
    frequency:     2.5418831990
  - # 9
    frequency:     2.5579017672
  - # 10
    frequency:     3.6905194830
  - # 11
    frequency:     3.6935270674
  - # 12
    frequency:     3.7081355641

- q-position: [    0.2812500,    0.0312500,    0.0104167 ]
  weight: 48   
  band:
  - # 1
    frequency:     0.8222032594
  - # 2
    frequency:     0.8316923305
  - # 3
    frequency:     1.8518104027
  - # 4
    frequency:     2.0167666417
  - # 5
    frequency:     2.0235562553
  - # 6
    frequency:     2.2016607759
  - # 7
    frequency:     2.2092227435
  - # 8
    frequency:     2.5794285525
  - # 9
    frequency:     2.5949726853
  - # 10
    frequency:     3.6465086633
  - # 11
    frequency:     3.6499236811
  - # 12
    frequency:     3.6626628624

- q-position: [    0.3020833,    0.0312500,    0.0104167 ]
  weight: 48   
  band:
  - # 1
    frequency:     0.8855426960
  - # 2
    frequency:     0.8941887462
  - # 3
    frequency:     1.9719119325
  - # 4
    frequency:     1.9743155251
  - # 5
    frequency:     1.9809477539
  - # 6
    frequency:     2.1915157645
  - # 7
    frequency:     2.1985439135
  - # 8
    frequency:     2.6194721491
  - # 9
    frequency:     2.6344961423
  - # 10
    frequency:     3.6002189637
  - # 11
    frequency:     3.6040688672
  - # 12
    frequency:     3.6134746770

- q-position: [    0.3229167,    0.0312500,    0.0104167 ]
  weight: 48   
  band:
  - # 1
    frequency:     0.9488750906
  - # 2
    frequency:     0.9568081940
  - # 3
    frequency:     1.9295533354
  - # 4
    frequency:     1.9360272307
  - # 5
    frequency:     2.0892811387
  - # 6
    frequency:     2.1818127901
  - # 7
    frequency:     2.1882515768
  - # 8
    frequency:     2.6618870505
  - # 9
    frequency:     2.6763539789
  - # 10
    frequency:     3.5518785433
  - # 11
    frequency:     3.5561898104
  - # 12
    frequency:     3.5605409379

- q-position: [    0.3437500,    0.0312500,    0.0104167 ]
  weight: 48   
  band:
  - # 1
    frequency:     1.0121389745
  - # 2
    frequency:     1.0194743478
  - # 3
    frequency:     1.8826138520
  - # 4
    frequency:     1.8889309571
  - # 5
    frequency:     2.1727241348
  - # 6
    frequency:     2.1785240832
  - # 7
    frequency:     2.2037512414
  - # 8
    frequency:     2.7065286280
  - # 9
    frequency:     2.7204090981
  - # 10
    frequency:     3.5017255593
  - # 11
    frequency:     3.5038352667
  - # 12
    frequency:     3.5065235736

- q-position: [    0.3645833,    0.0312500,    0.0104167 ]
  weight: 48   
  band:
  - # 1
    frequency:     1.0752608449
  - # 2
    frequency:     1.0821020165
  - # 3
    frequency:     1.8336347702
  - # 4
    frequency:     1.8397994844
  - # 5
    frequency:     2.1644146368
  - # 6
    frequency:     2.1695319339
  - # 7
    frequency:     2.3151724946
  - # 8
    frequency:     2.7532347885
  - # 9
    frequency:     2.7665059880
  - # 10
    frequency:     3.4433358884
  - # 11
    frequency:     3.4500069101
  - # 12
    frequency:     3.4553158221

- q-position: [    0.3854167,    0.0312500,    0.0104167 ]
  weight: 48   
  band:
  - # 1
    frequency:     1.1381561785
  - # 2
    frequency:     1.1445970677
  - # 3
    frequency:     1.7827567965
  - # 4
    frequency:     1.7887768062
  - # 5
    frequency:     2.1570379732
  - # 6
    frequency:     2.1614343177
  - # 7
    frequency:     2.4234107953
  - # 8
    frequency:     2.8018264774
  - # 9
    frequency:     2.8144714078
  - # 10
    frequency:     3.3790265240
  - # 11
    frequency:     3.3969769572
  - # 12
    frequency:     3.4028195161

- q-position: [    0.4062500,    0.0312500,    0.0104167 ]
  weight: 48   
  band:
  - # 1
    frequency:     1.2007304411
  - # 2
    frequency:     1.2068565856
  - # 3
    frequency:     1.7301227104
  - # 4
    frequency:     1.7360094922
  - # 5
    frequency:     2.1507331095
  - # 6
    frequency:     2.1543757248
  - # 7
    frequency:     2.5283466946
  - # 8
    frequency:     2.8521083403
  - # 9
    frequency:     2.8641151408
  - # 10
    frequency:     3.3108972566
  - # 11
    frequency:     3.3428963308
  - # 12
    frequency:     3.3492936596

- q-position: [    0.4270833,    0.0312500,    0.0104167 ]
  weight: 48   
  band:
  - # 1
    frequency:     1.2628800859
  - # 2
    frequency:     1.2687692312
  - # 3
    frequency:     1.6758764000
  - # 4
    frequency:     1.6816457958
  - # 5
    frequency:     2.1456210011
  - # 6
    frequency:     2.1484827460
  - # 7
    frequency:     2.6298746517
  - # 8
    frequency:     2.9038692285
  - # 9
    frequency:     2.9152304573
  - # 10
    frequency:     3.2389453627
  - # 11
    frequency:     3.2880311621
  - # 12
    frequency:     3.2950023837

- q-position: [    0.4479167,    0.0312500,    0.0104167 ]
  weight: 48   
  band:
  - # 1
    frequency:     1.3244935208
  - # 2
    frequency:     1.3302157876
  - # 3
    frequency:     1.6201618826
  - # 4
    frequency:     1.6258347342
  - # 5
    frequency:     2.1418016418
  - # 6
    frequency:     2.1438611682
  - # 7
    frequency:     2.7279024293
  - # 8
    frequency:     2.9568813792
  - # 9
    frequency:     2.9675927956
  - # 10
    frequency:     3.1631761038
  - # 11
    frequency:     3.2326542133
  - # 12
    frequency:     3.2402154936

- q-position: [    0.4687500,    0.0312500,    0.0104167 ]
  weight: 48   
  band:
  - # 1
    frequency:     1.3854520320
  - # 2
    frequency:     1.3910698790
  - # 3
    frequency:     1.5631223217
  - # 4
    frequency:     1.5687251396
  - # 5
    frequency:     2.1393515607
  - # 6
    frequency:     2.1405934766
  - # 7
    frequency:     2.8223505629
  - # 8
    frequency:     3.0108914291
  - # 9
    frequency:     3.0209469087
  - # 10
    frequency:     3.0836034721
  - # 11
    frequency:     3.1770576280
  - # 12
    frequency:     3.1852172857

- q-position: [    0.4895833,    0.0312500,    0.0104167 ]
  weight: 48   
  band:
  - # 1
    frequency:     1.4456306614
  - # 2
    frequency:     1.4511988373
  - # 3
    frequency:     1.5048990572
  - # 4
    frequency:     1.5104646785
  - # 5
    frequency:     2.1383218592
  - # 6
    frequency:     2.1387368678
  - # 7
    frequency:     2.9131518586
  - # 8
    frequency:     3.0002508897
  - # 9
    frequency:     3.0655042928
  - # 10
    frequency:     3.0747904623
  - # 11
    frequency:     3.1217692914
  - # 12
    frequency:     3.1304225661

- q-position: [    0.0520833,    0.0520833,    0.0104167 ]
  weight: 24   
  band:
  - # 1
    frequency:     0.1448393707
  - # 2
    frequency:     0.2115005879
  - # 3
    frequency:     0.5337189727
  - # 4
    frequency:     2.2895576756
  - # 5
    frequency:     2.2962756774
  - # 6
    frequency:     2.2962756774
  - # 7
    frequency:     2.3134154428
  - # 8
    frequency:     2.3134154428
  - # 9
    frequency:     2.3452273254
  - # 10
    frequency:     3.9566298937
  - # 11
    frequency:     3.9583827403
  - # 12
    frequency:     3.9583827403

- q-position: [    0.0729167,    0.0520833,    0.0104167 ]
  weight: 48   
  band:
  - # 1
    frequency:     0.1857118433
  - # 2
    frequency:     0.2581138199
  - # 3
    frequency:     0.6430918365
  - # 4
    frequency:     2.2805232984
  - # 5
    frequency:     2.2861954324
  - # 6
    frequency:     2.2921738077
  - # 7
    frequency:     2.3032739752
  - # 8
    frequency:     2.3224690560
  - # 9
    frequency:     2.3591269096
  - # 10
    frequency:     3.9450160207
  - # 11
    frequency:     3.9470641118
  - # 12
    frequency:     3.9484474345

- q-position: [    0.0937500,    0.0520833,    0.0104167 ]
  weight: 48   
  band:
  - # 1
    frequency:     0.2411554612
  - # 2
    frequency:     0.3097095925
  - # 3
    frequency:     0.7605253284
  - # 4
    frequency:     2.2713787224
  - # 5
    frequency:     2.2728073695
  - # 6
    frequency:     2.2868809360
  - # 7
    frequency:     2.2898053510
  - # 8
    frequency:     2.3344517095
  - # 9
    frequency:     2.3748515824
  - # 10
    frequency:     3.9296196276
  - # 11
    frequency:     3.9320605593
  - # 12
    frequency:     3.9351742396

- q-position: [    0.1145833,    0.0520833,    0.0104167 ]
  weight: 48   
  band:
  - # 1
    frequency:     0.3021445958
  - # 2
    frequency:     0.3642835979
  - # 3
    frequency:     0.8826612645
  - # 4
    frequency:     2.2561558596
  - # 5
    frequency:     2.2620493129
  - # 6
    frequency:     2.2730548798
  - # 7
    frequency:     2.2804450092
  - # 8
    frequency:     2.3493866647
  - # 9
    frequency:     2.3925519418
  - # 10
    frequency:     3.9105162790
  - # 11
    frequency:     3.9134469377
  - # 12
    frequency:     3.9185414956

- q-position: [    0.1354167,    0.0520833,    0.0104167 ]
  weight: 48   
  band:
  - # 1
    frequency:     0.3651916844