# Thermal properties / unit cell (natom)

unit:
  temperature:   K
  free_energy:   kJ/mol
  entropy:       J/K/mol
  heat_capacity: J/K/mol

natom:     4
num_modes: 1327104
num_integrated_modes: 1327104

zero_point_energy:       5.7044441
high_T_entropy:        468.9811144

thermal_properties:
- temperature:         0.0000000
  free_energy:         5.7044441
  entropy:             0.0000000
  heat_capacity:       0.0000000
  energy:              5.7044441

- temperature:        10.0000000
  free_energy:         5.7019198
  entropy:             1.0014725
  heat_capacity:       3.0398815
  energy:              5.7119346

- temperature:        20.0000000
  free_energy:         5.6650964
  entropy:             7.4952922
  heat_capacity:      19.3245805
  energy:              5.8150022

- temperature:        30.0000000
  free_energy:         5.5349654
  entropy:            19.0624965
  heat_capacity:      38.6560806
  energy:              6.1068403

- temperature:        40.0000000
  free_energy:         5.2780850
  entropy:            32.4203126
  heat_capacity:      54.1985921
  energy:              6.5748975

- temperature:        50.0000000
  free_energy:         4.8866094
  entropy:            45.7970719
  heat_capacity:      65.4732441
  energy:              7.1764630

- temperature:        60.0000000
  free_energy:         4.3645023
  entropy:            58.4814845
  heat_capacity:      73.4535632
  energy:              7.8733914

- temperature:        70.0000000
  free_energy:         3.7200358
  entropy:            70.2553240
  heat_capacity:      79.1364316
  energy:              8.6379085

- temperature:        80.0000000
  free_energy:         2.9624819
  entropy:            81.1056373
  heat_capacity:      83.2550903
  energy:              9.4509329

- temperature:        90.0000000
  free_energy:         2.1007906
  entropy:            91.0963328
  heat_capacity:      86.3033040
  energy:             10.2994605

- temperature:       100.0000000
  free_energy:         1.1431320
  entropy:           100.3139710
  heat_capacity:      88.6069927
  energy:             11.1745291

- temperature:       110.0000000
  free_energy:         0.0967959
  entropy:           108.8459212
  heat_capacity:      90.3824441
  energy:             12.0698472

- temperature:       120.0000000
  free_energy:        -1.0317690
  entropy:           116.7723078
  heat_capacity:      91.7754040
  energy:             12.9809080

- temperature:       130.0000000
  free_energy:        -2.2368681
  entropy:           124.1637331
  heat_capacity:      92.8859509
  energy:             13.9044172

- temperature:       140.0000000
  free_energy:        -3.5134652
  entropy:           131.0813325
  heat_capacity:      93.7841624
  energy:             14.8379214

- temperature:       150.0000000
  free_energy:        -4.8570914
  entropy:           137.5776818
  heat_capacity:      94.5200507
  energy:             15.7795609

- temperature:       160.0000000
  free_energy:        -6.2637658
  entropy:           143.6979333
  heat_capacity:      95.1299548
  energy:             16.7279035

- temperature:       170.0000000
  free_energy:        -7.7299265
  entropy:           149.4809218
  heat_capacity:      95.6407225
  energy:             17.6818302

- temperature:       180.0000000
  free_energy:        -9.2523722
  entropy:           154.9601522
  heat_capacity:      96.0724976
  energy:             18.6404552

- temperature:       190.0000000
  free_energy:       -10.8282141
  entropy:           160.1646447
  heat_capacity:      96.4406091
  energy:             19.6030684

- temperature:       200.0000000
  free_energy:       -12.4548338
  entropy:           165.1196432
  heat_capacity:      96.7568750
  energy:             20.5690948

- temperature:       210.0000000
  free_energy:       -14.1298492
  entropy:           169.8472055
  heat_capacity:      97.0305161
  energy:             21.5380640

- temperature:       220.0000000
  free_energy:       -15.8510846
  entropy:           174.3666912
  heat_capacity:      97.2688065
  energy:             22.5095875

- temperature:       230.0000000
  free_energy:       -17.6165465
  entropy:           178.6951663
  heat_capacity:      97.4775428
  energy:             23.4833417

- temperature:       240.0000000
  free_energy:       -19.4244018
  entropy:           182.8477384
  heat_capacity:      97.6613882
  energy:             24.4590554

- temperature:       250.0000000
  free_energy:       -21.2729599
  entropy:           186.8378363
  heat_capacity:      97.8241262
  energy:             25.4364992

- temperature:       260.0000000
  free_energy:       -23.1606570
  entropy:           190.6774423
  heat_capacity:      97.9688519
  energy:             26.4154780

- temperature:       270.0000000
  free_energy:       -25.0860430
  entropy:           194.3772878
  heat_capacity:      98.0981159
  energy:             27.3958248

- temperature:       280.0000000
  free_energy:       -27.0477692
  entropy:           197.9470179
  heat_capacity:      98.2140349
  energy:             28.3773959

- temperature:       290.0000000
  free_energy:       -29.0445787
  entropy:           201.3953296
  heat_capacity:      98.3183769
  energy:             29.3600669

- temperature:       300.0000000
  free_energy:       -31.0752973
  entropy:           204.7300904
  heat_capacity:      98.4126278
  energy:             30.3437298

- temperature:       310.0000000
  free_energy:       -33.1388258
  entropy:           207.9584383
  heat_capacity:      98.4980434
  energy:             31.3282900

- temperature:       320.0000000
  free_energy:       -35.2341331
  entropy:           211.0868683
  heat_capacity:      98.5756905
  energy:             32.3136648

- temperature:       330.0000000
  free_energy:       -37.3602500
  entropy:           214.1213059
  heat_capacity:      98.6464806
  energy:             33.2997810

- temperature:       340.0000000
  free_energy:       -39.5162640
  entropy:           217.0671711
  heat_capacity:      98.7111953
  energy:             34.2865741

- temperature:       350.0000000
  free_energy:       -41.7013147
  entropy:           219.9294333
  heat_capacity:      98.7705085
  energy:             35.2739869

- temperature:       360.0000000
  free_energy:       -43.9145893
  entropy:           222.7126598
  heat_capacity:      98.8250034
  energy:             36.2619683

- temperature:       370.0000000
  free_energy:       -46.1553185
  entropy:           225.4210572
  heat_capacity:      98.8751867
  energy:             37.2504726

- temperature:       380.0000000
  free_energy:       -48.4227740
  entropy:           228.0585081
  heat_capacity:      98.9215005
  energy:             38.2394591

- temperature:       390.0000000
  free_energy:       -50.7162642
  entropy:           230.6286032
  heat_capacity:      98.9643317
  energy:             39.2288910

- temperature:       400.0000000
  free_energy:       -53.0351326
  entropy:           233.1346697
  heat_capacity:      99.0040201
  energy:             40.2187353

- temperature:       410.0000000
  free_energy:       -55.3787545
  entropy:           235.5797962
  heat_capacity:      99.0408652
  energy:             41.2089619

- temperature:       420.0000000
  free_energy:       -57.7465350
  entropy:           237.9668547
  heat_capacity:      99.0751318
  energy:             42.1995440

- temperature:       430.0000000
  free_energy:       -60.1379070
  entropy:           240.2985204
  heat_capacity:      99.1070544
  energy:             43.1904568

- temperature:       440.0000000
  free_energy:       -62.5523291
  entropy:           242.5772888
  heat_capacity:      99.1368416
  energy:             44.1816780

- temperature:       450.0000000
  free_energy:       -64.9892842
  entropy:           244.8054918
  heat_capacity:      99.1646796
  energy:             45.1731871

- temperature:       460.0000000
  free_energy:       -67.4482777
  entropy:           246.9853115
  heat_capacity:      99.1907343
  energy:             46.1649656

- temperature:       470.0000000
  free_energy:       -69.9288360
  entropy:           249.1187922
  heat_capacity:      99.2151546
  energy:             47.1569964

- temperature:       480.0000000
  free_energy:       -72.4305055
  entropy:           251.2078524
  heat_capacity:      99.2380744
  energy:             48.1492637

- temperature:       490.0000000
  free_energy:       -74.9528510
  entropy:           253.2542944
  heat_capacity:      99.2596138
  energy:             49.1417532

- temperature:       500.0000000
  free_energy:       -77.4954550
  entropy:           255.2598134
  heat_capacity:      99.2798813
  energy:             50.1344517

- temperature:       510.0000000
  free_energy:       -80.0579162
  entropy:           257.2260062
  heat_capacity:      99.2989750
  energy:             51.1273470

- temperature:       520.0000000
  free_energy:       -82.6398490
  entropy:           259.1543782
  heat_capacity:      99.3169838
  energy:             52.1204276

- temperature:       530.0000000
  free_energy:       -85.2408824
  entropy:           261.0463504
  heat_capacity:      99.3339881
  energy:             53.1136833

- temperature:       540.0000000
  free_energy:       -87.8606592
  entropy:           262.9032657
  heat_capacity:      99.3500613
  energy:             54.1071043

- temperature:       550.0000000
  free_energy:       -90.4988351
  entropy:           264.7263941
  heat_capacity:      99.3652699
  energy:             55.1006816

- temperature:       560.0000000
  free_energy:       -93.1550785
  entropy:           266.5169383
  heat_capacity:      99.3796749
  energy:             56.0944070

- temperature:       570.0000000
  free_energy:       -95.8290691
  entropy:           268.2760381
  heat_capacity:      99.3933319
  energy:             57.0882726

- temperature:       580.0000000
  free_energy:       -98.5204980
  entropy:           270.0047747
  heat_capacity:      99.4062916
  energy:             58.0822713

- temperature:       590.0000000
  free_energy:      -101.2290668
  entropy:           271.7041747
  heat_capacity:      99.4186007
  energy:             59.0763963

- temperature:       600.0000000
  free_energy:      -103.9544870
  entropy:           273.3752138
  heat_capacity:      99.4303020
  energy:             60.0706413

- temperature:       610.0000000
  free_energy:      -106.6964796
  entropy:           275.0188198
  heat_capacity:      99.4414348
  energy:             61.0650004

- temperature:       620.0000000
  free_energy:      -109.4547749
  entropy:           276.6358760
  heat_capacity:      99.4520353
  energy:             62.0594682

- temperature:       630.0000000
  free_energy:      -112.2291115
  entropy:           278.2272237
  heat_capacity:      99.4621369
  energy:             63.0540395

- temperature:       640.0000000
  free_energy:      -115.0192363
  entropy:           279.7936652
  heat_capacity:      99.4717704
  energy:             64.0487094

- temperature:       650.0000000
  free_energy:      -117.8249043
  entropy:           281.3359657
  heat_capacity:      99.4809642
  energy:             65.0434734

- temperature:       660.0000000
  free_energy:      -120.6458776
  entropy:           282.8548559
  heat_capacity:      99.4897448
  energy:             66.0383273

- temperature:       670.0000000
  free_energy:      -123.4819257
  entropy:           284.3510339
  heat_capacity:      99.4981363
  energy:             67.0332670

- temperature:       680.0000000
  free_energy:      -126.3328248
  entropy:           285.8251671
  heat_capacity:      99.5061616
  energy:             68.0282888

- temperature:       690.0000000
  free_energy:      -129.1983577
  entropy:           287.2778939
  heat_capacity:      99.5138416
  energy:             69.0233891

- temperature:       700.0000000
  free_energy:      -132.0783134
  entropy:           288.7098256
  heat_capacity:      99.5211957
  energy:             70.0185646

- temperature:       710.0000000
  free_energy:      -134.9724869
  entropy:           290.1215477
  heat_capacity:      99.5282422
  energy:             71.0138120

- temperature:       720.0000000
  free_energy:      -137.8806788
  entropy:           291.5136212
  heat_capacity:      99.5349980
  energy:             72.0091284

- temperature:       730.0000000
  free_energy:      -140.8026956
  entropy:           292.8865844
  heat_capacity:      99.5414788
  energy:             73.0045110

- temperature:       740.0000000
  free_energy:      -143.7383486
  entropy:           294.2409536
  heat_capacity:      99.5476993
  energy:             73.9999571

- temperature:       750.0000000
  free_energy:      -146.6874543
  entropy:           295.5772247
  heat_capacity:      99.5536734
  energy:             74.9954642

- temperature:       760.0000000
  free_energy:      -149.6498343
  entropy:           296.8958739
  heat_capacity:      99.5594137
  energy:             75.9910298

- temperature:       770.0000000
  free_energy:      -152.6253146
  entropy:           298.1973589
  heat_capacity:      99.5649325
  energy:             76.9866517

- temperature:       780.0000000
  free_energy:      -155.6137257
  entropy:           299.4821199
  heat_capacity:      99.5702408
  energy:             77.9823278

- temperature:       790.0000000
  free_energy:      -158.6149027
  entropy:           300.7505804
  heat_capacity:      99.5753493
  energy:             78.9780559

- temperature:       800.0000000
  free_energy:      -161.6286844
  entropy:           302.0031481
  heat_capacity:      99.5802679
  energy:             79.9738341

- temperature:       810.0000000
  free_energy:      -164.6549140
  entropy:           303.2402155
  heat_capacity:      99.5850058
  energy:             80.9696606

- temperature:       820.0000000
  free_energy:      -167.6934383
  entropy:           304.4621609
  heat_capacity:      99.5895719
  energy:             81.9655337

- temperature:       830.0000000
  free_energy:      -170.7441080
  entropy:           305.6693488
  heat_capacity:      99.5939742
  energy:             82.9614515

- temperature:       840.0000000
  free_energy:      -173.8067772
  entropy:           306.8621308
  heat_capacity:      99.5982206
  energy:             83.9574126

- temperature:       850.0000000
  free_energy:      -176.8813037
  entropy:           308.0408461
  heat_capacity:      99.6023183
  energy:             84.9534155

- temperature:       860.0000000
  free_energy:      -179.9675484
  entropy:           309.2058220
  heat_capacity:      99.6062742
  energy:             85.9494585

- temperature:       870.0000000
  free_energy:      -183.0653754
  entropy:           310.3573746
  heat_capacity:      99.6100947
  energy:             86.9455405

- temperature:       880.0000000
  free_energy:      -186.1746521
  entropy:           311.4958092
  heat_capacity:      99.6137859
  energy:             87.9416600

- temperature:       890.0000000
  free_energy:      -189.2952488
  entropy:           312.6214209
  heat_capacity:      99.6173537
  energy:             88.9378158

- temperature:       900.0000000
  free_energy:      -192.4270388
  entropy:           313.7344949
  heat_capacity:      99.6208034
  energy:             89.9340067

- temperature:       910.0000000
  free_energy:      -195.5698979
  entropy:           314.8353070
  heat_capacity:      99.6241402
  energy:             90.9302315

- temperature:       920.0000000
  free_energy:      -198.7237049
  entropy:           315.9241239
  heat_capacity:      99.6273690
  energy:             91.9264891

- temperature:       930.0000000
  free_energy:      -201.8883412
  entropy:           317.0012040
  heat_capacity:      99.6304944
  energy:             92.9227785

- temperature:       940.0000000
  free_energy:      -205.0636907
  entropy:           318.0667972
  heat_capacity:      99.6335207
  energy:             93.9190987

- temperature:       950.0000000
  free_energy:      -208.2496397
  entropy:           319.1211456
  heat_capacity:      99.6364521
  energy:             94.9154486

- temperature:       960.0000000
  free_energy:      -211.4460769
  entropy:           320.1644837
  heat_capacity:      99.6392925
  energy:             95.9118274

- temperature:       970.0000000
  free_energy:      -214.6528934
  entropy:           321.1970388
  heat_capacity:      99.6420457
  energy:             96.9082342

- temperature:       980.0000000
  free_energy:      -217.8699825
  entropy:           322.2190312
  heat_capacity:      99.6447151
  energy:             97.9046680

- temperature:       990.0000000
  free_energy:      -221.0972396
  entropy:           323.2306745
  heat_capacity:      99.6473042
  energy:             98.9011282

- temperature:      1000.0000000
  free_energy:      -224.3345622
  entropy:           324.2321760
  heat_capacity:      99.6498161
  energy:             99.8976139

- temperature:      1010.0000000
  free_energy:      -227.5818499
  entropy:           325.2237369
  heat_capacity:      99.6522539
  energy:            100.8941243

- temperature:      1020.0000000
  free_energy:      -230.8390044
  entropy:           326.2055521
  heat_capacity:      99.6546204
  energy:            101.8906587

- temperature:      1030.0000000
  free_energy:      -234.1059291
  entropy:           327.1778113
  heat_capacity:      99.6569185
  energy:            102.8872165

- temperature:      1040.0000000
  free_energy:      -237.3825294
  entropy:           328.1406983
  heat_capacity:      99.6591506
  energy:            103.8837969

- temperature:      1050.0000000
  free_energy:      -240.6687124
  entropy:           329.0943921
  heat_capacity:      99.6613194
  energy:            104.8803993

- temperature:      1060.0000000
  free_energy:      -243.9643872
  entropy:           330.0390663
  heat_capacity:      99.6634271
  energy:            105.8770230

- temperature:      1070.0000000
  free_energy:      -247.2694643
  entropy:           330.9748896
  heat_capacity:      99.6654762
  energy:            106.8736676

- temperature:      1080.0000000
  free_energy:      -250.5838560
  entropy:           331.9020263
  heat_capacity:      99.6674686
  energy:            107.8703324

- temperature:      1090.0000000
  free_energy:      -253.9074764
  entropy:           332.8206359
  heat_capacity:      99.6694065
  energy:            108.8670168

- temperature:      1100.0000000
  free_energy:      -257.2402408
  entropy:           333.7308738
  heat_capacity:      99.6712919
  energy:            109.8637203

- temperature:      1110.0000000
  free_energy:      -260.5820664
  entropy:           334.6328909
  heat_capacity:      99.6731266
  energy:            110.8604425

- temperature:      1120.0000000
  free_energy:      -263.9328717
  entropy:           335.5268343
  heat_capacity:      99.6749124
  energy:            111.8571827

- temperature:      1130.0000000
  free_energy:      -267.2925767
  entropy:           336.4128471
  heat_capacity:      99.6766511
  energy:            112.8539406

- temperature:      1140.0000000
  free_energy:      -270.6611027
  entropy:           337.2910687
  heat_capacity:      99.6783443
  energy:            113.8507156

- temperature:      1150.0000000
  free_energy:      -274.0383726
  entropy:           338.1616347
  heat_capacity:      99.6799935
  energy:            114.8475073

- temperature:      1160.0000000
  free_energy:      -277.4243103
  entropy:           339.0246773
  heat_capacity:      99.6816004
  energy:            115.8443153

- temperature:      1170.0000000
  free_energy:      -280.8188415
  entropy:           339.8803253
  heat_capacity:      99.6831662
  energy:            116.8411392

- temperature:      1180.0000000
  free_energy:      -284.2218926
  entropy:           340.7287043
  heat_capacity:      99.6846925
  energy:            117.8379785

- temperature:      1190.0000000
  free_energy:      -287.6333917
  entropy:           341.5699366
  heat_capacity:      99.6861804
  energy:            118.8348329

- temperature:      1200.0000000
  free_energy:      -291.0532679
  entropy:           342.4041416
  heat_capacity:      99.6876314
  energy:            119.8317020

- temperature:      1210.0000000
  free_energy:      -294.4814515
  entropy:           343.2314355
  heat_capacity:      99.6890466
  energy:            120.8285854

- temperature:      1220.0000000
  free_energy:      -297.9178740
  entropy:           344.0519318
  heat_capacity:      99.6904271
  energy:            121.8254828

- temperature:      1230.0000000
  free_energy:      -301.3624679
  entropy:           344.8657412
  heat_capacity:      99.6917742
  energy:            122.8223938

- temperature:      1240.0000000
  free_energy:      -304.8151669
  entropy:           345.6729718
  heat_capacity:      99.6930888
  energy:            123.8193182

- temperature:      1250.0000000
  free_energy:      -308.2759057
  entropy:           346.4737290
  heat_capacity:      99.6943721
  energy:            124.8162555

- temperature:      1260.0000000
  free_energy:      -311.7446202
  entropy:           347.2681157
  heat_capacity:      99.6956249
  energy:            125.8132055

- temperature:      1270.0000000
  free_energy:      -315.2212471
  entropy:           348.0562323
  heat_capacity:      99.6968483
  energy:            126.8101679

- temperature:      1280.0000000
  free_energy:      -318.7057243
  entropy:           348.8381771
  heat_capacity:      99.6980431
  energy:            127.8071424

- temperature:      1290.0000000
  free_energy:      -322.1979904
  entropy:           349.6140458
  heat_capacity:      99.6992103
  energy:            128.8041287

- temperature:      1300.0000000
  free_energy:      -325.6979853
  entropy:           350.3839321
  heat_capacity:      99.7003507
  energy:            129.8011265

- temperature:      1310.0000000
  free_energy:      -329.2056494
  entropy:           351.1479275
  heat_capacity:      99.7014651
  energy:            130.7981356

- temperature:      1320.0000000
  free_energy:      -332.7209245
  entropy:           351.9061214
  heat_capacity:      99.7025543
  energy:            131.7951557

- temperature:      1330.0000000
  free_energy:      -336.2437528
  entropy:           352.6586011
  heat_capacity:      99.7036190
  energy:            132.7921866

- temperature:      1340.0000000
  free_energy:      -339.7740777
  entropy:           353.4054520
  heat_capacity:      99.7046600
  energy:            133.7892280

- temperature:      1350.0000000
  free_energy:      -343.3118434
  entropy:           354.1467578
  heat_capacity:      99.7056779
  energy:            134.7862797

- temperature:      1360.0000000
  free_energy:      -346.8569947
  entropy:           354.8826001
  heat_capacity:      99.7066736
  energy:            135.7833415

- temperature:      1370.0000000
  free_energy:      -350.4094774
  entropy:           355.6130588
  heat_capacity:      99.7076475
  energy:            136.7804131

- temperature:      1380.0000000
  free_energy:      -353.9692382
  entropy:           356.3382120
  heat_capacity:      99.7086003
  energy:            137.7774944

- temperature:      1390.0000000
  free_energy:      -357.5362242
  entropy:           357.0581362
  heat_capacity:      99.7095326
  energy:            138.7745851

- temperature:      1400.0000000
  free_energy:      -361.1103837
  entropy:           357.7729062
  heat_capacity:      99.7104451
  energy:            139.7716850

- temperature:      1410.0000000
  free_energy:      -364.6916654
  entropy:           358.4825953
  heat_capacity:      99.7113382
  energy:            140.7687939

- temperature:      1420.0000000
  free_energy:      -368.2800189
  entropy:           359.1872751
  heat_capacity:      99.7122126
  energy:            141.7659117

- temperature:      1430.0000000
  free_energy:      -371.8753945
  entropy:           359.8870158
  heat_capacity:      99.7130686
  energy:            142.7630381

- temperature:      1440.0000000
  free_energy:      -375.4777430
  entropy:           360.5818861
  heat_capacity:      99.7139070
  energy:            143.7601730

- temperature:      1450.0000000
  free_energy:      -379.0870162
  entropy:           361.2719533
  heat_capacity:      99.7147280
  energy:            144.7573162

- temperature:      1460.0000000
  free_energy:      -382.7031663
  entropy:           361.9572834
  heat_capacity:      99.7155322
  energy:            145.7544675

- temperature:      1470.0000000
  free_energy:      -386.3261463
  entropy:           362.6379408
  heat_capacity:      99.7163201
  energy:            146.7516268

- temperature:      1480.0000000
  free_energy:      -389.9559097
  entropy:           363.3139889
  heat_capacity:      99.7170921
  energy:            147.7487938

- temperature:      1490.0000000
  free_energy:      -393.5924109
  entropy:           363.9854896
  heat_capacity:      99.7178486
  energy:            148.7459686

- temperature:      1500.0000000
  free_energy:      -397.2356046
  entropy:           364.6525035
  heat_capacity:      99.7185901
  energy:            149.7431508

- temperature:      1510.0000000
  free_energy:      -400.8854462
  entropy:           365.3150904
  heat_capacity:      99.7193168
  energy:            150.7403403

- temperature:      1520.0000000
  free_energy:      -404.5418918
  entropy:           365.9733085
  heat_capacity:      99.7200293
  energy:            151.7375370

- temperature:      1530.0000000
  free_energy:      -408.2048980
  entropy:           366.6272149
  heat_capacity:      99.7207279
  energy:            152.7347408

- temperature:      1540.0000000
  free_energy:      -411.8744219
  entropy:           367.2768659
  heat_capacity:      99.7214129
  energy:            153.7319516

- temperature:      1550.0000000
  free_energy:      -415.5504213
  entropy:           367.9223164
  heat_capacity:      99.7220847
  energy:            154.7291691

- temperature:      1560.0000000
  free_energy:      -419.2328544
  entropy:           368.5636203
  heat_capacity:      99.7227436
  energy:            155.7263932

- temperature:      1570.0000000
  free_energy:      -422.9216801
  entropy:           369.2008305
  heat_capacity:      99.7233900
  energy:            156.7236239

- temperature:      1580.0000000
  free_energy:      -426.6168576
  entropy:           369.8339991
  heat_capacity:      99.7240241
  energy:            157.7208610

- temperature:      1590.0000000
  free_energy:      -430.3183467
  entropy:           370.4631768
  heat_capacity:      99.7246464
  energy:            158.7181043

- temperature:      1600.0000000
  free_energy:      -434.0261080
  entropy:           371.0884136
  heat_capacity:      99.7252570
  energy:            159.7153539

- temperature:      1610.0000000
  free_energy:      -437.7401020
  entropy:           371.7097587
  heat_capacity:      99.7258563
  energy:            160.7126094

- temperature:      1620.0000000
  free_energy:      -441.4602903
  entropy:           372.3272600
  heat_capacity:      99.7264445
  energy:            161.7098709

- temperature:      1630.0000000
  free_energy:      -445.1866346
  entropy:           372.9409650
  heat_capacity:      99.7270219
  energy:            162.7071383

- temperature:      1640.0000000
  free_energy:      -448.9190971
  entropy:           373.5509198
  heat_capacity:      99.7275888
  energy:            163.7044114

- temperature:      1650.0000000
  free_energy:      -452.6576406
  entropy:           374.1571701
  heat_capacity:      99.7281455
  energy:            164.7016900

- temperature:      1660.0000000
  free_energy:      -456.4022283
  entropy:           374.7597606
  heat_capacity:      99.7286921
  energy:            165.6989742

- temperature:      1670.0000000
  free_energy:      -460.1528238
  entropy:           375.3587351
  heat_capacity:      99.7292289
  energy:            166.6962638

- temperature:      1680.0000000
  free_energy:      -463.9093911
  entropy:           375.9541368
  heat_capacity:      99.7297562
  energy:            167.6935588

- temperature:      1690.0000000
  free_energy:      -467.6718948
  entropy:           376.5460081
  heat_capacity:      99.7302741
  energy:            168.6908589

- temperature:      1700.0000000
  free_energy:      -471.4402996
  entropy:           377.1343905
  heat_capacity:      99.7307830
  energy:            169.6881642

- temperature:      1710.0000000
  free_energy:      -475.2145711
  entropy:           377.7193249
  heat_capacity:      99.7312829
  energy:            170.6854746

- temperature:      1720.0000000
  free_energy:      -478.9946748
  entropy:           378.3008515
  heat_capacity:      99.7317742
  energy:            171.6827899

- temperature:      1730.0000000
  free_energy:      -482.7805769
  entropy:           378.8790098
  heat_capacity:      99.7322569
  energy:            172.6801100

- temperature:      1740.0000000
  free_energy:      -486.5722439
  entropy:           379.4538384
  heat_capacity:      99.7327314
  energy:            173.6774350

- temperature:      1750.0000000
  free_energy:      -490.3696427
  entropy:           380.0253756
  heat_capacity:      99.7331978
  energy:            174.6747646

- temperature:      1760.0000000
  free_energy:      -494.1727406
  entropy:           380.5936588
  heat_capacity:      99.7336562
  energy:            175.6720989

- temperature:      1770.0000000
  free_energy:      -497.9815051
  entropy:           381.1587248
  heat_capacity:      99.7341069
  energy:            176.6694377

- temperature:      1780.0000000
  free_energy:      -501.7959044
  entropy:           381.7206098
  heat_capacity:      99.7345500