  32  32   0   0
  0.1695037E+02  0.8155359E-09  0.8155359E-09  0.8155359E-09  0.5000000E-15
  1.000000000000000E-004
  CAR 
 unknown system                          
     12.03499487     -3.95456718  301      7.72909699      1.00000000
     -3.955  0.0000E+00  0.0000E+00
     -3.901  0.0000E+00  0.0000E+00
     -3.848  0.0000E+00  0.0000E+00
     -3.795  0.0000E+00  0.0000E+00
     -3.741  0.0000E+00  0.0000E+00
     -3.688  0.0000E+00  0.0000E+00
     -3.635  0.0000E+00  0.0000E+00
     -3.581  0.0000E+00  0.0000E+00
     -3.528  0.0000E+00  0.0000E+00
     -3.475  0.0000E+00  0.0000E+00
     -3.422  0.0000E+00  0.0000E+00
     -3.368  0.0000E+00  0.0000E+00
     -3.315  0.0000E+00  0.0000E+00
     -3.262  0.1752E-07  0.9338E-09
     -3.208  0.1278E+00  0.6813E-02
     -3.155  0.7167E+00  0.4501E-01
     -3.102  0.1100E+01  0.1036E+00
     -3.048  0.1754E+01  0.1971E+00
     -2.995  0.1743E+01  0.2901E+00
     -2.942  0.1934E+01  0.3931E+00
     -2.889  0.2341E+01  0.5179E+00
     -2.835  0.1513E+01  0.5986E+00
     -2.782  0.2841E+01  0.7500E+00
     -2.729  0.2256E+01  0.8702E+00
     -2.675  0.3284E+01  0.1045E+01
     -2.622  0.2584E+01  0.1183E+01
     -2.569  0.3709E+01  0.1381E+01
     -2.516  0.3199E+01  0.1551E+01
     -2.462  0.2032E+01  0.1659E+01
     -2.409  0.4063E+01  0.1876E+01
     -2.356  0.3782E+01  0.2078E+01
     -2.302  0.3055E+01  0.2240E+01
     -2.249  0.3653E+01  0.2435E+01
     -2.196  0.4524E+01  0.2676E+01
     -2.142  0.4284E+01  0.2905E+01
     -2.089  0.3159E+01  0.3073E+01
     -2.036  0.4988E+01  0.3339E+01
     -1.983  0.2740E+01  0.3485E+01
     -1.929  0.4825E+01  0.3742E+01
     -1.876  0.3996E+01  0.3955E+01
     -1.823  0.6826E+01  0.4319E+01
     -1.769  0.3299E+01  0.4495E+01
     -1.716  0.3488E+01  0.4681E+01
     -1.663  0.6533E+01  0.5029E+01
     -1.609  0.4023E+01  0.5243E+01
     -1.556  0.4765E+01  0.5497E+01
     -1.503  0.4354E+01  0.5729E+01
     -1.450  0.5501E+01  0.6022E+01
     -1.396  0.5379E+01  0.6309E+01
     -1.343  0.5424E+01  0.6598E+01
     -1.290  0.6141E+01  0.6925E+01
     -1.236  0.4497E+01  0.7165E+01
     -1.183  0.5461E+01  0.7456E+01
     -1.130  0.5358E+01  0.7742E+01
     -1.076  0.6026E+01  0.8063E+01
     -1.023  0.3576E+01  0.8254E+01
     -0.970  0.7542E+01  0.8656E+01
     -0.917  0.7007E+01  0.9029E+01
     -0.863  0.6335E+01  0.9367E+01
     -0.810  0.4720E+01  0.9618E+01
     -0.757  0.5082E+01  0.9889E+01
     -0.703  0.6636E+01  0.1024E+02
     -0.650  0.5047E+01  0.1051E+02
     -0.597  0.7679E+01  0.1092E+02
     -0.543  0.7297E+01  0.1131E+02
     -0.490  0.4350E+01  0.1154E+02
     -0.437  0.8322E+01  0.1199E+02
     -0.384  0.6943E+01  0.1236E+02
     -0.330  0.6494E+01  0.1270E+02
     -0.277  0.2593E+01  0.1284E+02
     -0.224  0.9057E+01  0.1332E+02
     -0.170  0.6010E+01  0.1364E+02
     -0.117  0.7550E+01  0.1405E+02
     -0.064  0.8512E+01  0.1450E+02
     -0.010  0.7755E+01  0.1491E+02
      0.043  0.6124E+01  0.1524E+02
      0.096  0.5059E+01  0.1551E+02
      0.149  0.6901E+01  0.1588E+02
      0.203  0.6525E+01  0.1622E+02
      0.256  0.8147E+01  0.1666E+02
      0.309  0.8337E+01  0.1710E+02
      0.363  0.8946E+01  0.1758E+02
      0.416  0.6945E+01  0.1795E+02
      0.469  0.5363E+01  0.1824E+02
      0.523  0.9008E+01  0.1872E+02
      0.576  0.6970E+01  0.1909E+02
      0.629  0.7782E+01  0.1950E+02
      0.682  0.5342E+01  0.1979E+02
      0.736  0.8909E+01  0.2026E+02
      0.789  0.7676E+01  0.2067E+02
      0.842  0.9515E+01  0.2118E+02
      0.896  0.1053E+02  0.2174E+02
      0.949  0.5558E+01  0.2203E+02
      1.002  0.8210E+01  0.2247E+02
      1.055  0.7626E+01  0.2288E+02
      1.109  0.6495E+01  0.2323E+02
      1.162  0.6744E+01  0.2358E+02
      1.215  0.9946E+01  0.2411E+02
      1.269  0.9296E+01  0.2461E+02
      1.322  0.1018E+02  0.2515E+02
      1.375  0.8044E+01  0.2558E+02
      1.429  0.8377E+01  0.2603E+02
      1.482  0.9024E+01  0.2651E+02
      1.535  0.4614E+01  0.2675E+02
      1.588  0.1109E+02  0.2735E+02
      1.642  0.5786E+01  0.2765E+02
      1.695  0.9998E+01  0.2819E+02
      1.748  0.1082E+02  0.2876E+02
      1.802  0.9987E+01  0.2930E+02
      1.855  0.7790E+01  0.2971E+02
      1.908  0.6210E+01  0.3004E+02
      1.962  0.1394E+02  0.3079E+02
      2.015  0.7662E+01  0.3119E+02
      2.068  0.7601E+01  0.3160E+02
      2.121  0.8109E+01  0.3203E+02
      2.175  0.1161E+02  0.3265E+02
      2.228  0.5554E+01  0.3295E+02
      2.281  0.1122E+02  0.3354E+02
      2.335  0.9490E+01  0.3405E+02
      2.388  0.1006E+02  0.3459E+02
      2.441  0.1204E+02  0.3523E+02
      2.495  0.1000E+02  0.3576E+02
      2.548  0.8455E+01  0.3621E+02
      2.601  0.5045E+01  0.3648E+02
      2.654  0.1067E+02  0.3705E+02
      2.708  0.1062E+02  0.3761E+02
      2.761  0.1073E+02  0.3819E+02
      2.814  0.8384E+01  0.3863E+02
      2.868  0.1039E+02  0.3919E+02
      2.921  0.1267E+02  0.3986E+02
      2.974  0.8747E+01  0.4033E+02
      3.028  0.1108E+02  0.4092E+02
      3.081  0.8069E+01  0.4135E+02
      3.134  0.1034E+02  0.4190E+02
      3.187  0.8153E+01  0.4233E+02
      3.241  0.1398E+02  0.4308E+02
      3.294  0.7868E+01  0.4350E+02
      3.347  0.1147E+02  0.4411E+02
      3.401  0.8675E+01  0.4457E+02
      3.454  0.1226E+02  0.4523E+02
      3.507  0.9964E+01  0.4576E+02
      3.561  0.1063E+02  0.4632E+02
      3.614  0.1213E+02  0.4697E+02
      3.667  0.7710E+01  0.4738E+02
      3.720  0.1314E+02  0.4808E+02
      3.774  0.1121E+02  0.4868E+02
      3.827  0.9932E+01  0.4921E+02
      3.880  0.1065E+02  0.4978E+02
      3.934  0.8220E+01  0.5021E+02
      3.987  0.9915E+01  0.5074E+02
      4.040  0.1169E+02  0.5137E+02
      4.094  0.1317E+02  0.5207E+02
      4.147  0.1229E+02  0.5272E+02
      4.200  0.1202E+02  0.5336E+02
      4.253  0.1073E+02  0.5394E+02
      4.307  0.1167E+02  0.5456E+02
      4.360  0.1063E+02  0.5512E+02
      4.413  0.1008E+02  0.5566E+02
      4.467  0.1018E+02  0.5620E+02
      4.520  0.1146E+02  0.5681E+02
      4.573  0.1072E+02  0.5739E+02
      4.626  0.1406E+02  0.5814E+02
      4.680  0.1451E+02  0.5891E+02
      4.733  0.1113E+02  0.5950E+02
      4.786  0.1033E+02  0.6005E+02
      4.840  0.1110E+02  0.6064E+02
      4.893  0.1144E+02  0.6125E+02
      4.946  0.1466E+02  0.6204E+02
      5.000  0.1514E+02  0.6284E+02
      5.053  0.1259E+02  0.6351E+02
      5.106  0.1089E+02  0.6409E+02
      5.159  0.1128E+02  0.6470E+02
      5.213  0.1009E+02  0.6523E+02
      5.266  0.1262E+02  0.6591E+02
      5.319  0.1811E+02  0.6687E+02
      5.373  0.8530E+01  0.6733E+02
      5.426  0.9352E+01  0.6782E+02
      5.479  0.1232E+02  0.6848E+02
      5.533  0.1314E+02  0.6918E+02
      5.586  0.1404E+02  0.6993E+02
      5.639  0.9620E+01  0.7044E+02
      5.692  0.1245E+02  0.7111E+02
      5.746  0.1111E+02  0.7170E+02
      5.799  0.1109E+02  0.7229E+02
      5.852  0.1469E+02  0.7307E+02
      5.906  0.9140E+01  0.7356E+02
      5.959  0.7317E+01  0.7395E+02
      6.012  0.1302E+02  0.7464E+02
      6.066  0.1265E+02  0.7532E+02
      6.119  0.1357E+02  0.7604E+02
      6.172  0.1057E+02  0.7660E+02
      6.225  0.1001E+02  0.7714E+02
      6.279  0.1228E+02  0.7779E+02
      6.332  0.1210E+02  0.7844E+02
      6.385  0.9931E+01  0.7897E+02
      6.439  0.1136E+02  0.7957E+02
      6.492  0.1424E+02  0.8033E+02
      6.545  0.1392E+02  0.8107E+02
      6.599  0.8896E+01  0.8155E+02
      6.652  0.1590E+02  0.8239E+02
      6.705  0.1563E+02  0.8323E+02
      6.758  0.1100E+02  0.8381E+02
      6.812  0.9070E+01  0.8430E+02
      6.865  0.1273E+02  0.8498E+02
      6.918  0.1147E+02  0.8559E+02
      6.972  0.1356E+02  0.8631E+02
      7.025  0.1430E+02  0.8707E+02
      7.078  0.1344E+02  0.8779E+02
      7.132  0.9729E+01  0.8831E+02
      7.185  0.1293E+02  0.8900E+02
      7.238  0.1647E+02  0.8987E+02
      7.291  0.1128E+02  0.9047E+02
      7.345  0.9852E+01  0.9100E+02
      7.398  0.1616E+02  0.9186E+02
      7.451  0.1007E+02  0.9240E+02
      7.505  0.1389E+02  0.9314E+02
      7.558  0.1102E+02  0.9372E+02
      7.611  0.1184E+02  0.9436E+02
      7.665  0.1729E+02  0.9528E+02
      7.718  0.1133E+02  0.9588E+02
      7.771  0.1315E+02  0.9658E+02
      7.824  0.1413E+02  0.9733E+02
      7.878  0.1148E+02  0.9795E+02
      7.931  0.1437E+02  0.9871E+02
      7.984  0.1294E+02  0.9940E+02
      8.038  0.1288E+02  0.1001E+03
      8.091  0.1430E+02  0.1009E+03
      8.144  0.1083E+02  0.1014E+03
      8.197  0.1707E+02  0.1023E+03
      8.251  0.1736E+02  0.1033E+03
      8.304  0.1306E+02  0.1040E+03
      8.357  0.1530E+02  0.1048E+03
      8.411  0.1114E+02  0.1054E+03
      8.464  0.1327E+02  0.1061E+03
      8.517  0.8306E+01  0.1065E+03
      8.571  0.1383E+02  0.1073E+03
      8.624  0.1140E+02  0.1079E+03
      8.677  0.1239E+02  0.1085E+03
      8.730  0.2072E+02  0.1096E+03
      8.784  0.1526E+02  0.1104E+03
      8.837  0.1546E+02  0.1113E+03
      8.890  0.1454E+02  0.1120E+03
      8.944  0.1218E+02  0.1127E+03
      8.997  0.1731E+02  0.1136E+03
      9.050  0.1065E+02  0.1142E+03
      9.104  0.9293E+01  0.1147E+03
      9.157  0.1704E+02  0.1156E+03
      9.210  0.1006E+02  0.1161E+03
      9.263  0.1636E+02  0.1170E+03
      9.317  0.1679E+02  0.1179E+03
      9.370  0.1229E+02  0.1185E+03
      9.423  0.1388E+02  0.1193E+03
      9.477  0.1513E+02  0.1201E+03
      9.530  0.1796E+02  0.1210E+03
      9.583  0.1399E+02  0.1218E+03
      9.637  0.1008E+02  0.1223E+03
      9.690  0.1611E+02  0.1232E+03
      9.743  0.1289E+02  0.1239E+03
      9.796  0.1588E+02  0.1247E+03
      9.850  0.1391E+02  0.1255E+03
      9.903  0.1465E+02  0.1262E+03
      9.956  0.1355E+02  0.1270E+03
     10.010  0.1154E+02  0.1276E+03
     10.063  0.1288E+02  0.1283E+03
     10.116  0.1219E+02  0.1289E+03
     10.170  0.1525E+02  0.1297E+03
     10.223  0.1109E+02  0.1303E+03
     10.276  0.1426E+02  0.1311E+03
     10.329  0.1114E+02  0.1317E+03
     10.383  0.1256E+02  0.1323E+03
     10.436  0.1315E+02  0.1330E+03
     10.489  0.1058E+02  0.1336E+03
     10.543  0.7092E+01  0.1340E+03
     10.596  0.6218E+01  0.1343E+03
     10.649  0.8619E+01  0.1348E+03
     10.703  0.9208E+01  0.1353E+03
     10.756  0.6099E+01  0.1356E+03
     10.809  0.1414E+01  0.1357E+03
     10.862  0.1680E+01  0.1358E+03
     10.916  0.1726E+01  0.1358E+03
     10.969  0.8818E+00  0.1359E+03
     11.022  0.8118E+00  0.1359E+03
     11.076  0.3609E+00  0.1360E+03
     11.129  0.1739E+00  0.1360E+03
     11.182  0.5210E+00  0.1360E+03
     11.236  0.0000E+00  0.1360E+03
     11.289  0.4263E-03  0.1360E+03
     11.342  0.8644E-01  0.1360E+03
     11.395  0.0000E+00  0.1360E+03
     11.449  0.0000E+00  0.1360E+03
     11.502  0.0000E+00  0.1360E+03
     11.555  0.0000E+00  0.1360E+03
     11.609  0.0000E+00  0.1360E+03
     11.662  0.0000E+00  0.1360E+03
     11.715  0.0000E+00  0.1360E+03
     11.769  0.0000E+00  0.1360E+03
     11.822  0.0000E+00  0.1360E+03
     11.875  0.0000E+00  0.1360E+03
     11.928  0.0000E+00  0.1360E+03
     11.982  0.0000E+00  0.1360E+03
     12.035  0.0000E+00  0.1360E+03
