   32   32    1    1
  0.1695037E+02  0.8155359E-09  0.8155359E-09  0.8155359E-09  0.5000000E-15
  1.000000000000000E-004
  CAR 
 unknown system                          
   96  196   68
 
  0.0000000E+00  0.0000000E+00  0.0000000E+00  0.5787037E-03
   1       -3.2278
   2       -1.0223
   3       -1.0186
   4       -1.0186
   5       -1.0186
   6       -1.0186
   7       -1.0150
   8        1.1515
   9        1.1559
  10        1.1559
  11        1.1575
  12        1.1577
  13        1.1577
  14        1.1577
  15        1.1577
  16        1.1578
  17        1.1595
  18        1.1595
  19        1.1639
  20        3.2358
  21        3.2359
  22        3.2359
  23        3.2359
  24        3.3778
  25        3.3778
  26        3.3778
  27        3.3779
  28        4.8631
  29        4.8631
  30        4.8631
  31        6.1243
  32        6.1244
  33        6.1244
  34        6.9055
  35        6.9055
  36        6.9098
  37        6.9098
  38        6.9099
  39        6.9099
  40        6.9099
  41        6.9100
  42        6.9101
  43        6.9101
  44        6.9143
  45        6.9143
  46        7.9343
  47        7.9384
  48        7.9384
  49        7.9384
  50        7.9384
  51        7.9425
  52        8.6796
  53        8.6806
  54        8.6806
  55        8.6806
  56        8.6806
  57        8.6816
  58        8.9578
  59        8.9580
  60        8.9595
  61        8.9617
  62        8.9619
  63        8.9619
  64        8.9619
  65        8.9620
  66        8.9635
  67        8.9651
  68        8.9659
 
  0.8333333E-01  0.0000000E+00  0.0000000E+00  0.1157407E-02
   1       -3.2123
   2       -1.3692
   3       -1.0034
   4       -1.0034
   5       -1.0034
   6       -1.0034
   7       -0.6386
   8        0.8122
   9        0.8123
  10        0.8123
  11        0.8123
  12        1.1727
  13        1.1727
  14        1.1727
  15        1.1727
  16        1.5321
  17        1.5321
  18        1.5321
  19        1.5322
  20        2.9587
  21        2.9587
  22        2.9587
  23        2.9587
  24        3.6838
  25        3.6838
  26        3.6838
  27        3.6838
  28        4.5588
  29        4.8773
  30        4.8773
  31        6.1394
  32        6.1394
  33        6.4556
  34        6.5825
  35        6.5825
  36        6.6212
  37        6.6212
  38        6.6212
  39        6.6212
  40        6.9242
  41        6.9242
  42        6.9242
  43        6.9242
  44        7.2660
  45        7.2660
  46        7.8106
  47        7.8107
  48        8.1038
  49        8.1038
  50        8.1038
  51        8.1038
  52        8.6338
  53        8.6338
  54        8.6338
  55        8.6339
  56        8.6952
  57        8.6952
  58        8.6952
  59        8.6952
  60        8.8350
  61        8.8350
  62        8.8451
  63        8.8451
  64        8.8452
  65        8.8452
  66        9.3185
  67        9.3185
  68        9.3185
 
  0.1666667E+00  0.0000000E+00  0.0000000E+00  0.1157407E-02
   1       -3.1660
   2       -1.6900
   3       -0.9578
   4       -0.9577
   5       -0.9577
   6       -0.9577
   7       -0.2295
   8        0.4962
   9        0.4962
  10        0.4962
  11        0.4962
  12        1.2177
  13        1.2177
  14        1.2177
  15        1.2177
  16        1.9352
  17        1.9352
  18        1.9352
  19        1.9353
  20        2.6500
  21        2.6500
  22        2.6500
  23        2.6500
  24        3.9970
  25        4.0786
  26        4.0786
  27        4.0786
  28        4.0787
  29        4.9199
  30        4.9199
  31        6.0810
  32        6.0810
  33        6.0810
  34        6.0810
  35        6.1845
  36        6.1846
  37        6.2838
  38        6.2838
  39        6.9669
  40        6.9669
  41        6.9669
  42        6.9669
  43        7.0980
  44        7.5659
  45        7.5659
  46        7.6507
  47        7.6507
  48        8.1720
  49        8.1720
  50        8.1720
  51        8.1721
  52        8.2763
  53        8.2763
  54        8.2763
  55        8.2764
  56        8.3345
  57        8.3345
  58        8.3345
  59        8.3345
  60        9.1596
  61        9.1596
  62        9.3358
  63        9.3358
  64        9.3358
  65        9.3358
  66        9.7041
  67        9.7052
  68        9.7083
 
  0.2500000E+00  0.0000000E+00  0.0000000E+00  0.1157407E-02
   1       -3.0887
   2       -1.9809
   3       -0.8817
   4       -0.8817
   5       -0.8817
   6       -0.8817
   7        0.2064
   8        0.2096
   9        0.2096
  10        0.2096
  11        0.2116
  12        1.2927
  13        1.2927
  14        1.2927
  15        1.2927
  16        2.3641
  17        2.3659
  18        2.3659
  19        2.3667
  20        2.3682
  21        2.3689
  22        2.3689
  23        2.3708
  24        3.3991
  25        4.5039
  26        4.5039
  27        4.5039
  28        4.5039
  29        4.9908
  30        4.9908
  31        5.5000
  32        5.5000
  33        5.5000
  34        5.5000
  35        6.0136
  36        6.0136
  37        6.2596
  38        6.2596
  39        7.0380
  40        7.0380
  41        7.0381
  42        7.0381
  43        7.3101
  44        7.3101
  45        7.6004
  46        7.6004
  47        7.6004
  48        7.6004
  49        7.8304
  50        8.0616
  51        8.0616
  52        8.0637
  53        8.0637
  54        8.0662
  55        8.0662
  56        8.3949
  57        8.3949
  58        8.3949
  59        8.3949
  60        9.4853
  61        9.4853
  62        9.4853
  63        9.4853
  64        9.5478
  65        9.5478
  66       10.0032
  67       10.0033
  68       10.0049
 
  0.3333333E+00  0.0000000E+00  0.0000000E+00  0.1157407E-02
   1       -2.9807
   2       -2.2417
   3       -0.7753
   4       -0.7752
   5       -0.7752
   6       -0.7752
   7       -0.0474
   8       -0.0474
   9       -0.0474
  10       -0.0474
  11        0.6749
  12        1.3976
  13        1.3976
  14        1.3976
  15        1.3976
  16        2.1151
  17        2.1151
  18        2.1151
  19        2.1151
  20        2.8087
  21        2.8260
  22        2.8260
  23        2.8260
  24        2.8261
  25        4.9230
  26        4.9230
  27        4.9230
  28        4.9230
  29        4.9574
  30        4.9574
  31        4.9574
  32        4.9574
  33        5.0902
  34        5.0902
  35        5.7719
  36        5.7719
  37        6.3644
  38        6.3644
  39        7.0303
  40        7.0304
  41        7.0304
  42        7.0304
  43        7.0696
  44        7.0697
  45        7.1377
  46        7.1377
  47        7.1377
  48        7.1377
  49        7.8214
  50        7.8214
  51        7.8214
  52        7.8214
  53        8.5063
  54        8.5063
  55        8.5158
  56        8.5158
  57        8.5158
  58        8.5158
  59        8.6088
  60        9.2369
  61        9.2369
  62        9.2369
  63        9.2370
  64        9.9718
  65        9.9718
  66       10.5597
  67       10.5599
  68       10.5617
 
  0.4166667E+00  0.0000000E+00  0.0000000E+00  0.1157407E-02
   1       -2.8418
   2       -2.4722
   3       -0.6386
   4       -0.6385
   5       -0.6385
   6       -0.6385
   7       -0.2745
   8       -0.2745
   9       -0.2745
  10       -0.2744
  11        1.1692
  12        1.5324
  13        1.5325
  14        1.5325
  15        1.5325
  16        1.8913
  17        1.8913
  18        1.8913
  19        1.8913
  20        2.2378
  21        3.3126
  22        3.3126
  23        3.3126
  24        3.3126
  25        4.3631
  26        4.3631
  27        4.3631
  28        4.3631
  29        5.2179
  30        5.2179
  31        5.4382
  32        5.4382
  33        5.4382
  34        5.4382
  35        5.5588
  36        5.5588
  37        6.4767
  38        6.4768
  39        6.4768
  40        6.4768
  41        6.4985
  42        6.4987
  43        6.8524
  44        6.8524
  45        7.2659
  46        7.2659
  47        7.2659
  48        7.2659
  49        7.6077
  50        7.6077
  51        7.6077
  52        7.6077
  53        8.6567
  54        8.6567
  55        8.6567
  56        8.6567
  57        8.9773
  58        8.9773
  59        9.0162
  60        9.0162
  61        9.0162
  62        9.0162
  63        9.4214
  64       10.0054
  65       10.0054
  66       10.4220
  67       10.4220
  68       11.0309
 
  0.5000000E+00  0.0000000E+00  0.0000000E+00  0.5787037E-03
   1       -2.6737
   2       -2.6709
   3       -0.4755
   4       -0.4724
   5       -0.4724
   6       -0.4716
   7       -0.4714
   8       -0.4707
   9       -0.4707
  10       -0.4676
  11        1.6883
  12        1.6907
  13        1.6954
  14        1.6958
  15        1.6958
  16        1.6966
  17        1.6975
  18        1.6983
  19        1.6983
  20        1.7007
  21        3.8245
  22        3.8246
  23        3.8246
  24        3.8253
  25        3.8256
  26        3.8262
  27        3.8262
  28        3.8264
  29        5.3726
  30        5.3726
  31        5.3756
  32        5.3756
  33        5.9441
  34        5.9441
  35        5.9447
  36        5.9449
  37        5.9454
  38        5.9457
  39        5.9462
  40        5.9462
  41        6.6596
  42        6.6606
  43        6.6624
  44        6.6634
  45        7.4202
  46        7.4202
  47        7.4212
  48        7.4224
  49        7.4226
  50        7.4239
  51        7.4249
  52        7.4249
  53        8.8208
  54        8.8218
  55        8.8218
  56        8.8219
  57        8.8240
  58        8.8241
  59        8.8241
  60        8.8252
  61        9.4758
  62        9.4758
  63        9.4781
  64        9.4781
  65       10.2630
  66       10.2644
  67       10.8913
  68       10.8916
 
  0.0000000E+00  0.8333333E-01  0.0000000E+00  0.2314815E-02
   1       -3.2123
   2       -1.3692
   3       -1.0063
   4       -1.0034
   5       -1.0034
   6       -1.0006
   7       -0.6386
   8        0.8094
   9        0.8123
  10        0.8123
  11        0.8151
  12        1.1705
  13        1.1716
  14        1.1738
  15        1.1749
  16        1.5293
  17        1.5321
  18        1.5321
  19        1.5350
  20        2.9566
  21        2.9576
  22        2.9598
  23        2.9608
  24        3.6816
  25        3.6826
  26        3.6849
  27        3.6859
  28        4.5588
  29        4.8773
  30        4.8773
  31        6.1394
  32        6.1394
  33        6.4556
  34        6.5824
  35        6.5825
  36        6.6181
  37        6.6212
  38        6.6212
  39        6.6244
  40        6.9215
  41        6.9242
  42        6.9242
  43        6.9268
  44        7.2660
  45        7.2660
  46        7.8106
  47        7.8107
  48        8.1011
  49        8.1038
  50        8.1038
  51        8.1065
  52        8.6311
  53        8.6338
  54        8.6339
  55        8.6366
  56        8.6925
  57        8.6941
  58        8.6963
  59        8.6979
  60        8.8350
  61        8.8351
  62        8.8440
  63        8.8451
  64        8.8451
  65        8.8463
  66        9.3158
  67        9.3185
  68        9.3207
 
  0.8333333E-01  0.8333333E-01  0.0000000E+00  0.4629630E-02
   1       -3.1969
   2       -1.3551
   3       -1.3528
   4       -0.9882
   5       -0.9882
   6       -0.6246
   7       -0.6223
   8        0.4661
   9        0.8257
  10        0.8266
  11        0.8280
  12        0.8290
  13        1.1871
  14        1.1881
  15        1.5454
  16        1.5464
  17        1.5478
  18        1.5487
  19        1.9056
  20        2.6204
  21        2.6204
  22        3.2646
  23        3.2646
  24        3.4081
  25        3.4081
  26        4.0493
  27        4.0493
  28        4.5728
  29        4.5736
  30        4.8915
  31        6.1545
  32        6.2930
  33        6.2953
  34        6.4700
  35        6.4708
  36        6.5884
  37        6.5886
  38        6.5955
  39        6.5981
  40        6.6885
  41        6.6885
  42        6.9711
  43        6.9728
  44        7.2789
  45        7.2816
  46        7.8938
  47        7.8959
  48        8.0832
  49        8.0857
  50        8.3058
  51        8.3175
  52        8.3175
  53        8.3644
  54        8.3653
  55        8.3667
  56        8.3677
  57        8.8904
  58        8.8911
  59        8.9549
  60        8.9550
  61        8.9895
  62        8.9914
  63        9.0515
  64        9.0525
  65        9.0529
  66        9.0539
  67        9.0850
  68        9.0867
 
  0.1666667E+00  0.8333333E-01  0.0000000E+00  0.4629630E-02
   1       -3.1505
   2       -1.6747
   3       -1.3082
   4       -0.9425
   5       -0.9425
   6       -0.5779
   7       -0.2143
   8        0.1492
   9        0.5112
  10        0.5112
  11        0.8717
  12        0.8724
  13        0.8730
  14        1.5912
  15        1.5920
  16        1.5925
  17        1.9502
  18        1.9502
  19        2.3075
  20        2.3088
  21        2.3090
  22        3.0175
  23        3.0175
  24        3.7428
  25        3.7428
  26        4.0116
  27        4.4456
  28        4.4456
  29        4.6163
  30        4.9341
  31        5.7512
  32        5.9942
  33        6.0916
  34        6.0916
  35        6.1996
  36        6.2980
  37        6.4361
  38        6.5150
  39        6.6394
  40        6.6916
  41        6.6916
  42        7.1126
  43        7.3171
  44        7.3229
  45        7.6650
  46        7.6655
  47        7.8413
  48        7.8413
  49        7.8707
  50        7.9868
  51        8.0066
  52        8.0653
  53        8.0653
  54        8.4932
  55        8.5310
  56        8.5310
  57        8.5568
  58        8.5569
  59        8.6910
  60        9.1482
  61        9.1855
  62        9.3745
  63        9.3753
  64        9.3765
  65        9.4295
  66        9.4344
  67        9.4385
  68        9.4386
 
  0.2500000E+00  0.8333333E-01  0.0000000E+00  0.4629630E-02
   1       -3.0733
   2       -1.9656
   3       -1.2319
   4       -0.8665
   5       -0.8665
   6       -0.5020
   7       -0.1381
   8        0.2223
   9        0.2247
  10        0.2260
  11        0.5864
  12        0.9476
  13        0.9476
  14        1.6668
  15        1.6668
  16        2.0230
  17        2.0258
  18        2.0270
  19        2.3816
  20        2.3816
  21        2.7365
  22        2.7387
  23        2.7402
  24        3.4138
  25        4.1666
  26        4.1666
  27        4.6883
  28        4.8705
  29        4.8706
  30        5.0050
  31        5.1672
  32        5.5134
  33        5.5134
  34        5.7222
  35        5.8596
  36        6.0278
  37        6.2745
  38        6.5889
  39        6.7106
  40        6.7614
  41        6.7614
  42        7.2682
  43        7.2682
  44        7.3034
  45        7.3942
  46        7.6238
  47        7.7358
  48        7.7930
  49        7.7931
  50        7.8296
  51        7.8448
  52        7.9608
  53        7.9608
  54        8.0784
  55        8.0784
  56        8.4201
  57        8.6922
  58        8.6922
  59        8.7144
  60        9.1531
  61        9.5666
  62        9.7163
  63        9.7817
  64        9.7820
  65        9.7898
  66        9.8339
  67        9.8505
  68        9.8525
 
  0.3333333E+00  0.8333333E-01  0.0000000E+00  0.4629630E-02
   1       -2.9652
   2       -2.2264
   3       -1.1252
   4       -0.7600
   5       -0.7600
   6       -0.3963
   7       -0.3951
   8       -0.0323
   9       -0.0323
  10        0.3301
  11        0.6900
  12        1.0528
  13        1.0528
  14        1.7709
  15        1.7712
  16        1.7722
  17        1.7726
  18        2.4846
  19        2.4868
  20        2.4869
  21        2.8235
  22        2.8409
  23        2.8409
  24        3.1960
  25        4.5878
  26        4.6204
  27        4.6204
  28        4.7890
  29        4.9372
  30        4.9372
  31        5.1044
  32        5.2857
  33        5.3233
  34        5.3233
  35        5.4785
  36        5.7861
  37        6.3792
  38        6.6923
  39        6.6970
  40        6.6970
  41        6.8102
  42        6.8614
  43        6.8614
  44        7.0793
  45        7.3874
  46        7.3921
  47        7.3925
  48        7.4930
  49        7.4946
  50        7.5494
  51        7.5494
  52        8.1778
  53        8.1896
  54        8.2523
  55        8.5206
  56        8.6230
  57        8.8164
  58        8.8164
  59        8.8613
  60        8.9043
  61        9.5349
  62        9.5349
  63        9.5956
  64        9.9883
  65       10.2346
  66       10.2600
  67       10.2901
  68       10.2945
 
  0.4166667E+00  0.8333333E-01  0.0000000E+00  0.4629630E-02
   1       -2.8264
   2       -2.4569
   3       -0.9881
   4       -0.6246
   5       -0.6233
   6       -0.6219
   7       -0.2607
   8       -0.2593
   9       -0.2581
  10        0.1036
  11        1.1837
  12        1.1879
  13        1.1883
  14        1.5476
  15        1.5477
  16        1.9059
  17        1.9059
  18        2.2525
  19        2.2638
  20        2.2640
  21        2.9725
  22        3.3273
  23        3.3273
  24        3.6812
  25        4.0260
  26        4.3776
  27        4.3776
  28        4.7282
  29        4.9183
  30        5.1018
  31        5.1018
  32        5.2321
  33        5.2632
  34        5.5730
  35        5.8032
  36        5.8032
  37        6.1423
  38        6.1423
  39        6.5131
  40        6.8245
  41        6.8397
  42        6.8397
  43        6.8653
  44        6.9383
  45        6.9903
  46        6.9903
  47        7.1737
  48        7.2800
  49        7.3344
  50        7.3344
  51        7.6221
  52        7.9640
  53        8.3264
  54        8.6835
  55        8.7180
  56        8.9577
  57        8.9577
  58        8.9916
  59        9.0107
  60        9.3154
  61        9.3154
  62        9.3746
  63        9.4354
  64        9.7387
  65       10.0197
  66       10.4374
  67       10.7067
  68       10.7190
 
  0.5000000E+00  0.8333333E-01  0.0000000E+00  0.2314815E-02
   1       -2.6583
   2       -2.6555
   3       -0.8222
   4       -0.8194
   5       -0.4584
   6       -0.4572
   7       -0.4555
   8       -0.4544
   9       -0.0944
  10       -0.0915
  11        1.3509
  12        1.3521
  13        1.3537
  14        1.3549
  15        1.7048
  16        1.7061
  17        2.0681
  18        2.0692
  19        2.0709
  20        2.0721
  21        3.4860
  22        3.4874
  23        3.8393
  24        3.8395
  25        3.8406
  26        3.8409
  27        4.1917
  28        4.1931
  29        5.0750
  30        5.0779
  31        5.3868
  32        5.3898
  33        5.6089
  34        5.6090
  35        5.6103
  36        5.6105
  37        6.3083
  38        6.3085
  39        6.3098
  40        6.3099
  41        6.6741
  42        6.6769
  43        6.9840
  44        6.9868
  45        7.0934
  46        7.0964
  47        7.1458
  48        7.1472
  49        7.1488
  50        7.1502
  51        7.7772
  52        7.7803
  53        8.4895
  54        8.4923
  55        9.1215
  56        9.1221
  57        9.1244
  58        9.1250
  59        9.1787
  60        9.1816
  61        9.2134
  62        9.2154
  63        9.4901
  64        9.4924
  65       10.2767
  66       10.2781
  67       10.9065
  68       10.9070
 
  0.0000000E+00  0.1666667E+00  0.0000000E+00  0.2314815E-02
   1       -3.1660
   2       -1.6900
   3       -0.9606
   4       -0.9577
   5       -0.9577
   6       -0.9549
   7       -0.2295
   8        0.4933
   9        0.4962
  10        0.4962
  11        0.4990
  12        1.2155
  13        1.2166
  14        1.2188
  15        1.2199
  16        1.9324
  17        1.9352
  18        1.9352
  19        1.9381
  20        2.6478
  21        2.6489
  22        2.6511
  23        2.6521
  24        3.9970
  25        4.0765
  26        4.0775
  27        4.0798
  28        4.0808
  29        4.9199
  30        4.9199
  31        6.0779
  32        6.0810
  33        6.0810
  34        6.0841
  35        6.1845
  36        6.1846
  37        6.2837
  38        6.2838
  39        6.9642
  40        6.9669
  41        6.9669
  42        6.9695
  43        7.0980
  44        7.5659
  45        7.5659
  46        7.6507
  47        7.6508
  48        8.1696
  49        8.1709
  50        8.1732
  51        8.1746
  52        8.2739
  53        8.2763
  54        8.2763
  55        8.2787
  56        8.3318
  57        8.3345
  58        8.3345
  59        8.3372
  60        9.1596
  61        9.1596
  62        9.3339
  63        9.3358
  64        9.3358
  65        9.3378
  66        9.7027
  67        9.7044
  68        9.7152
 
  0.8333333E-01  0.1666667E+00  0.0000000E+00  0.4629630E-02
   1       -3.1505
   2       -1.6747
   3       -1.3082
   4       -0.9425
   5       -0.9425
   6       -0.5779
   7       -0.2143
   8        0.1492
   9        0.5112
  10        0.5112
  11        0.8710
  12        0.8724
  13        0.8738
  14        1.5904
  15        1.5920
  16        1.5932
  17        1.9502
  18        1.9502
  19        2.3075
  20        2.3088
  21        2.3090
  22        3.0175
  23        3.0175
  24        3.7428
  25        3.7428
  26        4.0116
  27        4.4456
  28        4.4456
  29        4.6164
  30        4.9341
  31        5.7512
  32        5.9942
  33        6.0916
  34        6.0916
  35        6.1995
  36        6.2980
  37        6.4362
  38        6.5149
  39        6.6394
  40        6.6916
  41        6.6917
  42        7.1126
  43        7.3171
  44        7.3230
  45        7.6650
  46        7.6655
  47        7.8413
  48        7.8413
  49        7.8707
  50        7.9868
  51        8.0066
  52        8.0653
  53        8.0653
  54        8.4932
  55        8.5311
  56        8.5311
  57        8.5568
  58        8.5568
  59        8.6910
  60        9.1482
  61        9.1855
  62        9.3745
  63        9.3753
  64        9.3764
  65        9.4296
  66        9.4342
  67        9.4385
  68        9.4388
 
  0.1666667E+00  0.1666667E+00  0.0000000E+00  0.4629630E-02
   1       -3.1042
   2       -1.6300
   3       -1.6277
   4       -0.8969
   5       -0.8969
   6       -0.1706
   7       -0.1687
   8       -0.1669
   9        0.5548
  10        0.5558
  11        0.5572
  12        0.5581
  13        1.2767
  14        1.2778
  15        1.9927
  16        1.9940
  17        1.9953
  18        1.9954
  19        1.9967
  20        1.9978
  21        2.7086
  22        3.3505
  23        3.3505
  24        3.4989
  25        3.4990
  26        4.0549
  27        4.0558
  28        4.8415
  29        4.8416
  30        4.9766
  31        5.4474
  32        5.4498
  33        6.0579
  34        6.0580
  35        6.2332
  36        6.2332
  37        6.2446
  38        6.3393
  39        6.3419
  40        6.8085
  41        6.8102
  42        7.1560
  43        7.1569
  44        7.5372
  45        7.5382
  46        7.5396
  47        7.5406
  48        7.7054
  49        7.7076
  50        7.7094
  51        7.7098
  52        7.7110
  53        8.4423
  54        8.4446
  55        8.9169
  56        8.9180
  57        8.9182
  58        8.9192
  59        9.0211
  60        9.0212
  61        9.0752
  62        9.0771
  63        9.1250
  64        9.2815
  65        9.2822
  66        9.5687
  67        9.5687
  68       10.0194
 
  0.2500000E+00  0.1666667E+00  0.0000000E+00  0.4629630E-02
   1       -3.0270
   2       -1.9196
   3       -1.5524
   4       -0.8209
   5       -0.8208
   6       -0.4562
   7       -0.0933
   8        0.2676
   9        0.2699
  10        0.2713
  11        0.6318
  12        0.6318
  13        0.9921
  14        1.7095
  15        1.7123
  16        1.7135
  17        2.0695
  18        2.0696
  19        2.4262
  20        2.4262
  21        3.1341
  22        3.1350
  23        3.1386
  24        3.4579
  25        3.8608
  26        3.8608
  27        4.1282
  28        4.8622
  29        5.0476
  30        5.1740
  31        5.2657
  32        5.2657
  33        5.5506
  34        5.5506
  35        6.0704
  36        6.2329
  37        6.2330
  38        6.2435
  39        6.3192
  40        6.4118
  41        6.9645
  42        6.9645
  43        7.1385
  44        7.2293
  45        7.2650
  46        7.2651
  47        7.4366
  48        7.5252
  49        7.7790
  50        7.7847
  51        7.8880
  52        8.1212
  53        8.2351
  54        8.3491
  55        8.3492
  56        8.8052
  57        8.8478
  58        8.9495
  59        9.2738
  60        9.2738
  61        9.3329
  62        9.3329
  63        9.4900
  64        9.5676
  65        9.6268
  66       10.0995
  67       10.0996
  68       10.2514
 
  0.3333333E+00  0.1666667E+00  0.0000000E+00  0.4629630E-02
   1       -2.9189
   2       -2.1803
   3       -1.4455
   4       -0.7157
   5       -0.7144
   6       -0.7130
   7        0.0115
   8        0.0131
   9        0.0142
  10        0.7339
  11        0.7366
  12        0.7372
  13        0.7383
  14        1.4579
  15        1.4579
  16        2.1720
  17        2.1739
  18        2.1741
  19        2.8678
  20        2.8842
  21        2.8848
  22        2.8869
  23        2.8876
  24        3.5943
  25        4.2301
  26        4.2809
  27        4.3128
  28        4.3129
  29        4.9277
  30        4.9791
  31        4.9791
  32        5.1470
  33        5.6749
  34        5.7176
  35        5.7176
  36        5.8288
  37        6.3289
  38        6.3289
  39        6.3922
  40        6.3922
  41        6.4234
  42        6.5113
  43        7.0198
  44        7.0198
  45        7.0958
  46        7.1945
  47        7.3310
  48        7.7645
  49        7.7818
  50        7.7818
  51        7.8787
  52        7.8889
  53        8.0115
  54        8.5615
  55        8.5648
  56        8.5985
  57        8.6656
  58        9.2080
  59        9.4199
  60        9.4199
  61        9.7658
  62        9.7751
  63        9.7752
  64        9.9325
  65        9.9789
  66       10.0387
  67       10.1423
  68       10.1500
 
  0.4166667E+00  0.1666667E+00  0.0000000E+00  0.4629630E-02
   1       -2.7802
   2       -2.4107
   3       -1.3081
   4       -0.9424
   5       -0.5778
   6       -0.5778
   7       -0.2139
   8       -0.2139
   9        0.1486
  10        0.5107
  11        0.8726
  12        0.8726
  13        1.2287
  14        1.2331
  15        1.2335
  16        2.2970
  17        2.3080
  18        2.3081
  19        2.6611
  20        2.6645
  21        2.6646
  22        3.3716
  23        3.3716
  24        3.7173
  25        4.0779
  26        4.3612
  27        4.4208
  28        4.4209
  29        4.7100
  30        4.7945
  31        4.7945
  32        5.1206
  33        5.2747
  34        5.6156
  35        5.8365
  36        5.8365
  37        6.1964
  38        6.1964
  39        6.4575
  40        6.4575
  41        6.5564
  42        6.6394
  43        6.8034
  44        6.8034
  45        6.9018
  46        6.9810
  47        7.2306
  48        7.2306
  49        7.4612
  50        7.8035
  51        8.0069
  52        8.0226
  53        8.2094
  54        8.3490
  55        8.3777
  56        9.0344
  57        9.2202
  58        9.3828
  59        9.4773
  60        9.5661
  61        9.5661
  62        9.7572
  63        9.9241
  64        9.9241
  65       10.0625
  66       10.2444
  67       10.2444
  68       10.4044
 
  0.5000000E+00  0.1666667E+00  0.0000000E+00  0.2314815E-02
   1       -2.6121
   2       -2.6093
   3       -1.1418
   4       -1.1390
   5       -0.4129
   6       -0.4117
   7       -0.4100
   8       -0.4089
   9        0.3133
  10        0.3161
  11        1.0359
  12        1.0371
  13        1.0387
  14        1.0399
  15        1.7496
  16        1.7509
  17        2.4695
  18        2.4707
  19        2.4724
  20        2.4736
  21        3.1759
  22        3.1773
  23        3.8831
  24        3.8834
  25        3.8845
  26        3.8848
  27        4.5197
  28        4.5226
  29        4.5865
  30        4.5879
  31        5.3022
  32        5.3023
  33        5.3036
  34        5.3037
  35        5.4294
  36        5.4325
  37        6.6137
  38        6.6150
  39        6.6167
  40        6.6180
  41        6.7004
  42        6.7005
  43        6.7018
  44        6.7021
  45        6.7157
  46        6.7184
  47        6.7944
  48        6.7975
  49        7.6176
  50        7.6205
  51        8.1622
  52        8.1653
  53        8.1842
  54        8.1870
  55        8.6989
  56        8.7007
  57        9.5329
  58        9.5352
  59        9.5585
  60        9.5615
  61        9.7307
  62        9.7315
  63        9.7336
  64        9.7344
  65       10.3176
  66       10.3190
  67       10.7393
  68       10.7409
 
  0.0000000E+00  0.2500000E+00  0.0000000E+00  0.2314815E-02
   1       -3.0887
   2       -1.9809
   3       -0.8845
   4       -0.8817
   5       -0.8817
   6       -0.8788
   7        0.2065
   8        0.2086
   9        0.2096
  10        0.2096
  11        0.2125
  12        1.2905
  13        1.2916
  14        1.2938
  15        1.2949
  16        2.3635
  17        2.3662
  18        2.3664
  19        2.3667
  20        2.3673
  21        2.3691
  22        2.3694
  23        2.3709
  24        3.3991
  25        4.5017
  26        4.5028
  27        4.5051
  28        4.5061
  29        4.9908
  30        4.9909
  31        5.4970
  32        5.5000
  33        5.5000
  34        5.5030
  35        6.0135
  36        6.0136
  37        6.2596
  38        6.2596
  39        7.0354
  40        7.0381
  41        7.0381
  42        7.0407
  43        7.3101
  44        7.3101
  45        7.5980
  46        7.5992
  47        7.6015
  48        7.6028
  49        7.8303
  50        8.0606
  51        8.0636
  52        8.0637
  53        8.0641
  54        8.0642
  55        8.0668
  56        8.3926
  57        8.3949
  58        8.3949
  59        8.3971
  60        9.4831
  61        9.4853
  62        9.4853
  63        9.4875
  64        9.5477
  65        9.5478
  66       10.0025
  67       10.0041
  68       10.0045
 