       N       E                     dE             d eps       ncg     rms          rms(c)
DAV:   1     0.177187185919E+03    0.17719E+03   -0.42033E+04 26656   0.152E+03
DAV:   2    -0.102654510437E+03   -0.27984E+03   -0.26211E+03 31092   0.166E+02
DAV:   3    -0.120029862029E+03   -0.17375E+02   -0.16368E+02 33244   0.315E+01
DAV:   4    -0.120461809552E+03   -0.43195E+00   -0.42594E+00 31420   0.494E+00
DAV:   5    -0.120467432344E+03   -0.56228E-02   -0.56123E-02 31764   0.675E-01    0.523E+00
DAV:   6    -0.120057043342E+03    0.41039E+00   -0.55511E-02 30820   0.781E-01    0.325E+00
DAV:   7    -0.119758036533E+03    0.29901E+00   -0.16249E-01 29576   0.125E+00    0.135E-01
DAV:   8    -0.119758095310E+03   -0.58776E-04   -0.13191E-03 31780   0.140E-01    0.434E-02
DAV:   9    -0.119758124233E+03   -0.28923E-04   -0.48861E-05 31268   0.206E-02    0.343E-03
DAV:  10    -0.119758123914E+03    0.31858E-06   -0.21876E-06 31964   0.489E-03    0.194E-03
DAV:  11    -0.119758120724E+03    0.31899E-05   -0.18135E-07 31340   0.127E-03    0.710E-04
DAV:  12    -0.119758119618E+03    0.11061E-05   -0.21713E-08 21064   0.471E-04    0.107E-04
DAV:  13    -0.119758119503E+03    0.11471E-06   -0.30127E-09 17772   0.197E-04    0.330E-05
DAV:  14    -0.119758119504E+03   -0.28899E-09   -0.45596E-10 17124   0.758E-05
   1 F= -.11975812E+03 E0= -.11975785E+03  d E =-.531691E-03
