 vasp.4.6.28 25Jul05 complex 
 executed on             LinuxIFC date 2016.11.11  17:42:02
 running on    4 nodes
 distr:  one band on    1 nodes,    4 groups


--------------------------------------------------------------------------------------------------------


 INCAR:
 POTCAR:   PAW_PBE Al 04Jan2001                   
 POTCAR:   PAW_PBE Al 04Jan2001                   
   VRHFIN =Al: s2p1                                                             
   LEXCH  = PE                                                                  
   EATOM  =    53.5387 eV,    3.9350 Ry                                         
                                                                                
   TITEL  = PAW_PBE Al 04Jan2001                                                
   LULTRA =        F    use ultrasoft PP ?                                      
   IUNSCR =        1    unscreen: 0-lin 1-nonlin 2-no                           
   RPACOR =    1.500    partial core radius                                     
   POMASS =   26.982; ZVAL   =    3.000    mass and valenz                      
   RCORE  =    1.900    outmost cutoff radius                                   
   RWIGS  =    2.650; RWIGS  =    1.402    wigner-seitz radius (au A)           
   ENMAX  =  240.300; ENMIN  =  180.225 eV                                      
   ICORE  =        2    local potential                                         
   LCOR   =        T    correct aug charges                                     
   LPAW   =        T    paw PP                                                  
   EAUG   =  291.052                                                            
   DEXC   =    -.041                                                            
   RMAX   =    2.974    core radius for proj-oper                               
   RAUG   =    1.300    factor for augmentation sphere                          
   RDEP   =    1.966    radius for radial grids                                 
   QCUT   =   -4.203; QGAM   =    8.405    optimization parameters              
                                                                                
   Description                                                                  
     l     E      TYP  RCUT    TYP  RCUT                                        
     0   .000     23  1.900                                                     
     0   .000     23  1.900                                                     
     1   .000     23  1.900                                                     
     1  1.000     23  1.900                                                     
     2   .000      7  1.900                                                     
  local pseudopotential read in
  partial core-charges read in
  atomic valenz-charges read in
  non local Contribution for L=           0  read in
    real space projection operators read in
  non local Contribution for L=           0  read in
    real space projection operators read in
  non local Contribution for L=           1  read in
    real space projection operators read in
  non local Contribution for L=           1  read in
    real space projection operators read in
    PAW grid and wavefunctions read in
 
   number of l-projection  operators is LMAX  =           4
   number of lm-projection operators is LMMAX =           8
 

 ----------------------------------------------------------------------------- 
|                                                                             |
|  ADVICE TO THIS USER RUNNING 'VASP/VAMP'   (HEAR YOUR MASTER'S VOICE ...):  |
|                                                                             |
|      You have a (more or less) 'large supercell' and for larger cells       |
|      it might be more efficient to use real space projection operators      |
|      So try LREAL= Auto  in the INCAR   file.                               |
|      Mind: If you want to do an extremely accurate calculations keep the    |
|      reciprocal projection scheme          (i.e. LREAL=.FALSE.)             |
|                                                                             |
 ----------------------------------------------------------------------------- 

 PAW_PBE Al 04Jan2001                   :
 energy of atom  1       EATOM=  -53.5387
 kinetic energy error for atom=    0.0001 (will be added to EATOM!!)
 
 EXHCAR: internal setup
 exchange correlation table for  LEXCH =        8
   RHO(1)=    0.500       N(1)  =     2000
   RHO(2)=  100.500       N(2)  =     4000
 
 POSCAR: Al                                      
  positions in direct lattice
  No initial velocities read in
 


--------------------------------------------------------------------------------------------------------


 ion  position               nearest neighbor table
   1  0.251  0.250  0.000-  18 2.88  22 2.88  26 2.88  28 2.88   9 2.88  11 2.88  13 2.88  15 2.88
                            25 2.89  21 2.89  27 2.89  17 2.89
   2  0.750  0.250  0.000-  10 2.88  12 2.88  14 2.88  16 2.88  17 2.88  18 2.88  21 2.88  22 2.88
                            25 2.88  26 2.88  27 2.88  28 2.88
   3  0.250  0.750  0.000-   9 2.88  11 2.88  13 2.88  15 2.88  19 2.88  20 2.88  23 2.88  24 2.88
                            25 2.88  26 2.88  27 2.88  28 2.88
   4  0.750  0.750  0.000-  10 2.88  12 2.88  14 2.88  16 2.88  19 2.88  20 2.88  23 2.88  24 2.88
                            25 2.88  26 2.88  27 2.88  28 2.88
   5  0.250  0.250  0.500-   9 2.88  11 2.88  13 2.88  15 2.88  17 2.88  18 2.88  21 2.88  22 2.88
                            29 2.88  30 2.88  31 2.88  32 2.88
   6  0.750  0.250  0.500-  10 2.88  12 2.88  14 2.88  16 2.88  17 2.88  18 2.88  21 2.88  22 2.88
                            29 2.88  30 2.88  31 2.88  32 2.88
   7  0.250  0.750  0.500-   9 2.88  11 2.88  13 2.88  15 2.88  19 2.88  20 2.88  23 2.88  24 2.88
                            29 2.88  30 2.88  31 2.88  32 2.88
   8  0.750  0.750  0.500-  10 2.88  12 2.88  14 2.88  16 2.88  19 2.88  20 2.88  23 2.88  24 2.88
                            29 2.88  30 2.88  31 2.88  32 2.88
   9  0.250  0.000  0.250-   3 2.88   5 2.88   7 2.88  17 2.88  18 2.88  19 2.88  20 2.88  25 2.88
                            26 2.88  29 2.88  30 2.88   1 2.88
  10  0.750  0.000  0.250-   2 2.88   4 2.88   6 2.88   8 2.88  17 2.88  18 2.88  19 2.88  20 2.88
                            25 2.88  26 2.88  29 2.88  30 2.88
  11  0.250  0.500  0.250-   3 2.88   5 2.88   7 2.88  17 2.88  18 2.88  19 2.88  20 2.88  27 2.88
                            28 2.88  31 2.88  32 2.88   1 2.88
  12  0.750  0.500  0.250-   2 2.88   4 2.88   6 2.88   8 2.88  17 2.88  18 2.88  19 2.88  20 2.88
                            27 2.88  28 2.88  31 2.88  32 2.88
  13  0.250  0.000  0.750-   3 2.88   5 2.88   7 2.88  21 2.88  22 2.88  23 2.88  24 2.88  25 2.88
                            26 2.88  29 2.88  30 2.88   1 2.88
  14  0.750  0.000  0.750-   2 2.88   4 2.88   6 2.88   8 2.88  21 2.88  22 2.88  23 2.88  24 2.88
                            25 2.88  26 2.88  29 2.88  30 2.88
  15  0.250  0.500  0.750-   3 2.88   5 2.88   7 2.88  21 2.88  22 2.88  23 2.88  24 2.88  27 2.88
                            28 2.88  31 2.88  32 2.88   1 2.88
  16  0.750  0.500  0.750-   2 2.88   4 2.88   6 2.88   8 2.88  21 2.88  22 2.88  23 2.88  24 2.88
                            27 2.88  28 2.88  31 2.88  32 2.88
  17  0.000  0.250  0.250-   2 2.88   5 2.88   6 2.88   9 2.88  10 2.88  11 2.88  12 2.88  25 2.88
                            27 2.88  29 2.88  31 2.88   1 2.89
  18  0.500  0.250  0.250-   1 2.88   2 2.88   5 2.88   6 2.88   9 2.88  10 2.88  11 2.88  12 2.88
                            26 2.88  28 2.88  30 2.88  32 2.88
  19  0.000  0.750  0.250-   3 2.88   4 2.88   7 2.88   8 2.88   9 2.88  10 2.88  11 2.88  12 2.88
                            25 2.88  27 2.88  29 2.88  31 2.88
  20  0.500  0.750  0.250-   3 2.88   4 2.88   7 2.88   8 2.88   9 2.88  10 2.88  11 2.88  12 2.88
                            26 2.88  28 2.88  30 2.88  32 2.88
  21  0.000  0.250  0.750-   2 2.88   5 2.88   6 2.88  13 2.88  14 2.88  15 2.88  16 2.88  25 2.88
                            27 2.88  29 2.88  31 2.88   1 2.89
  22  0.500  0.250  0.750-   1 2.88   2 2.88   5 2.88   6 2.88  13 2.88  14 2.88  15 2.88  16 2.88
                            26 2.88  28 2.88  30 2.88  32 2.88
  23  0.000  0.750  0.750-   3 2.88   4 2.88   7 2.88   8 2.88  13 2.88  14 2.88  15 2.88  16 2.88
                            25 2.88  27 2.88  29 2.88  31 2.88
  24  0.500  0.750  0.750-   3 2.88   4 2.88   7 2.88   8 2.88  13 2.88  14 2.88  15 2.88  16 2.88
                            26 2.88  28 2.88  30 2.88  32 2.88
  25  0.000  0.000  0.000-   2 2.88   3 2.88   4 2.88   9 2.88  10 2.88  13 2.88  14 2.88  17 2.88
                            19 2.88  21 2.88  23 2.88   1 2.89
  26  0.500  0.000  0.000-   1 2.88   2 2.88   3 2.88   4 2.88   9 2.88  10 2.88  13 2.88  14 2.88
                            18 2.88  20 2.88  22 2.88  24 2.88
  27  0.000  0.500  0.000-   2 2.88   3 2.88   4 2.88  11 2.88  12 2.88  15 2.88  16 2.88  17 2.88
                            19 2.88  21 2.88  23 2.88   1 2.89
  28  0.500  0.500  0.000-   1 2.88   2 2.88   3 2.88   4 2.88  11 2.88  12 2.88  15 2.88  16 2.88
                            18 2.88  20 2.88  22 2.88  24 2.88
  29  0.000  0.000  0.500-   5 2.88   6 2.88   7 2.88   8 2.88   9 2.88  10 2.88  13 2.88  14 2.88
                            17 2.88  19 2.88  21 2.88  23 2.88
  30  0.500  0.000  0.500-   5 2.88   6 2.88   7 2.88   8 2.88   9 2.88  10 2.88  13 2.88  14 2.88
                            18 2.88  20 2.88  22 2.88  24 2.88
  31  0.000  0.500  0.500-   5 2.88   6 2.88   7 2.88   8 2.88  11 2.88  12 2.88  15 2.88  16 2.88
                            17 2.88  19 2.88  21 2.88  23 2.88
  32  0.500  0.500  0.500-   5 2.88   6 2.88   7 2.88   8 2.88  11 2.88  12 2.88  15 2.88  16 2.88
                            18 2.88  20 2.88  22 2.88  24 2.88
 
  LATTYP: Found a simple cubic cell.
 ALAT       =     8.1553588667
  
  Lattice vectors:
  
 A1 = (   8.1553588667,   0.0000000000,   0.0000000000)
 A2 = (   0.0000000000,   8.1553588667,   0.0000000000)
 A3 = (   0.0000000000,   0.0000000000,   8.1553588667)
 Subroutine PRICEL returns:
 Original cell was already a primitive cell.
 

Analysis of symmetry for initial positions (statically):

 Routine SETGRP: Setting up the symmetry group for a 
 simple cubic supercell.


 Subroutine GETGRP returns: Found  8 space group operations
 (whereof  2 operations were pure point group operations)
 out of a pool of 48 trial point group operations.


The static configuration has the point symmetry C_1h.
 The point group associated with its full space group is C_4v.

Analysis of symmetry for dynamics (positions and initial velocities):

 Subroutine DYNSYM returns: Found  8 space group operations
 (whereof  2 operations were pure point group operations)
 out of a pool of  8 trial space group operations
 (whereof  2 operations were pure point group operations)
 and found also     1 'primitive' translations


The dynamic configuration has the point symmetry C_1h.
 The point group associated with its full space group is C_4v.
 
 
 KPOINTS: Automatic mesh                          

Automatic generation of k-mesh.
 
 Subroutine IBZKPT returns following result:
 ===========================================
 
 Found    196 irreducible k-points:
 
 Following reciprocal coordinates:
            Coordinates               Weight
  0.000000  0.000000  0.000000      1.000000
  0.083333  0.000000  0.000000      2.000000
  0.166667  0.000000  0.000000      2.000000
  0.250000  0.000000  0.000000      2.000000
  0.333333  0.000000  0.000000      2.000000
  0.416667  0.000000  0.000000      2.000000
  0.500000  0.000000  0.000000      1.000000
  0.000000  0.083333  0.000000      4.000000
  0.083333  0.083333  0.000000      8.000000
  0.166667  0.083333  0.000000      8.000000
  0.250000  0.083333  0.000000      8.000000
  0.333333  0.083333  0.000000      8.000000
  0.416667  0.083333  0.000000      8.000000
  0.500000  0.083333  0.000000      4.000000
  0.000000  0.166667  0.000000      4.000000
  0.083333  0.166667  0.000000      8.000000
  0.166667  0.166667  0.000000      8.000000
  0.250000  0.166667  0.000000      8.000000
  0.333333  0.166667  0.000000      8.000000
  0.416667  0.166667  0.000000      8.000000
  0.500000  0.166667  0.000000      4.000000
  0.000000  0.250000  0.000000      4.000000
  0.083333  0.250000  0.000000      8.000000
  0.166667  0.250000  0.000000      8.000000
  0.250000  0.250000  0.000000      8.000000
  0.333333  0.250000  0.000000      8.000000
  0.416667  0.250000  0.000000      8.000000
  0.500000  0.250000  0.000000      4.000000
  0.000000  0.333333  0.000000      4.000000
  0.083333  0.333333  0.000000      8.000000
  0.166667  0.333333  0.000000      8.000000
  0.250000  0.333333  0.000000      8.000000
  0.333333  0.333333  0.000000      8.000000
  0.416667  0.333333  0.000000      8.000000
  0.500000  0.333333  0.000000      4.000000
  0.000000  0.416667  0.000000      4.000000
  0.083333  0.416667  0.000000      8.000000
  0.166667  0.416667  0.000000      8.000000
  0.250000  0.416667  0.000000      8.000000
  0.333333  0.416667  0.000000      8.000000
  0.416667  0.416667  0.000000      8.000000
  0.500000  0.416667  0.000000      4.000000
  0.000000  0.500000  0.000000      2.000000
  0.083333  0.500000  0.000000      4.000000
  0.166667  0.500000  0.000000      4.000000
  0.250000  0.500000  0.000000      4.000000
  0.333333  0.500000  0.000000      4.000000
  0.416667  0.500000  0.000000      4.000000
  0.500000  0.500000  0.000000      2.000000
  0.000000  0.083333  0.083333      4.000000
  0.083333  0.083333  0.083333      8.000000
  0.166667  0.083333  0.083333      8.000000
  0.250000  0.083333  0.083333      8.000000
  0.333333  0.083333  0.083333      8.000000
  0.416667  0.083333  0.083333      8.000000
  0.500000  0.083333  0.083333      4.000000
  0.000000  0.166667  0.083333      8.000000
  0.083333  0.166667  0.083333     16.000000
  0.166667  0.166667  0.083333     16.000000
  0.250000  0.166667  0.083333     16.000000
  0.333333  0.166667  0.083333     16.000000
  0.416667  0.166667  0.083333     16.000000
  0.500000  0.166667  0.083333      8.000000
  0.000000  0.250000  0.083333      8.000000
  0.083333  0.250000  0.083333     16.000000
  0.166667  0.250000  0.083333     16.000000
  0.250000  0.250000  0.083333     16.000000
  0.333333  0.250000  0.083333     16.000000
  0.416667  0.250000  0.083333     16.000000
  0.500000  0.250000  0.083333      8.000000
  0.000000  0.333333  0.083333      8.000000
  0.083333  0.333333  0.083333     16.000000
  0.166667  0.333333  0.083333     16.000000
  0.250000  0.333333  0.083333     16.000000
  0.333333  0.333333  0.083333     16.000000
  0.416667  0.333333  0.083333     16.000000
  0.500000  0.333333  0.083333      8.000000
  0.000000  0.416667  0.083333      8.000000
  0.083333  0.416667  0.083333     16.000000
  0.166667  0.416667  0.083333     16.000000
  0.250000  0.416667  0.083333     16.000000
  0.333333  0.416667  0.083333     16.000000
  0.416667  0.416667  0.083333     16.000000
  0.500000  0.416667  0.083333      8.000000
  0.000000  0.500000  0.083333      4.000000
  0.083333  0.500000  0.083333      8.000000
  0.166667  0.500000  0.083333      8.000000
  0.250000  0.500000  0.083333      8.000000
  0.333333  0.500000  0.083333      8.000000
  0.416667  0.500000  0.083333      8.000000
  0.500000  0.500000  0.083333      4.000000
  0.000000  0.166667  0.166667      4.000000
  0.083333  0.166667  0.166667      8.000000
  0.166667  0.166667  0.166667      8.000000
  0.250000  0.166667  0.166667      8.000000
  0.333333  0.166667  0.166667      8.000000
  0.416667  0.166667  0.166667      8.000000
  0.500000  0.166667  0.166667      4.000000
  0.000000  0.250000  0.166667      8.000000
  0.083333  0.250000  0.166667     16.000000
  0.166667  0.250000  0.166667     16.000000
  0.250000  0.250000  0.166667     16.000000
  0.333333  0.250000  0.166667     16.000000
  0.416667  0.250000  0.166667     16.000000
  0.500000  0.250000  0.166667      8.000000
  0.000000  0.333333  0.166667      8.000000
  0.083333  0.333333  0.166667     16.000000
  0.166667  0.333333  0.166667     16.000000
  0.250000  0.333333  0.166667     16.000000
  0.333333  0.333333  0.166667     16.000000
  0.416667  0.333333  0.166667     16.000000
  0.500000  0.333333  0.166667      8.000000
  0.000000  0.416667  0.166667      8.000000
  0.083333  0.416667  0.166667     16.000000
  0.166667  0.416667  0.166667     16.000000
  0.250000  0.416667  0.166667     16.000000
  0.333333  0.416667  0.166667     16.000000
  0.416667  0.416667  0.166667     16.000000
  0.500000  0.416667  0.166667      8.000000
  0.000000  0.500000  0.166667      4.000000
  0.083333  0.500000  0.166667      8.000000
  0.166667  0.500000  0.166667      8.000000
  0.250000  0.500000  0.166667      8.000000
  0.333333  0.500000  0.166667      8.000000
  0.416667  0.500000  0.166667      8.000000
  0.500000  0.500000  0.166667      4.000000
  0.000000  0.250000  0.250000      4.000000
  0.083333  0.250000  0.250000      8.000000
  0.166667  0.250000  0.250000      8.000000
  0.250000  0.250000  0.250000      8.000000
  0.333333  0.250000  0.250000      8.000000
  0.416667  0.250000  0.250000      8.000000
  0.500000  0.250000  0.250000      4.000000
  0.000000  0.333333  0.250000      8.000000
  0.083333  0.333333  0.250000     16.000000
  0.166667  0.333333  0.250000     16.000000
  0.250000  0.333333  0.250000     16.000000
  0.333333  0.333333  0.250000     16.000000
  0.416667  0.333333  0.250000     16.000000
  0.500000  0.333333  0.250000      8.000000
  0.000000  0.416667  0.250000      8.000000
  0.083333  0.416667  0.250000     16.000000
  0.166667  0.416667  0.250000     16.000000
  0.250000  0.416667  0.250000     16.000000
  0.333333  0.416667  0.250000     16.000000
  0.416667  0.416667  0.250000     16.000000
  0.500000  0.416667  0.250000      8.000000
  0.000000  0.500000  0.250000      4.000000
  0.083333  0.500000  0.250000      8.000000
  0.166667  0.500000  0.250000      8.000000
  0.250000  0.500000  0.250000      8.000000
  0.333333  0.500000  0.250000      8.000000
  0.416667  0.500000  0.250000      8.000000
  0.500000  0.500000  0.250000      4.000000
  0.000000  0.333333  0.333333      4.000000
  0.083333  0.333333  0.333333      8.000000
  0.166667  0.333333  0.333333      8.000000
  0.250000  0.333333  0.333333      8.000000
  0.333333  0.333333  0.333333      8.000000
  0.416667  0.333333  0.333333      8.000000
  0.500000  0.333333  0.333333      4.000000
  0.000000  0.416667  0.333333      8.000000
  0.083333  0.416667  0.333333     16.000000
  0.166667  0.416667  0.333333     16.000000
  0.250000  0.416667  0.333333     16.000000
  0.333333  0.416667  0.333333     16.000000
  0.416667  0.416667  0.333333     16.000000
  0.500000  0.416667  0.333333      8.000000
  0.000000  0.500000  0.333333      4.000000
  0.083333  0.500000  0.333333      8.000000
  0.166667  0.500000  0.333333      8.000000
  0.250000  0.500000  0.333333      8.000000
  0.333333  0.500000  0.333333      8.000000
  0.416667  0.500000  0.333333      8.000000
  0.500000  0.500000  0.333333      4.000000
  0.000000  0.416667  0.416667      4.000000
  0.083333  0.416667  0.416667      8.000000
  0.166667  0.416667  0.416667      8.000000
  0.250000  0.416667  0.416667      8.000000
  0.333333  0.416667  0.416667      8.000000
  0.416667  0.416667  0.416667      8.000000
  0.500000  0.416667  0.416667      4.000000
  0.000000  0.500000  0.416667      4.000000
  0.083333  0.500000  0.416667      8.000000
  0.166667  0.500000  0.416667      8.000000
  0.250000  0.500000  0.416667      8.000000
  0.333333  0.500000  0.416667      8.000000
  0.416667  0.500000  0.416667      8.000000
  0.500000  0.500000  0.416667      4.000000
  0.000000  0.500000  0.500000      1.000000
  0.083333  0.500000  0.500000      2.000000
  0.166667  0.500000  0.500000      2.000000
  0.250000  0.500000  0.500000      2.000000
  0.333333  0.500000  0.500000      2.000000
  0.416667  0.500000  0.500000      2.000000
  0.500000  0.500000  0.500000      1.000000
 
 Following cartesian coordinates:
            Coordinates               Weight
  0.000000  0.000000  0.000000      1.000000
  0.010218  0.000000  0.000000      2.000000
  0.020436  0.000000  0.000000      2.000000
  0.030655  0.000000  0.000000      2.000000
  0.040873  0.000000  0.000000      2.000000
  0.051091  0.000000  0.000000      2.000000
  0.061309  0.000000  0.000000      1.000000
  0.000000  0.010218  0.000000      4.000000
  0.010218  0.010218  0.000000      8.000000
  0.020436  0.010218  0.000000      8.000000
  0.030655  0.010218  0.000000      8.000000
  0.040873  0.010218  0.000000      8.000000
  0.051091  0.010218  0.000000      8.000000
  0.061309  0.010218  0.000000      4.000000
  0.000000  0.020436  0.000000      4.000000
  0.010218  0.020436  0.000000      8.000000
  0.020436  0.020436  0.000000      8.000000
  0.030655  0.020436  0.000000      8.000000
  0.040873  0.020436  0.000000      8.000000
  0.051091  0.020436  0.000000      8.000000
  0.061309  0.020436  0.000000      4.000000
  0.000000  0.030655  0.000000      4.000000
  0.010218  0.030655  0.000000      8.000000
  0.020436  0.030655  0.000000      8.000000
  0.030655  0.030655  0.000000      8.000000
  0.040873  0.030655  0.000000      8.000000
  0.051091  0.030655  0.000000      8.000000
  0.061309  0.030655  0.000000      4.000000
  0.000000  0.040873  0.000000      4.000000
  0.010218  0.040873  0.000000      8.000000
  0.020436  0.040873  0.000000      8.000000
  0.030655  0.040873  0.000000      8.000000
  0.040873  0.040873  0.000000      8.000000
  0.051091  0.040873  0.000000      8.000000
  0.061309  0.040873  0.000000      4.000000
  0.000000  0.051091  0.000000      4.000000
  0.010218  0.051091  0.000000      8.000000
  0.020436  0.051091  0.000000      8.000000
  0.030655  0.051091  0.000000      8.000000
  0.040873  0.051091  0.000000      8.000000
  0.051091  0.051091  0.000000      8.000000
  0.061309  0.051091  0.000000      4.000000
  0.000000  0.061309  0.000000      2.000000
  0.010218  0.061309  0.000000      4.000000
  0.020436  0.061309  0.000000      4.000000
  0.030655  0.061309  0.000000      4.000000
  0.040873  0.061309  0.000000      4.000000
  0.051091  0.061309  0.000000      4.000000
  0.061309  0.061309  0.000000      2.000000
  0.000000  0.010218  0.010218      4.000000
  0.010218  0.010218  0.010218      8.000000
  0.020436  0.010218  0.010218      8.000000
  0.030655  0.010218  0.010218      8.000000
  0.040873  0.010218  0.010218      8.000000
  0.051091  0.010218  0.010218      8.000000
  0.061309  0.010218  0.010218      4.000000
  0.000000  0.020436  0.010218      8.000000
  0.010218  0.020436  0.010218     16.000000
  0.020436  0.020436  0.010218     16.000000
  0.030655  0.020436  0.010218     16.000000
  0.040873  0.020436  0.010218     16.000000
  0.051091  0.020436  0.010218     16.000000
  0.061309  0.020436  0.010218      8.000000
  0.000000  0.030655  0.010218      8.000000
  0.010218  0.030655  0.010218     16.000000
  0.020436  0.030655  0.010218     16.000000
  0.030655  0.030655  0.010218     16.000000
  0.040873  0.030655  0.010218     16.000000
  0.051091  0.030655  0.010218     16.000000
  0.061309  0.030655  0.010218      8.000000
  0.000000  0.040873  0.010218      8.000000
  0.010218  0.040873  0.010218     16.000000
  0.020436  0.040873  0.010218     16.000000
  0.030655  0.040873  0.010218     16.000000
  0.040873  0.040873  0.010218     16.000000
  0.051091  0.040873  0.010218     16.000000
  0.061309  0.040873  0.010218      8.000000
  0.000000  0.051091  0.010218      8.000000
  0.010218  0.051091  0.010218     16.000000
  0.020436  0.051091  0.010218     16.000000
  0.030655  0.051091  0.010218     16.000000
  0.040873  0.051091  0.010218     16.000000
  0.051091  0.051091  0.010218     16.000000
  0.061309  0.051091  0.010218      8.000000
  0.000000  0.061309  0.010218      4.000000
  0.010218  0.061309  0.010218      8.000000
  0.020436  0.061309  0.010218      8.000000
  0.030655  0.061309  0.010218      8.000000
  0.040873  0.061309  0.010218      8.000000
  0.051091  0.061309  0.010218      8.000000
  0.061309  0.061309  0.010218      4.000000
  0.000000  0.020436  0.020436      4.000000
  0.010218  0.020436  0.020436      8.000000
  0.020436  0.020436  0.020436      8.000000
  0.030655  0.020436  0.020436      8.000000
  0.040873  0.020436  0.020436      8.000000
  0.051091  0.020436  0.020436      8.000000
  0.061309  0.020436  0.020436      4.000000
  0.000000  0.030655  0.020436      8.000000
  0.010218  0.030655  0.020436     16.000000
  0.020436  0.030655  0.020436     16.000000
  0.030655  0.030655  0.020436     16.000000
  0.040873  0.030655  0.020436     16.000000
  0.051091  0.030655  0.020436     16.000000
  0.061309  0.030655  0.020436      8.000000
  0.000000  0.040873  0.020436      8.000000
  0.010218  0.040873  0.020436     16.000000
  0.020436  0.040873  0.020436     16.000000
  0.030655  0.040873  0.020436     16.000000
  0.040873  0.040873  0.020436     16.000000
  0.051091  0.040873  0.020436     16.000000
  0.061309  0.040873  0.020436      8.000000
  0.000000  0.051091  0.020436      8.000000
  0.010218  0.051091  0.020436     16.000000
  0.020436  0.051091  0.020436     16.000000
  0.030655  0.051091  0.020436     16.000000
  0.040873  0.051091  0.020436     16.000000
  0.051091  0.051091  0.020436     16.000000
  0.061309  0.051091  0.020436      8.000000
  0.000000  0.061309  0.020436      4.000000
  0.010218  0.061309  0.020436      8.000000
  0.020436  0.061309  0.020436      8.000000
  0.030655  0.061309  0.020436      8.000000
  0.040873  0.061309  0.020436      8.000000
  0.051091  0.061309  0.020436      8.000000
  0.061309  0.061309  0.020436      4.000000
  0.000000  0.030655  0.030655      4.000000
  0.010218  0.030655  0.030655      8.000000
  0.020436  0.030655  0.030655      8.000000
  0.030655  0.030655  0.030655      8.000000
  0.040873  0.030655  0.030655      8.000000
  0.051091  0.030655  0.030655      8.000000
  0.061309  0.030655  0.030655      4.000000
  0.000000  0.040873  0.030655      8.000000
  0.010218  0.040873  0.030655     16.000000
  0.020436  0.040873  0.030655     16.000000
  0.030655  0.040873  0.030655     16.000000
  0.040873  0.040873  0.030655     16.000000
  0.051091  0.040873  0.030655     16.000000
  0.061309  0.040873  0.030655      8.000000
  0.000000  0.051091  0.030655      8.000000
  0.010218  0.051091  0.030655     16.000000
  0.020436  0.051091  0.030655     16.000000
  0.030655  0.051091  0.030655     16.000000
  0.040873  0.051091  0.030655     16.000000
  0.051091  0.051091  0.030655     16.000000
  0.061309  0.051091  0.030655      8.000000
  0.000000  0.061309  0.030655      4.000000
  0.010218  0.061309  0.030655      8.000000
  0.020436  0.061309  0.030655      8.000000
  0.030655  0.061309  0.030655      8.000000
  0.040873  0.061309  0.030655      8.000000
  0.051091  0.061309  0.030655      8.000000
  0.061309  0.061309  0.030655      4.000000
  0.000000  0.040873  0.040873      4.000000
  0.010218  0.040873  0.040873      8.000000
  0.020436  0.040873  0.040873      8.000000
  0.030655  0.040873  0.040873      8.000000
  0.040873  0.040873  0.040873      8.000000
  0.051091  0.040873  0.040873      8.000000
  0.061309  0.040873  0.040873      4.000000
  0.000000  0.051091  0.040873      8.000000
  0.010218  0.051091  0.040873     16.000000
  0.020436  0.051091  0.040873     16.000000
  0.030655  0.051091  0.040873     16.000000
  0.040873  0.051091  0.040873     16.000000
  0.051091  0.051091  0.040873     16.000000
  0.061309  0.051091  0.040873      8.000000
  0.000000  0.061309  0.040873      4.000000
  0.010218  0.061309  0.040873      8.000000
  0.020436  0.061309  0.040873      8.000000
  0.030655  0.061309  0.040873      8.000000
  0.040873  0.061309  0.040873      8.000000
  0.051091  0.061309  0.040873      8.000000
  0.061309  0.061309  0.040873      4.000000
  0.000000  0.051091  0.051091      4.000000
  0.010218  0.051091  0.051091      8.000000
  0.020436  0.051091  0.051091      8.000000
  0.030655  0.051091  0.051091      8.000000
  0.040873  0.051091  0.051091      8.000000
  0.051091  0.051091  0.051091      8.000000
  0.061309  0.051091  0.051091      4.000000
  0.000000  0.061309  0.051091      4.000000
  0.010218  0.061309  0.051091      8.000000
  0.020436  0.061309  0.051091      8.000000
  0.030655  0.061309  0.051091      8.000000
  0.040873  0.061309  0.051091      8.000000
  0.051091  0.061309  0.051091      8.000000
  0.061309  0.061309  0.051091      4.000000
  0.000000  0.061309  0.061309      1.000000
  0.010218  0.061309  0.061309      2.000000
  0.020436  0.061309  0.061309      2.000000
  0.030655  0.061309  0.061309      2.000000
  0.040873  0.061309  0.061309      2.000000
  0.051091  0.061309  0.061309      2.000000
  0.061309  0.061309  0.061309      1.000000
 


--------------------------------------------------------------------------------------------------------




 Dimension of arrays:
   k-Points           NKPTS =    196   number of bands    NBANDS=     68
   number of dos      NEDOS =    301   number of ions     NIONS =     32
   non local maximal  LDIM  =      4   non local SUM 2l+1 LMDIM =      8
   total plane-waves  NPLWV = 512000
   max r-space proj   IRMAX =      1   max aug-charges    IRDMAX= 294065
   dimension x,y,z NGX =    80 NGY =   80 NGZ =   80
   dimension x,y,z NGXF=   160 NGYF=  160 NGZF=  160
   support grid    NGXF=   320 NGYF=  320 NGZF=  320
   ions per type =              32
 NGX,Y,Z   is equivalent  to a cutoff of  16.31, 16.31, 16.31 a.u.
 NGXF,Y,Z  is equivalent  to a cutoff of  32.62, 32.62, 32.62 a.u.


 I would recommend the setting:
   dimension x,y,z NGX =    73 NGY =   73 NGZ =   73
 SYSTEM =  unknown system                          
 POSCAR =  Al                                      

 Startparameter for this run:
   NWRITE =      2    write-flag & timer
   PREC   = accura    medium, high low
   ISTART =      0    job   : 0-new  1-cont  2-samecut
   ICHARG =      2    charge: 1-file 2-atom 10-const
   ISPIN  =      1    spin polarized calculation?
   LNONCOLLINEAR =      F non collinear calculations
   LSORBIT =      F    spin-orbit coupling
   INIWAV =      1    electr: 0-lowe 1-rand  2-diag
   LASPH  =      F    aspherical Exc in radial PAW
   METAGGA=      F    non-selfconsistent MetaGGA calc.

 Electronic Relaxation 1
   ENCUT  =  750.0 eV  55.12 Ry    7.42 a.u.  18.21 18.21 18.21*2*pi/ulx,y,z
   ENINI  =  750.0     initial cutoff
   ENAUG  =  291.1 eV  augmentation charge cutoff
   NELM   =     60;   NELMIN=  2; NELMDL=  0     # of ELM steps 
   EDIFF  = 0.1E-07   stopping-criterion for ELM
   LREAL  =      F    real-space projection
   LCOMPAT=      F    compatible to vasp.4.4
   LREAL_COMPAT= F    compatible to vasp.4.5.1-3
   GGA_COMPAT  = T    GGA compatible to vasp.4.4-vasp.4.6
   LMAXPAW     = -100 max onsite density
   LMAXMIX     =    2 max onsite mixed and CHGCAR
   VOSKOWN=      0    Vosko Wilk Nusair interpolation
   ROPT   =    0.00000
 Ionic relaxation
   EDIFFG = 0.1E-06   stopping-criterion for IOM
   NSW    =      0    number of steps for IOM
   NBLOCK =      1;   KBLOCK =      1    inner block; outer block 
   IBRION =     -1    ionic relax: 0-MD 1-quasi-New 2-CG
   NFREE  =      0    steps in history (QN), initial steepest desc. (CG)
   ISIF   =      2    stress and relaxation
   IWAVPR =     10    prediction:  0-non 1-charg 2-wave 3-comb
   ISYM   =      2    0-nonsym 1-usesym 2-fastsym
   LCORR  =      T    Harris-Foulkes like correction to forces

   POTIM  =   0.50    time-step for ionic-motion
   TEIN   =    0.0    initial temperature
   TEBEG  =    0.0;   TEEND  =   0.0 temperature during run
   SMASS  =  -3.00    Nose mass-parameter (am)
   estimated Nose-frequenzy (Omega)   =  0.10E-29 period in steps =****** mass=  -0.152E-26a.u.
   NPACO  =    256;   APACO  = 16.0  distance and # of slots for P.C.
   PSTRESS=    0.0 pullay stress

  Mass of Ions in am
   POMASS =  26.98
  Ionic Valenz
   ZVAL   =   3.00
  Atomic Wigner-Seitz radii
   RWIGS  =  -1.00
   NELECT =      96.0000    total number of electrons
   NUPDOWN=      -1.0000    fix difference up-down

 DOS related values:
   EMIN   =  10.00;   EMAX   =-10.00  energy-range for DOS
   ISMEAR =     0;   SIGMA  =   0.01  broadening in eV -4-tet -1-fermi 0-gaus

 Electronic relaxation 2 (details)
   IALGO  =     38    algorithm
   LDIAG  =      T    sub-space diagonalisation
   IMIX   =      4    mixing-type and parameters
     AMIX     =   0.40;   BMIX     =  1.00
     AMIX_MAG =   1.60;   BMIX_MAG =  1.00
     AMIN     =   0.10
     WC   =   100.;   INIMIX=   1;  MIXPRE=   1

 Intra band minimization:
   WEIMIN = 0.0000     energy-eigenvalue tresh-hold
   EBREAK =  0.38E-10  absolut break condition
   DEPER  =   0.30     relativ break condition  

   TIME   =   0.10     timestep for ELM

  volume/ion in A,a.u.               =      16.95       114.39
  Fermi-wavevector in a.u.,eV,Ry     =   0.919155 11.494831  0.844846

 Second variation
   LSECVAR=     F    do a second variation
 
 Write flags
   LWAVE  =      F    write WAVECAR
   LCHARG =      F    write CHGCAR
   LVTOT  =      F    write LOCPOT, local potential
   LELF   =      F    write electronic localiz. function (ELF)
   LORBIT =      0    0 simple, 1 ext, 2 COOP (PROOUT)


 Dipole corrections
   IDIPOL =      0    1-x, 2-y, 3-z
   LDIPOL =      F    correct potential



--------------------------------------------------------------------------------------------------------


 Static calculation
 charge density will be updated during run
 non-spin polarized calculation
 Variant of blocked Davidson
 Davidson routine will perform the subspace rotation
 performe sub-space diagonalisation
    after iterative eigenvector-optimisation
 modified Broyden-mixing scheme, WC =      100.0
 initial mixing is a Kerker type mixing with AMIX =  0.4000 and BMIX =      1.0000
 Hartree-type preconditioning will be used
 using additional bands           20
 reciprocal scheme for non local part
 use partial core corrections
 calculate Harris-corrections to forces 
   (improved forces if not selfconsistent)
 use gradient corrections 
 use of overlap-Matrix (Vanderbilt PP)
 Gauss-broadening in eV      SIGMA  =   0.01


--------------------------------------------------------------------------------------------------------


  energy-cutoff  :      750.00
  volume of cell :      542.41
      direct lattice vectors                 reciprocal lattice vectors
     8.155358867  0.000000000  0.000000000     0.122618761  0.000000000  0.000000000
     0.000000000  8.155358867  0.000000000     0.000000000  0.122618761  0.000000000
     0.000000000  0.000000000  8.155358867     0.000000000  0.000000000  0.122618761

  length of vectors
     8.155358867  8.155358867  8.155358867     0.122618761  0.122618761  0.122618761


 
 k-points in units of 2pi/SCALE and weight: Automatic mesh                          
   0.00000000  0.00000000  0.00000000       0.001
   0.01021823  0.00000000  0.00000000       0.001
   0.02043646  0.00000000  0.00000000       0.001
   0.03065469  0.00000000  0.00000000       0.001
   0.04087292  0.00000000  0.00000000       0.001
   0.05109115  0.00000000  0.00000000       0.001
   0.06130938  0.00000000  0.00000000       0.001
   0.00000000  0.01021823  0.00000000       0.002
   0.01021823  0.01021823  0.00000000       0.005
   0.02043646  0.01021823  0.00000000       0.005
   0.03065469  0.01021823  0.00000000       0.005
   0.04087292  0.01021823  0.00000000       0.005
   0.05109115  0.01021823  0.00000000       0.005
   0.06130938  0.01021823  0.00000000       0.002
   0.00000000  0.02043646  0.00000000       0.002
   0.01021823  0.02043646  0.00000000       0.005
   0.02043646  0.02043646  0.00000000       0.005
   0.03065469  0.02043646  0.00000000       0.005
   0.04087292  0.02043646  0.00000000       0.005
   0.05109115  0.02043646  0.00000000       0.005
   0.06130938  0.02043646  0.00000000       0.002
   0.00000000  0.03065469  0.00000000       0.002
   0.01021823  0.03065469  0.00000000       0.005
   0.02043646  0.03065469  0.00000000       0.005
   0.03065469  0.03065469  0.00000000       0.005
   0.04087292  0.03065469  0.00000000       0.005
   0.05109115  0.03065469  0.00000000       0.005
   0.06130938  0.03065469  0.00000000       0.002
   0.00000000  0.04087292  0.00000000       0.002
   0.01021823  0.04087292  0.00000000       0.005
   0.02043646  0.04087292  0.00000000       0.005
   0.03065469  0.04087292  0.00000000       0.005
   0.04087292  0.04087292  0.00000000       0.005
   0.05109115  0.04087292  0.00000000       0.005
   0.06130938  0.04087292  0.00000000       0.002
   0.00000000  0.05109115  0.00000000       0.002
   0.01021823  0.05109115  0.00000000       0.005
   0.02043646  0.05109115  0.00000000       0.005
   0.03065469  0.05109115  0.00000000       0.005
   0.04087292  0.05109115  0.00000000       0.005
   0.05109115  0.05109115  0.00000000       0.005
   0.06130938  0.05109115  0.00000000       0.002
   0.00000000  0.06130938  0.00000000       0.001
   0.01021823  0.06130938  0.00000000       0.002
   0.02043646  0.06130938  0.00000000       0.002
   0.03065469  0.06130938  0.00000000       0.002
   0.04087292  0.06130938  0.00000000       0.002
   0.05109115  0.06130938  0.00000000       0.002
   0.06130938  0.06130938  0.00000000       0.001
   0.00000000  0.01021823  0.01021823       0.002
   0.01021823  0.01021823  0.01021823       0.005
   0.02043646  0.01021823  0.01021823       0.005
   0.03065469  0.01021823  0.01021823       0.005
   0.04087292  0.01021823  0.01021823       0.005
   0.05109115  0.01021823  0.01021823       0.005
   0.06130938  0.01021823  0.01021823       0.002
   0.00000000  0.02043646  0.01021823       0.005
   0.01021823  0.02043646  0.01021823       0.009
   0.02043646  0.02043646  0.01021823       0.009
   0.03065469  0.02043646  0.01021823       0.009
   0.04087292  0.02043646  0.01021823       0.009
   0.05109115  0.02043646  0.01021823       0.009
   0.06130938  0.02043646  0.01021823       0.005
   0.00000000  0.03065469  0.01021823       0.005
   0.01021823  0.03065469  0.01021823       0.009
   0.02043646  0.03065469  0.01021823       0.009
   0.03065469  0.03065469  0.01021823       0.009
   0.04087292  0.03065469  0.01021823       0.009
   0.05109115  0.03065469  0.01021823       0.009
   0.06130938  0.03065469  0.01021823       0.005
   0.00000000  0.04087292  0.01021823       0.005
   0.01021823  0.04087292  0.01021823       0.009
   0.02043646  0.04087292  0.01021823       0.009
   0.03065469  0.04087292  0.01021823       0.009
   0.04087292  0.04087292  0.01021823       0.009
   0.05109115  0.04087292  0.01021823       0.009
   0.06130938  0.04087292  0.01021823       0.005
   0.00000000  0.05109115  0.01021823       0.005
   0.01021823  0.05109115  0.01021823       0.009
   0.02043646  0.05109115  0.01021823       0.009
   0.03065469  0.05109115  0.01021823       0.009
   0.04087292  0.05109115  0.01021823       0.009
   0.05109115  0.05109115  0.01021823       0.009
   0.06130938  0.05109115  0.01021823       0.005
   0.00000000  0.06130938  0.01021823       0.002
   0.01021823  0.06130938  0.01021823       0.005
   0.02043646  0.06130938  0.01021823       0.005
   0.03065469  0.06130938  0.01021823       0.005
   0.04087292  0.06130938  0.01021823       0.005
   0.05109115  0.06130938  0.01021823       0.005
   0.06130938  0.06130938  0.01021823       0.002
   0.00000000  0.02043646  0.02043646       0.002
   0.01021823  0.02043646  0.02043646       0.005
   0.02043646  0.02043646  0.02043646       0.005
   0.03065469  0.02043646  0.02043646       0.005
   0.04087292  0.02043646  0.02043646       0.005
   0.05109115  0.02043646  0.02043646       0.005
   0.06130938  0.02043646  0.02043646       0.002
   0.00000000  0.03065469  0.02043646       0.005
   0.01021823  0.03065469  0.02043646       0.009
   0.02043646  0.03065469  0.02043646       0.009
   0.03065469  0.03065469  0.02043646       0.009
   0.04087292  0.03065469  0.02043646       0.009
   0.05109115  0.03065469  0.02043646       0.009
   0.06130938  0.03065469  0.02043646       0.005
   0.00000000  0.04087292  0.02043646       0.005
   0.01021823  0.04087292  0.02043646       0.009
   0.02043646  0.04087292  0.02043646       0.009
   0.03065469  0.04087292  0.02043646       0.009
   0.04087292  0.04087292  0.02043646       0.009
   0.05109115  0.04087292  0.02043646       0.009
   0.06130938  0.04087292  0.02043646       0.005
   0.00000000  0.05109115  0.02043646       0.005
   0.01021823  0.05109115  0.02043646       0.009
   0.02043646  0.05109115  0.02043646       0.009
   0.03065469  0.05109115  0.02043646       0.009
   0.04087292  0.05109115  0.02043646       0.009
   0.05109115  0.05109115  0.02043646       0.009
   0.06130938  0.05109115  0.02043646       0.005
   0.00000000  0.06130938  0.02043646       0.002
   0.01021823  0.06130938  0.02043646       0.005
   0.02043646  0.06130938  0.02043646       0.005
   0.03065469  0.06130938  0.02043646       0.005
   0.04087292  0.06130938  0.02043646       0.005
   0.05109115  0.06130938  0.02043646       0.005
   0.06130938  0.06130938  0.02043646       0.002
   0.00000000  0.03065469  0.03065469       0.002
   0.01021823  0.03065469  0.03065469       0.005
   0.02043646  0.03065469  0.03065469       0.005
   0.03065469  0.03065469  0.03065469       0.005
   0.04087292  0.03065469  0.03065469       0.005
   0.05109115  0.03065469  0.03065469       0.005
   0.06130938  0.03065469  0.03065469       0.002
   0.00000000  0.04087292  0.03065469       0.005
   0.01021823  0.04087292  0.03065469       0.009
   0.02043646  0.04087292  0.03065469       0.009
   0.03065469  0.04087292  0.03065469       0.009
   0.04087292  0.04087292  0.03065469       0.009
   0.05109115  0.04087292  0.03065469       0.009
   0.06130938  0.04087292  0.03065469       0.005
   0.00000000  0.05109115  0.03065469       0.005
   0.01021823  0.05109115  0.03065469       0.009
   0.02043646  0.05109115  0.03065469       0.009
   0.03065469  0.05109115  0.03065469       0.009
   0.04087292  0.05109115  0.03065469       0.009
   0.05109115  0.05109115  0.03065469       0.009
   0.06130938  0.05109115  0.03065469       0.005
   0.00000000  0.06130938  0.03065469       0.002
   0.01021823  0.06130938  0.03065469       0.005
   0.02043646  0.06130938  0.03065469       0.005
   0.03065469  0.06130938  0.03065469       0.005
   0.04087292  0.06130938  0.03065469       0.005
   0.05109115  0.06130938  0.03065469       0.005
   0.06130938  0.06130938  0.03065469       0.002
   0.00000000  0.04087292  0.04087292       0.002
   0.01021823  0.04087292  0.04087292       0.005
   0.02043646  0.04087292  0.04087292       0.005
   0.03065469  0.04087292  0.04087292       0.005
   0.04087292  0.04087292  0.04087292       0.005
   0.05109115  0.04087292  0.04087292       0.005
   0.06130938  0.04087292  0.04087292       0.002
   0.00000000  0.05109115  0.04087292       0.005
   0.01021823  0.05109115  0.04087292       0.009
   0.02043646  0.05109115  0.04087292       0.009
   0.03065469  0.05109115  0.04087292       0.009
   0.04087292  0.05109115  0.04087292       0.009
   0.05109115  0.05109115  0.04087292       0.009
   0.06130938  0.05109115  0.04087292       0.005
   0.00000000  0.06130938  0.04087292       0.002
   0.01021823  0.06130938  0.04087292       0.005
   0.02043646  0.06130938  0.04087292       0.005
   0.03065469  0.06130938  0.04087292       0.005
   0.04087292  0.06130938  0.04087292       0.005
   0.05109115  0.06130938  0.04087292       0.005
   0.06130938  0.06130938  0.04087292       0.002
   0.00000000  0.05109115  0.05109115       0.002
   0.01021823  0.05109115  0.05109115       0.005
   0.02043646  0.05109115  0.05109115       0.005
   0.03065469  0.05109115  0.05109115       0.005
   0.04087292  0.05109115  0.05109115       0.005
   0.05109115  0.05109115  0.05109115       0.005
   0.06130938  0.05109115  0.05109115       0.002
   0.00000000  0.06130938  0.05109115       0.002
   0.01021823  0.06130938  0.05109115       0.005
   0.02043646  0.06130938  0.05109115       0.005
   0.03065469  0.06130938  0.05109115       0.005
   0.04087292  0.06130938  0.05109115       0.005
   0.05109115  0.06130938  0.05109115       0.005
   0.06130938  0.06130938  0.05109115       0.002
   0.00000000  0.06130938  0.06130938       0.001
   0.01021823  0.06130938  0.06130938       0.001
   0.02043646  0.06130938  0.06130938       0.001
   0.03065469  0.06130938  0.06130938       0.001
   0.04087292  0.06130938  0.06130938       0.001
   0.05109115  0.06130938  0.06130938       0.001
   0.06130938  0.06130938  0.06130938       0.001
 
 k-points in reciprocal lattice and weights: Automatic mesh                          
   0.00000000  0.00000000  0.00000000       0.001
   0.08333333  0.00000000  0.00000000       0.001
   0.16666667  0.00000000  0.00000000       0.001
   0.25000000  0.00000000  0.00000000       0.001
   0.33333333  0.00000000  0.00000000       0.001
   0.41666667  0.00000000  0.00000000       0.001
   0.50000000  0.00000000  0.00000000       0.001
   0.00000000  0.08333333  0.00000000       0.002
   0.08333333  0.08333333  0.00000000       0.005
   0.16666667  0.08333333  0.00000000       0.005
   0.25000000  0.08333333  0.00000000       0.005
   0.33333333  0.08333333  0.00000000       0.005
   0.41666667  0.08333333  0.00000000       0.005
   0.50000000  0.08333333  0.00000000       0.002
   0.00000000  0.16666667  0.00000000       0.002
   0.08333333  0.16666667  0.00000000       0.005
   0.16666667  0.16666667  0.00000000       0.005
   0.25000000  0.16666667  0.00000000       0.005
   0.33333333  0.16666667  0.00000000       0.005
   0.41666667  0.16666667  0.00000000       0.005
   0.50000000  0.16666667  0.00000000       0.002
   0.00000000  0.25000000  0.00000000       0.002
   0.08333333  0.25000000  0.00000000       0.005
   0.16666667  0.25000000  0.00000000       0.005
   0.25000000  0.25000000  0.00000000       0.005
   0.33333333  0.25000000  0.00000000       0.005
   0.41666667  0.25000000  0.00000000       0.005
   0.50000000  0.25000000  0.00000000       0.002
   0.00000000  0.33333333  0.00000000       0.002
   0.08333333  0.33333333  0.00000000       0.005
   0.16666667  0.33333333  0.00000000       0.005
   0.25000000  0.33333333  0.00000000       0.005
   0.33333333  0.33333333  0.00000000       0.005
   0.41666667  0.33333333  0.00000000       0.005
   0.50000000  0.33333333  0.00000000       0.002
   0.00000000  0.41666667  0.00000000       0.002
   0.08333333  0.41666667  0.00000000       0.005
   0.16666667  0.41666667  0.00000000       0.005
   0.25000000  0.41666667  0.00000000       0.005
   0.33333333  0.41666667  0.00000000       0.005
   0.41666667  0.41666667  0.00000000       0.005
   0.50000000  0.41666667  0.00000000       0.002
   0.00000000  0.50000000  0.00000000       0.001
   0.08333333  0.50000000  0.00000000       0.002
   0.16666667  0.50000000  0.00000000       0.002
   0.25000000  0.50000000  0.00000000       0.002
   0.33333333  0.50000000  0.00000000       0.002
   0.41666667  0.50000000  0.00000000       0.002
   0.50000000  0.50000000  0.00000000       0.001
   0.00000000  0.08333333  0.08333333       0.002
   0.08333333  0.08333333  0.08333333       0.005
   0.16666667  0.08333333  0.08333333       0.005
   0.25000000  0.08333333  0.08333333       0.005
   0.33333333  0.08333333  0.08333333       0.005
   0.41666667  0.08333333  0.08333333       0.005
   0.50000000  0.08333333  0.08333333       0.002
   0.00000000  0.16666667  0.08333333       0.005
   0.08333333  0.16666667  0.08333333       0.009
   0.16666667  0.16666667  0.08333333       0.009
   0.25000000  0.16666667  0.08333333       0.009
   0.33333333  0.16666667  0.08333333       0.009
   0.41666667  0.16666667  0.08333333       0.009
   0.50000000  0.16666667  0.08333333       0.005
   0.00000000  0.25000000  0.08333333       0.005
   0.08333333  0.25000000  0.08333333       0.009
   0.16666667  0.25000000  0.08333333       0.009
   0.25000000  0.25000000  0.08333333       0.009
   0.33333333  0.25000000  0.08333333       0.009
   0.41666667  0.25000000  0.08333333       0.009
   0.50000000  0.25000000  0.08333333       0.005
   0.00000000  0.33333333  0.08333333       0.005
   0.08333333  0.33333333  0.08333333       0.009
   0.16666667  0.33333333  0.08333333       0.009
   0.25000000  0.33333333  0.08333333       0.009
   0.33333333  0.33333333  0.08333333       0.009
   0.41666667  0.33333333  0.08333333       0.009
   0.50000000  0.33333333  0.08333333       0.005
   0.00000000  0.41666667  0.08333333       0.005
   0.08333333  0.41666667  0.08333333       0.009
   0.16666667  0.41666667  0.08333333       0.009
   0.25000000  0.41666667  0.08333333       0.009
   0.33333333  0.41666667  0.08333333       0.009
   0.41666667  0.41666667  0.08333333       0.009
   0.50000000  0.41666667  0.08333333       0.005
   0.00000000  0.50000000  0.08333333       0.002
   0.08333333  0.50000000  0.08333333       0.005
   0.16666667  0.50000000  0.08333333       0.005
   0.25000000  0.50000000  0.08333333       0.005
   0.33333333  0.50000000  0.08333333       0.005
   0.41666667  0.50000000  0.08333333       0.005
   0.50000000  0.50000000  0.08333333       0.002
   0.00000000  0.16666667  0.16666667       0.002
   0.08333333  0.16666667  0.16666667       0.005
   0.16666667  0.16666667  0.16666667       0.005
   0.25000000  0.16666667  0.16666667       0.005
   0.33333333  0.16666667  0.16666667       0.005
   0.41666667  0.16666667  0.16666667       0.005
   0.50000000  0.16666667  0.16666667       0.002
   0.00000000  0.25000000  0.16666667       0.005
   0.08333333  0.25000000  0.16666667       0.009
   0.16666667  0.25000000  0.16666667       0.009
   0.25000000  0.25000000  0.16666667       0.009
   0.33333333  0.25000000  0.16666667       0.009
   0.41666667  0.25000000  0.16666667       0.009
   0.50000000  0.25000000  0.16666667       0.005
   0.00000000  0.33333333  0.16666667       0.005
   0.08333333  0.33333333  0.16666667       0.009
   0.16666667  0.33333333  0.16666667       0.009
   0.25000000  0.33333333  0.16666667       0.009
   0.33333333  0.33333333  0.16666667       0.009
   0.41666667  0.33333333  0.16666667       0.009
   0.50000000  0.33333333  0.16666667       0.005
   0.00000000  0.41666667  0.16666667       0.005
   0.08333333  0.41666667  0.16666667       0.009
   0.16666667  0.41666667  0.16666667       0.009
   0.25000000  0.41666667  0.16666667       0.009
   0.33333333  0.41666667  0.16666667       0.009
   0.41666667  0.41666667  0.16666667       0.009
   0.50000000  0.41666667  0.16666667       0.005
   0.00000000  0.50000000  0.16666667       0.002
   0.08333333  0.50000000  0.16666667       0.005
   0.16666667  0.50000000  0.16666667       0.005
   0.25000000  0.50000000  0.16666667       0.005
   0.33333333  0.50000000  0.16666667       0.005
   0.41666667  0.50000000  0.16666667       0.005
   0.50000000  0.50000000  0.16666667       0.002
   0.00000000  0.25000000  0.25000000       0.002
   0.08333333  0.25000000  0.25000000       0.005
   0.16666667  0.25000000  0.25000000       0.005
   0.25000000  0.25000000  0.25000000       0.005
   0.33333333  0.25000000  0.25000000       0.005
   0.41666667  0.25000000  0.25000000       0.005
   0.50000000  0.25000000  0.25000000       0.002
   0.00000000  0.33333333  0.25000000       0.005
   0.08333333  0.33333333  0.25000000       0.009
   0.16666667  0.33333333  0.25000000       0.009
   0.25000000  0.33333333  0.25000000       0.009
   0.33333333  0.33333333  0.25000000       0.009
   0.41666667  0.33333333  0.25000000       0.009
   0.50000000  0.33333333  0.25000000       0.005
   0.00000000  0.41666667  0.25000000       0.005
   0.08333333  0.41666667  0.25000000       0.009
   0.16666667  0.41666667  0.25000000       0.009
   0.25000000  0.41666667  0.25000000       0.009
   0.33333333  0.41666667  0.25000000       0.009
   0.41666667  0.41666667  0.25000000       0.009
   0.50000000  0.41666667  0.25000000       0.005
   0.00000000  0.50000000  0.25000000       0.002
   0.08333333  0.50000000  0.25000000       0.005
   0.16666667  0.50000000  0.25000000       0.005
   0.25000000  0.50000000  0.25000000       0.005
   0.33333333  0.50000000  0.25000000       0.005
   0.41666667  0.50000000  0.25000000       0.005
   0.50000000  0.50000000  0.25000000       0.002
   0.00000000  0.33333333  0.33333333       0.002
   0.08333333  0.33333333  0.33333333       0.005
   0.16666667  0.33333333  0.33333333       0.005
   0.25000000  0.33333333  0.33333333       0.005
   0.33333333  0.33333333  0.33333333       0.005
   0.41666667  0.33333333  0.33333333       0.005
   0.50000000  0.33333333  0.33333333       0.002
   0.00000000  0.41666667  0.33333333       0.005
   0.08333333  0.41666667  0.33333333       0.009
   0.16666667  0.41666667  0.33333333       0.009
   0.25000000  0.41666667  0.33333333       0.009
   0.33333333  0.41666667  0.33333333       0.009
   0.41666667  0.41666667  0.33333333       0.009
   0.50000000  0.41666667  0.33333333       0.005
   0.00000000  0.50000000  0.33333333       0.002
   0.08333333  0.50000000  0.33333333       0.005
   0.16666667  0.50000000  0.33333333       0.005
   0.25000000  0.50000000  0.33333333       0.005
   0.33333333  0.50000000  0.33333333       0.005
   0.41666667  0.50000000  0.33333333       0.005
   0.50000000  0.50000000  0.33333333       0.002
   0.00000000  0.41666667  0.41666667       0.002
   0.08333333  0.41666667  0.41666667       0.005
   0.16666667  0.41666667  0.41666667       0.005
   0.25000000  0.41666667  0.41666667       0.005
   0.33333333  0.41666667  0.41666667       0.005
   0.41666667  0.41666667  0.41666667       0.005
   0.50000000  0.41666667  0.41666667       0.002
   0.00000000  0.50000000  0.41666667       0.002
   0.08333333  0.50000000  0.41666667       0.005
   0.16666667  0.50000000  0.41666667       0.005
   0.25000000  0.50000000  0.41666667       0.005
   0.33333333  0.50000000  0.41666667       0.005
   0.41666667  0.50000000  0.41666667       0.005
   0.50000000  0.50000000  0.41666667       0.002
   0.00000000  0.50000000  0.50000000       0.001
   0.08333333  0.50000000  0.50000000       0.001
   0.16666667  0.50000000  0.50000000       0.001
   0.25000000  0.50000000  0.50000000       0.001
   0.33333333  0.50000000  0.50000000       0.001
   0.41666667  0.50000000  0.50000000       0.001
   0.50000000  0.50000000  0.50000000       0.001
 
 position of ions in fractional coordinates (direct lattice) 
   0.25122619  0.25000000  0.00000000
   0.75000000  0.25000000  0.00000000
   0.25000000  0.75000000  0.00000000
   0.75000000  0.75000000  0.00000000
   0.25000000  0.25000000  0.50000000
   0.75000000  0.25000000  0.50000000
   0.25000000  0.75000000  0.50000000
   0.75000000  0.75000000  0.50000000
   0.25000000  0.00000000  0.25000000
   0.75000000  0.00000000  0.25000000
   0.25000000  0.50000000  0.25000000
   0.75000000  0.50000000  0.25000000
   0.25000000  0.00000000  0.75000000
   0.75000000  0.00000000  0.75000000
   0.25000000  0.50000000  0.75000000
   0.75000000  0.50000000  0.75000000
   0.00000000  0.25000000  0.25000000
   0.50000000  0.25000000  0.25000000
   0.00000000  0.75000000  0.25000000
   0.50000000  0.75000000  0.25000000
   0.00000000  0.25000000  0.75000000
   0.50000000  0.25000000  0.75000000
   0.00000000  0.75000000  0.75000000
   0.50000000  0.75000000  0.75000000
   0.00000000  0.00000000  0.00000000
   0.50000000  0.00000000  0.00000000
   0.00000000  0.50000000  0.00000000
   0.50000000  0.50000000  0.00000000
   0.00000000  0.00000000  0.50000000
   0.50000000  0.00000000  0.50000000
   0.00000000  0.50000000  0.50000000
   0.50000000  0.50000000  0.50000000
 
 position of ions in cartesian coordinates  (Angst):
   2.04883972  2.03883972  0.00000000
   6.11651915  2.03883972  0.00000000
   2.03883972  6.11651915  0.00000000
   6.11651915  6.11651915  0.00000000
   2.03883972  2.03883972  4.07767943
   6.11651915  2.03883972  4.07767943
   2.03883972  6.11651915  4.07767943
   6.11651915  6.11651915  4.07767943
   2.03883972  0.00000000  2.03883972
   6.11651915  0.00000000  2.03883972
   2.03883972  4.07767943  2.03883972
   6.11651915  4.07767943  2.03883972
   2.03883972  0.00000000  6.11651915
   6.11651915  0.00000000  6.11651915
   2.03883972  4.07767943  6.11651915
   6.11651915  4.07767943  6.11651915
   0.00000000  2.03883972  2.03883972
   4.07767943  2.03883972  2.03883972
   0.00000000  6.11651915  2.03883972
   4.07767943  6.11651915  2.03883972
   0.00000000  2.03883972  6.11651915
   4.07767943  2.03883972  6.11651915
   0.00000000  6.11651915  6.11651915
   4.07767943  6.11651915  6.11651915
   0.00000000  0.00000000  0.00000000
   4.07767943  0.00000000  0.00000000
   0.00000000  4.07767943  0.00000000
   4.07767943  4.07767943  0.00000000
   0.00000000  0.00000000  4.07767943
   4.07767943  0.00000000  4.07767943
   0.00000000  4.07767943  4.07767943
   4.07767943  4.07767943  4.07767943
 


--------------------------------------------------------------------------------------------------------


 k-point  1 :  0.00000.00000.0000  plane waves:  25341
 k-point  2 :  0.08330.00000.0000  plane waves:  25353
 k-point  3 :  0.16670.00000.0000  plane waves:  25285
 k-point  4 :  0.25000.00000.0000  plane waves:  25288
 k-point  5 :  0.33330.00000.0000  plane waves:  25260
 k-point  6 :  0.41670.00000.0000  plane waves:  25264
 k-point  7 :  0.50000.00000.0000  plane waves:  25308
 k-point  8 :  0.00000.08330.0000  plane waves:  25353
 k-point  9 :  0.08330.08330.0000  plane waves:  25309
 k-point 10 :  0.16670.08330.0000  plane waves:  25298
 k-point 11 :  0.25000.08330.0000  plane waves:  25295
 k-point 12 :  0.33330.08330.0000  plane waves:  25291
 k-point 13 :  0.41670.08330.0000  plane waves:  25293
 k-point 14 :  0.50000.08330.0000  plane waves:  25292
 k-point 15 :  0.00000.16670.0000  plane waves:  25285
 k-point 16 :  0.08330.16670.0000  plane waves:  25298
 k-point 17 :  0.16670.16670.0000  plane waves:  25256
 k-point 18 :  0.25000.16670.0000  plane waves:  25290
 k-point 19 :  0.33330.16670.0000  plane waves:  25292
 k-point 20 :  0.41670.16670.0000  plane waves:  25289
 k-point 21 :  0.50000.16670.0000  plane waves:  25318
 k-point 22 :  0.00000.25000.0000  plane waves:  25288
 k-point 23 :  0.08330.25000.0000  plane waves:  25295
 k-point 24 :  0.16670.25000.0000  plane waves:  25290
 k-point 25 :  0.25000.25000.0000  plane waves:  25322
 k-point 26 :  0.33330.25000.0000  plane waves:  25279
 k-point 27 :  0.41670.25000.0000  plane waves:  25317
 k-point 28 :  0.50000.25000.0000  plane waves:  25288
 k-point 29 :  0.00000.33330.0000  plane waves:  25260
 k-point 30 :  0.08330.33330.0000  plane waves:  25291
 k-point 31 :  0.16670.33330.0000  plane waves:  25292
 k-point 32 :  0.25000.33330.0000  plane waves:  25279
 k-point 33 :  0.33330.33330.0000  plane waves:  25328
 k-point 34 :  0.41670.33330.0000  plane waves:  25327
 k-point 35 :  0.50000.33330.0000  plane waves:  25274
 k-point 36 :  0.00000.41670.0000  plane waves:  25264
 k-point 37 :  0.08330.41670.0000  plane waves:  25293
 k-point 38 :  0.16670.41670.0000  plane waves:  25289
 k-point 39 :  0.25000.41670.0000  plane waves:  25317
 k-point 40 :  0.33330.41670.0000  plane waves:  25327
 k-point 41 :  0.41670.41670.0000  plane waves:  25312
 k-point 42 :  0.50000.41670.0000  plane waves:  25340
 k-point 43 :  0.00000.50000.0000  plane waves:  25308
 k-point 44 :  0.08330.50000.0000  plane waves:  25292
 k-point 45 :  0.16670.50000.0000  plane waves:  25318
 k-point 46 :  0.25000.50000.0000  plane waves:  25288
 k-point 47 :  0.33330.50000.0000  plane waves:  25274
 k-point 48 :  0.41670.50000.0000  plane waves:  25340
 k-point 49 :  0.50000.50000.0000  plane waves:  25404
 k-point 50 :  0.00000.08330.0833  plane waves:  25309
 k-point 51 :  0.08330.08330.0833  plane waves:  25320
 k-point 52 :  0.16670.08330.0833  plane waves:  25289
 k-point 53 :  0.25000.08330.0833  plane waves:  25288
 k-point 54 :  0.33330.08330.0833  plane waves:  25301
 k-point 55 :  0.41670.08330.0833  plane waves:  25302
 k-point 56 :  0.50000.08330.0833  plane waves:  25298
 k-point 57 :  0.00000.16670.0833  plane waves:  25298
 k-point 58 :  0.08330.16670.0833  plane waves:  25289
 k-point 59 :  0.16670.16670.0833  plane waves:  25276
 k-point 60 :  0.25000.16670.0833  plane waves:  25296
 k-point 61 :  0.33330.16670.0833  plane waves:  25275
 k-point 62 :  0.41670.16670.0833  plane waves:  25294
 k-point 63 :  0.50000.16670.0833  plane waves:  25304
 k-point 64 :  0.00000.25000.0833  plane waves:  25295
 k-point 65 :  0.08330.25000.0833  plane waves:  25288
 k-point 66 :  0.16670.25000.0833  plane waves:  25296
 k-point 67 :  0.25000.25000.0833  plane waves:  25288
 k-point 68 :  0.33330.25000.0833  plane waves:  25300
 k-point 69 :  0.41670.25000.0833  plane waves:  25296
 k-point 70 :  0.50000.25000.0833  plane waves:  25296
 k-point 71 :  0.00000.33330.0833  plane waves:  25291
 k-point 72 :  0.08330.33330.0833  plane waves:  25301
 k-point 73 :  0.16670.33330.0833  plane waves:  25275
 k-point 74 :  0.25000.33330.0833  plane waves:  25300
 k-point 75 :  0.33330.33330.0833  plane waves:  25314
 k-point 76 :  0.41670.33330.0833  plane waves:  25308
 k-point 77 :  0.50000.33330.0833  plane waves:  25298
 k-point 78 :  0.00000.41670.0833  plane waves:  25293
 k-point 79 :  0.08330.41670.0833  plane waves:  25302
 k-point 80 :  0.16670.41670.0833  plane waves:  25294
 k-point 81 :  0.25000.41670.0833  plane waves:  25296
 k-point 82 :  0.33330.41670.0833  plane waves:  25308
 k-point 83 :  0.41670.41670.0833  plane waves:  25319
 k-point 84 :  0.50000.41670.0833  plane waves:  25318
 k-point 85 :  0.00000.50000.0833  plane waves:  25292
 k-point 86 :  0.08330.50000.0833  plane waves:  25298
 k-point 87 :  0.16670.50000.0833  plane waves:  25304
 k-point 88 :  0.25000.50000.0833  plane waves:  25296
 k-point 89 :  0.33330.50000.0833  plane waves:  25298
 k-point 90 :  0.41670.50000.0833  plane waves:  25318
 k-point 91 :  0.50000.50000.0833  plane waves:  25312
 k-point 92 :  0.00000.16670.1667  plane waves:  25256
 k-point 93 :  0.08330.16670.1667  plane waves:  25276
 k-point 94 :  0.16670.16670.1667  plane waves:  25326
 k-point 95 :  0.25000.16670.1667  plane waves:  25303
 k-point 96 :  0.33330.16670.1667  plane waves:  25319
 k-point 97 :  0.41670.16670.1667  plane waves:  25299
 k-point 98 :  0.50000.16670.1667  plane waves:  25268
 k-point 99 :  0.00000.25000.1667  plane waves:  25290
 k-point ** :  0.08330.25000.1667  plane waves:  25296
 k-point ** :  0.16670.25000.1667  plane waves:  25303
 k-point ** :  0.25000.25000.1667  plane waves:  25281
 k-point ** :  0.33330.25000.1667  plane waves:  25305
 k-point ** :  0.41670.25000.1667  plane waves:  25306
 k-point ** :  0.50000.25000.1667  plane waves:  25284
 k-point ** :  0.00000.33330.1667  plane waves:  25292
 k-point ** :  0.08330.33330.1667  plane waves:  25275
 k-point ** :  0.16670.33330.1667  plane waves:  25319
 k-point ** :  0.25000.33330.1667  plane waves:  25305
 k-point ** :  0.33330.33330.1667  plane waves:  25312
 k-point ** :  0.41670.33330.1667  plane waves:  25280
 k-point ** :  0.50000.33330.1667  plane waves:  25284
 k-point ** :  0.00000.41670.1667  plane waves:  25289
 k-point ** :  0.08330.41670.1667  plane waves:  25294
 k-point ** :  0.16670.41670.1667  plane waves:  25299
 k-point ** :  0.25000.41670.1667  plane waves:  25306
 k-point ** :  0.33330.41670.1667  plane waves:  25280
 k-point ** :  0.41670.41670.1667  plane waves:  25292
 k-point ** :  0.50000.41670.1667  plane waves:  25308
 k-point ** :  0.00000.50000.1667  plane waves:  25318
 k-point ** :  0.08330.50000.1667  plane waves:  25304
 k-point ** :  0.16670.50000.1667  plane waves:  25268
 k-point ** :  0.25000.50000.1667  plane waves:  25284
 k-point ** :  0.33330.50000.1667  plane waves:  25284
 k-point ** :  0.41670.50000.1667  plane waves:  25308
 k-point ** :  0.50000.50000.1667  plane waves:  25312
 k-point ** :  0.00000.25000.2500  plane waves:  25322
 k-point ** :  0.08330.25000.2500  plane waves:  25288
 k-point ** :  0.16670.25000.2500  plane waves:  25281
 k-point ** :  0.25000.25000.2500  plane waves:  25287
 k-point ** :  0.33330.25000.2500  plane waves:  25313
 k-point ** :  0.41670.25000.2500  plane waves:  25301
 k-point ** :  0.50000.25000.2500  plane waves:  25276
 k-point ** :  0.00000.33330.2500  plane waves:  25279
 k-point ** :  0.08330.33330.2500  plane waves:  25300
 k-point ** :  0.16670.33330.2500  plane waves:  25305
 k-point ** :  0.25000.33330.2500  plane waves:  25313
 k-point ** :  0.33330.33330.2500  plane waves:  25297
 k-point ** :  0.41670.33330.2500  plane waves:  25291
 k-point ** :  0.50000.33330.2500  plane waves:  25310
 k-point ** :  0.00000.41670.2500  plane waves:  25317
 k-point ** :  0.08330.41670.2500  plane waves:  25296
 k-point ** :  0.16670.41670.2500  plane waves:  25306
 k-point ** :  0.25000.41670.2500  plane waves:  25301
 k-point ** :  0.33330.41670.2500  plane waves:  25291
 k-point ** :  0.41670.41670.2500  plane waves:  25293
 k-point ** :  0.50000.41670.2500  plane waves:  25298
 k-point ** :  0.00000.50000.2500  plane waves:  25288
 k-point ** :  0.08330.50000.2500  plane waves:  25296
 k-point ** :  0.16670.50000.2500  plane waves:  25284
 k-point ** :  0.25000.50000.2500  plane waves:  25276
 k-point ** :  0.33330.50000.2500  plane waves:  25310
 k-point ** :  0.41670.50000.2500  plane waves:  25298
 k-point ** :  0.50000.50000.2500  plane waves:  25324
 k-point ** :  0.00000.33330.3333  plane waves:  25328
 k-point ** :  0.08330.33330.3333  plane waves:  25314
 k-point ** :  0.16670.33330.3333  plane waves:  25312
 k-point ** :  0.25000.33330.3333  plane waves:  25297
 k-point ** :  0.33330.33330.3333  plane waves:  25263
 k-point ** :  0.41670.33330.3333  plane waves:  25297
 k-point ** :  0.50000.33330.3333  plane waves:  25312
 k-point ** :  0.00000.41670.3333  plane waves:  25327
 k-point ** :  0.08330.41670.3333  plane waves:  25308
 k-point ** :  0.16670.41670.3333  plane waves:  25280
 k-point ** :  0.25000.41670.3333  plane waves:  25291
 k-point ** :  0.33330.41670.3333  plane waves:  25297
 k-point ** :  0.41670.41670.3333  plane waves:  25291
 k-point ** :  0.50000.41670.3333  plane waves:  25308
 k-point ** :  0.00000.50000.3333  plane waves:  25274
 k-point ** :  0.08330.50000.3333  plane waves:  25298
 k-point ** :  0.16670.50000.3333  plane waves:  25284
 k-point ** :  0.25000.50000.3333  plane waves:  25310
 k-point ** :  0.33330.50000.3333  plane waves:  25312
 k-point ** :  0.41670.50000.3333  plane waves:  25308
 k-point ** :  0.50000.50000.3333  plane waves:  25328
 k-point ** :  0.00000.41670.4167  plane waves:  25312
 k-point ** :  0.08330.41670.4167  plane waves:  25319
 k-point ** :  0.16670.41670.4167  plane waves:  25292
 k-point ** :  0.25000.41670.4167  plane waves:  25293
 k-point ** :  0.33330.41670.4167  plane waves:  25291
 k-point ** :  0.41670.41670.4167  plane waves:  25308
 k-point ** :  0.50000.41670.4167  plane waves:  25316
 k-point ** :  0.00000.50000.4167  plane waves:  25340
 k-point ** :  0.08330.50000.4167  plane waves:  25318
 k-point ** :  0.16670.50000.4167  plane waves:  25308
 k-point ** :  0.25000.50000.4167  plane waves:  25298
 k-point ** :  0.33330.50000.4167  plane waves:  25308
 k-point ** :  0.41670.50000.4167  plane waves:  25316
 k-point ** :  0.50000.50000.4167  plane waves:  25284
 k-point ** :  0.00000.50000.5000  plane waves:  25404
 k-point ** :  0.08330.50000.5000  plane waves:  25312
 k-point ** :  0.16670.50000.5000  plane waves:  25312
 k-point ** :  0.25000.50000.5000  plane waves:  25324
 k-point ** :  0.33330.50000.5000  plane waves:  25328
 k-point ** :  0.41670.50000.5000  plane waves:  25284
 k-point ** :  0.50000.50000.5000  plane waves:  25288

 maximum and minimum number of plane-waves per node :  25404 25256

 maximum number of plane-waves:  25404
 maximal index in each direction: 
   IXMAX= 18   IYMAX= 18   IZMAX= 18
   IXMIN=-18   IYMIN=-18   IZMIN=-18

 NGX is ok and might be reduce to  74
 NGY is ok and might be reduce to  74
 NGZ is ok and might be reduce to  74

 parallel 3dFFT wavefunction:
    minimum data exchange during FFTs selected (reduces bandwidth)
 parallel 3dFFT charge:
    minimum data exchange during FFTs selected (reduces bandwidth)

 For storing wavefunctions 5395.23 MBYTES are necessary
 For predicting wavefunctions   65.78 MBYTES are necessary
Broyden mixing: mesh for mixing (old mesh)
   NGX = 37   NGY = 37   NGZ = 37
  (NGX  =160   NGY  =160   NGZ  =160)
 gives a total of  50653 points
 initial charge density was supplied:
 charge density of overlapping atoms calculated
 number of electron   96.0000000 magnetization 
 keeping initial charge density in first step


--------------------------------------------------------------------------------------------------------


 Maximum index for augmentation-charges        71325 (set IRDMAX)


--------------------------------------------------------------------------------------------------------


 First call to EWALD:  gamma=   0.217
 Maximum number of real-space cells 3x 3x 3
 Maximum number of reciprocal cells 3x 3x 3

    FEWALD:  VPU time    0.01: CPU time    0.01


----------------------------------------- Iteration    1(   1)  ---------------------------------------


    POTLOK:  VPU time    3.09: CPU time    3.09
    SETDIJ:  VPU time    2.91: CPU time    2.91
    EDDAV :  VPU time 2033.91: CPU time 2035.83
    DOS   :  VPU time    0.00: CPU time   -0.00
    ------------------------------------------
      LOOP:  VPU time 2039.96: CPU time 2041.89

 eigenvalue-minimisations  : 26656
 total energy-change (2. order) : 0.1771872E+03  (-0.4203257E+04)
 number of electron   96.0000000 magnetization 
 augmentation part    96.0000000 magnetization 

 Free energy of the ion-electron system (eV)
  ---------------------------------------------------
  alpha Z        PSCENC =        -6.34098059
  Ewald energy   TEWEN  =     -2331.47907581
  -1/2 Hartree   DENC   =        -3.59168532
  -V(xc)+E(xc)   XCENC  =      -841.21527594
  PAW double counting   =      1137.73615723     -115.16745734
  entropy T*S    EENTRO =        -0.00018512
  eigenvalues    EBANDS =       624.01059614
  atomic energy  EATOM  =      1713.23509266
  ---------------------------------------------------
  free energy    TOTEN  =       177.18718592 eV

  energy without entropy =      177.18737104  energy(sigma->0) =      177.18727848


--------------------------------------------------------------------------------------------------------




----------------------------------------- Iteration    1(   2)  ---------------------------------------


    EDDAV :  VPU time 2272.43: CPU time 2274.46
    DOS   :  VPU time    0.00: CPU time   -0.00
    ------------------------------------------
      LOOP:  VPU time 2272.50: CPU time 2274.53

 eigenvalue-minimisations  : 31092
 total energy-change (2. order) :-0.2798417E+03  (-0.2621080E+03)
 number of electron   96.0000000 magnetization 
 augmentation part    96.0000000 magnetization 

 Free energy of the ion-electron system (eV)
  ---------------------------------------------------
  alpha Z        PSCENC =        -6.34098059
  Ewald energy   TEWEN  =     -2331.47907581
  -1/2 Hartree   DENC   =        -3.59168532
  -V(xc)+E(xc)   XCENC  =      -841.21527594
  PAW double counting   =      1137.73615723     -115.16745734
  entropy T*S    EENTRO =        -0.00047248
  eigenvalues    EBANDS =       344.16918716
  atomic energy  EATOM  =      1713.23509266
  ---------------------------------------------------
  free energy    TOTEN  =      -102.65451044 eV

  energy without entropy =     -102.65403795  energy(sigma->0) =     -102.65427419


--------------------------------------------------------------------------------------------------------




----------------------------------------- Iteration    1(   3)  ---------------------------------------


    EDDAV :  VPU time 2368.25: CPU time 2373.25
    DOS   :  VPU time    0.00: CPU time   -0.00
    ------------------------------------------
      LOOP:  VPU time 2368.30: CPU time 2373.31

 eigenvalue-minimisations  : 33244
 total energy-change (2. order) :-0.1737535E+02  (-0.1636778E+02)
 number of electron   96.0000000 magnetization 
 augmentation part    96.0000000 magnetization 

 Free energy of the ion-electron system (eV)
  ---------------------------------------------------
  alpha Z        PSCENC =        -6.34098059
  Ewald energy   TEWEN  =     -2331.47907581
  -1/2 Hartree   DENC   =        -3.59168532
  -V(xc)+E(xc)   XCENC  =      -841.21527594
  PAW double counting   =      1137.73615723     -115.16745734
  entropy T*S    EENTRO =        -0.00064926
  eigenvalues    EBANDS =       326.79401234
  atomic energy  EATOM  =      1713.23509266
  ---------------------------------------------------
  free energy    TOTEN  =      -120.02986203 eV

  energy without entropy =     -120.02921277  energy(sigma->0) =     -120.02953740


--------------------------------------------------------------------------------------------------------




----------------------------------------- Iteration    1(   4)  ---------------------------------------


    EDDAV :  VPU time 2265.75: CPU time 2269.86
    DOS   :  VPU time    0.00: CPU time   -0.00
    ------------------------------------------
      LOOP:  VPU time 2265.81: CPU time 2269.93

 eigenvalue-minimisations  : 31420
 total energy-change (2. order) :-0.4319475E+00  (-0.4259395E+00)
 number of electron   96.0000000 magnetization 
 augmentation part    96.0000000 magnetization 

 Free energy of the ion-electron system (eV)
  ---------------------------------------------------
  alpha Z        PSCENC =        -6.34098059
  Ewald energy   TEWEN  =     -2331.47907581
  -1/2 Hartree   DENC   =        -3.59168532
  -V(xc)+E(xc)   XCENC  =      -841.21527594
  PAW double counting   =      1137.73615723     -115.16745734
  entropy T*S    EENTRO =        -0.00075086
  eigenvalues    EBANDS =       326.36216642
  atomic energy  EATOM  =      1713.23509266
  ---------------------------------------------------
  free energy    TOTEN  =      -120.46180955 eV

  energy without entropy =     -120.46105869  energy(sigma->0) =     -120.46143412


--------------------------------------------------------------------------------------------------------




----------------------------------------- Iteration    1(   5)  ---------------------------------------


    EDDAV :  VPU time 2386.94: CPU time 2389.10
    DOS   :  VPU time    0.00: CPU time   -0.00
    CHARGE:  VPU time  164.53: CPU time  164.73
    MIXING:  VPU time    0.12: CPU time    0.12
    ------------------------------------------
      LOOP:  VPU time 2551.66: CPU time 2554.02

 eigenvalue-minimisations  : 31764
 total energy-change (2. order) :-0.5622792E-02  (-0.5612338E-02)
 number of electron   96.0000000 magnetization 
 augmentation part    -1.2061113 magnetization 

 Broyden mixing:
  rms(total) = 0.52315E+00    rms(broyden)= 0.52315E+00
  rms(prec ) = 0.75835E+00
  weight for this iteration     100.00

 Free energy of the ion-electron system (eV)
  ---------------------------------------------------
  alpha Z        PSCENC =        -6.34098059
  Ewald energy   TEWEN  =     -2331.47907581
  -1/2 Hartree   DENC   =        -3.59168532
  -V(xc)+E(xc)   XCENC  =      -841.21527594
  PAW double counting   =      1137.73615723     -115.16745734
  entropy T*S    EENTRO =        -0.00075244
  eigenvalues    EBANDS =       326.35654521
  atomic energy  EATOM  =      1713.23509266
  ---------------------------------------------------
  free energy    TOTEN  =      -120.46743234 eV

  energy without entropy =     -120.46667990  energy(sigma->0) =     -120.46705612


--------------------------------------------------------------------------------------------------------




----------------------------------------- Iteration    1(   6)  ---------------------------------------


    POTLOK:  VPU time    3.16: CPU time    3.17
    SETDIJ:  VPU time    2.93: CPU time    2.94
    EDDAV :  VPU time 2316.69: CPU time 2343.79
    DOS   :  VPU time    0.00: CPU time   -0.00
    CHARGE:  VPU time  165.75: CPU time  167.95
    MIXING:  VPU time    0.12: CPU time    0.12
    ------------------------------------------
      LOOP:  VPU time 2488.70: CPU time 2518.03

 eigenvalue-minimisations  : 30820
 total energy-change (2. order) : 0.4103890E+00  (-0.5551139E-02)
 number of electron   96.0000000 magnetization 
 augmentation part    -1.2239895 magnetization 

 Broyden mixing:
  rms(total) = 0.32469E+00    rms(broyden)= 0.32469E+00
  rms(prec ) = 0.47240E+00
  weight for this iteration     100.00

 eigenvalues of (default mixing * dielectric matrix)
  average eigenvalue GAMMA=   2.6267
  2.6267

 Free energy of the ion-electron system (eV)
  ---------------------------------------------------
  alpha Z        PSCENC =        -6.34098059
  Ewald energy   TEWEN  =     -2331.47907581
  -1/2 Hartree   DENC   =        -2.90075552
  -V(xc)+E(xc)   XCENC  =      -840.15347823
  PAW double counting   =      1137.72523561     -115.20506123
  entropy T*S    EENTRO =        -0.00072710
  eigenvalues    EBANDS =       325.06270685
  atomic energy  EATOM  =      1713.23509266
  ---------------------------------------------------
  free energy    TOTEN  =      -120.05704334 eV

  energy without entropy =     -120.05631624  energy(sigma->0) =     -120.05667979


--------------------------------------------------------------------------------------------------------




----------------------------------------- Iteration    1(   7)  ---------------------------------------


    POTLOK:  VPU time    3.10: CPU time    3.15
    SETDIJ:  VPU time    2.90: CPU time    2.94
    EDDAV :  VPU time 2256.95: CPU time 2286.46
    DOS   :  VPU time    0.00: CPU time   -0.00
    CHARGE:  VPU time  165.56: CPU time  167.76
    MIXING:  VPU time    0.12: CPU time    0.12
    ------------------------------------------
      LOOP:  VPU time 2428.70: CPU time 2460.49

 eigenvalue-minimisations  : 29576
 total energy-change (2. order) : 0.2990068E+00  (-0.1624945E-01)
 number of electron   96.0000000 magnetization 
 augmentation part    -1.2578335 magnetization 

 Broyden mixing:
  rms(total) = 0.13498E-01    rms(broyden)= 0.13497E-01
  rms(prec ) = 0.16125E-01
  weight for this iteration     100.00

 eigenvalues of (default mixing * dielectric matrix)
  average eigenvalue GAMMA=   2.4939
  2.4939  2.4939

 Free energy of the ion-electron system (eV)
  ---------------------------------------------------
  alpha Z        PSCENC =        -6.34098059
  Ewald energy   TEWEN  =     -2331.47907581
  -1/2 Hartree   DENC   =        -3.16339284
  -V(xc)+E(xc)   XCENC  =      -837.97453353
  PAW double counting   =      1137.59063075     -115.20469091
  entropy T*S    EENTRO =        -0.00053346
  eigenvalues    EBANDS =       323.57944718
  atomic energy  EATOM  =      1713.23509266
  ---------------------------------------------------
  free energy    TOTEN  =      -119.75803653 eV

  energy without entropy =     -119.75750308  energy(sigma->0) =     -119.75776980


[...]
     64       9.7035      0.00000
     65      10.9171      0.00000
     66      10.9173      0.00000
     67      10.9175      0.00000
     68      10.9176      0.00000

 k-point 194 :       0.3333    0.5000    0.5000
  band No.  band energies     occupation 
      1      -1.8738      2.00000
      2      -1.8737      2.00000
      3      -1.8737      2.00000
      4      -1.8737      2.00000
      5      -1.1404      2.00000
      6      -1.1404      2.00000
      7      -1.1404      2.00000
      8      -1.1404      2.00000
      9       1.7545      2.00000
     10       1.7545      2.00000
     11       1.7545      2.00000
     12       1.7545      2.00000
     13       2.4651      2.00000
     14       2.4651      2.00000
     15       2.4651      2.00000
     16       2.4652      2.00000
     17       2.4652      2.00000
     18       2.4652      2.00000
     19       2.4652      2.00000
     20       2.4652      2.00000
     21       3.1763      2.00000
     22       3.1763      2.00000
     23       3.1763      2.00000
     24       3.1763      2.00000
     25       3.1763      2.00000
     26       3.1763      2.00000
     27       3.1764      2.00000
     28       3.1764      2.00000
     29       3.8697      2.00000
     30       3.8697      2.00000
     31       3.8697      2.00000
     32       3.8697      2.00000
     33       5.9996      2.00000
     34       5.9996      2.00000
     35       5.9998      2.00000
     36       5.9998      2.00000
     37       5.9998      2.00000
     38       5.9998      2.00000
     39       6.0000      2.00000
     40       6.0000      2.00000
     41       6.6871      2.00000
     42       6.6871      2.00000
     43       6.6871      2.00000
     44       6.6871      2.00000
     45       7.3862      2.00000
     46       7.3862      2.00000
     47       7.3862      2.00000
     48       7.3862      2.00000
     49       8.0552      0.00000
     50       8.0552      0.00000
     51       8.0555      0.00000
     52       8.0555      0.00000
     53       8.0555      0.00000
     54       8.0555      0.00000
     55       8.0558      0.00000
     56       8.0558      0.00000
     57       9.6717      0.00000
     58       9.6717      0.00000
     59       9.6717      0.00000
     60       9.6717      0.00000
     61      10.1451      0.00000
     62      10.1451      0.00000
     63      10.1451      0.00000
     64      10.1451      0.00000
     65      11.0215      0.00000
     66      11.0217      0.00000
     67      11.0219      0.00000
     68      11.0219      0.00000

 k-point 195 :       0.4167    0.5000    0.5000
  band No.  band energies     occupation 
      1      -1.7360      2.00000
      2      -1.7360      2.00000
      3      -1.7360      2.00000
      4      -1.7360      2.00000
      5      -1.3692      2.00000
      6      -1.3692      2.00000
      7      -1.3692      2.00000
      8      -1.3691      2.00000
      9       2.2449      2.00000
     10       2.2449      2.00000
     11       2.2449      2.00000
     12       2.2449      2.00000
     13       2.5988      2.00000
     14       2.5988      2.00000
     15       2.5988      2.00000
     16       2.5988      2.00000
     17       2.5988      2.00000
     18       2.5988      2.00000
     19       2.5988      2.00000
     20       2.5988      2.00000
     21       2.9545      2.00000
     22       2.9545      2.00000
     23       2.9546      2.00000
     24       2.9546      2.00000
     25       2.9546      2.00000
     26       2.9546      2.00000
     27       2.9546      2.00000
     28       2.9546      2.00000
     29       3.3044      2.00000
     30       3.3044      2.00000
     31       3.3044      2.00000
     32       3.3045      2.00000
     33       6.4763      2.00000
     34       6.4763      2.00000
     35       6.4766      2.00000
     36       6.4766      2.00000
     37       6.4766      2.00000
     38       6.4766      2.00000
     39       6.4768      2.00000
     40       6.4768      2.00000
     41       6.8190      2.00000
     42       6.8190      2.00000
     43       6.8190      2.00000
     44       6.8190      2.00000
     45       7.1684      2.00000
     46       7.1684      2.00000
     47       7.1684      2.00000
     48       7.1684      2.00000
     49       7.5063      2.00000
     50       7.5063      2.00000
     51       7.5066      2.00000
     52       7.5066      2.00000
     53       7.5066      2.00000
     54       7.5066      2.00000
     55       7.5068      2.00000
     56       7.5068      2.00000
     57      10.4751      0.00000
     58      10.4752      0.00000
     59      10.4752      0.00000
     60      10.4752      0.00000
     61      10.6130      0.00000
     62      10.6130      0.00000
     63      10.6130      0.00000
     64      10.6131      0.00000
     65      11.1516      0.00000
     66      11.1517      0.00000
     67      11.1520      0.00000
     68      11.1521      0.00000

 k-point 196 :       0.5000    0.5000    0.5000
  band No.  band energies     occupation 
      1      -1.5724      2.00000
      2      -1.5682      2.00000
      3      -1.5682      2.00000
      4      -1.5678      2.00000
      5      -1.5677      2.00000
      6      -1.5673      2.00000
      7      -1.5673      2.00000
      8      -1.5631      2.00000
      9       2.7518      2.00000
     10       2.7580      2.00000
     11       2.7580      2.00000
     12       2.7612      2.00000
     13       2.7615      2.00000
     14       2.7615      2.00000
     15       2.7619      2.00000
     16       2.7619      2.00000
     17       2.7619      2.00000
     18       2.7619      2.00000
     19       2.7620      2.00000
     20       2.7620      2.00000
     21       2.7620      2.00000
     22       2.7620      2.00000
     23       2.7621      2.00000
     24       2.7621      2.00000
     25       2.7621      2.00000
     26       2.7621      2.00000
     27       2.7625      2.00000
     28       2.7625      2.00000
     29       2.7628      2.00000
     30       2.7660      2.00000
     31       2.7660      2.00000
     32       2.7722      2.00000
     33       6.9734      2.00000
     34       6.9734      2.00000
     35       6.9753      2.00000
     36       6.9772      2.00000
     37       6.9786      2.00000
     38       6.9790      2.00000
     39       6.9791      2.00000
     40       6.9791      2.00000
     41       6.9793      2.00000
     42       6.9793      2.00000
     43       6.9793      2.00000
     44       6.9793      2.00000
     45       6.9794      2.00000
     46       6.9794      2.00000
     47       6.9794      2.00000
     48       6.9794      2.00000
     49       6.9796      2.00000
     50       6.9796      2.00000
     51       6.9797      2.00000
     52       6.9801      2.00000
     53       6.9815      2.00000
     54       6.9834      2.00000
     55       6.9853      2.00000
     56       6.9853      2.00000
     57      11.1049      0.00000
     58      11.1050      0.00000
     59      11.1050      0.00000
     60      11.1056      0.00000
     61      11.1071      0.00000
     62      11.1077      0.00000
     63      11.1077      0.00000
     64      11.1079      0.00000
     65      11.3063      0.00000
     66      11.3067      0.00000
     67      11.3075      0.00000
     68      11.3082      0.00000


--------------------------------------------------------------------------------------------------------


 soft charge-density along one line, spin component           1
         0         1         2         3         4         5         6         7         8         9
 total charge-density along one line
 
 pseudopotential strength for first ion, spin component:           1
  8.453  -0.006  -0.000   0.000  -0.000  -0.000   0.000  -0.000
 -0.006   0.000  -0.000   0.000  -0.000   0.000  -0.000   0.000
 -0.000  -0.000   1.987  -0.000  -0.000  -0.026   0.000   0.000
  0.000   0.000  -0.000   1.987  -0.000   0.000  -0.026   0.000
 -0.000  -0.000  -0.000  -0.000   1.987   0.000   0.000  -0.026
 -0.000   0.000  -0.026   0.000   0.000  -0.012   0.000   0.000
  0.000  -0.000   0.000  -0.026   0.000   0.000  -0.012   0.000
 -0.000   0.000   0.000   0.000  -0.026   0.000   0.000  -0.012
 total augmentation occupancy for first ion, spin component:           1
  1.339  -0.445   0.000   0.000   0.002   0.000  -0.000  -0.001
 -0.445   0.444   0.000   0.000  -0.003   0.000  -0.000   0.001
  0.000   0.000   0.708   0.002   0.006  -0.141  -0.001  -0.001
  0.000   0.000   0.002   0.716  -0.003  -0.001  -0.139  -0.001
  0.002  -0.003   0.006  -0.003   0.712  -0.001  -0.001  -0.140
  0.000   0.000  -0.141  -0.001  -0.001   0.032   0.000   0.000
 -0.000  -0.000  -0.001  -0.139  -0.001   0.000   0.032   0.000
 -0.001   0.001  -0.001  -0.001  -0.140   0.000   0.000   0.032


------------------------ aborting loop because EDIFF is reached ----------------------------------------




--------------------------------------------------------------------------------------------------------


    CHARGE:  VPU time  175.86: CPU time  176.01
    FORLOC:  VPU time    0.46: CPU time    0.46
    FORNL :  VPU time  282.59: CPU time  282.78
    STRESS:  VPU time 1027.69: CPU time 1028.48
    FORCOR:  VPU time    3.46: CPU time    3.46
    FORHAR:  VPU time    1.28: CPU time    1.29
    MIXING:  VPU time    0.09: CPU time    0.09


--------------------------------------------------------------------------------------------------------



  FREE ENERGIE OF THE ION-ELECTRON SYSTEM (eV)
  ---------------------------------------------------
  free  energy   TOTEN  =      -119.758120 eV

  energy  without entropy=     -119.757588  energy(sigma->0) =     -119.757854
 

  FORCE on cell =-STRESS in cart. coord.  units (eV/reduce length):
  Direction    X        Y        Z        XY       YZ       ZX
  --------------------------------------------------------------------------------------
  Alpha Z     -6.34     -6.34     -6.34
  Ewald     -777.16   -777.16   -777.16      0.00      0.00      0.00
  Hartree      1.08      1.08      1.08      0.00     -0.00     -0.00
  E(xc)     -271.73   -271.73   -271.73     -0.00      0.00      0.00
  Local        7.44      7.44      7.44     -0.00     -0.00     -0.00
  n-local    601.24    601.54    600.95     -0.70     -0.16      0.38
  augment    -33.65    -33.65    -33.65      0.00      0.00      0.00
  Kinetic    472.21    465.26    479.16      5.54      0.52     -4.51
  -------------------------------------------------------------------------------------
  Total       -6.92     -6.92     -6.92      0.00      0.00      0.00
  in kB      -20.43    -20.43    -20.43      0.00      0.00      0.00
  external pressure =      -20.43 kB  Pullay stress =        0.00 kB


 VOLUME and BASIS-vectors are now :
 -----------------------------------------------------------------------------
  energy-cutoff  :      750.00
  volume of cell :      542.41
      direct lattice vectors                 reciprocal lattice vectors
     8.155358867  0.000000000  0.000000000     0.122618761  0.000000000  0.000000000
     0.000000000  8.155358867  0.000000000     0.000000000  0.122618761  0.000000000
     0.000000000  0.000000000  8.155358867     0.000000000  0.000000000  0.122618761

  length of vectors
     8.155358867  8.155358867  8.155358867     0.122618761  0.122618761  0.122618761


 FORCES acting on ions
    electron-ion (+dipol)            ewald-force                    non-local-force                 convergence-correction
 -----------------------------------------------------------------------------------------------
   0.377E+00 -.191E-12 -.170E-08   -.310E+00 -.611E-15 0.137E-14   -.108E+00 0.000E+00 0.203E-19   0.128E-05 0.122E-13 -.966E-14
   -.839E-01 -.442E-12 0.102E-08   0.819E-01 0.439E-14 -.578E-14   0.411E-02 -.136E-19 0.000E+00   0.120E-05 0.140E-13 -.701E-14
   0.262E-01 0.431E-13 0.328E-12   -.259E-01 -.611E-15 -.317E-14   -.601E-03 0.000E+00 0.000E+00   0.151E-05 -.126E-13 -.704E-14
   -.202E-01 0.509E-12 0.594E-12   0.204E-01 0.278E-15 0.382E-15   0.329E-03 -.542E-19 0.000E+00   -.270E-05 -.145E-13 -.538E-14
   0.262E-01 0.187E-13 -.346E-11   -.259E-01 0.333E-14 0.175E-13   -.601E-03 -.271E-19 0.000E+00   0.152E-05 0.134E-13 0.991E-14
   -.202E-01 0.328E-12 -.334E-11   0.204E-01 0.333E-14 0.688E-14   0.329E-03 -.102E-19 -.203E-19   -.270E-05 0.148E-13 0.733E-14
   0.104E-01 0.323E-13 0.101E-12   -.107E-01 -.155E-14 0.738E-14   0.282E-03 -.271E-19 0.000E+00   -.931E-06 -.138E-13 0.737E-14
   -.103E-01 -.209E-12 -.431E-13   0.100E-01 -.155E-14 0.270E-15   -.440E-03 -.102E-19 0.000E+00   0.525E-06 -.153E-13 0.575E-14
   0.468E-01 -.218E-03 0.218E-03   -.489E-01 0.189E-03 -.189E-03   0.634E-03 0.474E-04 -.474E-04   -.425E-07 -.636E-07 0.636E-07
   -.289E-01 0.725E-04 -.725E-04   0.275E-01 -.565E-04 0.565E-04   0.922E-03 -.160E-04 0.160E-04   -.290E-06 -.223E-07 0.223E-07
   0.468E-01 0.218E-03 0.218E-03   -.489E-01 -.189E-03 -.189E-03   0.634E-03 -.474E-04 -.474E-04   -.425E-07 0.636E-07 0.636E-07
   -.289E-01 -.725E-04 -.725E-04   0.275E-01 0.565E-04 0.565E-04   0.922E-03 0.160E-04 0.160E-04   -.290E-06 0.223E-07 0.223E-07
   0.468E-01 -.218E-03 -.218E-03   -.489E-01 0.189E-03 0.189E-03   0.634E-03 0.474E-04 0.474E-04   -.425E-07 -.636E-07 -.636E-07
   -.289E-01 0.725E-04 0.725E-04   0.275E-01 -.565E-04 -.565E-04   0.922E-03 -.160E-04 -.160E-04   -.290E-06 -.223E-07 -.223E-07
   0.468E-01 0.218E-03 -.218E-03   -.489E-01 -.189E-03 0.189E-03   0.634E-03 -.474E-04 0.474E-04   -.425E-07 0.636E-07 -.636E-07
   -.289E-01 -.725E-04 0.725E-04   0.275E-01 0.565E-04 -.565E-04   0.922E-03 0.160E-04 -.160E-04   -.290E-06 0.223E-07 -.223E-07
   -.466E-01 0.749E-14 0.821E-01   0.396E-01 -.228E-14 -.750E-01   0.128E-01 0.000E+00 -.130E-01   -.227E-06 0.145E-13 -.100E-05
   -.465E-01 -.150E-13 -.829E-01   0.393E-01 -.200E-14 0.756E-01   0.131E-01 -.678E-20 0.134E-01   -.271E-06 0.167E-13 0.103E-05
   -.589E-03 0.135E-14 0.642E-02   0.132E-02 -.638E-14 -.621E-02   -.649E-03 0.000E+00 -.824E-04   0.521E-06 -.149E-13 0.144E-05
   -.470E-03 0.431E-13 -.642E-02   0.120E-02 -.688E-14 0.621E-02   -.641E-03 0.678E-20 0.766E-04   0.389E-06 -.171E-13 -.138E-05
   -.466E-01 0.747E-14 -.821E-01   0.396E-01 -.405E-14 0.750E-01   0.128E-01 0.000E+00 0.130E-01   -.227E-06 0.114E-13 0.100E-05
   -.465E-01 -.327E-13 0.829E-01   0.393E-01 -.377E-14 -.756E-01   0.131E-01 0.000E+00 -.134E-01   -.271E-06 0.119E-13 -.103E-05
   -.589E-03 -.230E-14 -.642E-02   0.132E-02 -.483E-14 0.621E-02   -.649E-03 0.678E-20 0.824E-04   0.521E-06 -.119E-13 -.144E-05
   -.470E-03 -.171E-12 0.642E-02   0.120E-02 -.511E-14 -.621E-02   -.641E-03 0.271E-19 -.766E-04   0.389E-06 -.123E-13 0.138E-05
   -.466E-01 -.821E-01 0.219E-11   0.396E-01 0.750E-01 -.136E-13   0.128E-01 0.130E-01 -.254E-20   -.227E-06 0.999E-06 -.756E-14
   -.465E-01 0.829E-01 0.142E-11   0.393E-01 -.756E-01 -.696E-14   0.131E-01 -.134E-01 0.000E+00   -.270E-06 -.103E-05 -.110E-13
   -.466E-01 0.821E-01 0.218E-11   0.396E-01 -.750E-01 -.691E-14   0.128E-01 -.130E-01 0.000E+00   -.227E-06 -.999E-06 -.451E-14
   -.465E-01 -.829E-01 0.231E-11   0.393E-01 0.756E-01 0.127E-15   0.131E-01 0.134E-01 0.381E-20   -.270E-06 0.103E-05 -.611E-14
   -.589E-03 -.642E-02 -.249E-12   0.132E-02 0.621E-02 0.100E-13   -.649E-03 0.824E-04 -.508E-20   0.521E-06 -.144E-05 0.792E-14
   -.470E-03 0.642E-02 -.476E-13   0.120E-02 -.621E-02 0.339E-14   -.641E-03 -.766E-04 0.000E+00   0.388E-06 0.139E-05 0.112E-13
   -.589E-03 0.642E-02 -.245E-12   0.132E-02 -.621E-02 -.446E-15   -.649E-03 -.824E-04 0.000E+00   0.521E-06 0.144E-05 0.487E-14
   -.470E-03 -.642E-02 -.310E-12   0.120E-02 0.621E-02 -.178E-15   -.641E-03 0.766E-04 0.678E-20   0.388E-06 -.139E-05 0.641E-14
 -----------------------------------------------------------------------------------------------
   0.189E-05 0.702E-12 -.686E-09   -.422E-14 0.678E-14 0.432E-14   -.192E-05 0.176E-17 -.417E-18   0.289E-07 -.346E-16 -.457E-16
 
 
 POSITION                                       TOTAL-FORCE (eV/Angst)
 -----------------------------------------------------------------------------------
      2.04884      2.03884      0.00000        -0.041469     -0.000000     -0.000000
      6.11652      2.03884      0.00000         0.002097     -0.000000     -0.000000
      2.03884      6.11652      0.00000        -0.000348      0.000000     -0.000000
      6.11652      6.11652      0.00000         0.000491      0.000000     -0.000000
      2.03884      2.03884      4.07768        -0.000348      0.000000      0.000000
      6.11652      2.03884      4.07768         0.000491      0.000000     -0.000000
      2.03884      6.11652      4.07768         0.000029      0.000000      0.000000
      6.11652      6.11652      4.07768        -0.000763      0.000000      0.000000
      2.03884      0.00000      2.03884        -0.001444      0.000018     -0.000018
      6.11652      0.00000      2.03884        -0.000449      0.000000     -0.000000
      2.03884      4.07768      2.03884        -0.001444     -0.000018     -0.000018
      6.11652      4.07768      2.03884        -0.000449     -0.000000     -0.000000
      2.03884      0.00000      6.11652        -0.001444      0.000018      0.000018
      6.11652      0.00000      6.11652        -0.000449      0.000000      0.000000
      2.03884      4.07768      6.11652        -0.001444     -0.000018      0.000018
      6.11652      4.07768      6.11652        -0.000449     -0.000000      0.000000
      0.00000      2.03884      2.03884         0.005769      0.000000     -0.005860
      4.07768      2.03884      2.03884         0.005908      0.000000      0.006059
      0.00000      6.11652      2.03884         0.000083      0.000000      0.000129
      4.07768      6.11652      2.03884         0.000087      0.000000     -0.000133
      0.00000      2.03884      6.11652         0.005769      0.000000      0.005860
      4.07768      2.03884      6.11652         0.005908      0.000000     -0.006059
      0.00000      6.11652      6.11652         0.000083      0.000000     -0.000129
      4.07768      6.11652      6.11652         0.000087      0.000000      0.000133
      0.00000      0.00000      0.00000         0.005769      0.005860     -0.000000
      4.07768      0.00000      0.00000         0.005908     -0.006059     -0.000000
      0.00000      4.07768      0.00000         0.005769     -0.005860     -0.000000
      4.07768      4.07768      0.00000         0.005908      0.006059      0.000000
      0.00000      0.00000      4.07768         0.000083     -0.000129     -0.000000
      4.07768      0.00000      4.07768         0.000087      0.000133     -0.000000
      0.00000      4.07768      4.07768         0.000083      0.000129      0.000000
      4.07768      4.07768      4.07768         0.000087     -0.000133     -0.000000
 -----------------------------------------------------------------------------------
    total drift:                               -0.000000      0.000000     -0.000000


--------------------------------------------------------------------------------------------------------



 mean value of Nose-termostat <S>:     1.000 mean value of <T> :     0.000
 mean temperature <T/S>/<1/S>  :     0.000

     LOOP+:  VPU time33459.31: CPU time33586.76
  
  
 General timing and accounting informations for this job:
 ========================================================
  
                  Total CPU time used (sec):    33650.619
                            User time (sec):    32531.112
                          System time (sec):     1119.508
                         Elapsed time (sec):    33779.907
  
                   Maximum memory used (kb):     3671568.
                   Average memory used (kb):           0.
  
                          Minor page faults:       406842
                          Major page faults:            0
                 Voluntary context switches:          894
