<?xml version="1.0" encoding="ISO-8859-1"?>
<modeling>
 <generator>
  <i name="program" type="string">vasp</i>
  <i name="version" type="string">4.6.28 </i>
  <i name="subversion" type="string">25Jul05 complex  parallel</i>
  <i name="platform" type="string">LinuxIFC</i>
  <i name="date" type="string">2016 11 11</i>
  <i name="time" type="string">17:42:02</i>
 </generator>
 <incar>
  <i type="string" name="PREC">accurate</i>
  <i type="int" name="IALGO">    38</i>
  <i type="logical" name="ADDGRID"> T  </i>
  <i name="EDIFF">      0.00000001</i>
  <i type="int" name="IBRION">    -1</i>
  <i name="ENCUT">    750.00000000</i>
  <i type="logical" name="LREAL"> F  </i>
  <i type="int" name="ISMEAR">     0</i>
  <i name="SIGMA">      0.01000000</i>
  <i type="logical" name="LWAVE"> F  </i>
  <i type="logical" name="LCHARG"> F  </i>
 </incar>
 <kpoints>
  <generation param="Gamma">
   <v type="int" name="divisions">      12      12      12</v>
   <v name="usershift">      0.00000000      0.00000000      0.00000000</v>
   <v name="genvec1">      0.08333333      0.00000000      0.00000000</v>
   <v name="genvec2">      0.00000000      0.08333333      0.00000000</v>
   <v name="genvec3">      0.00000000      0.00000000      0.08333333</v>
   <v name="shift">      0.00000000      0.00000000      0.00000000</v>
  </generation>
  <varray name="kpointlist" >
   <v>       0.00000000      0.00000000      0.00000000</v>
   <v>       0.08333333      0.00000000      0.00000000</v>
   <v>       0.16666667      0.00000000      0.00000000</v>
   <v>       0.25000000      0.00000000      0.00000000</v>
   <v>       0.33333333      0.00000000      0.00000000</v>
   <v>       0.41666667      0.00000000      0.00000000</v>
   <v>       0.50000000      0.00000000      0.00000000</v>
   <v>       0.00000000      0.08333333      0.00000000</v>
   <v>       0.08333333      0.08333333      0.00000000</v>
   <v>       0.16666667      0.08333333      0.00000000</v>
   <v>       0.25000000      0.08333333      0.00000000</v>
   <v>       0.33333333      0.08333333      0.00000000</v>
   <v>       0.41666667      0.08333333      0.00000000</v>
   <v>       0.50000000      0.08333333      0.00000000</v>
   <v>       0.00000000      0.16666667      0.00000000</v>
   <v>       0.08333333      0.16666667      0.00000000</v>
   <v>       0.16666667      0.16666667      0.00000000</v>
   <v>       0.25000000      0.16666667      0.00000000</v>
   <v>       0.33333333      0.16666667      0.00000000</v>
   <v>       0.41666667      0.16666667      0.00000000</v>
   <v>       0.50000000      0.16666667      0.00000000</v>
   <v>       0.00000000      0.25000000      0.00000000</v>
   <v>       0.08333333      0.25000000      0.00000000</v>
   <v>       0.16666667      0.25000000      0.00000000</v>
   <v>       0.25000000      0.25000000      0.00000000</v>
   <v>       0.33333333      0.25000000      0.00000000</v>
   <v>       0.41666667      0.25000000      0.00000000</v>
   <v>       0.50000000      0.25000000      0.00000000</v>
   <v>       0.00000000      0.33333333      0.00000000</v>
   <v>       0.08333333      0.33333333      0.00000000</v>
   <v>       0.16666667      0.33333333      0.00000000</v>
   <v>       0.25000000      0.33333333      0.00000000</v>
   <v>       0.33333333      0.33333333      0.00000000</v>
   <v>       0.41666667      0.33333333      0.00000000</v>
   <v>       0.50000000      0.33333333      0.00000000</v>
   <v>       0.00000000      0.41666667      0.00000000</v>
   <v>       0.08333333      0.41666667      0.00000000</v>
   <v>       0.16666667      0.41666667      0.00000000</v>
   <v>       0.25000000      0.41666667      0.00000000</v>
   <v>       0.33333333      0.41666667      0.00000000</v>
   <v>       0.41666667      0.41666667      0.00000000</v>
   <v>       0.50000000      0.41666667      0.00000000</v>
   <v>       0.00000000      0.50000000      0.00000000</v>
   <v>       0.08333333      0.50000000      0.00000000</v>
   <v>       0.16666667      0.50000000      0.00000000</v>
   <v>       0.25000000      0.50000000      0.00000000</v>
   <v>       0.33333333      0.50000000      0.00000000</v>
   <v>       0.41666667      0.50000000      0.00000000</v>
   <v>       0.50000000      0.50000000      0.00000000</v>
   <v>       0.00000000      0.08333333      0.08333333</v>
   <v>       0.08333333      0.08333333      0.08333333</v>
   <v>       0.16666667      0.08333333      0.08333333</v>
   <v>       0.25000000      0.08333333      0.08333333</v>
   <v>       0.33333333      0.08333333      0.08333333</v>
   <v>       0.41666667      0.08333333      0.08333333</v>
   <v>       0.50000000      0.08333333      0.08333333</v>
   <v>       0.00000000      0.16666667      0.08333333</v>
   <v>       0.08333333      0.16666667      0.08333333</v>
   <v>       0.16666667      0.16666667      0.08333333</v>
   <v>       0.25000000      0.16666667      0.08333333</v>
   <v>       0.33333333      0.16666667      0.08333333</v>
   <v>       0.41666667      0.16666667      0.08333333</v>
   <v>       0.50000000      0.16666667      0.08333333</v>
   <v>       0.00000000      0.25000000      0.08333333</v>
   <v>       0.08333333      0.25000000      0.08333333</v>
   <v>       0.16666667      0.25000000      0.08333333</v>
   <v>       0.25000000      0.25000000      0.08333333</v>
   <v>       0.33333333      0.25000000      0.08333333</v>
   <v>       0.41666667      0.25000000      0.08333333</v>
   <v>       0.50000000      0.25000000      0.08333333</v>
   <v>       0.00000000      0.33333333      0.08333333</v>
   <v>       0.08333333      0.33333333      0.08333333</v>
   <v>       0.16666667      0.33333333      0.08333333</v>
   <v>       0.25000000      0.33333333      0.08333333</v>
   <v>       0.33333333      0.33333333      0.08333333</v>
   <v>       0.41666667      0.33333333      0.08333333</v>
   <v>       0.50000000      0.33333333      0.08333333</v>
   <v>       0.00000000      0.41666667      0.08333333</v>
   <v>       0.08333333      0.41666667      0.08333333</v>
   <v>       0.16666667      0.41666667      0.08333333</v>
   <v>       0.25000000      0.41666667      0.08333333</v>
   <v>       0.33333333      0.41666667      0.08333333</v>
   <v>       0.41666667      0.41666667      0.08333333</v>
   <v>       0.50000000      0.41666667      0.08333333</v>
   <v>       0.00000000      0.50000000      0.08333333</v>
   <v>       0.08333333      0.50000000      0.08333333</v>
   <v>       0.16666667      0.50000000      0.08333333</v>
   <v>       0.25000000      0.50000000      0.08333333</v>
   <v>       0.33333333      0.50000000      0.08333333</v>
   <v>       0.41666667      0.50000000      0.08333333</v>
   <v>       0.50000000      0.50000000      0.08333333</v>
   <v>       0.00000000      0.16666667      0.16666667</v>
   <v>       0.08333333      0.16666667      0.16666667</v>
   <v>       0.16666667      0.16666667      0.16666667</v>
   <v>       0.25000000      0.16666667      0.16666667</v>
   <v>       0.33333333      0.16666667      0.16666667</v>
   <v>       0.41666667      0.16666667      0.16666667</v>
   <v>       0.50000000      0.16666667      0.16666667</v>
   <v>       0.00000000      0.25000000      0.16666667</v>
   <v>       0.08333333      0.25000000      0.16666667</v>
   <v>       0.16666667      0.25000000      0.16666667</v>
   <v>       0.25000000      0.25000000      0.16666667</v>
   <v>       0.33333333      0.25000000      0.16666667</v>
   <v>       0.41666667      0.25000000      0.16666667</v>
   <v>       0.50000000      0.25000000      0.16666667</v>
   <v>       0.00000000      0.33333333      0.16666667</v>
   <v>       0.08333333      0.33333333      0.16666667</v>
   <v>       0.16666667      0.33333333      0.16666667</v>
   <v>       0.25000000      0.33333333      0.16666667</v>
   <v>       0.33333333      0.33333333      0.16666667</v>
   <v>       0.41666667      0.33333333      0.16666667</v>
   <v>       0.50000000      0.33333333      0.16666667</v>
   <v>       0.00000000      0.41666667      0.16666667</v>
   <v>       0.08333333      0.41666667      0.16666667</v>
   <v>       0.16666667      0.41666667      0.16666667</v>
   <v>       0.25000000      0.41666667      0.16666667</v>
   <v>       0.33333333      0.41666667      0.16666667</v>
   <v>       0.41666667      0.41666667      0.16666667</v>
   <v>       0.50000000      0.41666667      0.16666667</v>
   <v>       0.00000000      0.50000000      0.16666667</v>
   <v>       0.08333333      0.50000000      0.16666667</v>
   <v>       0.16666667      0.50000000      0.16666667</v>
   <v>       0.25000000      0.50000000      0.16666667</v>
   <v>       0.33333333      0.50000000      0.16666667</v>
   <v>       0.41666667      0.50000000      0.16666667</v>
   <v>       0.50000000      0.50000000      0.16666667</v>
   <v>       0.00000000      0.25000000      0.25000000</v>
   <v>       0.08333333      0.25000000      0.25000000</v>
   <v>       0.16666667      0.25000000      0.25000000</v>
   <v>       0.25000000      0.25000000      0.25000000</v>
   <v>       0.33333333      0.25000000      0.25000000</v>
   <v>       0.41666667      0.25000000      0.25000000</v>
   <v>       0.50000000      0.25000000      0.25000000</v>
   <v>       0.00000000      0.33333333      0.25000000</v>
   <v>       0.08333333      0.33333333      0.25000000</v>
   <v>       0.16666667      0.33333333      0.25000000</v>
   <v>       0.25000000      0.33333333      0.25000000</v>
   <v>       0.33333333      0.33333333      0.25000000</v>
   <v>       0.41666667      0.33333333      0.25000000</v>
   <v>       0.50000000      0.33333333      0.25000000</v>
   <v>       0.00000000      0.41666667      0.25000000</v>
   <v>       0.08333333      0.41666667      0.25000000</v>
   <v>       0.16666667      0.41666667      0.25000000</v>
   <v>       0.25000000      0.41666667      0.25000000</v>
   <v>       0.33333333      0.41666667      0.25000000</v>
   <v>       0.41666667      0.41666667      0.25000000</v>
   <v>       0.50000000      0.41666667      0.25000000</v>
   <v>       0.00000000      0.50000000      0.25000000</v>
   <v>       0.08333333      0.50000000      0.25000000</v>
   <v>       0.16666667      0.50000000      0.25000000</v>
   <v>       0.25000000      0.50000000      0.25000000</v>
   <v>       0.33333333      0.50000000      0.25000000</v>
   <v>       0.41666667      0.50000000      0.25000000</v>
   <v>       0.50000000      0.50000000      0.25000000</v>
   <v>       0.00000000      0.33333333      0.33333333</v>
   <v>       0.08333333      0.33333333      0.33333333</v>
   <v>       0.16666667      0.33333333      0.33333333</v>
   <v>       0.25000000      0.33333333      0.33333333</v>
   <v>       0.33333333      0.33333333      0.33333333</v>
   <v>       0.41666667      0.33333333      0.33333333</v>
   <v>       0.50000000      0.33333333      0.33333333</v>
   <v>       0.00000000      0.41666667      0.33333333</v>
   <v>       0.08333333      0.41666667      0.33333333</v>
   <v>       0.16666667      0.41666667      0.33333333</v>
   <v>       0.25000000      0.41666667      0.33333333</v>
   <v>       0.33333333      0.41666667      0.33333333</v>
   <v>       0.41666667      0.41666667      0.33333333</v>
   <v>       0.50000000      0.41666667      0.33333333</v>
   <v>       0.00000000      0.50000000      0.33333333</v>
   <v>       0.08333333      0.50000000      0.33333333</v>
   <v>       0.16666667      0.50000000      0.33333333</v>
   <v>       0.25000000      0.50000000      0.33333333</v>
   <v>       0.33333333      0.50000000      0.33333333</v>
   <v>       0.41666667      0.50000000      0.33333333</v>
   <v>       0.50000000      0.50000000      0.33333333</v>
   <v>       0.00000000      0.41666667      0.41666667</v>
   <v>       0.08333333      0.41666667      0.41666667</v>
   <v>       0.16666667      0.41666667      0.41666667</v>
   <v>       0.25000000      0.41666667      0.41666667</v>
   <v>       0.33333333      0.41666667      0.41666667</v>
   <v>       0.41666667      0.41666667      0.41666667</v>
   <v>       0.50000000      0.41666667      0.41666667</v>
   <v>       0.00000000      0.50000000      0.41666667</v>
   <v>       0.08333333      0.50000000      0.41666667</v>
   <v>       0.16666667      0.50000000      0.41666667</v>
   <v>       0.25000000      0.50000000      0.41666667</v>
   <v>       0.33333333      0.50000000      0.41666667</v>
   <v>       0.41666667      0.50000000      0.41666667</v>
   <v>       0.50000000      0.50000000      0.41666667</v>
   <v>       0.00000000      0.50000000      0.50000000</v>
   <v>       0.08333333      0.50000000      0.50000000</v>
   <v>       0.16666667      0.50000000      0.50000000</v>
   <v>       0.25000000      0.50000000      0.50000000</v>
   <v>       0.33333333      0.50000000      0.50000000</v>
   <v>       0.41666667      0.50000000      0.50000000</v>
   <v>       0.50000000      0.50000000      0.50000000</v>
  </varray>
  <varray name="weights" >
   <v>       0.00057870</v>
   <v>       0.00115741</v>
   <v>       0.00115741</v>
   <v>       0.00115741</v>
   <v>       0.00115741</v>
   <v>       0.00115741</v>
   <v>       0.00057870</v>
   <v>       0.00231481</v>
   <v>       0.00462963</v>
   <v>       0.00462963</v>
   <v>       0.00462963</v>
   <v>       0.00462963</v>
   <v>       0.00462963</v>
   <v>       0.00231481</v>
   <v>       0.00231481</v>
   <v>       0.00462963</v>
   <v>       0.00462963</v>
   <v>       0.00462963</v>
   <v>       0.00462963</v>
   <v>       0.00462963</v>
   <v>       0.00231481</v>
   <v>       0.00231481</v>
   <v>       0.00462963</v>
   <v>       0.00462963</v>
   <v>       0.00462963</v>
   <v>       0.00462963</v>
   <v>       0.00462963</v>
   <v>       0.00231481</v>
   <v>       0.00231481</v>
   <v>       0.00462963</v>
   <v>       0.00462963</v>
   <v>       0.00462963</v>
   <v>       0.00462963</v>
   <v>       0.00462963</v>
   <v>       0.00231481</v>
   <v>       0.00231481</v>
   <v>       0.00462963</v>
   <v>       0.00462963</v>
   <v>       0.00462963</v>
   <v>       0.00462963</v>
   <v>       0.00462963</v>
   <v>       0.00231481</v>
   <v>       0.00115741</v>
   <v>       0.00231481</v>
   <v>       0.00231481</v>
   <v>       0.00231481</v>
   <v>       0.00231481</v>
   <v>       0.00231481</v>
   <v>       0.00115741</v>
   <v>       0.00231481</v>
   <v>       0.00462963</v>
   <v>       0.00462963</v>
   <v>       0.00462963</v>
   <v>       0.00462963</v>
   <v>       0.00462963</v>
   <v>       0.00231481</v>
   <v>       0.00462963</v>
   <v>       0.00925926</v>
   <v>       0.00925926</v>
   <v>       0.00925926</v>
   <v>       0.00925926</v>
   <v>       0.00925926</v>
   <v>       0.00462963</v>
   <v>       0.00462963</v>
   <v>       0.00925926</v>
   <v>       0.00925926</v>
   <v>       0.00925926</v>
   <v>       0.00925926</v>
   <v>       0.00925926</v>
   <v>       0.00462963</v>
   <v>       0.00462963</v>
   <v>       0.00925926</v>
   <v>       0.00925926</v>
   <v>       0.00925926</v>
   <v>       0.00925926</v>
   <v>       0.00925926</v>
   <v>       0.00462963</v>
   <v>       0.00462963</v>
   <v>       0.00925926</v>
   <v>       0.00925926</v>
   <v>       0.00925926</v>
   <v>       0.00925926</v>
   <v>       0.00925926</v>
   <v>       0.00462963</v>
   <v>       0.00231481</v>
   <v>       0.00462963</v>
   <v>       0.00462963</v>
   <v>       0.00462963</v>
   <v>       0.00462963</v>
   <v>       0.00462963</v>
   <v>       0.00231481</v>
   <v>       0.00231481</v>
   <v>       0.00462963</v>
   <v>       0.00462963</v>
   <v>       0.00462963</v>
   <v>       0.00462963</v>
   <v>       0.00462963</v>
   <v>       0.00231481</v>
   <v>       0.00462963</v>
   <v>       0.00925926</v>
   <v>       0.00925926</v>
   <v>       0.00925926</v>
   <v>       0.00925926</v>
   <v>       0.00925926</v>
   <v>       0.00462963</v>
   <v>       0.00462963</v>
   <v>       0.00925926</v>
   <v>       0.00925926</v>
   <v>       0.00925926</v>
   <v>       0.00925926</v>
   <v>       0.00925926</v>
   <v>       0.00462963</v>
   <v>       0.00462963</v>
   <v>       0.00925926</v>
   <v>       0.00925926</v>
   <v>       0.00925926</v>
   <v>       0.00925926</v>
   <v>       0.00925926</v>
   <v>       0.00462963</v>
   <v>       0.00231481</v>
   <v>       0.00462963</v>
   <v>       0.00462963</v>
   <v>       0.00462963</v>
   <v>       0.00462963</v>
   <v>       0.00462963</v>
   <v>       0.00231481</v>
   <v>       0.00231481</v>
   <v>       0.00462963</v>
   <v>       0.00462963</v>
   <v>       0.00462963</v>
   <v>       0.00462963</v>
   <v>       0.00462963</v>
   <v>       0.00231481</v>
   <v>       0.00462963</v>
   <v>       0.00925926</v>
   <v>       0.00925926</v>
   <v>       0.00925926</v>
   <v>       0.00925926</v>
   <v>       0.00925926</v>
   <v>       0.00462963</v>
   <v>       0.00462963</v>
   <v>       0.00925926</v>
   <v>       0.00925926</v>
   <v>       0.00925926</v>
   <v>       0.00925926</v>
   <v>       0.00925926</v>
   <v>       0.00462963</v>
   <v>       0.00231481</v>
   <v>       0.00462963</v>
   <v>       0.00462963</v>
   <v>       0.00462963</v>
   <v>       0.00462963</v>
   <v>       0.00462963</v>
   <v>       0.00231481</v>
   <v>       0.00231481</v>
   <v>       0.00462963</v>
   <v>       0.00462963</v>
   <v>       0.00462963</v>
   <v>       0.00462963</v>
   <v>       0.00462963</v>
   <v>       0.00231481</v>
   <v>       0.00462963</v>
   <v>       0.00925926</v>
   <v>       0.00925926</v>
   <v>       0.00925926</v>
   <v>       0.00925926</v>
   <v>       0.00925926</v>
   <v>       0.00462963</v>
   <v>       0.00231481</v>
   <v>       0.00462963</v>
   <v>       0.00462963</v>
   <v>       0.00462963</v>
   <v>       0.00462963</v>
   <v>       0.00462963</v>
   <v>       0.00231481</v>
   <v>       0.00231481</v>
   <v>       0.00462963</v>
   <v>       0.00462963</v>
   <v>       0.00462963</v>
   <v>       0.00462963</v>
   <v>       0.00462963</v>
   <v>       0.00231481</v>
   <v>       0.00231481</v>
   <v>       0.00462963</v>
   <v>       0.00462963</v>
   <v>       0.00462963</v>
   <v>       0.00462963</v>
   <v>       0.00462963</v>
   <v>       0.00231481</v>
   <v>       0.00057870</v>
   <v>       0.00115741</v>
   <v>       0.00115741</v>
   <v>       0.00115741</v>
   <v>       0.00115741</v>
   <v>       0.00115741</v>
   <v>       0.00057870</v>
  </varray>
 </kpoints>
 <parameters>
  <separator name="general" >
   <i type="string" name="SYSTEM">unknown system</i>
   <i type="logical" name="LCOMPAT"> F  </i>
  </separator>
  <separator name="electronic" >
   <i type="string" name="PREC">accura</i>
   <i name="ENMAX">    750.00000000</i>
   <i name="ENAUG">    291.05200000</i>
   <i name="EDIFF">      0.00000001</i>
   <i type="int" name="IALGO">    38</i>
   <i type="int" name="IWAVPR">    10</i>
   <i type="int" name="NBANDS">    65</i>
   <i name="NELECT">     96.00000000</i>
   <separator name="electronic smearing" >
    <i type="int" name="ISMEAR">     0</i>
    <i name="SIGMA">      0.01000000</i>
   </separator>
   <separator name="electronic projectors" >
    <i type="logical" name="LREAL"> F  </i>
    <v name="ROPT">      0.00000000</v>
    <i type="int" name="LMAXPAW">  -100</i>
    <i type="int" name="LMAXMIX">     2</i>
   </separator>
   <separator name="electronic startup" >
    <i type="int" name="ISTART">     0</i>
    <i type="int" name="ICHARG">     2</i>
    <i type="int" name="INIWAV">     1</i>
   </separator>
   <separator name="electronic spin" >
    <i type="int" name="ISPIN">     1</i>
    <i type="logical" name="LNONCOLLINEAR"> F  </i>
    <v name="MAGMOM">      1.00000000      1.00000000      1.00000000      1.00000000      1.00000000      1.00000000      1.00000000      1.00000000      1.00000000      1.00000000      1.00000000      1.00000000      1.00000000      1.00000000      1.00000000      1.00000000      1.00000000      1.00000000      1.00000000      1.00000000
      1.00000000      1.00000000      1.00000000      1.00000000      1.00000000      1.00000000      1.00000000      1.00000000      1.00000000      1.00000000      1.00000000      1.00000000</v>
    <i name="NUPDOWN">     -1.00000000</i>
    <i type="logical" name="LSORBIT"> F  </i>
    <v name="SAXIS">      0.00000000      0.00000000      1.00000000</v>
    <i type="logical" name="LSPIRAL"> F  </i>
    <v name="QSPIRAL">      0.00000000      0.00000000      0.00000000</v>
    <i type="logical" name="LZEROZ"> F  </i>
   </separator>
   <separator name="electronic exchange-correlation" >
    <i type="string" name="GGA">--</i>
    <i type="int" name="VOSKOWN">     0</i>
    <i type="logical" name="LASPH"> F  </i>
    <i type="logical" name="LMETAGGA"> F  </i>
    <i type="string" name="GGA2">--</i>
   </separator>
   <separator name="electronic convergence" >
    <i type="int" name="NELM">    60</i>
    <i type="int" name="NELMDL">     0</i>
    <i type="int" name="NELMIN">     2</i>
    <i name="ENINI">    750.00000000</i>
    <separator name="electronic convergence detail" >
     <i type="logical" name="LDIAG"> T  </i>
     <i name="WEIMIN">      0.00000000</i>
     <i name="EBREAK">      0.00000000</i>
     <i name="DEPER">      0.30000000</i>
     <i type="int" name="NRMM">     4</i>
     <i name="TIME">      0.10000000</i>
    </separator>
   </separator>
   <separator name="electronic mixer" >
    <i name="AMIX">      0.40000000</i>
    <i name="BMIX">      1.00000000</i>
    <i name="AMIN">      0.10000000</i>
    <i name="AMIX_MAG">      1.60000000</i>
    <i name="BMIX_MAG">      1.00000000</i>
    <separator name="electronic mixer details" >
     <i type="int" name="IMIX">     4</i>
     <i type="int" name="MAXMIX">   -45</i>
     <i name="WC">    100.00000000</i>
     <i type="int" name="INIMIX">     1</i>
     <i type="int" name="MIXPRE">     1</i>
     <i type="int" name="MREMOVE">     5</i>
    </separator>
   </separator>
   <separator name="electronic dipolcorrection" >
    <i type="int" name="IDIPOL">     0</i>
    <i type="logical" name="LDIPOL"> F  </i>
    <v name="DIPOL">   -100.00000000</v>
    <i name="EFIELD">      0.00000000</i>
   </separator>
  </separator>
  <separator name="grids" >
   <i type="int" name="NGX">    80</i>
   <i type="int" name="NGY">    80</i>
   <i type="int" name="NGZ">    80</i>
   <i type="int" name="NGXF">   160</i>
   <i type="int" name="NGYF">   160</i>
   <i type="int" name="NGZF">   160</i>
   <i type="logical" name="ADDGRID"> T  </i>
  </separator>
  <separator name="ionic" >
   <i type="int" name="NSW">     0</i>
   <i type="int" name="IBRION">    -1</i>
   <i type="int" name="ISIF">     2</i>
   <i name="PSTRESS">      0.00000000</i>
   <i name="EDIFFG">      0.00000010</i>
   <i type="int" name="NFREE">     0</i>
   <i name="POTIM">      0.50000000</i>
   <i name="SMASS">     -3.00000000</i>
  </separator>
  <separator name="ionic md" >
   <i name="TEBEG">      0.00010000</i>
   <i name="TEEND">      0.00010000</i>
   <i type="int" name="NBLOCK">     1</i>
   <i type="int" name="KBLOCK">     1</i>
   <i type="int" name="NPACO">   256</i>
   <i name="APACO">     16.00000000</i>
  </separator>
  <separator name="symmetry" >
   <i type="int" name="ISYM">     2</i>
   <i name="SYMPREC">      0.00001000</i>
  </separator>
  <separator name="dos" >
   <i type="logical" name="LORBIT"> F  </i>
   <v name="RWIGS">     -1.00000000</v>
   <i type="int" name="NEDOS">   301</i>
   <i name="EMIN">     10.00000000</i>
   <i name="EMAX">    -10.00000000</i>
  </separator>
  <separator name="writing" >
   <i type="int" name="NWRITE">     2</i>
   <i type="logical" name="LWAVE"> F  </i>
   <i type="logical" name="LCHARG"> F  </i>
   <i type="logical" name="LPARD"> F  </i>
   <i type="logical" name="LVTOT"> F  </i>
   <i type="logical" name="LELF"> F  </i>
   <i type="logical" name="LOPTICS"> F  </i>
   <i name="STM">      0.00000000</i>
  </separator>
  <separator name="performance" >
   <i type="int" name="NPAR">     4</i>
   <i type="int" name="NSIM">     4</i>
   <i type="int" name="NBLK">   256</i>
   <i type="logical" name="LPLANE"> T  </i>
   <i type="logical" name="LCRITICAL_MEM"> F  </i>
   <i type="logical" name="LSCALAPACK"> F  </i>
   <i type="logical" name="LSCALU"> F  </i>
   <i type="logical" name="LASYNC"> F  </i>
  </separator>
  <separator name="miscellaneous" >
   <i type="int" name="IDIOT">     3</i>
   <i type="logical" name="LMUSIC"> F  </i>
   <v name="POMASS">     26.98200000</v>
   <i type="logical" name="LCORR"> T  </i>
  </separator>
  <i type="logical" name="LREAL_COMPAT"> F  </i>
  <i type="logical" name="GGA_COMPAT"> T  </i>
  <i type="logical" name="LBERRY"> F  </i>
  <i type="int" name="ICORELEVEL">     0</i>
  <i type="logical" name="LDAU"> F  </i>
  <i type="int" name="I_CONSTRAINED_M">     0</i>
 </parameters>
 <atominfo>
  <atoms>      32</atoms>
  <types>       1</types>
  <array name="atoms" >
   <dimension dim="1">ion</dimension>
   <field type="string">element</field>
   <field type="int">atomtype</field>
   <set>
    <rc><c>Al</c><c>   1</c></rc>
    <rc><c>Al</c><c>   1</c></rc>
    <rc><c>Al</c><c>   1</c></rc>
    <rc><c>Al</c><c>   1</c></rc>
    <rc><c>Al</c><c>   1</c></rc>
    <rc><c>Al</c><c>   1</c></rc>
    <rc><c>Al</c><c>   1</c></rc>
    <rc><c>Al</c><c>   1</c></rc>
    <rc><c>Al</c><c>   1</c></rc>
    <rc><c>Al</c><c>   1</c></rc>
    <rc><c>Al</c><c>   1</c></rc>
    <rc><c>Al</c><c>   1</c></rc>
    <rc><c>Al</c><c>   1</c></rc>
    <rc><c>Al</c><c>   1</c></rc>
    <rc><c>Al</c><c>   1</c></rc>
    <rc><c>Al</c><c>   1</c></rc>
    <rc><c>Al</c><c>   1</c></rc>
    <rc><c>Al</c><c>   1</c></rc>
    <rc><c>Al</c><c>   1</c></rc>
    <rc><c>Al</c><c>   1</c></rc>
    <rc><c>Al</c><c>   1</c></rc>
    <rc><c>Al</c><c>   1</c></rc>
    <rc><c>Al</c><c>   1</c></rc>
    <rc><c>Al</c><c>   1</c></rc>
    <rc><c>Al</c><c>   1</c></rc>
    <rc><c>Al</c><c>   1</c></rc>
    <rc><c>Al</c><c>   1</c></rc>
    <rc><c>Al</c><c>   1</c></rc>
    <rc><c>Al</c><c>   1</c></rc>
    <rc><c>Al</c><c>   1</c></rc>
    <rc><c>Al</c><c>   1</c></rc>
    <rc><c>Al</c><c>   1</c></rc>
   </set>
  </array>
  <array name="atomtypes" >
   <dimension dim="1">type</dimension>
   <field type="int">atomspertype</field>
   <field type="string">element</field>
   <field>mass</field>
   <field>valence</field>
   <field type="string">pseudopotential</field>
   <set>
    <rc><c>  32</c><c>Al</c><c>     26.98200000</c><c>      3.00000000</c><c> PAW_PBE Al 04Jan2001                   </c></rc>
   </set>
  </array>
 </atominfo>
 <structure name="initialpos" >
  <crystal>
   <varray name="basis" >
    <v>       8.15535887      0.00000000      0.00000000</v>
    <v>       0.00000000      8.15535887      0.00000000</v>
    <v>       0.00000000      0.00000000      8.15535887</v>
   </varray>
   <i name="volume">    542.41192527</i>
   <varray name="rec_basis" >
    <v>       0.12261876      0.00000000      0.00000000</v>
    <v>       0.00000000      0.12261876      0.00000000</v>
    <v>       0.00000000      0.00000000      0.12261876</v>
   </varray>
  </crystal>
  <varray name="positions" >
   <v>       0.25122619      0.25000000      0.00000000</v>
   <v>       0.75000000      0.25000000      0.00000000</v>
   <v>       0.25000000      0.75000000      0.00000000</v>
   <v>       0.75000000      0.75000000      0.00000000</v>
   <v>       0.25000000      0.25000000      0.50000000</v>
   <v>       0.75000000      0.25000000      0.50000000</v>
   <v>       0.25000000      0.75000000      0.50000000</v>
   <v>       0.75000000      0.75000000      0.50000000</v>
   <v>       0.25000000      0.00000000      0.25000000</v>
   <v>       0.75000000      0.00000000      0.25000000</v>
   <v>       0.25000000      0.50000000      0.25000000</v>
   <v>       0.75000000      0.50000000      0.25000000</v>
   <v>       0.25000000      0.00000000      0.75000000</v>
   <v>       0.75000000      0.00000000      0.75000000</v>
   <v>       0.25000000      0.50000000      0.75000000</v>
   <v>       0.75000000      0.50000000      0.75000000</v>
   <v>       0.00000000      0.25000000      0.25000000</v>
   <v>       0.50000000      0.25000000      0.25000000</v>
   <v>       0.00000000      0.75000000      0.25000000</v>
   <v>       0.50000000      0.75000000      0.25000000</v>
   <v>       0.00000000      0.25000000      0.75000000</v>
   <v>       0.50000000      0.25000000      0.75000000</v>
   <v>       0.00000000      0.75000000      0.75000000</v>
   <v>       0.50000000      0.75000000      0.75000000</v>
   <v>       0.00000000      0.00000000      0.00000000</v>
   <v>       0.50000000      0.00000000      0.00000000</v>
   <v>       0.00000000      0.50000000      0.00000000</v>
   <v>       0.50000000      0.50000000      0.00000000</v>
   <v>       0.00000000      0.00000000      0.50000000</v>
   <v>       0.50000000      0.00000000      0.50000000</v>
   <v>       0.00000000      0.50000000      0.50000000</v>
   <v>       0.50000000      0.50000000      0.50000000</v>
  </varray>
 </structure>
 <calculation>
  <scstep>
   <time name="dav"> 2033.91 2035.83</time>
   <time name="total"> 2039.96 2041.89</time>
   <energy>
    <i name="alphaZ">     -6.34098059</i>
    <i name="ewald">  -2331.47907581</i>
    <i name="hartreedc">     -3.59168532</i>
    <i name="XCdc">   -841.21527594</i>
    <i name="pawpsdc">   1137.73615723</i>
    <i name="pawaedc">   -115.16745734</i>
    <i name="eentropy">     -0.00018512</i>
    <i name="bandstr">    624.01059614</i>
    <i name="atom">   1713.23509266</i>
    <i name="e_fr_energy">    177.18718592</i>
    <i name="e_wo_entrp">    177.18737104</i>
    <i name="e_0_energy">    177.18727848</i>
   </energy>
  </scstep>
  <scstep>
   <time name="dav"> 2272.43 2274.46</time>
   <time name="total"> 2272.50 2274.53</time>
   <energy>
    <i name="e_fr_energy">   -102.65451044</i>
    <i name="e_wo_entrp">   -102.65403795</i>
    <i name="e_0_energy">   -102.65427419</i>
   </energy>
  </scstep>
  <scstep>
   <time name="dav"> 2368.25 2373.25</time>
   <time name="total"> 2368.30 2373.31</time>
   <energy>
    <i name="e_fr_energy">   -120.02986203</i>
    <i name="e_wo_entrp">   -120.02921277</i>
    <i name="e_0_energy">   -120.02953740</i>
   </energy>
  </scstep>
  <scstep>
   <time name="dav"> 2265.75 2269.86</time>
   <time name="total"> 2265.81 2269.93</time>
   <energy>
    <i name="e_fr_energy">   -120.46180955</i>
    <i name="e_wo_entrp">   -120.46105869</i>
    <i name="e_0_energy">   -120.46143412</i>
   </energy>
  </scstep>
  <scstep>
   <time name="dav"> 2386.94 2389.10</time>
   <time name="total"> 2551.66 2554.02</time>
   <energy>
    <i name="e_fr_energy">   -120.46743234</i>
    <i name="e_wo_entrp">   -120.46667990</i>
    <i name="e_0_energy">   -120.46705612</i>
   </energy>
  </scstep>
  <scstep>
   <time name="dav"> 2316.69 2343.79</time>
   <time name="total"> 2488.70 2518.03</time>
   <energy>
    <i name="e_fr_energy">   -120.05704334</i>
    <i name="e_wo_entrp">   -120.05631624</i>
    <i name="e_0_energy">   -120.05667979</i>
   </energy>
  </scstep>
  <scstep>
   <time name="dav"> 2256.95 2286.46</time>
   <time name="total"> 2428.70 2460.49</time>
   <energy>
    <i name="e_fr_energy">   -119.75803653</i>
    <i name="e_wo_entrp">   -119.75750308</i>
    <i name="e_0_energy">   -119.75776980</i>
   </energy>
  </scstep>
  <scstep>
   <time name="dav"> 2389.89 2394.05</time>
   <time name="total"> 2563.93 2568.42</time>
   <energy>
    <i name="e_fr_energy">   -119.75809531</i>
    <i name="e_wo_entrp">   -119.75756243</i>
    <i name="e_0_energy">   -119.75782887</i>
   </energy>
  </scstep>
  <scstep>
   <time name="dav"> 2363.30 2367.43</time>
   <time name="total"> 2537.47 2541.94</time>
   <energy>
    <i name="e_fr_energy">   -119.75812423</i>
    <i name="e_wo_entrp">   -119.75759246</i>
    <i name="e_0_energy">   -119.75785834</i>
   </energy>
  </scstep>
  <scstep>
   <time name="dav"> 2398.56 2410.81</time>
   <time name="total"> 2572.51 2586.96</time>
   <energy>
    <i name="e_fr_energy">   -119.75812391</i>
    <i name="e_wo_entrp">   -119.75759221</i>
    <i name="e_0_energy">   -119.75785806</i>
   </energy>
  </scstep>
  <scstep>
   <time name="dav"> 2374.29 2392.76</time>
   <time name="total"> 2556.84 2575.47</time>
   <energy>
    <i name="e_fr_energy">   -119.75812072</i>
    <i name="e_wo_entrp">   -119.75758902</i>
    <i name="e_0_energy">   -119.75785487</i>
   </energy>
  </scstep>
  <scstep>
   <time name="dav"> 1837.40 1840.78</time>
   <time name="total"> 2020.11 2024.09</time>
   <energy>
    <i name="e_fr_energy">   -119.75811962</i>
    <i name="e_wo_entrp">   -119.75758793</i>
    <i name="e_0_energy">   -119.75785377</i>
   </energy>
  </scstep>
  <scstep>
   <time name="dav"> 1508.59 1510.97</time>
   <time name="total"> 1648.56 1651.01</time>
   <energy>
    <i name="e_fr_energy">   -119.75811950</i>
    <i name="e_wo_entrp">   -119.75758781</i>
    <i name="e_0_energy">   -119.75785366</i>
   </energy>
  </scstep>
  <scstep>
   <time name="dav"> 1646.99 1648.27</time>
   <time name="total"> 1652.36 1653.65</time>
   <energy>
    <i name="alphaZ">     -6.34098059</i>
    <i name="ewald">  -2331.47907581</i>
    <i name="hartreedc">     -3.24391746</i>
    <i name="XCdc">   -837.89034428</i>
    <i name="pawpsdc">   1138.77507298</i>
    <i name="pawaedc">   -116.47535345</i>
    <i name="eentropy">     -0.00053169</i>
    <i name="bandstr">    323.66191813</i>
    <i name="atom">   1713.23509266</i>
    <i name="e_fr_energy">   -119.75811950</i>
    <i name="e_wo_entrp">   -119.75758781</i>
    <i name="e_0_energy">   -119.75785366</i>
   </energy>
  </scstep>
  <structure>
   <crystal>
    <varray name="basis" >
     <v>       8.15535887      0.00000000      0.00000000</v>
     <v>       0.00000000      8.15535887      0.00000000</v>
     <v>       0.00000000      0.00000000      8.15535887</v>
    </varray>
    <i name="volume">    542.41192527</i>
    <varray name="rec_basis" >
     <v>       0.12261876      0.00000000      0.00000000</v>
     <v>       0.00000000      0.12261876      0.00000000</v>
     <v>       0.00000000      0.00000000      0.12261876</v>
    </varray>
   </crystal>
   <varray name="positions" >
    <v>       0.25122619      0.25000000      0.00000000</v>
    <v>       0.75000000      0.25000000      0.00000000</v>
    <v>       0.25000000      0.75000000      0.00000000</v>
    <v>       0.75000000      0.75000000      0.00000000</v>
    <v>       0.25000000      0.25000000      0.50000000</v>
    <v>       0.75000000      0.25000000      0.50000000</v>
    <v>       0.25000000      0.75000000      0.50000000</v>
    <v>       0.75000000      0.75000000      0.50000000</v>
    <v>       0.25000000      0.00000000      0.25000000</v>
    <v>       0.75000000      0.00000000      0.25000000</v>
    <v>       0.25000000      0.50000000      0.25000000</v>
    <v>       0.75000000      0.50000000      0.25000000</v>
    <v>       0.25000000      0.00000000      0.75000000</v>
    <v>       0.75000000      0.00000000      0.75000000</v>
    <v>       0.25000000      0.50000000      0.75000000</v>
    <v>       0.75000000      0.50000000      0.75000000</v>
    <v>       0.00000000      0.25000000      0.25000000</v>
    <v>       0.50000000      0.25000000      0.25000000</v>
    <v>       0.00000000      0.75000000      0.25000000</v>
    <v>       0.50000000      0.75000000      0.25000000</v>
    <v>       0.00000000      0.25000000      0.75000000</v>
    <v>       0.50000000      0.25000000      0.75000000</v>
    <v>       0.00000000      0.75000000      0.75000000</v>
    <v>       0.50000000      0.75000000      0.75000000</v>
    <v>       0.00000000      0.00000000      0.00000000</v>
    <v>       0.50000000      0.00000000      0.00000000</v>
    <v>       0.00000000      0.50000000      0.00000000</v>
    <v>       0.50000000      0.50000000      0.00000000</v>
    <v>       0.00000000      0.00000000      0.50000000</v>
    <v>       0.50000000      0.00000000      0.50000000</v>
    <v>       0.00000000      0.50000000      0.50000000</v>
    <v>       0.50000000      0.50000000      0.50000000</v>
   </varray>
  </structure>
  <varray name="forces" >
   <v>      -0.04146861     -0.00000000     -0.00000000</v>
   <v>       0.00209724     -0.00000000     -0.00000000</v>
   <v>      -0.00034790      0.00000000     -0.00000000</v>
   <v>       0.00049061      0.00000000     -0.00000000</v>
   <v>      -0.00034790      0.00000000      0.00000000</v>
   <v>       0.00049061      0.00000000     -0.00000000</v>
   <v>       0.00002898      0.00000000      0.00000000</v>
   <v>      -0.00076338      0.00000000      0.00000000</v>
   <v>      -0.00144373      0.00001793     -0.00001793</v>
   <v>      -0.00044865      0.00000000     -0.00000000</v>
   <v>      -0.00144373     -0.00001793     -0.00001793</v>
   <v>      -0.00044865     -0.00000000     -0.00000000</v>
   <v>      -0.00144373      0.00001793      0.00001793</v>
   <v>      -0.00044865      0.00000000      0.00000000</v>
   <v>      -0.00144373     -0.00001793      0.00001793</v>
   <v>      -0.00044865     -0.00000000      0.00000000</v>
   <v>       0.00576915      0.00000000     -0.00586046</v>
   <v>       0.00590833      0.00000000      0.00605857</v>
   <v>       0.00008254      0.00000000      0.00012878</v>
   <v>       0.00008744      0.00000000     -0.00013252</v>
   <v>       0.00576915      0.00000000      0.00586046</v>
   <v>       0.00590833      0.00000000     -0.00605857</v>
   <v>       0.00008254      0.00000000     -0.00012878</v>
   <v>       0.00008744      0.00000000      0.00013252</v>
   <v>       0.00576915      0.00586046     -0.00000000</v>
   <v>       0.00590833     -0.00605857     -0.00000000</v>
   <v>       0.00576915     -0.00586046     -0.00000000</v>
   <v>       0.00590833      0.00605857      0.00000000</v>
   <v>       0.00008254     -0.00012878     -0.00000000</v>
   <v>       0.00008744      0.00013252     -0.00000000</v>
   <v>       0.00008254      0.00012878      0.00000000</v>
   <v>       0.00008744     -0.00013252     -0.00000000</v>
  </varray>
  <varray name="stress" >
   <v>     -20.42967628      0.00000000      0.00000000</v>
   <v>       0.00000000    -20.43151298      0.00000000</v>
   <v>       0.00000000      0.00000000    -20.43151298</v>
  </varray>
  <energy>
   <i name="e_fr_energy">   -119.75811950</i>
   <i name="e_wo_entrp">   -119.75785366</i>
   <i name="e_0_energy">     -0.00053169</i>
  </energy>
  <eigenvalues>
   <array>
    <dimension dim="1">band</dimension>
    <dimension dim="2">kpoint</dimension>
    <dimension dim="3">spin</dimension>
    <field>eigene</field>
    <field>occ</field>
    <set>
     <set comment="spin 1">
      <set comment="kpoint 1">
       <r>  -3.2278  1.0000</r>
       <r>  -1.0223  1.0000</r>
       <r>  -1.0186  1.0000</r>
       <r>  -1.0186  1.0000</r>
       <r>  -1.0186  1.0000</r>
       <r>  -1.0186  1.0000</r>
       <r>  -1.0150  1.0000</r>
       <r>   1.1515  1.0000</r>
       <r>   1.1559  1.0000</r>
       <r>   1.1559  1.0000</r>
       <r>   1.1575  1.0000</r>
       <r>   1.1577  1.0000</r>
       <r>   1.1577  1.0000</r>
       <r>   1.1577  1.0000</r>
       <r>   1.1577  1.0000</r>
       <r>   1.1578  1.0000</r>
       <r>   1.1595  1.0000</r>
       <r>   1.1595  1.0000</r>
       <r>   1.1639  1.0000</r>
       <r>   3.2358  1.0000</r>
       <r>   3.2359  1.0000</r>
       <r>   3.2359  1.0000</r>
       <r>   3.2359  1.0000</r>
       <r>   3.3778  1.0000</r>
       <r>   3.3778  1.0000</r>
       <r>   3.3778  1.0000</r>
       <r>   3.3779  1.0000</r>
       <r>   4.8631  1.0000</r>
       <r>   4.8631  1.0000</r>
       <r>   4.8631  1.0000</r>
       <r>   6.1243  1.0000</r>
       <r>   6.1244  1.0000</r>
       <r>   6.1244  1.0000</r>
       <r>   6.9055  1.0000</r>
       <r>   6.9055  1.0000</r>
       <r>   6.9098  1.0000</r>
       <r>   6.9098  1.0000</r>
       <r>   6.9099  1.0000</r>
       <r>   6.9099  1.0000</r>
       <r>   6.9099  1.0000</r>
       <r>   6.9100  1.0000</r>
       <r>   6.9101  1.0000</r>
       <r>   6.9101  1.0000</r>
       <r>   6.9143  1.0000</r>
       <r>   6.9143  1.0000</r>
       <r>   7.9343  0.0000</r>
       <r>   7.9384  0.0000</r>
       <r>   7.9384  0.0000</r>
       <r>   7.9384  0.0000</r>
       <r>   7.9384  0.0000</r>
       <r>   7.9425  0.0000</r>
       <r>   8.6796  0.0000</r>
       <r>   8.6806  0.0000</r>
       <r>   8.6806  0.0000</r>
       <r>   8.6806  0.0000</r>
       <r>   8.6806  0.0000</r>
       <r>   8.6816  0.0000</r>
       <r>   8.9578  0.0000</r>
       <r>   8.9580  0.0000</r>
       <r>   8.9595  0.0000</r>
       <r>   8.9617  0.0000</r>
       <r>   8.9619  0.0000</r>
       <r>   8.9619  0.0000</r>
       <r>   8.9619  0.0000</r>
       <r>   8.9620  0.0000</r>
       <r>   8.9635  0.0000</r>
       <r>   8.9651  0.0000</r>
       <r>   8.9659  0.0000</r>
      </set>
      <set comment="kpoint 2">
       <r>  -3.2123  1.0000</r>
       <r>  -1.3692  1.0000</r>
       <r>  -1.0034  1.0000</r>
       <r>  -1.0034  1.0000</r>
       <r>  -1.0034  1.0000</r>
       <r>  -1.0034  1.0000</r>
       <r>  -0.6386  1.0000</r>
       <r>   0.8122  1.0000</r>
       <r>   0.8123  1.0000</r>
       <r>   0.8123  1.0000</r>
       <r>   0.8123  1.0000</r>
       <r>   1.1727  1.0000</r>
       <r>   1.1727  1.0000</r>
       <r>   1.1727  1.0000</r>
       <r>   1.1727  1.0000</r>
       <r>   1.5321  1.0000</r>
       <r>   1.5321  1.0000</r>
       <r>   1.5321  1.0000</r>
       <r>   1.5322  1.0000</r>
       <r>   2.9587  1.0000</r>
       <r>   2.9587  1.0000</r>
       <r>   2.9587  1.0000</r>
       <r>   2.9587  1.0000</r>
       <r>   3.6838  1.0000</r>
       <r>   3.6838  1.0000</r>
       <r>   3.6838  1.0000</r>
       <r>   3.6838  1.0000</r>
       <r>   4.5588  1.0000</r>
       <r>   4.8773  1.0000</r>
       <r>   4.8773  1.0000</r>
       <r>   6.1394  1.0000</r>
       <r>   6.1394  1.0000</r>
       <r>   6.4556  1.0000</r>
       <r>   6.5825  1.0000</r>
       <r>   6.5825  1.0000</r>
       <r>   6.6212  1.0000</r>
       <r>   6.6212  1.0000</r>
       <r>   6.6212  1.0000</r>
       <r>   6.6212  1.0000</r>
       <r>   6.9242  1.0000</r>
       <r>   6.9242  1.0000</r>
       <r>   6.9242  1.0000</r>
       <r>   6.9242  1.0000</r>
       <r>   7.2660  1.0000</r>
       <r>   7.2660  1.0000</r>
       <r>   7.8106  0.0000</r>
       <r>   7.8107  0.0000</r>
       <r>   8.1038  0.0000</r>
       <r>   8.1038  0.0000</r>
       <r>   8.1038  0.0000</r>
       <r>   8.1038  0.0000</r>
       <r>   8.6338  0.0000</r>
       <r>   8.6338  0.0000</r>
       <r>   8.6338  0.0000</r>
       <r>   8.6339  0.0000</r>
       <r>   8.6952  0.0000</r>
       <r>   8.6952  0.0000</r>
       <r>   8.6952  0.0000</r>
       <r>   8.6952  0.0000</r>
       <r>   8.8350  0.0000</r>
       <r>   8.8350  0.0000</r>
       <r>   8.8451  0.0000</r>
       <r>   8.8451  0.0000</r>
       <r>   8.8452  0.0000</r>
       <r>   8.8452  0.0000</r>
       <r>   9.3185  0.0000</r>
       <r>   9.3185  0.0000</r>
       <r>   9.3185  0.0000</r>
      </set>
      <set comment="kpoint 3">
       <r>  -3.1660  1.0000</r>
       <r>  -1.6900  1.0000</r>
       <r>  -0.9578  1.0000</r>
       <r>  -0.9577  1.0000</r>
       <r>  -0.9577  1.0000</r>
       <r>  -0.9577  1.0000</r>
       <r>  -0.2295  1.0000</r>
       <r>   0.4962  1.0000</r>
       <r>   0.4962  1.0000</r>
       <r>   0.4962  1.0000</r>
       <r>   0.4962  1.0000</r>
       <r>   1.2177  1.0000</r>
       <r>   1.2177  1.0000</r>
       <r>   1.2177  1.0000</r>
       <r>   1.2177  1.0000</r>
       <r>   1.9352  1.0000</r>
       <r>   1.9352  1.0000</r>
       <r>   1.9352  1.0000</r>
       <r>   1.9353  1.0000</r>
       <r>   2.6500  1.0000</r>
       <r>   2.6500  1.0000</r>
       <r>   2.6500  1.0000</r>
       <r>   2.6500  1.0000</r>
       <r>   3.9970  1.0000</r>
       <r>   4.0786  1.0000</r>
       <r>   4.0786  1.0000</r>
       <r>   4.0786  1.0000</r>
       <r>   4.0787  1.0000</r>
       <r>   4.9199  1.0000</r>
       <r>   4.9199  1.0000</r>
       <r>   6.0810  1.0000</r>
       <r>   6.0810  1.0000</r>
       <r>   6.0810  1.0000</r>
       <r>   6.0810  1.0000</r>
       <r>   6.1845  1.0000</r>
       <r>   6.1846  1.0000</r>
       <r>   6.2838  1.0000</r>
       <r>   6.2838  1.0000</r>
       <r>   6.9669  1.0000</r>
       <r>   6.9669  1.0000</r>
       <r>   6.9669  1.0000</r>
       <r>   6.9669  1.0000</r>
       <r>   7.0980  1.0000</r>
       <r>   7.5659  1.0000</r>
       <r>   7.5659  1.0000</r>
       <r>   7.6507  1.0000</r>
       <r>   7.6507  1.0000</r>
       <r>   8.1720  0.0000</r>
       <r>   8.1720  0.0000</r>
       <r>   8.1720  0.0000</r>
       <r>   8.1721  0.0000</r>
       <r>   8.2763  0.0000</r>
       <r>   8.2763  0.0000</r>
       <r>   8.2763  0.0000</r>
       <r>   8.2764  0.0000</r>
       <r>   8.3345  0.0000</r>
       <r>   8.3345  0.0000</r>
       <r>   8.3345  0.0000</r>
       <r>   8.3345  0.0000</r>
       <r>   9.1596  0.0000</r>
       <r>   9.1596  0.0000</r>
       <r>   9.3358  0.0000</r>
       <r>   9.3358  0.0000</r>
       <r>   9.3358  0.0000</r>
       <r>   9.3358  0.0000</r>
       <r>   9.7041  0.0000</r>
       <r>   9.7052  0.0000</r>
       <r>   9.7083  0.0000</r>
      </set>
      <set comment="kpoint 4">
       <r>  -3.0887  1.0000</r>
       <r>  -1.9809  1.0000</r>
       <r>  -0.8817  1.0000</r>
       <r>  -0.8817  1.0000</r>
       <r>  -0.8817  1.0000</r>
       <r>  -0.8817  1.0000</r>
       <r>   0.2064  1.0000</r>
       <r>   0.2096  1.0000</r>
       <r>   0.2096  1.0000</r>
       <r>   0.2096  1.0000</r>
       <r>   0.2116  1.0000</r>
       <r>   1.2927  1.0000</r>
       <r>   1.2927  1.0000</r>
       <r>   1.2927  1.0000</r>
       <r>   1.2927  1.0000</r>
       <r>   2.3641  1.0000</r>
       <r>   2.3659  1.0000</r>
       <r>   2.3659  1.0000</r>
       <r>   2.3667  1.0000</r>
       <r>   2.3682  1.0000</r>
       <r>   2.3689  1.0000</r>
       <r>   2.3689  1.0000</r>
       <r>   2.3708  1.0000</r>
       <r>   3.3991  1.0000</r>
       <r>   4.5039  1.0000</r>
       <r>   4.5039  1.0000</r>
       <r>   4.5039  1.0000</r>
       <r>   4.5039  1.0000</r>
       <r>   4.9908  1.0000</r>
       <r>   4.9908  1.0000</r>
       <r>   5.5000  1.0000</r>
       <r>   5.5000  1.0000</r>
       <r>   5.5000  1.0000</r>
       <r>   5.5000  1.0000</r>
       <r>   6.0136  1.0000</r>
       <r>   6.0136  1.0000</r>
       <r>   6.2596  1.0000</r>
       <r>   6.2596  1.0000</r>
       <r>   7.0380  1.0000</r>
       <r>   7.0380  1.0000</r>
       <r>   7.0381  1.0000</r>
       <r>   7.0381  1.0000</r>
       <r>   7.3101  1.0000</r>
       <r>   7.3101  1.0000</r>
       <r>   7.6004  1.0000</r>
       <r>   7.6004  1.0000</r>
       <r>   7.6004  1.0000</r>
       <r>   7.6004  1.0000</r>
       <r>   7.8304  0.0000</r>
       <r>   8.0616  0.0000</r>
       <r>   8.0616  0.0000</r>
       <r>   8.0637  0.0000</r>
       <r>   8.0637  0.0000</r>
       <r>   8.0662  0.0000</r>
       <r>   8.0662  0.0000</r>
       <r>   8.3949  0.0000</r>
       <r>   8.3949  0.0000</r>
       <r>   8.3949  0.0000</r>
       <r>   8.3949  0.0000</r>
       <r>   9.4853  0.0000</r>
       <r>   9.4853  0.0000</r>
       <r>   9.4853  0.0000</r>
       <r>   9.4853  0.0000</r>
       <r>   9.5478  0.0000</r>
       <r>   9.5478  0.0000</r>
       <r>  10.0032  0.0000</r>
       <r>  10.0033  0.0000</r>
       <r>  10.0049  0.0000</r>
      </set>
      <set comment="kpoint 5">
       <r>  -2.9807  1.0000</r>
       <r>  -2.2417  1.0000</r>
       <r>  -0.7753  1.0000</r>
       <r>  -0.7752  1.0000</r>
       <r>  -0.7752  1.0000</r>
       <r>  -0.7752  1.0000</r>
       <r>  -0.0474  1.0000</r>
       <r>  -0.0474  1.0000</r>
       <r>  -0.0474  1.0000</r>
       <r>  -0.0474  1.0000</r>
       <r>   0.6749  1.0000</r>
       <r>   1.3976  1.0000</r>
       <r>   1.3976  1.0000</r>
       <r>   1.3976  1.0000</r>
       <r>   1.3976  1.0000</r>
       <r>   2.1151  1.0000</r>
       <r>   2.1151  1.0000</r>
       <r>   2.1151  1.0000</r>
       <r>   2.1151  1.0000</r>
       <r>   2.8087  1.0000</r>
       <r>   2.8260  1.0000</r>
       <r>   2.8260  1.0000</r>
       <r>   2.8260  1.0000</r>
       <r>   2.8261  1.0000</r>
       <r>   4.9230  1.0000</r>
       <r>   4.9230  1.0000</r>
       <r>   4.9230  1.0000</r>
       <r>   4.9230  1.0000</r>
       <r>   4.9574  1.0000</r>
       <r>   4.9574  1.0000</r>
       <r>   4.9574  1.0000</r>
       <r>   4.9574  1.0000</r>
       <r>   5.0902  1.0000</r>
       <r>   5.0902  1.0000</r>
       <r>   5.7719  1.0000</r>
       <r>   5.7719  1.0000</r>
       <r>   6.3644  1.0000</r>
       <r>   6.3644  1.0000</r>
       <r>   7.0303  1.0000</r>
       <r>   7.0304  1.0000</r>
       <r>   7.0304  1.0000</r>
       <r>   7.0304  1.0000</r>
       <r>   7.0696  1.0000</r>
       <r>   7.0697  1.0000</r>
       <r>   7.1377  1.0000</r>
       <r>   7.1377  1.0000</r>
       <r>   7.1377  1.0000</r>
       <r>   7.1377  1.0000</r>
       <r>   7.8214  0.0000</r>
       <r>   7.8214  0.0000</r>
       <r>   7.8214  0.0000</r>
       <r>   7.8214  0.0000</r>
       <r>   8.5063  0.0000</r>
       <r>   8.5063  0.0000</r>
       <r>   8.5158  0.0000</r>
       <r>   8.5158  0.0000</r>
       <r>   8.5158  0.0000</r>
       <r>   8.5158  0.0000</r>
       <r>   8.6088  0.0000</r>
       <r>   9.2369  0.0000</r>
       <r>   9.2369  0.0000</r>
       <r>   9.2369  0.0000</r>
       <r>   9.2370  0.0000</r>
       <r>   9.9718  0.0000</r>
       <r>   9.9718  0.0000</r>
       <r>  10.5597  0.0000</r>
       <r>  10.5599  0.0000</r>
       <r>  10.5617  0.0000</r>
      </set>
      <set comment="kpoint 6">
       <r>  -2.8418  1.0000</r>
       <r>  -2.4722  1.0000</r>
       <r>  -0.6386  1.0000</r>
       <r>  -0.6385  1.0000</r>
       <r>  -0.6385  1.0000</r>
       <r>  -0.6385  1.0000</r>
       <r>  -0.2745  1.0000</r>
       <r>  -0.2745  1.0000</r>
       <r>  -0.2745  1.0000</r>
       <r>  -0.2744  1.0000</r>
       <r>   1.1692  1.0000</r>
       <r>   1.5324  1.0000</r>
       <r>   1.5325  1.0000</r>
       <r>   1.5325  1.0000</r>
       <r>   1.5325  1.0000</r>
       <r>   1.8913  1.0000</r>
       <r>   1.8913  1.0000</r>
       <r>   1.8913  1.0000</r>
       <r>   1.8913  1.0000</r>
       <r>   2.2378  1.0000</r>
       <r>   3.3126  1.0000</r>
       <r>   3.3126  1.0000</r>
       <r>   3.3126  1.0000</r>
       <r>   3.3126  1.0000</r>
       <r>   4.3631  1.0000</r>
       <r>   4.3631  1.0000</r>
       <r>   4.3631  1.0000</r>
       <r>   4.3631  1.0000</r>
       <r>   5.2179  1.0000</r>
       <r>   5.2179  1.0000</r>
       <r>   5.4382  1.0000</r>
       <r>   5.4382  1.0000</r>
       <r>   5.4382  1.0000</r>
       <r>   5.4382  1.0000</r>
       <r>   5.5588  1.0000</r>
       <r>   5.5588  1.0000</r>
       <r>   6.4767  1.0000</r>
       <r>   6.4768  1.0000</r>
       <r>   6.4768  1.0000</r>
       <r>   6.4768  1.0000</r>
       <r>   6.4985  1.0000</r>
       <r>   6.4987  1.0000</r>
       <r>   6.8524  1.0000</r>
       <r>   6.8524  1.0000</r>
       <r>   7.2659  1.0000</r>
       <r>   7.2659  1.0000</r>
       <r>   7.2659  1.0000</r>
       <r>   7.2659  1.0000</r>
       <r>   7.6077  1.0000</r>
       <r>   7.6077  1.0000</r>
       <r>   7.6077  1.0000</r>
       <r>   7.6077  1.0000</r>
       <r>   8.6567  0.0000</r>
       <r>   8.6567  0.0000</r>
       <r>   8.6567  0.0000</r>
       <r>   8.6567  0.0000</r>
       <r>   8.9773  0.0000</r>
       <r>   8.9773  0.0000</r>
       <r>   9.0162  0.0000</r>
       <r>   9.0162  0.0000</r>
       <r>   9.0162  0.0000</r>
       <r>   9.0162  0.0000</r>
       <r>   9.4214  0.0000</r>
       <r>  10.0054  0.0000</r>
       <r>  10.0054  0.0000</r>
       <r>  10.4220  0.0000</r>
       <r>  10.4220  0.0000</r>
       <r>  11.0309  0.0000</r>
      </set>
      <set comment="kpoint 7">
       <r>  -2.6737  1.0000</r>
       <r>  -2.6709  1.0000</r>
       <r>  -0.4755  1.0000</r>
       <r>  -0.4724  1.0000</r>
       <r>  -0.4724  1.0000</r>
       <r>  -0.4716  1.0000</r>
       <r>  -0.4714  1.0000</r>
       <r>  -0.4707  1.0000</r>
       <r>  -0.4707  1.0000</r>
       <r>  -0.4676  1.0000</r>
       <r>   1.6883  1.0000</r>
       <r>   1.6907  1.0000</r>
       <r>   1.6954  1.0000</r>
       <r>   1.6958  1.0000</r>
       <r>   1.6958  1.0000</r>
       <r>   1.6966  1.0000</r>
       <r>   1.6975  1.0000</r>
       <r>   1.6983  1.0000</r>
       <r>   1.6983  1.0000</r>
       <r>   1.7007  1.0000</r>
       <r>   3.8245  1.0000</r>
       <r>   3.8246  1.0000</r>
       <r>   3.8246  1.0000</r>
       <r>   3.8253  1.0000</r>
       <r>   3.8256  1.0000</r>
       <r>   3.8262  1.0000</r>
       <r>   3.8262  1.0000</r>
       <r>   3.8264  1.0000</r>
       <r>   5.3726  1.0000</r>
       <r>   5.3726  1.0000</r>
       <r>   5.3756  1.0000</r>
       <r>   5.3756  1.0000</r>
       <r>   5.9441  1.0000</r>
       <r>   5.9441  1.0000</r>
       <r>   5.9447  1.0000</r>
       <r>   5.9449  1.0000</r>
       <r>   5.9454  1.0000</r>
       <r>   5.9457  1.0000</r>
       <r>   5.9462  1.0000</r>
       <r>   5.9462  1.0000</r>
       <r>   6.6596  1.0000</r>
       <r>   6.6606  1.0000</r>
       <r>   6.6624  1.0000</r>
       <r>   6.6634  1.0000</r>
       <r>   7.4202  1.0000</r>
       <r>   7.4202  1.0000</r>
       <r>   7.4212  1.0000</r>
       <r>   7.4224  1.0000</r>
       <r>   7.4226  1.0000</r>
       <r>   7.4239  1.0000</r>
       <r>   7.4249  1.0000</r>
       <r>   7.4249  1.0000</r>
       <r>   8.8208  0.0000</r>
       <r>   8.8218  0.0000</r>
       <r>   8.8218  0.0000</r>
       <r>   8.8219  0.0000</r>
       <r>   8.8240  0.0000</r>
       <r>   8.8241  0.0000</r>
       <r>   8.8241  0.0000</r>
       <r>   8.8252  0.0000</r>
       <r>   9.4758  0.0000</r>
       <r>   9.4758  0.0000</r>
       <r>   9.4781  0.0000</r>
       <r>   9.4781  0.0000</r>
       <r>  10.2630  0.0000</r>
       <r>  10.2644  0.0000</r>
       <r>  10.8913  0.0000</r>
       <r>  10.8916  0.0000</r>
      </set>
      <set comment="kpoint 8">
       <r>  -3.2123  1.0000</r>
       <r>  -1.3692  1.0000</r>
       <r>  -1.0063  1.0000</r>
       <r>  -1.0034  1.0000</r>
       <r>  -1.0034  1.0000</r>
       <r>  -1.0006  1.0000</r>
       <r>  -0.6386  1.0000</r>
       <r>   0.8094  1.0000</r>
       <r>   0.8123  1.0000</r>
       <r>   0.8123  1.0000</r>
       <r>   0.8151  1.0000</r>
       <r>   1.1705  1.0000</r>
       <r>   1.1716  1.0000</r>
       <r>   1.1738  1.0000</r>
       <r>   1.1749  1.0000</r>
       <r>   1.5293  1.0000</r>
       <r>   1.5321  1.0000</r>
       <r>   1.5321  1.0000</r>
       <r>   1.5350  1.0000</r>
       <r>   2.9566  1.0000</r>
       <r>   2.9576  1.0000</r>
       <r>   2.9598  1.0000</r>
       <r>   2.9608  1.0000</r>
       <r>   3.6816  1.0000</r>
       <r>   3.6826  1.0000</r>
       <r>   3.6849  1.0000</r>
       <r>   3.6859  1.0000</r>
       <r>   4.5588  1.0000</r>
       <r>   4.8773  1.0000</r>
       <r>   4.8773  1.0000</r>
       <r>   6.1394  1.0000</r>
       <r>   6.1394  1.0000</r>
       <r>   6.4556  1.0000</r>
       <r>   6.5824  1.0000</r>
       <r>   6.5825  1.0000</r>
       <r>   6.6181  1.0000</r>
       <r>   6.6212  1.0000</r>
       <r>   6.6212  1.0000</r>
       <r>   6.6244  1.0000</r>
       <r>   6.9215  1.0000</r>
       <r>   6.9242  1.0000</r>
       <r>   6.9242  1.0000</r>
       <r>   6.9268  1.0000</r>
       <r>   7.2660  1.0000</r>
       <r>   7.2660  1.0000</r>
       <r>   7.8106  0.0000</r>
       <r>   7.8107  0.0000</r>
       <r>   8.1011  0.0000</r>
       <r>   8.1038  0.0000</r>
       <r>   8.1038  0.0000</r>
       <r>   8.1065  0.0000</r>
       <r>   8.6311  0.0000</r>
       <r>   8.6338  0.0000</r>
       <r>   8.6339  0.0000</r>
       <r>   8.6366  0.0000</r>
       <r>   8.6925  0.0000</r>
       <r>   8.6941  0.0000</r>
       <r>   8.6963  0.0000</r>
       <r>   8.6979  0.0000</r>
       <r>   8.8350  0.0000</r>
       <r>   8.8351  0.0000</r>
       <r>   8.8440  0.0000</r>
       <r>   8.8451  0.0000</r>
       <r>   8.8451  0.0000</r>
       <r>   8.8463  0.0000</r>
       <r>   9.3158  0.0000</r>
       <r>   9.3185  0.0000</r>
       <r>   9.3207  0.0000</r>
      </set>
      <set comment="kpoint 9">
       <r>  -3.1969  1.0000</r>
       <r>  -1.3551  1.0000</r>
       <r>  -1.3528  1.0000</r>
       <r>  -0.9882  1.0000</r>
       <r>  -0.9882  1.0000</r>
       <r>  -0.6246  1.0000</r>
       <r>  -0.6223  1.0000</r>
       <r>   0.4661  1.0000</r>
       <r>   0.8257  1.0000</r>
       <r>   0.8266  1.0000</r>
       <r>   0.8280  1.0000</r>
       <r>   0.8290  1.0000</r>
       <r>   1.1871  1.0000</r>
       <r>   1.1881  1.0000</r>
       <r>   1.5454  1.0000</r>
       <r>   1.5464  1.0000</r>
       <r>   1.5478  1.0000</r>
       <r>   1.5487  1.0000</r>
       <r>   1.9056  1.0000</r>
       <r>   2.6204  1.0000</r>
       <r>   2.6204  1.0000</r>
       <r>   3.2646  1.0000</r>
       <r>   3.2646  1.0000</r>
       <r>   3.4081  1.0000</r>
       <r>   3.4081  1.0000</r>
       <r>   4.0493  1.0000</r>
       <r>   4.0493  1.0000</r>
       <r>   4.5728  1.0000</r>
       <r>   4.5736  1.0000</r>
       <r>   4.8915  1.0000</r>
       <r>   6.1545  1.0000</r>
       <r>   6.2930  1.0000</r>
       <r>   6.2953  1.0000</r>
       <r>   6.4700  1.0000</r>
       <r>   6.4708  1.0000</r>
       <r>   6.5884  1.0000</r>
       <r>   6.5886  1.0000</r>
       <r>   6.5955  1.0000</r>
       <r>   6.5981  1.0000</r>
       <r>   6.6885  1.0000</r>
       <r>   6.6885  1.0000</r>
       <r>   6.9711  1.0000</r>
       <r>   6.9728  1.0000</r>
       <r>   7.2789  1.0000</r>
       <r>   7.2816  1.0000</r>
       <r>   7.8938  0.0000</r>
       <r>   7.8959  0.0000</r>
       <r>   8.0832  0.0000</r>
       <r>   8.0857  0.0000</r>
       <r>   8.3058  0.0000</r>
       <r>   8.3175  0.0000</r>
       <r>   8.3175  0.0000</r>
       <r>   8.3644  0.0000</r>
       <r>   8.3653  0.0000</r>
       <r>   8.3667  0.0000</r>
       <r>   8.3677  0.0000</r>
       <r>   8.8904  0.0000</r>
       <r>   8.8911  0.0000</r>
       <r>   8.9549  0.0000</r>
       <r>   8.9550  0.0000</r>
       <r>   8.9895  0.0000</r>
       <r>   8.9914  0.0000</r>
       <r>   9.0515  0.0000</r>
       <r>   9.0525  0.0000</r>
       <r>   9.0529  0.0000</r>
       <r>   9.0539  0.0000</r>
       <r>   9.0850  0.0000</r>
       <r>   9.0867  0.0000</r>
      </set>
      <set comment="kpoint 10">
       <r>  -3.1505  1.0000</r>
       <r>  -1.6747  1.0000</r>
       <r>  -1.3082  1.0000</r>
       <r>  -0.9425  1.0000</r>
       <r>  -0.9425  1.0000</r>
       <r>  -0.5779  1.0000</r>
       <r>  -0.2143  1.0000</r>
       <r>   0.1492  1.0000</r>
       <r>   0.5112  1.0000</r>
       <r>   0.5112  1.0000</r>
       <r>   0.8717  1.0000</r>
       <r>   0.8724  1.0000</r>
       <r>   0.8730  1.0000</r>
       <r>   1.5912  1.0000</r>
       <r>   1.5920  1.0000</r>
       <r>   1.5925  1.0000</r>
       <r>   1.9502  1.0000</r>
       <r>   1.9502  1.0000</r>
       <r>   2.3075  1.0000</r>
       <r>   2.3088  1.0000</r>
       <r>   2.3090  1.0000</r>
       <r>   3.0175  1.0000</r>
       <r>   3.0175  1.0000</r>
       <r>   3.7428  1.0000</r>
       <r>   3.7428  1.0000</r>
       <r>   4.0116  1.0000</r>
       <r>   4.4456  1.0000</r>
       <r>   4.4456  1.0000</r>
       <r>   4.6163  1.0000</r>
       <r>   4.9341  1.0000</r>
       <r>   5.7512  1.0000</r>
       <r>   5.9942  1.0000</r>
       <r>   6.0916  1.0000</r>
       <r>   6.0916  1.0000</r>
       <r>   6.1996  1.0000</r>
       <r>   6.2980  1.0000</r>
       <r>   6.4361  1.0000</r>
       <r>   6.5150  1.0000</r>
       <r>   6.6394  1.0000</r>
       <r>   6.6916  1.0000</r>
       <r>   6.6916  1.0000</r>
       <r>   7.1126  1.0000</r>
       <r>   7.3171  1.0000</r>
       <r>   7.3229  1.0000</r>
       <r>   7.6650  1.0000</r>
       <r>   7.6655  1.0000</r>
       <r>   7.8413  0.0000</r>
       <r>   7.8413  0.0000</r>
       <r>   7.8707  0.0000</r>
       <r>   7.9868  0.0000</r>
       <r>   8.0066  0.0000</r>
       <r>   8.0653  0.0000</r>
       <r>   8.0653  0.0000</r>
       <r>   8.4932  0.0000</r>
       <r>   8.5310  0.0000</r>
       <r>   8.5310  0.0000</r>
       <r>   8.5568  0.0000</r>
       <r>   8.5569  0.0000</r>
       <r>   8.6910  0.0000</r>
       <r>   9.1482  0.0000</r>
       <r>   9.1855  0.0000</r>
       <r>   9.3745  0.0000</r>
       <r>   9.3753  0.0000</r>
       <r>   9.3765  0.0000</r>
       <r>   9.4295  0.0000</r>
       <r>   9.4344  0.0000</r>
       <r>   9.4385  0.0000</r>
       <r>   9.4386  0.0000</r>
      </set>
      <set comment="kpoint 11">
       <r>  -3.0733  1.0000</r>
       <r>  -1.9656  1.0000</r>
       <r>  -1.2319  1.0000</r>
       <r>  -0.8665  1.0000</r>
       <r>  -0.8665  1.0000</r>
       <r>  -0.5020  1.0000</r>
       <r>  -0.1381  1.0000</r>
       <r>   0.2223  1.0000</r>
       <r>   0.2247  1.0000</r>
       <r>   0.2260  1.0000</r>
       <r>   0.5864  1.0000</r>
       <r>   0.9476  1.0000</r>
       <r>   0.9476  1.0000</r>
       <r>   1.6668  1.0000</r>
       <r>   1.6668  1.0000</r>
       <r>   2.0230  1.0000</r>
       <r>   2.0258  1.0000</r>
       <r>   2.0270  1.0000</r>
       <r>   2.3816  1.0000</r>
       <r>   2.3816  1.0000</r>
       <r>   2.7365  1.0000</r>
       <r>   2.7387  1.0000</r>
       <r>   2.7402  1.0000</r>
       <r>   3.4138  1.0000</r>
       <r>   4.1666  1.0000</r>
       <r>   4.1666  1.0000</r>
       <r>   4.6883  1.0000</r>
       <r>   4.8705  1.0000</r>
       <r>   4.8706  1.0000</r>
       <r>   5.0050  1.0000</r>
       <r>   5.1672  1.0000</r>
       <r>   5.5134  1.0000</r>
       <r>   5.5134  1.0000</r>
       <r>   5.7222  1.0000</r>
       <r>   5.8596  1.0000</r>
       <r>   6.0278  1.0000</r>
       <r>   6.2745  1.0000</r>
       <r>   6.5889  1.0000</r>
       <r>   6.7106  1.0000</r>
       <r>   6.7614  1.0000</r>
       <r>   6.7614  1.0000</r>
       <r>   7.2682  1.0000</r>
       <r>   7.2682  1.0000</r>
       <r>   7.3034  1.0000</r>
       <r>   7.3942  1.0000</r>
       <r>   7.6238  1.0000</r>
       <r>   7.7358  0.1704</r>
       <r>   7.7930  0.0000</r>
       <r>   7.7931  0.0000</r>
       <r>   7.8296  0.0000</r>
       <r>   7.8448  0.0000</r>
       <r>   7.9608  0.0000</r>
       <r>   7.9608  0.0000</r>
       <r>   8.0784  0.0000</r>
       <r>   8.0784  0.0000</r>
       <r>   8.4201  0.0000</r>
       <r>   8.6922  0.0000</r>
       <r>   8.6922  0.0000</r>
       <r>   8.7144  0.0000</r>
       <r>   9.1531  0.0000</r>
       <r>   9.5666  0.0000</r>
       <r>   9.7163  0.0000</r>
       <r>   9.7817  0.0000</r>
       <r>   9.7820  0.0000</r>
       <r>   9.7898  0.0000</r>
       <r>   9.8339  0.0000</r>
       <r>   9.8505  0.0000</r>
       <r>   9.8525  0.0000</r>
      </set>
      <set comment="kpoint 12">
       <r>  -2.9652  1.0000</r>
       <r>  -2.2264  1.0000</r>
       <r>  -1.1252  1.0000</r>
       <r>  -0.7600  1.0000</r>
       <r>  -0.7600  1.0000</r>
       <r>  -0.3963  1.0000</r>
       <r>  -0.3951  1.0000</r>
       <r>  -0.0323  1.0000</r>
       <r>  -0.0323  1.0000</r>
       <r>   0.3301  1.0000</r>
       <r>   0.6900  1.0000</r>
       <r>   1.0528  1.0000</r>
       <r>   1.0528  1.0000</r>
       <r>   1.7709  1.0000</r>
       <r>   1.7712  1.0000</r>
       <r>   1.7722  1.0000</r>
       <r>   1.7726  1.0000</r>
       <r>   2.4846  1.0000</r>
       <r>   2.4868  1.0000</r>
       <r>   2.4869  1.0000</r>
       <r>   2.8235  1.0000</r>
       <r>   2.8409  1.0000</r>
       <r>   2.8409  1.0000</r>
       <r>   3.1960  1.0000</r>
       <r>   4.5878  1.0000</r>
       <r>   4.6204  1.0000</r>
       <r>   4.6204  1.0000</r>
       <r>   4.7890  1.0000</r>
       <r>   4.9372  1.0000</r>
       <r>   4.9372  1.0000</r>
       <r>   5.1044  1.0000</r>
       <r>   5.2857  1.0000</r>
       <r>   5.3233  1.0000</r>
       <r>   5.3233  1.0000</r>
       <r>   5.4785  1.0000</r>
       <r>   5.7861  1.0000</r>
       <r>   6.3792  1.0000</r>
       <r>   6.6923  1.0000</r>
       <r>   6.6970  1.0000</r>
       <r>   6.6970  1.0000</r>
       <r>   6.8102  1.0000</r>
       <r>   6.8614  1.0000</r>
       <r>   6.8614  1.0000</r>
       <r>   7.0793  1.0000</r>
       <r>   7.3874  1.0000</r>
       <r>   7.3921  1.0000</r>
       <r>   7.3925  1.0000</r>
       <r>   7.4930  1.0000</r>
       <r>   7.4946  1.0000</r>
       <r>   7.5494  1.0000</r>
       <r>   7.5494  1.0000</r>
       <r>   8.1778  0.0000</r>
       <r>   8.1896  0.0000</r>
       <r>   8.2523  0.0000</r>
       <r>   8.5206  0.0000</r>
       <r>   8.6230  0.0000</r>
       <r>   8.8164  0.0000</r>
       <r>   8.8164  0.0000</r>
       <r>   8.8613  0.0000</r>
       <r>   8.9043  0.0000</r>
       <r>   9.5349  0.0000</r>
       <r>   9.5349  0.0000</r>
       <r>   9.5956  0.0000</r>
       <r>   9.9883  0.0000</r>
       <r>  10.2346  0.0000</r>
       <r>  10.2600  0.0000</r>
       <r>  10.2901  0.0000</r>
       <r>  10.2945  0.0000</r>
      </set>
      <set comment="kpoint 13">
       <r>  -2.8264  1.0000</r>
       <r>  -2.4569  1.0000</r>
       <r>  -0.9881  1.0000</r>
       <r>  -0.6246  1.0000</r>
       <r>  -0.6233  1.0000</r>
       <r>  -0.6219  1.0000</r>
       <r>  -0.2607  1.0000</r>
       <r>  -0.2593  1.0000</r>
       <r>  -0.2581  1.0000</r>
       <r>   0.1036  1.0000</r>
       <r>   1.1837  1.0000</r>
       <r>   1.1879  1.0000</r>
       <r>   1.1883  1.0000</r>
       <r>   1.5476  1.0000</r>
       <r>   1.5477  1.0000</r>
       <r>   1.9059  1.0000</r>
       <r>   1.9059  1.0000</r>
       <r>   2.2525  1.0000</r>
       <r>   2.2638  1.0000</r>
       <r>   2.2640  1.0000</r>
       <r>   2.9725  1.0000</r>
       <r>   3.3273  1.0000</r>
       <r>   3.3273  1.0000</r>
       <r>   3.6812  1.0000</r>
       <r>   4.0260  1.0000</r>
       <r>   4.3776  1.0000</r>
       <r>   4.3776  1.0000</r>
       <r>   4.7282  1.0000</r>
       <r>   4.9183  1.0000</r>
       <r>   5.1018  1.0000</r>
       <r>   5.1018  1.0000</r>
       <r>   5.2321  1.0000</r>
       <r>   5.2632  1.0000</r>
       <r>   5.5730  1.0000</r>
       <r>   5.8032  1.0000</r>
       <r>   5.8032  1.0000</r>
       <r>   6.1423  1.0000</r>
       <r>   6.1423  1.0000</r>
       <r>   6.5131  1.0000</r>
       <r>   6.8245  1.0000</r>
       <r>   6.8397  1.0000</r>
       <r>   6.8397  1.0000</r>
       <r>   6.8653  1.0000</r>
       <r>   6.9383  1.0000</r>
       <r>   6.9903  1.0000</r>
       <r>   6.9903  1.0000</r>
       <r>   7.1737  1.0000</r>
       <r>   7.2800  1.0000</r>
       <r>   7.3344  1.0000</r>
       <r>   7.3344  1.0000</r>
       <r>   7.6221  1.0000</r>
       <r>   7.9640  0.0000</r>
       <r>   8.3264  0.0000</r>
       <r>   8.6835  0.0000</r>
       <r>   8.7180  0.0000</r>
       <r>   8.9577  0.0000</r>
       <r>   8.9577  0.0000</r>
       <r>   8.9916  0.0000</r>
       <r>   9.0107  0.0000</r>
       <r>   9.3154  0.0000</r>
       <r>   9.3154  0.0000</r>
       <r>   9.3746  0.0000</r>
       <r>   9.4354  0.0000</r>
       <r>   9.7387  0.0000</r>
       <r>  10.0197  0.0000</r>
       <r>  10.4374  0.0000</r>
       <r>  10.7067  0.0000</r>
       <r>  10.7190  0.0000</r>
      </set>
      <set comment="kpoint 14">
       <r>  -2.6583  1.0000</r>
       <r>  -2.6555  1.0000</r>
       <r>  -0.8222  1.0000</r>
       <r>  -0.8194  1.0000</r>
       <r>  -0.4584  1.0000</r>
       <r>  -0.4572  1.0000</r>
       <r>  -0.4555  1.0000</r>
       <r>  -0.4544  1.0000</r>
       <r>  -0.0944  1.0000</r>
       <r>  -0.0915  1.0000</r>
       <r>   1.3509  1.0000</r>
       <r>   1.3521  1.0000</r>
       <r>   1.3537  1.0000</r>
       <r>   1.3549  1.0000</r>
       <r>   1.7048  1.0000</r>
       <r>   1.7061  1.0000</r>
       <r>   2.0681  1.0000</r>
       <r>   2.0692  1.0000</r>
       <r>   2.0709  1.0000</r>
       <r>   2.0721  1.0000</r>
       <r>   3.4860  1.0000</r>
       <r>   3.4874  1.0000</r>
       <r>   3.8393  1.0000</r>
       <r>   3.8395  1.0000</r>
       <r>   3.8406  1.0000</r>
       <r>   3.8409  1.0000</r>
       <r>   4.1917  1.0000</r>
       <r>   4.1931  1.0000</r>
       <r>   5.0750  1.0000</r>
       <r>   5.0779  1.0000</r>
       <r>   5.3868  1.0000</r>
       <r>   5.3898  1.0000</r>
       <r>   5.6089  1.0000</r>
       <r>   5.6090  1.0000</r>
       <r>   5.6103  1.0000</r>
       <r>   5.6105  1.0000</r>
       <r>   6.3083  1.0000</r>
       <r>   6.3085  1.0000</r>
       <r>   6.3098  1.0000</r>
       <r>   6.3099  1.0000</r>
       <r>   6.6741  1.0000</r>
       <r>   6.6769  1.0000</r>
       <r>   6.9840  1.0000</r>
       <r>   6.9868  1.0000</r>
       <r>   7.0934  1.0000</r>
       <r>   7.0964  1.0000</r>
       <r>   7.1458  1.0000</r>
       <r>   7.1472  1.0000</r>
       <r>   7.1488  1.0000</r>
       <r>   7.1502  1.0000</r>
       <r>   7.7772  0.0000</r>
       <r>   7.7803  0.0000</r>
       <r>   8.4895  0.0000</r>
       <r>   8.4923  0.0000</r>
       <r>   9.1215  0.0000</r>
       <r>   9.1221  0.0000</r>
       <r>   9.1244  0.0000</r>
       <r>   9.1250  0.0000</r>
       <r>   9.1787  0.0000</r>
       <r>   9.1816  0.0000</r>
       <r>   9.2134  0.0000</r>
       <r>   9.2154  0.0000</r>
       <r>   9.4901  0.0000</r>
       <r>   9.4924  0.0000</r>
       <r>  10.2767  0.0000</r>
       <r>  10.2781  0.0000</r>
       <r>  10.9065  0.0000</r>
       <r>  10.9070  0.0000</r>
      </set>
      <set comment="kpoint 15">
       <r>  -3.1660  1.0000</r>
       <r>  -1.6900  1.0000</r>
       <r>  -0.9606  1.0000</r>
       <r>  -0.9577  1.0000</r>
       <r>  -0.9577  1.0000</r>
       <r>  -0.9549  1.0000</r>
       <r>  -0.2295  1.0000</r>
       <r>   0.4933  1.0000</r>
       <r>   0.4962  1.0000</r>
       <r>   0.4962  1.0000</r>
       <r>   0.4990  1.0000</r>
       <r>   1.2155  1.0000</r>
       <r>   1.2166  1.0000</r>
       <r>   1.2188  1.0000</r>
       <r>   1.2199  1.0000</r>
       <r>   1.9324  1.0000</r>
       <r>   1.9352  1.0000</r>
       <r>   1.9352  1.0000</r>
       <r>   1.9381  1.0000</r>
       <r>   2.6478  1.0000</r>
       <r>   2.6489  1.0000</r>
       <r>   2.6511  1.0000</r>
       <r>   2.6521  1.0000</r>
       <r>   3.9970  1.0000</r>
       <r>   4.0765  1.0000</r>
       <r>   4.0775  1.0000</r>
       <r>   4.0798  1.0000</r>
       <r>   4.0808  1.0000</r>
       <r>   4.9199  1.0000</r>
       <r>   4.9199  1.0000</r>
       <r>   6.0779  1.0000</r>
       <r>   6.0810  1.0000</r>
       <r>   6.0810  1.0000</r>
       <r>   6.0841  1.0000</r>
       <r>   6.1845  1.0000</r>
       <r>   6.1846  1.0000</r>
       <r>   6.2837  1.0000</r>
       <r>   6.2838  1.0000</r>
       <r>   6.9642  1.0000</r>
       <r>   6.9669  1.0000</r>
       <r>   6.9669  1.0000</r>
       <r>   6.9695  1.0000</r>
       <r>   7.0980  1.0000</r>
       <r>   7.5659  1.0000</r>
       <r>   7.5659  1.0000</r>
       <r>   7.6507  1.0000</r>
       <r>   7.6508  1.0000</r>
       <r>   8.1696  0.0000</r>
       <r>   8.1709  0.0000</r>
       <r>   8.1732  0.0000</r>
       <r>   8.1746  0.0000</r>
       <r>   8.2739  0.0000</r>
       <r>   8.2763  0.0000</r>
       <r>   8.2763  0.0000</r>
       <r>   8.2787  0.0000</r>
       <r>   8.3318  0.0000</r>
       <r>   8.3345  0.0000</r>
       <r>   8.3345  0.0000</r>
       <r>   8.3372  0.0000</r>
       <r>   9.1596  0.0000</r>
       <r>   9.1596  0.0000</r>
       <r>   9.3339  0.0000</r>
       <r>   9.3358  0.0000</r>
       <r>   9.3358  0.0000</r>
       <r>   9.3378  0.0000</r>
       <r>   9.7027  0.0000</r>
       <r>   9.7044  0.0000</r>
       <r>   9.7152  0.0000</r>
      </set>
      <set comment="kpoint 16">
       <r>  -3.1505  1.0000</r>
       <r>  -1.6747  1.0000</r>
       <r>  -1.3082  1.0000</r>
       <r>  -0.9425  1.0000</r>
       <r>  -0.9425  1.0000</r>
       <r>  -0.5779  1.0000</r>
       <r>  -0.2143  1.0000</r>
       <r>   0.1492  1.0000</r>
       <r>   0.5112  1.0000</r>
       <r>   0.5112  1.0000</r>
       <r>   0.8710  1.0000</r>
       <r>   0.8724  1.0000</r>
       <r>   0.8738  1.0000</r>
       <r>   1.5904  1.0000</r>
       <r>   1.5920  1.0000</r>
       <r>   1.5932  1.0000</r>
       <r>   1.9502  1.0000</r>
       <r>   1.9502  1.0000</r>
       <r>   2.3075  1.0000</r>
       <r>   2.3088  1.0000</r>
       <r>   2.3090  1.0000</r>
       <r>   3.0175  1.0000</r>
       <r>   3.0175  1.0000</r>
       <r>   3.7428  1.0000</r>
       <r>   3.7428  1.0000</r>
       <r>   4.0116  1.0000</r>
       <r>   4.4456  1.0000</r>
       <r>   4.4456  1.0000</r>
       <r>   4.6164  1.0000</r>
       <r>   4.9341  1.0000</r>
       <r>   5.7512  1.0000</r>
       <r>   5.9942  1.0000</r>
       <r>   6.0916  1.0000</r>
       <r>   6.0916  1.0000</r>
       <r>   6.1995  1.0000</r>
       <r>   6.2980  1.0000</r>
       <r>   6.4362  1.0000</r>
       <r>   6.5149  1.0000</r>
       <r>   6.6394  1.0000</r>
       <r>   6.6916  1.0000</r>
       <r>   6.6917  1.0000</r>
       <r>   7.1126  1.0000</r>
       <r>   7.3171  1.0000</r>
       <r>   7.3230  1.0000</r>
       <r>   7.6650  1.0000</r>
       <r>   7.6655  1.0000</r>
       <r>   7.8413  0.0000</r>
       <r>   7.8413  0.0000</r>
       <r>   7.8707  0.0000</r>
       <r>   7.9868  0.0000</r>
       <r>   8.0066  0.0000</r>
       <r>   8.0653  0.0000</r>
       <r>   8.0653  0.0000</r>
       <r>   8.4932  0.0000</r>
       <r>   8.5311  0.0000</r>
       <r>   8.5311  0.0000</r>
       <r>   8.5568  0.0000</r>
       <r>   8.5568  0.0000</r>
       <r>   8.6910  0.0000</r>
       <r>   9.1482  0.0000</r>
       <r>   9.1855  0.0000</r>
       <r>   9.3745  0.0000</r>
       <r>   9.3753  0.0000</r>
       <r>   9.3764  0.0000</r>
       <r>   9.4296  0.0000</r>
       <r>   9.4342  0.0000</r>
       <r>   9.4385  0.0000</r>
       <r>   9.4388  0.0000</r>
      </set>
      <set comment="kpoint 17">
       <r>  -3.1042  1.0000</r>
       <r>  -1.6300  1.0000</r>
       <r>  -1.6277  1.0000</r>
       <r>  -0.8969  1.0000</r>
       <r>  -0.8969  1.0000</r>
       <r>  -0.1706  1.0000</r>
       <r>  -0.1687  1.0000</r>
       <r>  -0.1669  1.0000</r>
       <r>   0.5548  1.0000</r>
       <r>   0.5558  1.0000</r>
       <r>   0.5572  1.0000</r>
       <r>   0.5581  1.0000</r>
       <r>   1.2767  1.0000</r>
       <r>   1.2778  1.0000</r>
       <r>   1.9927  1.0000</r>
       <r>   1.9940  1.0000</r>
       <r>   1.9953  1.0000</r>
       <r>   1.9954  1.0000</r>
       <r>   1.9967  1.0000</r>
       <r>   1.9978  1.0000</r>
       <r>   2.7086  1.0000</r>
       <r>   3.3505  1.0000</r>
       <r>   3.3505  1.0000</r>
       <r>   3.4989  1.0000</r>
       <r>   3.4990  1.0000</r>
       <r>   4.0549  1.0000</r>
       <r>   4.0558  1.0000</r>
       <r>   4.8415  1.0000</r>
       <r>   4.8416  1.0000</r>
       <r>   4.9766  1.0000</r>
       <r>   5.4474  1.0000</r>
       <r>   5.4498  1.0000</r>
       <r>   6.0579  1.0000</r>
       <r>   6.0580  1.0000</r>
       <r>   6.2332  1.0000</r>
       <r>   6.2332  1.0000</r>
       <r>   6.2446  1.0000</r>
       <r>   6.3393  1.0000</r>
       <r>   6.3419  1.0000</r>
       <r>   6.8085  1.0000</r>
       <r>   6.8102  1.0000</r>
       <r>   7.1560  1.0000</r>
       <r>   7.1569  1.0000</r>
       <r>   7.5372  1.0000</r>
       <r>   7.5382  1.0000</r>
       <r>   7.5396  1.0000</r>
       <r>   7.5406  1.0000</r>
       <r>   7.7054  0.9996</r>
       <r>   7.7076  0.9988</r>
       <r>   7.7094  0.9973</r>
       <r>   7.7098  0.9968</r>
       <r>   7.7110  0.9947</r>
       <r>   8.4423  0.0000</r>
       <r>   8.4446  0.0000</r>
       <r>   8.9169  0.0000</r>
       <r>   8.9180  0.0000</r>
       <r>   8.9182  0.0000</r>
       <r>   8.9192  0.0000</r>
       <r>   9.0211  0.0000</r>
       <r>   9.0212  0.0000</r>
       <r>   9.0752  0.0000</r>
       <r>   9.0771  0.0000</r>
       <r>   9.1250  0.0000</r>
       <r>   9.2815  0.0000</r>
       <r>   9.2822  0.0000</r>
       <r>   9.5687  0.0000</r>
       <r>   9.5687  0.0000</r>
       <r>  10.0194  0.0000</r>
      </set>
      <set comment="kpoint 18">
       <r>  -3.0270  1.0000</r>
       <r>  -1.9196  1.0000</r>
       <r>  -1.5524  1.0000</r>
       <r>  -0.8209  1.0000</r>
       <r>  -0.8208  1.0000</r>
       <r>  -0.4562  1.0000</r>
       <r>  -0.0933  1.0000</r>
       <r>   0.2676  1.0000</r>
       <r>   0.2699  1.0000</r>
       <r>   0.2713  1.0000</r>
       <r>   0.6318  1.0000</r>
       <r>   0.6318  1.0000</r>
       <r>   0.9921  1.0000</r>
       <r>   1.7095  1.0000</r>
       <r>   1.7123  1.0000</r>
       <r>   1.7135  1.0000</r>
       <r>   2.0695  1.0000</r>
       <r>   2.0696  1.0000</r>
       <r>   2.4262  1.0000</r>
       <r>   2.4262  1.0000</r>
       <r>   3.1341  1.0000</r>
       <r>   3.1350  1.0000</r>
       <r>   3.1386  1.0000</r>
       <r>   3.4579  1.0000</r>
       <r>   3.8608  1.0000</r>
       <r>   3.8608  1.0000</r>
       <r>   4.1282  1.0000</r>
       <r>   4.8622  1.0000</r>
       <r>   5.0476  1.0000</r>
       <r>   5.1740  1.0000</r>
       <r>   5.2657  1.0000</r>
       <r>   5.2657  1.0000</r>
       <r>   5.5506  1.0000</r>
       <r>   5.5506  1.0000</r>
       <r>   6.0704  1.0000</r>
       <r>   6.2329  1.0000</r>
       <r>   6.2330  1.0000</r>
       <r>   6.2435  1.0000</r>
       <r>   6.3192  1.0000</r>
       <r>   6.4118  1.0000</r>
       <r>   6.9645  1.0000</r>
       <r>   6.9645  1.0000</r>
       <r>   7.1385  1.0000</r>
       <r>   7.2293  1.0000</r>
       <r>   7.2650  1.0000</r>
       <r>   7.2651  1.0000</r>
       <r>   7.4366  1.0000</r>
       <r>   7.5252  1.0000</r>
       <r>   7.7790  0.0000</r>
       <r>   7.7847  0.0000</r>
       <r>   7.8880  0.0000</r>
       <r>   8.1212  0.0000</r>
       <r>   8.2351  0.0000</r>
       <r>   8.3491  0.0000</r>
       <r>   8.3492  0.0000</r>
       <r>   8.8052  0.0000</r>
       <r>   8.8478  0.0000</r>
       <r>   8.9495  0.0000</r>
       <r>   9.2738  0.0000</r>
       <r>   9.2738  0.0000</r>
       <r>   9.3329  0.0000</r>
       <r>   9.3329  0.0000</r>
       <r>   9.4900  0.0000</r>
       <r>   9.5676  0.0000</r>
       <r>   9.6268  0.0000</r>
       <r>  10.0995  0.0000</r>
       <r>  10.0996  0.0000</r>
       <r>  10.2514  0.0000</r>
      </set>
      <set comment="kpoint 19">
       <r>  -2.9189  1.0000</r>
       <r>  -2.1803  1.0000</r>
       <r>  -1.4455  1.0000</r>
       <r>  -0.7157  1.0000</r>
       <r>  -0.7144  1.0000</r>
       <r>  -0.7130  1.0000</r>
       <r>   0.0115  1.0000</r>
       <r>   0.0131  1.0000</r>
       <r>   0.0142  1.0000</r>
       <r>   0.7339  1.0000</r>
       <r>   0.7366  1.0000</r>
       <r>   0.7372  1.0000</r>
       <r>   0.7383  1.0000</r>
       <r>   1.4579  1.0000</r>
       <r>   1.4579  1.0000</r>
       <r>   2.1720  1.0000</r>
       <r>   2.1739  1.0000</r>
       <r>   2.1741  1.0000</r>
       <r>   2.8678  1.0000</r>
       <r>   2.8842  1.0000</r>
       <r>   2.8848  1.0000</r>
       <r>   2.8869  1.0000</r>
       <r>   2.8876  1.0000</r>
       <r>   3.5943  1.0000</r>
       <r>   4.2301  1.0000</r>
       <r>   4.2809  1.0000</r>
[...]
       <r>   2.2475  1.0000</r>
       <r>   2.5949  1.0000</r>
       <r>   2.5968  1.0000</r>
       <r>   2.5985  1.0000</r>
       <r>   2.5988  1.0000</r>
       <r>   2.5989  1.0000</r>
       <r>   2.5992  1.0000</r>
       <r>   2.6008  1.0000</r>
       <r>   2.6028  1.0000</r>
       <r>   2.9506  1.0000</r>
       <r>   2.9525  1.0000</r>
       <r>   2.9542  1.0000</r>
       <r>   2.9545  1.0000</r>
       <r>   2.9546  1.0000</r>
       <r>   2.9549  1.0000</r>
       <r>   2.9566  1.0000</r>
       <r>   2.9585  1.0000</r>
       <r>   3.3018  1.0000</r>
       <r>   3.3041  1.0000</r>
       <r>   3.3046  1.0000</r>
       <r>   3.3071  1.0000</r>
       <r>   6.4724  1.0000</r>
       <r>   6.4744  1.0000</r>
       <r>   6.4763  1.0000</r>
       <r>   6.4765  1.0000</r>
       <r>   6.4766  1.0000</r>
       <r>   6.4769  1.0000</r>
       <r>   6.4787  1.0000</r>
       <r>   6.4807  1.0000</r>
       <r>   6.8177  1.0000</r>
       <r>   6.8188  1.0000</r>
       <r>   6.8191  1.0000</r>
       <r>   6.8203  1.0000</r>
       <r>   7.1671  1.0000</r>
       <r>   7.1682  1.0000</r>
       <r>   7.1686  1.0000</r>
       <r>   7.1697  1.0000</r>
       <r>   7.5023  1.0000</r>
       <r>   7.5044  1.0000</r>
       <r>   7.5063  1.0000</r>
       <r>   7.5065  1.0000</r>
       <r>   7.5066  1.0000</r>
       <r>   7.5069  1.0000</r>
       <r>   7.5087  1.0000</r>
       <r>   7.5108  1.0000</r>
       <r>  10.4726  0.0000</r>
       <r>  10.4748  0.0000</r>
       <r>  10.4755  0.0000</r>
       <r>  10.4777  0.0000</r>
       <r>  10.6116  0.0000</r>
       <r>  10.6128  0.0000</r>
       <r>  10.6133  0.0000</r>
       <r>  10.6144  0.0000</r>
       <r>  11.1505  0.0000</r>
       <r>  11.1515  0.0000</r>
       <r>  11.1528  0.0000</r>
       <r>  11.1533  0.0000</r>
      </set>
      <set comment="kpoint 190">
       <r>  -2.1190  1.0000</r>
       <r>  -2.1190  1.0000</r>
       <r>  -2.1190  1.0000</r>
       <r>  -2.1190  1.0000</r>
       <r>   0.0684  1.0000</r>
       <r>   0.0730  1.0000</r>
       <r>   0.0730  1.0000</r>
       <r>   0.0735  1.0000</r>
       <r>   0.0737  1.0000</r>
       <r>   0.0742  1.0000</r>
       <r>   0.0742  1.0000</r>
       <r>   0.0788  1.0000</r>
       <r>   2.2272  1.0000</r>
       <r>   2.2272  1.0000</r>
       <r>   2.2272  1.0000</r>
       <r>   2.2272  1.0000</r>
       <r>   2.2272  1.0000</r>
       <r>   2.2272  1.0000</r>
       <r>   2.2272  1.0000</r>
       <r>   2.2272  1.0000</r>
       <r>   4.2639  1.0000</r>
       <r>   4.2639  1.0000</r>
       <r>   4.2653  1.0000</r>
       <r>   4.2654  1.0000</r>
       <r>   4.2654  1.0000</r>
       <r>   4.2654  1.0000</r>
       <r>   4.2669  1.0000</r>
       <r>   4.2669  1.0000</r>
       <r>   4.4537  1.0000</r>
       <r>   4.4537  1.0000</r>
       <r>   4.4553  1.0000</r>
       <r>   4.4553  1.0000</r>
       <r>   4.4553  1.0000</r>
       <r>   4.4554  1.0000</r>
       <r>   4.4570  1.0000</r>
       <r>   4.4570  1.0000</r>
       <r>   5.8856  1.0000</r>
       <r>   5.8856  1.0000</r>
       <r>   5.8856  1.0000</r>
       <r>   5.8856  1.0000</r>
       <r>   6.4073  1.0000</r>
       <r>   6.4073  1.0000</r>
       <r>   6.4073  1.0000</r>
       <r>   6.4073  1.0000</r>
       <r>   7.2765  1.0000</r>
       <r>   7.2766  1.0000</r>
       <r>   7.2766  1.0000</r>
       <r>   7.2766  1.0000</r>
       <r>   8.5399  0.0000</r>
       <r>   8.5399  0.0000</r>
       <r>   8.5405  0.0000</r>
       <r>   8.5414  0.0000</r>
       <r>   8.5430  0.0000</r>
       <r>   8.5439  0.0000</r>
       <r>   8.5445  0.0000</r>
       <r>   8.5445  0.0000</r>
       <r>   9.9907  0.0000</r>
       <r>   9.9907  0.0000</r>
       <r>   9.9907  0.0000</r>
       <r>   9.9907  0.0000</r>
       <r>   9.9907  0.0000</r>
       <r>   9.9907  0.0000</r>
       <r>   9.9907  0.0000</r>
       <r>   9.9908  0.0000</r>
       <r>  10.6959  0.0000</r>
       <r>  10.6959  0.0000</r>
       <r>  10.6959  0.0000</r>
       <r>  10.6959  0.0000</r>
      </set>
      <set comment="kpoint 191">
       <r>  -2.1037  1.0000</r>
       <r>  -2.1036  1.0000</r>
       <r>  -2.1036  1.0000</r>
       <r>  -2.1036  1.0000</r>
       <r>  -0.2744  1.0000</r>
       <r>  -0.2744  1.0000</r>
       <r>  -0.2744  1.0000</r>
       <r>  -0.2744  1.0000</r>
       <r>   0.4508  1.0000</r>
       <r>   0.4508  1.0000</r>
       <r>   0.4508  1.0000</r>
       <r>   0.4508  1.0000</r>
       <r>   2.2421  1.0000</r>
       <r>   2.2421  1.0000</r>
       <r>   2.2421  1.0000</r>
       <r>   2.2421  1.0000</r>
       <r>   2.2421  1.0000</r>
       <r>   2.2421  1.0000</r>
       <r>   2.2421  1.0000</r>
       <r>   2.2421  1.0000</r>
       <r>   4.0089  1.0000</r>
       <r>   4.0089  1.0000</r>
       <r>   4.0092  1.0000</r>
       <r>   4.0093  1.0000</r>
       <r>   4.0093  1.0000</r>
       <r>   4.0093  1.0000</r>
       <r>   4.0096  1.0000</r>
       <r>   4.0096  1.0000</r>
       <r>   4.7395  1.0000</r>
       <r>   4.7395  1.0000</r>
       <r>   4.7400  1.0000</r>
       <r>   4.7400  1.0000</r>
       <r>   4.7400  1.0000</r>
       <r>   4.7400  1.0000</r>
       <r>   4.7405  1.0000</r>
       <r>   4.7405  1.0000</r>
       <r>   5.5894  1.0000</r>
       <r>   5.5894  1.0000</r>
       <r>   5.5894  1.0000</r>
       <r>   5.5894  1.0000</r>
       <r>   6.4476  1.0000</r>
       <r>   6.4476  1.0000</r>
       <r>   6.4476  1.0000</r>
       <r>   6.4476  1.0000</r>
       <r>   7.5736  1.0000</r>
       <r>   7.5737  1.0000</r>
       <r>   7.5737  1.0000</r>
       <r>   7.5737  1.0000</r>
       <r>   8.2107  0.0000</r>
       <r>   8.2107  0.0000</r>
       <r>   8.2107  0.0000</r>
       <r>   8.2107  0.0000</r>
       <r>   8.9017  0.0000</r>
       <r>   8.9017  0.0000</r>
       <r>   8.9017  0.0000</r>
       <r>   8.9017  0.0000</r>
       <r>   9.7122  0.0000</r>
       <r>   9.7122  0.0000</r>
       <r>   9.7126  0.0000</r>
       <r>   9.7126  0.0000</r>
       <r>   9.7126  0.0000</r>
       <r>   9.7127  0.0000</r>
       <r>   9.7131  0.0000</r>
       <r>   9.7131  0.0000</r>
       <r>  10.7579  0.0000</r>
       <r>  10.7583  0.0000</r>
       <r>  10.7585  0.0000</r>
       <r>  10.7590  0.0000</r>
      </set>
      <set comment="kpoint 192">
       <r>  -2.0576  1.0000</r>
       <r>  -2.0576  1.0000</r>
       <r>  -2.0576  1.0000</r>
       <r>  -2.0576  1.0000</r>
       <r>  -0.5928  1.0000</r>
       <r>  -0.5928  1.0000</r>
       <r>  -0.5928  1.0000</r>
       <r>  -0.5928  1.0000</r>
       <r>   0.8570  1.0000</r>
       <r>   0.8570  1.0000</r>
       <r>   0.8570  1.0000</r>
       <r>   0.8570  1.0000</r>
       <r>   2.2867  1.0000</r>
       <r>   2.2867  1.0000</r>
       <r>   2.2867  1.0000</r>
       <r>   2.2867  1.0000</r>
       <r>   2.2867  1.0000</r>
       <r>   2.2867  1.0000</r>
       <r>   2.2867  1.0000</r>
       <r>   2.2867  1.0000</r>
       <r>   3.7055  1.0000</r>
       <r>   3.7055  1.0000</r>
       <r>   3.7057  1.0000</r>
       <r>   3.7057  1.0000</r>
       <r>   3.7057  1.0000</r>
       <r>   3.7057  1.0000</r>
       <r>   3.7058  1.0000</r>
       <r>   3.7058  1.0000</r>
       <r>   5.0411  1.0000</r>
       <r>   5.0411  1.0000</r>
       <r>   5.0411  1.0000</r>
       <r>   5.0411  1.0000</r>
       <r>   5.1288  1.0000</r>
       <r>   5.1288  1.0000</r>
       <r>   5.1291  1.0000</r>
       <r>   5.1291  1.0000</r>
       <r>   5.1291  1.0000</r>
       <r>   5.1292  1.0000</r>
       <r>   5.1294  1.0000</r>
       <r>   5.1294  1.0000</r>
       <r>   6.5058  1.0000</r>
       <r>   6.5058  1.0000</r>
       <r>   6.5058  1.0000</r>
       <r>   6.5058  1.0000</r>
       <r>   7.9074  0.0000</r>
       <r>   7.9074  0.0000</r>
       <r>   7.9074  0.0000</r>
       <r>   7.9074  0.0000</r>
       <r>   8.1875  0.0000</r>
       <r>   8.1875  0.0000</r>
       <r>   8.1875  0.0000</r>
       <r>   8.1875  0.0000</r>
       <r>   9.1878  0.0000</r>
       <r>   9.1878  0.0000</r>
       <r>   9.1881  0.0000</r>
       <r>   9.1882  0.0000</r>
       <r>   9.1882  0.0000</r>
       <r>   9.1882  0.0000</r>
       <r>   9.1885  0.0000</r>
       <r>   9.1885  0.0000</r>
       <r>   9.2889  0.0000</r>
       <r>   9.2889  0.0000</r>
       <r>   9.2890  0.0000</r>
       <r>   9.2890  0.0000</r>
       <r>  10.8339  0.0000</r>
       <r>  10.8344  0.0000</r>
       <r>  10.8345  0.0000</r>
       <r>  10.8349  0.0000</r>
      </set>
      <set comment="kpoint 193">
       <r>  -1.9810  1.0000</r>
       <r>  -1.9810  1.0000</r>
       <r>  -1.9810  1.0000</r>
       <r>  -1.9810  1.0000</r>
       <r>  -0.8816  1.0000</r>
       <r>  -0.8816  1.0000</r>
       <r>  -0.8816  1.0000</r>
       <r>  -0.8816  1.0000</r>
       <r>   1.2917  1.0000</r>
       <r>   1.2917  1.0000</r>
       <r>   1.2917  1.0000</r>
       <r>   1.2917  1.0000</r>
       <r>   2.3611  1.0000</r>
       <r>   2.3611  1.0000</r>
       <r>   2.3611  1.0000</r>
       <r>   2.3611  1.0000</r>
       <r>   2.3611  1.0000</r>
       <r>   2.3611  1.0000</r>
       <r>   2.3611  1.0000</r>
       <r>   2.3611  1.0000</r>
       <r>   3.4269  1.0000</r>
       <r>   3.4269  1.0000</r>
       <r>   3.4270  1.0000</r>
       <r>   3.4270  1.0000</r>
       <r>   3.4270  1.0000</r>
       <r>   3.4270  1.0000</r>
       <r>   3.4270  1.0000</r>
       <r>   3.4270  1.0000</r>
       <r>   4.4529  1.0000</r>
       <r>   4.4529  1.0000</r>
       <r>   4.4529  1.0000</r>
       <r>   4.4529  1.0000</r>
       <r>   5.5500  1.0000</r>
       <r>   5.5500  1.0000</r>
       <r>   5.5502  1.0000</r>
       <r>   5.5502  1.0000</r>
       <r>   5.5502  1.0000</r>
       <r>   5.5502  1.0000</r>
       <r>   5.5505  1.0000</r>
       <r>   5.5505  1.0000</r>
       <r>   6.5833  1.0000</r>
       <r>   6.5833  1.0000</r>
       <r>   6.5833  1.0000</r>
       <r>   6.5834  1.0000</r>
       <r>   7.6325  1.0000</r>
       <r>   7.6325  1.0000</r>
       <r>   7.6325  1.0000</r>
       <r>   7.6325  1.0000</r>
       <r>   8.6203  0.0000</r>
       <r>   8.6203  0.0000</r>
       <r>   8.6205  0.0000</r>
       <r>   8.6206  0.0000</r>
       <r>   8.6206  0.0000</r>
       <r>   8.6206  0.0000</r>
       <r>   8.6209  0.0000</r>
       <r>   8.6209  0.0000</r>
       <r>   8.9042  0.0000</r>
       <r>   8.9042  0.0000</r>
       <r>   8.9042  0.0000</r>
       <r>   8.9043  0.0000</r>
       <r>   9.7035  0.0000</r>
       <r>   9.7035  0.0000</r>
       <r>   9.7035  0.0000</r>
       <r>   9.7035  0.0000</r>
       <r>  10.9171  0.0000</r>
       <r>  10.9173  0.0000</r>
       <r>  10.9175  0.0000</r>
       <r>  10.9176  0.0000</r>
      </set>
      <set comment="kpoint 194">
       <r>  -1.8738  1.0000</r>
       <r>  -1.8737  1.0000</r>
       <r>  -1.8737  1.0000</r>
       <r>  -1.8737  1.0000</r>
       <r>  -1.1404  1.0000</r>
       <r>  -1.1404  1.0000</r>
       <r>  -1.1404  1.0000</r>
       <r>  -1.1404  1.0000</r>
       <r>   1.7545  1.0000</r>
       <r>   1.7545  1.0000</r>
       <r>   1.7545  1.0000</r>
       <r>   1.7545  1.0000</r>
       <r>   2.4651  1.0000</r>
       <r>   2.4651  1.0000</r>
       <r>   2.4651  1.0000</r>
       <r>   2.4652  1.0000</r>
       <r>   2.4652  1.0000</r>
       <r>   2.4652  1.0000</r>
       <r>   2.4652  1.0000</r>
       <r>   2.4652  1.0000</r>
       <r>   3.1763  1.0000</r>
       <r>   3.1763  1.0000</r>
       <r>   3.1763  1.0000</r>
       <r>   3.1763  1.0000</r>
       <r>   3.1763  1.0000</r>
       <r>   3.1763  1.0000</r>
       <r>   3.1764  1.0000</r>
       <r>   3.1764  1.0000</r>
       <r>   3.8697  1.0000</r>
       <r>   3.8697  1.0000</r>
       <r>   3.8697  1.0000</r>
       <r>   3.8697  1.0000</r>
       <r>   5.9996  1.0000</r>
       <r>   5.9996  1.0000</r>
       <r>   5.9998  1.0000</r>
       <r>   5.9998  1.0000</r>
       <r>   5.9998  1.0000</r>
       <r>   5.9998  1.0000</r>
       <r>   6.0000  1.0000</r>
       <r>   6.0000  1.0000</r>
       <r>   6.6871  1.0000</r>
       <r>   6.6871  1.0000</r>
       <r>   6.6871  1.0000</r>
       <r>   6.6871  1.0000</r>
       <r>   7.3862  1.0000</r>
       <r>   7.3862  1.0000</r>
       <r>   7.3862  1.0000</r>
       <r>   7.3862  1.0000</r>
       <r>   8.0552  0.0000</r>
       <r>   8.0552  0.0000</r>
       <r>   8.0555  0.0000</r>
       <r>   8.0555  0.0000</r>
       <r>   8.0555  0.0000</r>
       <r>   8.0555  0.0000</r>
       <r>   8.0558  0.0000</r>
       <r>   8.0558  0.0000</r>
       <r>   9.6717  0.0000</r>
       <r>   9.6717  0.0000</r>
       <r>   9.6717  0.0000</r>
       <r>   9.6717  0.0000</r>
       <r>  10.1451  0.0000</r>
       <r>  10.1451  0.0000</r>
       <r>  10.1451  0.0000</r>
       <r>  10.1451  0.0000</r>
       <r>  11.0215  0.0000</r>
       <r>  11.0217  0.0000</r>
       <r>  11.0219  0.0000</r>
       <r>  11.0219  0.0000</r>
      </set>
      <set comment="kpoint 195">
       <r>  -1.7360  1.0000</r>
       <r>  -1.7360  1.0000</r>
       <r>  -1.7360  1.0000</r>
       <r>  -1.7360  1.0000</r>
       <r>  -1.3692  1.0000</r>
       <r>  -1.3692  1.0000</r>
       <r>  -1.3692  1.0000</r>
       <r>  -1.3691  1.0000</r>
       <r>   2.2449  1.0000</r>
       <r>   2.2449  1.0000</r>
       <r>   2.2449  1.0000</r>
       <r>   2.2449  1.0000</r>
       <r>   2.5988  1.0000</r>
       <r>   2.5988  1.0000</r>
       <r>   2.5988  1.0000</r>
       <r>   2.5988  1.0000</r>
       <r>   2.5988  1.0000</r>
       <r>   2.5988  1.0000</r>
       <r>   2.5988  1.0000</r>
       <r>   2.5988  1.0000</r>
       <r>   2.9545  1.0000</r>
       <r>   2.9545  1.0000</r>
       <r>   2.9546  1.0000</r>
       <r>   2.9546  1.0000</r>
       <r>   2.9546  1.0000</r>
       <r>   2.9546  1.0000</r>
       <r>   2.9546  1.0000</r>
       <r>   2.9546  1.0000</r>
       <r>   3.3044  1.0000</r>
       <r>   3.3044  1.0000</r>
       <r>   3.3044  1.0000</r>
       <r>   3.3045  1.0000</r>
       <r>   6.4763  1.0000</r>
       <r>   6.4763  1.0000</r>
       <r>   6.4766  1.0000</r>
       <r>   6.4766  1.0000</r>
       <r>   6.4766  1.0000</r>
       <r>   6.4766  1.0000</r>
       <r>   6.4768  1.0000</r>
       <r>   6.4768  1.0000</r>
       <r>   6.8190  1.0000</r>
       <r>   6.8190  1.0000</r>
       <r>   6.8190  1.0000</r>
       <r>   6.8190  1.0000</r>
       <r>   7.1684  1.0000</r>
       <r>   7.1684  1.0000</r>
       <r>   7.1684  1.0000</r>
       <r>   7.1684  1.0000</r>
       <r>   7.5063  1.0000</r>
       <r>   7.5063  1.0000</r>
       <r>   7.5066  1.0000</r>
       <r>   7.5066  1.0000</r>
       <r>   7.5066  1.0000</r>
       <r>   7.5066  1.0000</r>
       <r>   7.5068  1.0000</r>
       <r>   7.5068  1.0000</r>
       <r>  10.4751  0.0000</r>
       <r>  10.4752  0.0000</r>
       <r>  10.4752  0.0000</r>
       <r>  10.4752  0.0000</r>
       <r>  10.6130  0.0000</r>
       <r>  10.6130  0.0000</r>
       <r>  10.6130  0.0000</r>
       <r>  10.6131  0.0000</r>
       <r>  11.1516  0.0000</r>
       <r>  11.1517  0.0000</r>
       <r>  11.1520  0.0000</r>
       <r>  11.1521  0.0000</r>
      </set>
      <set comment="kpoint 196">
       <r>  -1.5724  1.0000</r>
       <r>  -1.5682  1.0000</r>
       <r>  -1.5682  1.0000</r>
       <r>  -1.5678  1.0000</r>
       <r>  -1.5677  1.0000</r>
       <r>  -1.5673  1.0000</r>
       <r>  -1.5673  1.0000</r>
       <r>  -1.5631  1.0000</r>
       <r>   2.7518  1.0000</r>
       <r>   2.7580  1.0000</r>
       <r>   2.7580  1.0000</r>
       <r>   2.7612  1.0000</r>
       <r>   2.7615  1.0000</r>
       <r>   2.7615  1.0000</r>
       <r>   2.7619  1.0000</r>
       <r>   2.7619  1.0000</r>
       <r>   2.7619  1.0000</r>
       <r>   2.7619  1.0000</r>
       <r>   2.7620  1.0000</r>
       <r>   2.7620  1.0000</r>
       <r>   2.7620  1.0000</r>
       <r>   2.7620  1.0000</r>
       <r>   2.7621  1.0000</r>
       <r>   2.7621  1.0000</r>
       <r>   2.7621  1.0000</r>
       <r>   2.7621  1.0000</r>
       <r>   2.7625  1.0000</r>
       <r>   2.7625  1.0000</r>
       <r>   2.7628  1.0000</r>
       <r>   2.7660  1.0000</r>
       <r>   2.7660  1.0000</r>
       <r>   2.7722  1.0000</r>
       <r>   6.9734  1.0000</r>
       <r>   6.9734  1.0000</r>
       <r>   6.9753  1.0000</r>
       <r>   6.9772  1.0000</r>
       <r>   6.9786  1.0000</r>
       <r>   6.9790  1.0000</r>
       <r>   6.9791  1.0000</r>
       <r>   6.9791  1.0000</r>
       <r>   6.9793  1.0000</r>
       <r>   6.9793  1.0000</r>
       <r>   6.9793  1.0000</r>
       <r>   6.9793  1.0000</r>
       <r>   6.9794  1.0000</r>
       <r>   6.9794  1.0000</r>
       <r>   6.9794  1.0000</r>
       <r>   6.9794  1.0000</r>
       <r>   6.9796  1.0000</r>
       <r>   6.9796  1.0000</r>
       <r>   6.9797  1.0000</r>
       <r>   6.9801  1.0000</r>
       <r>   6.9815  1.0000</r>
       <r>   6.9834  1.0000</r>
       <r>   6.9853  1.0000</r>
       <r>   6.9853  1.0000</r>
       <r>  11.1049  0.0000</r>
       <r>  11.1050  0.0000</r>
       <r>  11.1050  0.0000</r>
       <r>  11.1056  0.0000</r>
       <r>  11.1071  0.0000</r>
       <r>  11.1077  0.0000</r>
       <r>  11.1077  0.0000</r>
       <r>  11.1079  0.0000</r>
       <r>  11.3063  0.0000</r>
       <r>  11.3067  0.0000</r>
       <r>  11.3075  0.0000</r>
       <r>  11.3082  0.0000</r>
      </set>
     </set>
    </set>
   </array>
  </eigenvalues>
 </calculation>
 <structure name="finalpos" >
  <crystal>
   <varray name="basis" >
    <v>       8.15535887      0.00000000      0.00000000</v>
    <v>       0.00000000      8.15535887      0.00000000</v>
    <v>       0.00000000      0.00000000      8.15535887</v>
   </varray>
   <i name="volume">    542.41192527</i>
   <varray name="rec_basis" >
    <v>       0.12261876      0.00000000      0.00000000</v>
    <v>       0.00000000      0.12261876      0.00000000</v>
    <v>       0.00000000      0.00000000      0.12261876</v>
   </varray>
  </crystal>
  <varray name="positions" >
   <v>       0.25122619      0.25000000      0.00000000</v>
   <v>       0.75000000      0.25000000      0.00000000</v>
   <v>       0.25000000      0.75000000      0.00000000</v>
   <v>       0.75000000      0.75000000      0.00000000</v>
   <v>       0.25000000      0.25000000      0.50000000</v>
   <v>       0.75000000      0.25000000      0.50000000</v>
   <v>       0.25000000      0.75000000      0.50000000</v>
   <v>       0.75000000      0.75000000      0.50000000</v>
   <v>       0.25000000      0.00000000      0.25000000</v>
   <v>       0.75000000      0.00000000      0.25000000</v>
   <v>       0.25000000      0.50000000      0.25000000</v>
   <v>       0.75000000      0.50000000      0.25000000</v>
   <v>       0.25000000      0.00000000      0.75000000</v>
   <v>       0.75000000      0.00000000      0.75000000</v>
   <v>       0.25000000      0.50000000      0.75000000</v>
   <v>       0.75000000      0.50000000      0.75000000</v>
   <v>       0.00000000      0.25000000      0.25000000</v>
   <v>       0.50000000      0.25000000      0.25000000</v>
   <v>       0.00000000      0.75000000      0.25000000</v>
   <v>       0.50000000      0.75000000      0.25000000</v>
   <v>       0.00000000      0.25000000      0.75000000</v>
   <v>       0.50000000      0.25000000      0.75000000</v>
   <v>       0.00000000      0.75000000      0.75000000</v>
   <v>       0.50000000      0.75000000      0.75000000</v>
   <v>       0.00000000      0.00000000      0.00000000</v>
   <v>       0.50000000      0.00000000      0.00000000</v>
   <v>       0.00000000      0.50000000      0.00000000</v>
   <v>       0.50000000      0.50000000      0.00000000</v>
   <v>       0.00000000      0.00000000      0.50000000</v>
   <v>       0.50000000      0.00000000      0.50000000</v>
   <v>       0.00000000      0.50000000      0.50000000</v>
   <v>       0.50000000      0.50000000      0.50000000</v>
  </varray>
 </structure>
</modeling>
