  32  32   0   0
  0.1352261E+02  0.7563745E-09  0.7563745E-09  0.7563745E-09  0.5000000E-15
  1.000000000000000E-004
  CAR 
 unknown system                          
     12.78803735     -6.53456379  301      2.70360701      1.00000000
     -6.535  0.0000E+00  0.0000E+00
     -6.470  0.0000E+00  0.0000E+00
     -6.406  0.0000E+00  0.0000E+00
     -6.341  0.0000E+00  0.0000E+00
     -6.277  0.0000E+00  0.0000E+00
     -6.213  0.0000E+00  0.0000E+00
     -6.148  0.0000E+00  0.0000E+00
     -6.084  0.0000E+00  0.0000E+00
     -6.019  0.0000E+00  0.0000E+00
     -5.955  0.0000E+00  0.0000E+00
     -5.890  0.0000E+00  0.0000E+00
     -5.826  0.0000E+00  0.0000E+00
     -5.762  0.0000E+00  0.0000E+00
     -5.697  0.6085E-10  0.3919E-11
     -5.633  0.9995E-01  0.6438E-02
     -5.568  0.5426E+00  0.4138E-01
     -5.504  0.9116E+00  0.1001E+00
     -5.440  0.1445E+01  0.1932E+00
     -5.375  0.1490E+01  0.2891E+00
     -5.311  0.1403E+01  0.3795E+00
     -5.246  0.1945E+01  0.5048E+00
     -5.182  0.1125E+01  0.5773E+00
     -5.118  0.2233E+01  0.7212E+00
     -5.053  0.2157E+01  0.8601E+00
     -4.989  0.2562E+01  0.1025E+01
     -4.924  0.2401E+01  0.1180E+01
     -4.860  0.2849E+01  0.1363E+01
     -4.796  0.2534E+01  0.1527E+01
     -4.731  0.1600E+01  0.1630E+01
     -4.667  0.3337E+01  0.1845E+01
     -4.602  0.3439E+01  0.2066E+01
     -4.538  0.2681E+01  0.2239E+01
     -4.473  0.3033E+01  0.2434E+01
     -4.409  0.3801E+01  0.2679E+01
     -4.345  0.3605E+01  0.2912E+01
     -4.280  0.3150E+01  0.3115E+01
     -4.216  0.4075E+01  0.3377E+01
     -4.151  0.2687E+01  0.3550E+01
     -4.087  0.3738E+01  0.3791E+01
     -4.023  0.4021E+01  0.4050E+01
     -3.958  0.4574E+01  0.4345E+01
     -3.894  0.3059E+01  0.4542E+01
     -3.829  0.4398E+01  0.4825E+01
     -3.765  0.4538E+01  0.5118E+01
     -3.701  0.5116E+01  0.5447E+01
     -3.636  0.4288E+01  0.5724E+01
     -3.572  0.4903E+01  0.6039E+01
     -3.507  0.4357E+01  0.6320E+01
     -3.443  0.5096E+01  0.6648E+01
     -3.379  0.5221E+01  0.6985E+01
     -3.314  0.5264E+01  0.7324E+01
     -3.250  0.5698E+01  0.7692E+01
     -3.185  0.5157E+01  0.8024E+01
     -3.121  0.3926E+01  0.8278E+01
     -3.056  0.7045E+01  0.8732E+01
     -2.992  0.6886E+01  0.9176E+01
     -2.928  0.5252E+01  0.9514E+01
     -2.863  0.6137E+01  0.9910E+01
     -2.799  0.6571E+01  0.1033E+02
     -2.734  0.6058E+01  0.1072E+02
     -2.670  0.9288E+01  0.1132E+02
     -2.606  0.6233E+01  0.1172E+02
     -2.541  0.6287E+01  0.1213E+02
     -2.477  0.8676E+01  0.1269E+02
     -2.412  0.7289E+01  0.1316E+02
     -2.348  0.8847E+01  0.1373E+02
     -2.284  0.8942E+01  0.1430E+02
     -2.219  0.9663E+01  0.1493E+02
     -2.155  0.1150E+02  0.1567E+02
     -2.090  0.6963E+01  0.1612E+02
     -2.026  0.1211E+02  0.1690E+02
     -1.962  0.1365E+02  0.1778E+02
     -1.897  0.1238E+02  0.1857E+02
     -1.833  0.1284E+02  0.1940E+02
     -1.768  0.1627E+02  0.2045E+02
     -1.704  0.1951E+02  0.2171E+02
     -1.640  0.2249E+02  0.2316E+02
     -1.575  0.2659E+02  0.2487E+02
     -1.511  0.2892E+02  0.2673E+02
     -1.446  0.3171E+02  0.2878E+02
     -1.382  0.4410E+02  0.3162E+02
     -1.317  0.4064E+02  0.3424E+02
     -1.253  0.4407E+02  0.3708E+02
     -1.189  0.4537E+02  0.4000E+02
     -1.124  0.4609E+02  0.4297E+02
     -1.060  0.5605E+02  0.4658E+02
     -0.995  0.6288E+02  0.5063E+02
     -0.931  0.7361E+02  0.5538E+02
     -0.867  0.8471E+02  0.6084E+02
     -0.802  0.9299E+02  0.6683E+02
     -0.738  0.8945E+02  0.7259E+02
     -0.673  0.7986E+02  0.7774E+02
     -0.609  0.7876E+02  0.8282E+02
     -0.545  0.8532E+02  0.8831E+02
     -0.480  0.8185E+02  0.9359E+02
     -0.416  0.7965E+02  0.9872E+02
     -0.351  0.8573E+02  0.1042E+03
     -0.287  0.1052E+03  0.1110E+03
     -0.223  0.1135E+03  0.1183E+03
     -0.158  0.1206E+03  0.1261E+03
     -0.094  0.1275E+03  0.1343E+03
     -0.029  0.1297E+03  0.1427E+03
      0.035  0.1565E+03  0.1528E+03
      0.100  0.1593E+03  0.1630E+03
      0.164  0.1720E+03  0.1741E+03
      0.228  0.1897E+03  0.1863E+03
      0.293  0.1324E+03  0.1949E+03
      0.357  0.1094E+03  0.2019E+03
      0.422  0.1031E+03  0.2086E+03
      0.486  0.1012E+03  0.2151E+03
      0.550  0.1198E+03  0.2228E+03
      0.615  0.1397E+03  0.2318E+03
      0.679  0.1508E+03  0.2415E+03
      0.744  0.1529E+03  0.2514E+03
      0.808  0.1328E+03  0.2600E+03
      0.872  0.1259E+03  0.2681E+03
      0.937  0.1276E+03  0.2763E+03
      1.001  0.1314E+03  0.2848E+03
      1.066  0.1506E+03  0.2945E+03
      1.130  0.1987E+03  0.3073E+03
      1.194  0.2540E+03  0.3236E+03
      1.259  0.1267E+03  0.3318E+03
      1.323  0.5097E+02  0.3351E+03
      1.388  0.1132E+02  0.3358E+03
      1.452  0.1996E+02  0.3371E+03
      1.517  0.1138E+02  0.3378E+03
      1.581  0.1698E+02  0.3389E+03
      1.645  0.1182E+02  0.3397E+03
      1.710  0.1362E+02  0.3406E+03
      1.774  0.1446E+02  0.3415E+03
      1.839  0.9214E+01  0.3421E+03
      1.903  0.1483E+02  0.3431E+03
      1.967  0.1144E+02  0.3438E+03
      2.032  0.9957E+01  0.3444E+03
      2.096  0.1259E+02  0.3453E+03
      2.161  0.1283E+02  0.3461E+03
      2.225  0.9159E+01  0.3467E+03
      2.289  0.1072E+02  0.3474E+03
      2.354  0.1463E+02  0.3483E+03
      2.418  0.1117E+02  0.3490E+03
      2.483  0.9483E+01  0.3496E+03
      2.547  0.7789E+01  0.3501E+03
      2.611  0.1036E+02  0.3508E+03
      2.676  0.1371E+02  0.3517E+03
      2.740  0.1342E+02  0.3526E+03
      2.805  0.5996E+01  0.3529E+03
      2.869  0.8744E+01  0.3535E+03
      2.934  0.9047E+01  0.3541E+03
      2.998  0.1501E+02  0.3551E+03
      3.062  0.1034E+02  0.3557E+03
      3.127  0.7908E+01  0.3562E+03
      3.191  0.1010E+02  0.3569E+03
      3.256  0.5279E+01  0.3572E+03
      3.320  0.9716E+01  0.3578E+03
      3.384  0.1373E+02  0.3587E+03
      3.449  0.1089E+02  0.3594E+03
      3.513  0.8375E+01  0.3600E+03
      3.578  0.6768E+01  0.3604E+03
      3.642  0.9112E+01  0.3610E+03
      3.706  0.7104E+01  0.3615E+03
      3.771  0.1195E+02  0.3622E+03
      3.835  0.1008E+02  0.3629E+03
      3.900  0.8644E+01  0.3634E+03
      3.964  0.8974E+01  0.3640E+03
      4.028  0.7856E+01  0.3645E+03
      4.093  0.5486E+01  0.3649E+03
      4.157  0.9625E+01  0.3655E+03
      4.222  0.1062E+02  0.3662E+03
      4.286  0.8850E+01  0.3667E+03
      4.351  0.1068E+02  0.3674E+03
      4.415  0.6381E+01  0.3678E+03
      4.479  0.8431E+01  0.3684E+03
      4.544  0.6934E+01  0.3688E+03
      4.608  0.8059E+01  0.3694E+03
      4.673  0.9249E+01  0.3699E+03
      4.737  0.9485E+01  0.3706E+03
      4.801  0.9234E+01  0.3712E+03
      4.866  0.5776E+01  0.3715E+03
      4.930  0.7422E+01  0.3720E+03
      4.995  0.7422E+01  0.3725E+03
      5.059  0.5838E+01  0.3729E+03
      5.123  0.6741E+01  0.3733E+03
      5.188  0.8503E+01  0.3738E+03
      5.252  0.8910E+01  0.3744E+03
      5.317  0.5486E+01  0.3748E+03
      5.381  0.8328E+01  0.3753E+03
      5.445  0.5759E+01  0.3757E+03
      5.510  0.4764E+01  0.3760E+03
      5.574  0.6594E+01  0.3764E+03
      5.639  0.6314E+01  0.3768E+03
      5.703  0.5669E+01  0.3772E+03
      5.767  0.6145E+01  0.3776E+03
      5.832  0.6367E+01  0.3780E+03
      5.896  0.7751E+01  0.3785E+03
      5.961  0.8330E+01  0.3790E+03
      6.025  0.1022E+02  0.3797E+03
      6.090  0.7024E+01  0.3801E+03
      6.154  0.9938E+01  0.3808E+03
      6.218  0.1279E+02  0.3816E+03
      6.283  0.9530E+01  0.3822E+03
      6.347  0.7619E+01  0.3827E+03
      6.412  0.1370E+02  0.3836E+03
      6.476  0.8599E+01  0.3841E+03
      6.540  0.8835E+01  0.3847E+03
      6.605  0.9938E+01  0.3854E+03
      6.669  0.9815E+01  0.3860E+03
      6.734  0.7764E+01  0.3865E+03
      6.798  0.1205E+02  0.3873E+03
      6.862  0.1128E+02  0.3880E+03
      6.927  0.1067E+02  0.3887E+03
      6.991  0.8926E+01  0.3893E+03
      7.056  0.4055E+01  0.3895E+03
      7.120  0.1580E+02  0.3905E+03
      7.184  0.9651E+01  0.3912E+03
      7.249  0.7037E+01  0.3916E+03
      7.313  0.1143E+02  0.3923E+03
      7.378  0.6833E+01  0.3928E+03
      7.442  0.9698E+01  0.3934E+03
      7.507  0.9264E+01  0.3940E+03
      7.571  0.1137E+02  0.3947E+03
      7.635  0.7975E+01  0.3953E+03
      7.700  0.1166E+02  0.3960E+03
      7.764  0.6450E+01  0.3964E+03
      7.829  0.9241E+01  0.3970E+03
      7.893  0.6266E+01  0.3974E+03
      7.957  0.9297E+01  0.3980E+03
      8.022  0.9449E+01  0.3986E+03
      8.086  0.8157E+01  0.3992E+03
      8.151  0.9274E+01  0.3998E+03
      8.215  0.9756E+01  0.4004E+03
      8.279  0.7360E+01  0.4009E+03
      8.344  0.6850E+01  0.4013E+03
      8.408  0.1032E+02  0.4020E+03
      8.473  0.5144E+01  0.4023E+03
      8.537  0.1013E+02  0.4029E+03
      8.601  0.7886E+01  0.4035E+03
      8.666  0.8727E+01  0.4040E+03
      8.730  0.7471E+01  0.4045E+03
      8.795  0.6548E+01  0.4049E+03
      8.859  0.1055E+02  0.4056E+03
      8.924  0.7179E+01  0.4061E+03
      8.988  0.6877E+01  0.4065E+03
      9.052  0.1021E+02  0.4072E+03
      9.117  0.9354E+01  0.4078E+03
      9.181  0.1069E+02  0.4085E+03
      9.246  0.1020E+02  0.4091E+03
      9.310  0.1152E+02  0.4099E+03
      9.374  0.1062E+02  0.4105E+03
      9.439  0.8838E+01  0.4111E+03
      9.503  0.1344E+02  0.4120E+03
      9.568  0.8654E+01  0.4125E+03
      9.632  0.1214E+02  0.4133E+03
      9.696  0.1086E+02  0.4140E+03
      9.761  0.1352E+02  0.4149E+03
      9.825  0.1135E+02  0.4156E+03
      9.890  0.8851E+01  0.4162E+03
      9.954  0.1292E+02  0.4170E+03
     10.018  0.1172E+02  0.4178E+03
     10.083  0.1394E+02  0.4187E+03
     10.147  0.8700E+01  0.4192E+03
     10.212  0.1261E+02  0.4200E+03
     10.276  0.1038E+02  0.4207E+03
     10.341  0.1280E+02  0.4215E+03
     10.405  0.1265E+02  0.4224E+03
     10.469  0.1122E+02  0.4231E+03
     10.534  0.1170E+02  0.4238E+03
     10.598  0.9750E+01  0.4245E+03
     10.663  0.1211E+02  0.4252E+03
     10.727  0.1466E+02  0.4262E+03
     10.791  0.1142E+02  0.4269E+03
     10.856  0.9995E+01  0.4276E+03
     10.920  0.1170E+02  0.4283E+03
     10.985  0.1109E+02  0.4290E+03
     11.049  0.4418E+01  0.4293E+03
     11.113  0.1096E+02  0.4300E+03
     11.178  0.5928E+01  0.4304E+03
     11.242  0.6038E+01  0.4308E+03
     11.307  0.4289E+01  0.4311E+03
     11.371  0.3443E+01  0.4313E+03
     11.435  0.3281E+01  0.4315E+03
     11.500  0.8842E+00  0.4316E+03
     11.564  0.3116E+01  0.4318E+03
     11.629  0.1114E+01  0.4318E+03
     11.693  0.2107E+01  0.4320E+03
     11.757  0.0000E+00  0.4320E+03
     11.822  0.0000E+00  0.4320E+03
     11.886  0.2811E-03  0.4320E+03
     11.951  0.4310E+00  0.4320E+03
     12.015  0.0000E+00  0.4320E+03
     12.080  0.0000E+00  0.4320E+03
     12.144  0.0000E+00  0.4320E+03
     12.208  0.0000E+00  0.4320E+03
     12.273  0.0000E+00  0.4320E+03
     12.337  0.0000E+00  0.4320E+03
     12.402  0.0000E+00  0.4320E+03
     12.466  0.0000E+00  0.4320E+03
     12.530  0.0000E+00  0.4320E+03
     12.595  0.0000E+00  0.4320E+03
     12.659  0.0000E+00  0.4320E+03
     12.724  0.0000E+00  0.4320E+03
     12.788  0.0000E+00  0.4320E+03
