   32   32    1    1
  0.1352261E+02  0.7563745E-09  0.7563745E-09  0.7563745E-09  0.5000000E-15
  1.000000000000000E-004
  CAR 
 unknown system                          
  352  196  216
 
  0.0000000E+00  0.0000000E+00  0.0000000E+00  0.5787037E-03
   1       -5.6563
   2       -3.1195
   3       -3.1165
   4       -3.1165
   5       -3.1165
   6       -3.1165
   7       -3.1136
   8       -1.6764
   9       -1.6764
  10       -1.6764
  11       -1.6764
  12       -1.4530
  13       -1.4530
  14       -1.4530
  15       -1.3726
  16       -1.3704
  17       -1.3704
  18       -1.3694
  19       -1.3692
  20       -1.3692
  21       -1.3692
  22       -1.3692
  23       -1.3690
  24       -1.3680
  25       -1.3680
  26       -1.3658
  27       -1.0816
  28       -1.0816
  29       -1.0816
  30       -0.8296
  31       -0.8280
  32       -0.8280
  33       -0.8280
  34       -0.8280
  35       -0.8265
  36       -0.5319
  37       -0.5306
  38       -0.5306
  39       -0.5305
  40       -0.5305
  41       -0.5292
  42       -0.3531
  43       -0.3519
  44       -0.3519
  45       -0.3499
  46       -0.3499
  47       -0.3499
  48       -0.3498
  49       -0.3498
  50       -0.3497
  51       -0.3497
  52       -0.3497
  53       -0.3495
  54       -0.3495
  55       -0.3494
  56       -0.3494
  57       -0.3494
  58       -0.3494
  59       -0.3493
  60       -0.3493
  61       -0.3492
  62       -0.3492
  63       -0.3474
  64       -0.3474
  65       -0.3458
  66       -0.1768
  67       -0.1748
  68       -0.1748
  69       -0.1746
  70       -0.1744
  71       -0.1744
  72       -0.1744
  73       -0.1744
  74       -0.1743
  75       -0.1740
  76       -0.1740
  77       -0.1720
  78        0.0227
  79        0.0227
  80        0.0227
  81        0.0227
  82        0.0227
  83        0.0227
  84        0.0227
  85        0.0228
  86        0.0433
  87        0.0433
  88        0.0433
  89        0.3533
  90        0.3546
  91        0.3546
  92        0.3546
  93        0.3546
  94        0.3559
  95        0.4566
  96        0.4571
  97        0.4577
  98        0.4577
  99        0.4581
 100        0.4581
 101        0.4581
 102        0.4581
 103        0.4585
 104        0.4585
 105        0.4591
 106        0.4595
 107        0.5810
 108        0.5810
 109        0.5824
 110        0.5824
 111        0.5826
 112        0.5826
 113        0.5826
 114        0.5826
 115        0.5827
 116        0.5827
 117        0.5841
 118        0.5841
 119        0.6861
 120        0.6869
 121        0.6869
 122        0.6870
 123        0.6870
 124        0.6878
 125        0.7096
 126        0.7096
 127        0.7107
 128        0.7109
 129        0.7110
 130        0.7111
 131        0.7111
 132        0.7111
 133        0.7111
 134        0.7115
 135        0.7127
 136        0.7127
 137        0.7139
 138        0.7141
 139        0.9344
 140        0.9351
 141        0.9351
 142        0.9351
 143        0.9351
 144        0.9358
 145        1.1604
 146        1.1604
 147        1.1604
 148        1.1721
 149        1.1721
 150        1.1721
 151        1.1721
 152        1.1721
 153        1.1721
 154        1.1721
 155        1.1721
 156        1.2850
 157        1.2853
 158        1.2853
 159        1.2853
 160        1.2853
 161        1.2853
 162        1.2859
 163        1.2859
 164        1.2859
 165        1.2859
 166        1.2859
 167        1.2862
 168        2.0916
 169        2.0916
 170        2.0916
 171        2.0916
 172        2.3322
 173        2.3325
 174        2.3325
 175        2.3333
 176        2.3336
 177        2.3336
 178        2.3336
 179        2.3336
 180        2.3339
 181        2.3347
 182        2.3347
 183        2.3351
 184        4.3191
 185        4.3191
 186        4.3191
 187        5.8295
 188        5.8295
 189        5.8295
 190        5.8295
 191        8.4427
 192        8.4427
 193        8.4461
 194        8.4461
 195        8.4464
 196        8.4464
 197        8.4464
 198        8.4464
 199        8.4467
 200        8.4467
 201        8.4500
 202        8.4500
 203        8.9265
 204        8.9265
 205        8.9265
 206       10.3494
 207       10.3495
 208       10.3496
 209       10.3497
 210       10.3497
 211       10.3500
 212       10.4034
 213       10.4060
 214       10.4060
 215       10.4060
 216       10.4081
 
  0.8333333E-01  0.0000000E+00  0.0000000E+00  0.1157407E-02
   1       -5.6371
   2       -3.4786
   3       -3.1007
   4       -3.1007
   5       -3.1007
   6       -3.1007
   7       -2.7548
   8       -1.6725
   9       -1.6725
  10       -1.6725
  11       -1.6725
  12       -1.5647
  13       -1.5647
  14       -1.5647
  15       -1.5647
  16       -1.4534
  17       -1.4445
  18       -1.4445
  19       -1.3772
  20       -1.3772
  21       -1.3772
  22       -1.3772
  23       -1.1925
  24       -1.1925
  25       -1.1925
  26       -1.1925
  27       -1.0770
  28       -1.0767
  29       -1.0767
  30       -0.8425
  31       -0.8424
  32       -0.8216
  33       -0.8216
  34       -0.8216
  35       -0.8216
  36       -0.6038
  37       -0.5285
  38       -0.5285
  39       -0.5285
  40       -0.5285
  41       -0.4695
  42       -0.4695
  43       -0.4569
  44       -0.3640
  45       -0.3637
  46       -0.3637
  47       -0.3637
  48       -0.3569
  49       -0.3569
  50       -0.3569
  51       -0.3569
  52       -0.3492
  53       -0.3491
  54       -0.3491
  55       -0.3491
  56       -0.3386
  57       -0.3386
  58       -0.3386
  59       -0.3384
  60       -0.3291
  61       -0.3290
  62       -0.3290
  63       -0.3288
  64       -0.2317
  65       -0.2317
  66       -0.2317
  67       -0.2317
  68       -0.2192
  69       -0.2192
  70       -0.1707
  71       -0.1707
  72       -0.1707
  73       -0.1707
  74       -0.1282
  75       -0.1282
  76       -0.1282
  77       -0.1281
  78        0.0197
  79        0.0197
  80        0.0197
  81        0.0197
  82        0.0272
  83        0.0272
  84        0.0272
  85        0.0272
  86        0.0383
  87        0.0474
  88        0.0474
  89        0.3296
  90        0.3296
  91        0.3296
  92        0.3296
  93        0.3592
  94        0.3846
  95        0.4386
  96        0.4387
  97        0.4387
  98        0.4387
  99        0.4567
 100        0.4567
 101        0.4567
 102        0.4567
 103        0.4785
 104        0.4785
 105        0.4785
 106        0.4785
 107        0.5045
 108        0.5045
 109        0.5825
 110        0.5825
 111        0.5825
 112        0.5825
 113        0.6043
 114        0.6043
 115        0.6043
 116        0.6043
 117        0.6632
 118        0.6632
 119        0.6742
 120        0.6742
 121        0.6742
 122        0.6742
 123        0.6871
 124        0.6872
 125        0.6872
 126        0.6872
 127        0.6988
 128        0.6989
 129        0.7093
 130        0.7157
 131        0.7309
 132        0.7309
 133        0.7309
 134        0.7310
 135        0.7557
 136        0.7557
 137        0.7558
 138        0.7558
 139        0.9060
 140        0.9402
 141        0.9402
 142        0.9402
 143        0.9402
 144        0.9643
 145        1.1262
 146        1.1262
 147        1.1262
 148        1.1262
 149        1.1545
 150        1.1545
 151        1.1585
 152        1.1672
 153        1.1672
 154        1.1672
 155        1.1672
 156        1.2563
 157        1.2563
 158        1.2783
 159        1.2783
 160        1.2783
 161        1.2783
 162        1.2783
 163        1.2783
 164        1.2850
 165        1.2853
 166        1.2859
 167        1.2862
 168        2.0901
 169        2.0901
 170        2.0901
 171        2.0901
 172        2.1095
 173        2.1095
 174        2.1096
 175        2.1096
 176        2.3329
 177        2.3329
 178        2.3329
 179        2.3329
 180        2.6219
 181        2.6219
 182        2.6219
 183        2.6219
 184        4.1727
 185        4.3657
 186        4.3657
 187        5.8919
 188        5.8919
 189        5.8919
 190        5.8919
 191        7.9239
 192        7.9239
 193        8.1366
 194        8.1366
 195        8.1367
 196        8.1367
 197        8.4718
 198        8.4718
 199        8.4718
 200        8.4718
 201        8.9346
 202        8.9346
 203        8.9892
 204        8.9892
 205        9.1124
 206       10.1111
 207       10.1111
 208       10.3878
 209       10.3878
 210       10.3878
 211       10.3878
 212       10.6789
 213       10.6808
 214       10.7289
 215       10.7290
 216       10.7290
 
  0.1666667E+00  0.0000000E+00  0.0000000E+00  0.1157407E-02
   1       -5.5796
   2       -3.8285
   3       -3.0535
   4       -3.0535
   5       -3.0535
   6       -3.0535
   7       -2.4112
   8       -1.7726
   9       -1.7726
  10       -1.7726
  11       -1.7726
  12       -1.6612
  13       -1.6612
  14       -1.6611
  15       -1.6611
  16       -1.4558
  17       -1.4195
  18       -1.4195
  19       -1.3995
  20       -1.3995
  21       -1.3995
  22       -1.3995
  23       -1.0632
  24       -1.0621
  25       -1.0621
  26       -1.0380
  27       -1.0380
  28       -1.0380
  29       -1.0380
  30       -0.8834
  31       -0.8833
  32       -0.8029
  33       -0.8029
  34       -0.8029
  35       -0.8029
  36       -0.6753
  37       -0.5783
  38       -0.5783
  39       -0.5225
  40       -0.5225
  41       -0.5225
  42       -0.5224
  43       -0.3843
  44       -0.3812
  45       -0.3811
  46       -0.3811
  47       -0.3811
  48       -0.3777
  49       -0.3777
  50       -0.3777
  51       -0.3777
  52       -0.3472
  53       -0.3471
  54       -0.3471
  55       -0.3471
  56       -0.3315
  57       -0.3315
  58       -0.3315
  59       -0.3313
  60       -0.2980
  61       -0.2980
  62       -0.2980
  63       -0.2980
  64       -0.2698
  65       -0.2698
  66       -0.2698
  67       -0.2697
  68       -0.1599
  69       -0.1599
  70       -0.1599
  71       -0.1599
  72       -0.0916
  73       -0.0915
  74       -0.0915
  75       -0.0915
  76       -0.0782
  77       -0.0782
  78        0.0107
  79        0.0107
  80        0.0107
  81        0.0107
  82        0.0234
  83        0.0405
  84        0.0405
  85        0.0405
  86        0.0405
  87        0.0597
  88        0.0597
  89        0.2749
  90        0.2749
  91        0.2749
  92        0.2749
  93        0.3857
  94        0.3930
  95        0.3930
  96        0.3930
  97        0.3930
  98        0.4303
  99        0.4303
 100        0.4670
 101        0.4747
 102        0.4747
 103        0.4747
 104        0.4751
 105        0.5126
 106        0.5126
 107        0.5126
 108        0.5127
 109        0.5824
 110        0.5824
 111        0.5824
 112        0.5824
 113        0.6444
 114        0.6444
 115        0.6449
 116        0.6449
 117        0.6453
 118        0.6453
 119        0.6458
 120        0.6458
 121        0.6873
 122        0.6873
 123        0.6873
 124        0.6873
 125        0.6958
 126        0.7213
 127        0.7322
 128        0.7322
 129        0.7455
 130        0.7455
 131        0.7779
 132        0.7779
 133        0.7779
 134        0.7779
 135        0.8075
 136        0.8075
 137        0.8075
 138        0.8076
 139        0.8775
 140        0.9598
 141        0.9598
 142        0.9598
 143        0.9598
 144        0.9930
 145        1.0043
 146        1.0043
 147        1.0043
 148        1.0043
 149        1.1371
 150        1.1371
 151        1.1526
 152        1.1526
 153        1.1526
 154        1.1526
 155        1.1527
 156        1.1744
 157        1.1744
 158        1.2561
 159        1.2561
 160        1.2561
 161        1.2561
 162        1.2576
 163        1.2576
 164        1.2850
 165        1.2853
 166        1.2858
 167        1.2862
 168        1.8831
 169        1.8831
 170        1.8831
 171        1.8831
 172        2.1515
 173        2.1515
 174        2.1515
 175        2.1515
 176        2.3307
 177        2.3307
 178        2.3307
 179        2.3307
 180        2.9621
 181        2.9621
 182        2.9621
 183        2.9621
 184        3.7920
 185        4.5004
 186        4.5004
 187        6.0748
 188        6.0748
 189        6.0749
 190        6.0749
 191        7.4230
 192        7.4230
 193        7.5125
 194        7.5125
 195        7.5126
 196        7.5126
 197        8.5476
 198        8.5476
 199        8.5476
 200        8.5476
 201        8.9593
 202        8.9593
 203        9.5513
 204        9.5513
 205        9.6127
 206        9.8794
 207        9.8794
 208       10.4277
 209       10.4277
 210       10.4278
 211       10.4279
 212       10.4333
 213       10.4333
 214       10.4334
 215       10.4334
 216       10.7289
 
  0.2500000E+00  0.0000000E+00  0.0000000E+00  0.1157407E-02
   1       -5.4840
   2       -4.1579
   3       -2.9756
   4       -2.9756
   5       -2.9756
   6       -2.9756
   7       -2.1078
   8       -1.9850
   9       -1.9850
  10       -1.9850
  11       -1.9850
  12       -1.6425
  13       -1.6425
  14       -1.6425
  15       -1.6425
  16       -1.4627
  17       -1.4321
  18       -1.4321
  19       -1.4321
  20       -1.4321
  21       -1.3789
  22       -1.3789
  23       -1.0404
  24       -1.0376
  25       -1.0376
  26       -0.9449
  27       -0.9449
  28       -0.9065
  29       -0.9065
  30       -0.9065
  31       -0.9065
  32       -0.7726
  33       -0.7726
  34       -0.7726
  35       -0.7725
  36       -0.7441
  37       -0.6760
  38       -0.6760
  39       -0.5126
  40       -0.5126
  41       -0.5126
  42       -0.5126
  43       -0.4111
  44       -0.4111
  45       -0.4111
  46       -0.4111
  47       -0.4009
  48       -0.4008
  49       -0.4008
  50       -0.4008
  51       -0.3693
  52       -0.3693
  53       -0.3693
  54       -0.3693
  55       -0.3442
  56       -0.3440
  57       -0.3440
  58       -0.3440
  59       -0.3279
  60       -0.3279
  61       -0.3279
  62       -0.3278
  63       -0.3135
  64       -0.1757
  65       -0.1756
  66       -0.1756
  67       -0.1756
  68       -0.1429
  69       -0.1429
  70       -0.1429
  71       -0.1429
  72       -0.0601
  73       -0.0601
  74       -0.0601
  75       -0.0601
  76       -0.0038
  77       -0.0038
  78       -0.0038
  79       -0.0038
  80       -0.0012
  81        0.0624
  82        0.0624
  83        0.0624
  84        0.0624
  85        0.0725
  86        0.0725
  87        0.0801
  88        0.0801
  89        0.2128
  90        0.2129
  91        0.2129
  92        0.2129
  93        0.3375
  94        0.3375
  95        0.3375
  96        0.3375
  97        0.3609
  98        0.3609
  99        0.4248
 100        0.5076
 101        0.5076
 102        0.5076
 103        0.5076
 104        0.5530
 105        0.5530
 106        0.5530
 107        0.5530
 108        0.5825
 109        0.5825
 110        0.5825
 111        0.5825
 112        0.6227
 113        0.6227
 114        0.6227
 115        0.6227
 116        0.6247
 117        0.6737
 118        0.6744
 119        0.6744
 120        0.6744
 121        0.6745
 122        0.6858
 123        0.6858
 124        0.6859
 125        0.6859
 126        0.7305
 127        0.7817
 128        0.7817
 129        0.8276
 130        0.8276
 131        0.8354
 132        0.8354
 133        0.8354
 134        0.8354
 135        0.8364
 136        0.8364
 137        0.8364
 138        0.8364
 139        0.8500
 140        0.8654
 141        0.8654
 142        0.8654
 143        0.8654
 144        1.0031
 145        1.0031
 146        1.0031
 147        1.0031
 148        1.0208
 149        1.0518
 150        1.0518
 151        1.1084
 152        1.1084
 153        1.1287
 154        1.1287
 155        1.1287
 156        1.1287
 157        1.1431
 158        1.2205
 159        1.2205
 160        1.2205
 161        1.2205
 162        1.2239
 163        1.2239
 164        1.2850
 165        1.2854
 166        1.2858
 167        1.2862
 168        1.7045
 169        1.7045
 170        1.7045
 171        1.7045
 172        2.1983
 173        2.1984
 174        2.1984
 175        2.1984
 176        2.3265
 177        2.3265
 178        2.3265
 179        2.3265
 180        3.2838
 181        3.3588
 182        3.3588
 183        3.3588
 184        3.3588
 185        4.7110
 186        4.7110
 187        6.3674
 188        6.3674
 189        6.3674
 190        6.3674
 191        6.8260
 192        6.8260
 193        6.8260
 194        6.8260
 195        6.9449
 196        6.9449
 197        8.6725
 198        8.6725
 199        8.6725
 200        8.6725
 201        9.0009
 202        9.0009
 203        9.6781
 204        9.6781
 205        9.7025
 206        9.7025
 207        9.7025
 208        9.7025
 209       10.1312
 210       10.1312
 211       10.3227
 212       10.3255
 213       10.3255
 214       10.3255
 215       10.3255
 216       10.5071
 
  0.3333333E+00  0.0000000E+00  0.0000000E+00  0.1157407E-02
   1       -5.3509
   2       -4.4611
   3       -2.8682
   4       -2.8682
   5       -2.8682
   6       -2.8682
   7       -2.1938
   8       -2.1938
   9       -2.1938
  10       -2.1938
  11       -1.8649
  12       -1.6171
  13       -1.6171
  14       -1.6171
  15       -1.6171
  16       -1.4795
  17       -1.4704
  18       -1.4704
  19       -1.4704
  20       -1.4704
  21       -1.3240
  22       -1.3240
  23       -1.0197
  24       -1.0197
  25       -1.0091
  26       -1.0032
  27       -1.0032
  28       -0.8089
  29       -0.7969
  30       -0.7969
  31       -0.7968
  32       -0.7968
  33       -0.7627
  34       -0.7627
  35       -0.7329
  36       -0.7328
  37       -0.7328
  38       -0.7328
  39       -0.4992
  40       -0.4992
  41       -0.4992
  42       -0.4992
  43       -0.4548
  44       -0.4547
  45       -0.4547
  46       -0.4547
  47       -0.4405
  48       -0.4405
  49       -0.4405
  50       -0.4404
  51       -0.4219
  52       -0.4219
  53       -0.4219
  54       -0.4219
  55       -0.3403
  56       -0.3401
  57       -0.3401
  58       -0.3401
  59       -0.3272
  60       -0.3271
  61       -0.3271
  62       -0.3269
  63       -0.2465
  64       -0.1214
  65       -0.1214
  66       -0.1214
  67       -0.1213
  68       -0.0511
  69       -0.0511
  70       -0.0511
  71       -0.0511
  72       -0.0349
  73       -0.0288
  74       -0.0287
  75       -0.0287
  76       -0.0287
  77       -0.0230
  78       -0.0230
  79       -0.0230
  80       -0.0229
  81        0.0925
  82        0.0925
  83        0.0925
  84        0.0926
  85        0.1084
  86        0.1084
  87        0.1523
  88        0.1523
  89        0.1523
  90        0.1523
  91        0.2318
  92        0.2318
  93        0.2804
  94        0.2804
  95        0.2804
  96        0.2804
  97        0.2970
  98        0.2970
  99        0.4704
 100        0.5487
 101        0.5488
 102        0.5488
 103        0.5488
 104        0.5832
 105        0.5832
 106        0.5832
 107        0.5832
 108        0.5926
 109        0.5926
 110        0.5926
 111        0.5926
 112        0.6067
 113        0.6067
 114        0.6067
 115        0.6067
 116        0.6437
 117        0.6477
 118        0.6477
 119        0.6477
 120        0.6477
 121        0.6789
 122        0.6790
 123        0.6791
 124        0.6791
 125        0.6810
 126        0.6810
 127        0.6811
 128        0.6812
 129        0.7433
 130        0.8240
 131        0.8407
 132        0.8408
 133        0.8761
 134        0.8952
 135        0.8952
 136        0.8952
 137        0.8952
 138        0.9025
 139        0.9025
 140        0.9081
 141        0.9081
 142        0.9277
 143        0.9277
 144        0.9278
 145        0.9278
 146        1.0472
 147        1.0692
 148        1.0693
 149        1.0747
 150        1.0747
 151        1.0747
 152        1.0748
 153        1.0959
 154        1.0959
 155        1.0959
 156        1.0959
 157        1.1300
 158        1.1736
 159        1.1736
 160        1.1736
 161        1.1736
 162        1.1782
 163        1.1782
 164        1.2850
 165        1.2854
 166        1.2857
 167        1.2861
 168        1.5475
 169        1.5475
 170        1.5475
 171        1.5475
 172        2.2390
 173        2.2391
 174        2.2391
 175        2.2391
 176        2.3197
 177        2.3197
 178        2.3197
 179        2.3197
 180        2.7296
 181        3.8132
 182        3.8132
 183        3.8132
 184        3.8132
 185        4.9832
 186        4.9832
 187        6.1463
 188        6.1463
 189        6.1463
 190        6.1463
 191        6.4913
 192        6.4913
 193        6.7555
 194        6.7555
 195        6.7555
 196        6.7555
 197        8.8446
 198        8.8446
 199        8.8446
 200        8.8446
 201        9.0101
 202        9.0101
 203        9.0101
 204        9.0101
 205        9.0603
 206        9.0603
 207        9.5056
 208        9.5056
 209        9.9549
 210        9.9549
 211        9.9549
 212        9.9549
 213       10.6107
 214       10.6107
 215       10.6108
 216       10.6118
 
  0.4166667E+00  0.0000000E+00  0.0000000E+00  0.1157407E-02
   1       -5.1808
   2       -4.7343
   3       -2.7332
   4       -2.7332
   5       -2.7332
   6       -2.7332
   7       -2.3919
   8       -2.3919
   9       -2.3919
  10       -2.3919
  11       -1.6912
  12       -1.5859
  13       -1.5859
  14       -1.5859
  15       -1.5859
  16       -1.5143
  17       -1.5107
  18       -1.5107
  19       -1.5107
  20       -1.5107
  21       -1.2572
  22       -1.2572
  23       -1.1006
  24       -1.1006
  25       -0.9696
  26       -0.9587
  27       -0.9587
  28       -0.8687
  29       -0.8386
  30       -0.8386
  31       -0.7108
  32       -0.7108
  33       -0.7108
  34       -0.7108
  35       -0.6896
  36       -0.6896
  37       -0.6896
  38       -0.6896
  39       -0.5042
  40       -0.5035
  41       -0.5035
  42       -0.5035
  43       -0.5031
  44       -0.5031
  45       -0.5031
  46       -0.5025
  47       -0.4828
  48       -0.4827
  49       -0.4827
  50       -0.4827
  51       -0.4432
  52       -0.4432
  53       -0.4432
  54       -0.4432
  55       -0.3363
  56       -0.3359
  57       -0.3359
  58       -0.3359
  59       -0.3287
  60       -0.3287
  61       -0.3287
  62       -0.3283
  63       -0.1839
  64       -0.0967
  65       -0.0967
  66       -0.0967
  67       -0.0967
  68       -0.0772
  69       -0.0459
  70       -0.0459
  71       -0.0459
  72       -0.0459
  73        0.0067
  74        0.0067
  75        0.0067
  76        0.0067
  77        0.0969
  78        0.0969
  79        0.0969
  80        0.0969
  81        0.0988
  82        0.0989
  83        0.0989
  84        0.0989
  85        0.1304
  86        0.1304
  87        0.1304
  88        0.1304
  89        0.1446
  90        0.1446
  91        0.2255
  92        0.2255
  93        0.2255
  94        0.2255
  95        0.2393
  96        0.2393
  97        0.3980
  98        0.3980
  99        0.4549
 100        0.4549
 101        0.4550
 102        0.4550
 103        0.5180
 104        0.5851
 105        0.5851
 106        0.5851
 107        0.5851
 108        0.5918
 109        0.5918
 110        0.5918
 111        0.5918
 112        0.5959
 113        0.5959
 114        0.5959
 115        0.5959
 116        0.6068
 117        0.6266
 118        0.6266
 119        0.6266
 120        0.6266
 121        0.6624
 122        0.6624
 123        0.6624
 124        0.6624
 125        0.6705
 126        0.6705
 127        0.6705
 128        0.6705
 129        0.7384
 130        0.7384
 131        0.7592
 132        0.7999
 133        0.9033
 134        0.9034
 135        0.9532
 136        0.9532
 137        0.9532
 138        0.9532
 139        0.9852
 140        0.9852
 141        0.9923
 142        0.9923
 143        0.9923
 144        0.9923
 145        1.0207
 146        1.0207
 147        1.0550
 148        1.0550
 149        1.0550
 150        1.0550
 151        1.0718
 152        1.1135
 153        1.1181
 154        1.1181
 155        1.1181
 156        1.1181
 157        1.1221
 158        1.1221
 159        1.1696
 160        1.1696
 161        1.1696
 162        1.1696
 163        1.2281
 164        1.2851
 165        1.2855
 166        1.2857
 167        1.2861
 168        1.4074
 169        1.4074
 170        1.4074
 171        1.4074
 172        2.1801
 173        2.2705
 174        2.2705
 175        2.2705
 176        2.2705
 177        2.3091
 178        2.3091
 179        2.3091
 180        2.3092
 181        4.3236
 182        4.3236
 183        4.3236
 184        4.3236
 185        5.3050
 186        5.3050
 187        5.4961
 188        5.4961
 189        5.4961
 190        5.4961
 191        6.0645
 192        6.0645
 193        7.2248
 194        7.2248
 195        7.2248
 196        7.2248
 197        8.3612
 198        8.3612
 199        8.3612
 200        8.3612
 201        9.0615
 202        9.0615
 203        9.0615
 204        9.0615
 205        9.1389
 206        9.1389
 207        9.3596
 208        9.3596
 209        9.6192
 210        9.6192
 211        9.6192
 212        9.6192
 213       10.7446
 214       10.7446
 215       10.7446
 216       10.7446
 
  0.5000000E+00  0.0000000E+00  0.0000000E+00  0.5787037E-03
   1       -4.9762
   2       -4.9736
   3       -2.5764
   4       -2.5739
   5       -2.5739
   6       -2.5737
   7       -2.5728
   8       -2.5726
   9       -2.5726
  10       -2.5701
  11       -1.5799
  12       -1.5792
  13       -1.5512
  14       -1.5512
  15       -1.5503
  16       -1.5500
  17       -1.5497
  18       -1.5495
  19       -1.5486
  20       -1.5486
  21       -1.1827
  22       -1.1820
  23       -1.1809
  24       -1.1802
  25       -0.9234
  26       -0.9217
  27       -0.9047
  28       -0.9047
  29       -0.9031
  30       -0.9031
  31       -0.6678
  32       -0.6678
  33       -0.6675
  34       -0.6675
  35       -0.6672
  36       -0.6671
  37       -0.6669
  38       -0.6669
  39       -0.5343
  40       -0.5335
  41       -0.5335
  42       -0.5335
  43       -0.5333
  44       -0.5333
  45       -0.5333
  46       -0.5325
  47       -0.4650
  48       -0.4645
  49       -0.4645
  50       -0.4640
  51       -0.4636
  52       -0.4631
  53       -0.4631
  54       -0.4626
  55       -0.3336
  56       -0.3323
  57       -0.3323
  58       -0.3321
  59       -0.3317
  60       -0.3314
  61       -0.3314
  62       -0.3302
  63       -0.1274
  64       -0.1269
  65       -0.0716
  66       -0.0713
  67       -0.0713
  68       -0.0710
  69       -0.0709
  70       -0.0707
  71       -0.0707
  72       -0.0704
  73        0.0476
  74        0.0476
  75        0.0477
  76        0.0482
  77        0.0485
  78        0.0489
  79        0.0490
  80        0.0490
  81        0.1737
  82        0.1740
  83        0.1740
  84        0.1748
  85        0.1752
  86        0.1759
  87        0.1759
  88        0.1763
  89        0.1877
  90        0.1877
  91        0.1891
  92        0.1891
  93        0.2687
  94        0.2692
  95        0.2692
  96        0.2692
  97        0.2697
  98        0.2697
  99        0.2697
 100        0.2701
 101        0.5639
 102        0.5646
 103        0.5677
 104        0.5677
 105        0.5686
 106        0.5686
 107        0.5887
 108        0.5887
 109        0.5888
 110        0.5890
 111        0.5891
 112        0.5892
 113        0.5894
 114        0.5894
 115        0.6305
 116        0.6310
 117        0.6310
 118        0.6311
 119        0.6317
 120        0.6317
 121        0.6317
 122        0.6323
 123        0.6520
 124        0.6522
 125        0.6525
 126        0.6525
 127        0.6529
 128        0.6529
 129        0.6532
 130        0.6535
 131        0.7776
 132        0.7788
 133        0.9644
 134        0.9645
 135        0.9646
 136        0.9646
 137        1.0065
 138        1.0067
 139        1.0067
 140        1.0067
 141        1.0073
 142        1.0073
 143        1.0073
 144        1.0076
 145        1.0559
 146        1.0559
 147        1.0565
 148        1.0565
 149        1.0569
 150        1.0569
 151        1.0569
 152        1.0569
 153        1.0572
 154        1.0572
 155        1.0578
 156        1.0578
 157        1.0940
 158        1.0940
 159        1.2808
 160        1.2813
 161        1.2813
 162        1.2815
 163        1.2815
 164        1.2817
 165        1.2817
 166        1.2822
 167        1.2851
 168        1.2856
 169        1.2856
 170        1.2861
 171        1.6695
 172        1.6710
 173        2.2918
 174        2.2924
 175        2.2929
 176        2.2929
 177        2.2936
 178        2.2936
 179        2.2941
 180        2.2947
 181        4.8843
 182        4.8845
 183        4.8845
 184        4.8860
 185        4.8865
 186        4.8880
 187        4.8880
 188        4.8882
 189        5.6663
 190        5.6663
 191        5.6690
 192        5.6690
 193        7.7616
 194        7.7616
 195        7.7618
 196        7.7631
 197        7.7637
 198        7.7650
 199        7.7652
 200        7.7652
 201        9.2377
 202        9.2381
 203        9.2381
 204        9.2384
 205        9.3185
 206        9.3185
 207        9.3203
 208        9.3204
 209        9.3207
 210        9.3207
 211        9.3226
 212        9.3226
 213       10.9089
 214       10.9093
 215       10.9095
 216       10.9101
 
  0.0000000E+00  0.8333333E-01  0.0000000E+00  0.2314815E-02
   1       -5.6371
   2       -3.4786
   3       -3.1029
   4       -3.1007
   5       -3.1007
   6       -3.0985
   7       -2.7548
   8       -1.6726
   9       -1.6725
  10       -1.6725
  11       -1.6725
  12       -1.5664
  13       -1.5647
  14       -1.5647
  15       -1.5629
  16       -1.4534
  17       -1.4446
  18       -1.4445
  19       -1.3784
  20       -1.3774
  21       -1.3770
  22       -1.3759
  23       -1.1940
  24       -1.1925
  25       -1.1925
  26       -1.1910
  27       -1.0770
  28       -1.0767
  29       -1.0767
  30       -0.8425