       N       E                     dE             d eps       ncg     rms          rms(c)
DAV:   1     0.379405478839E+04    0.37941E+04   -0.18851E+05 84672   0.312E+03
DAV:   2     0.412793586775E+03   -0.33813E+04   -0.32525E+04 84672   0.667E+02
DAV:   3    -0.108931267586E+03   -0.52172E+03   -0.47591E+03 84672   0.250E+02
DAV:   4    -0.142522385503E+03   -0.33591E+02   -0.32432E+02 89264   0.728E+01
DAV:   5    -0.142895904160E+03   -0.37352E+00   -0.37226E+00 90440   0.775E+00    0.383E+01
DAV:   6    -0.129721313168E+03    0.13175E+02   -0.28654E+02 91296   0.948E+01    0.209E+01
DAV:   7    -0.117190766412E+03    0.12531E+02   -0.55018E+01 94960   0.419E+01    0.221E+00
DAV:   8    -0.117082249402E+03    0.10852E+00   -0.10584E+00 89888   0.394E+00    0.244E+00
DAV:   9    -0.116968170679E+03    0.11408E+00   -0.38093E-01 88928   0.354E+00    0.191E-01
DAV:  10    -0.116969850072E+03   -0.16794E-02   -0.17853E-02 91152   0.101E+00    0.212E-01
DAV:  11    -0.116969121581E+03    0.72849E-03   -0.29531E-03 88424   0.331E-01    0.231E-02
DAV:  12    -0.116969138986E+03   -0.17405E-04   -0.19597E-04 90792   0.158E-01    0.213E-02
DAV:  13    -0.116969139030E+03   -0.43503E-07   -0.48454E-05 89048   0.929E-02    0.524E-03
DAV:  14    -0.116969137029E+03    0.20008E-05   -0.50023E-06108048   0.167E-02    0.194E-03
DAV:  15    -0.116969136451E+03    0.57789E-06   -0.14412E-06 90280   0.121E-02    0.122E-03
DAV:  16    -0.116969135839E+03    0.61176E-06   -0.35296E-07 90616   0.526E-03    0.741E-04
DAV:  17    -0.116969136472E+03   -0.63294E-06   -0.75340E-08 86456   0.331E-03    0.488E-04
DAV:  18    -0.116969137000E+03   -0.52764E-06   -0.33292E-08 62944   0.209E-03    0.183E-04
DAV:  19    -0.116969137043E+03   -0.42986E-07   -0.51010E-09 46200   0.552E-04    0.103E-04
DAV:  20    -0.116969136982E+03    0.60820E-07   -0.27439E-09 46136   0.417E-04    0.711E-05
DAV:  21    -0.116969136898E+03    0.84161E-07   -0.13458E-09 46000   0.276E-04    0.549E-05
DAV:  22    -0.116969136891E+03    0.70504E-08   -0.24902E-10 45944   0.146E-04
   1 F= -.11696914E+03 E0= -.11696861E+03  d E =-.104445E-02
