 vasp.4.6.28 25Jul05 complex 
 executed on             LinuxIFC date 2017.01.13  03:28:42
 running on    8 nodes
 distr:  one band on    1 nodes,    8 groups


--------------------------------------------------------------------------------------------------------


 INCAR:
 POTCAR:   PAW_PBE Cu 05Jan2001                   
 POTCAR:   PAW_PBE Cu 05Jan2001                   
   VRHFIN =Cu: d10 p1                                                           
   LEXCH  = PE                                                                  
   EATOM  =  1390.9800 eV,  102.2341 Ry                                         
                                                                                
   TITEL  = PAW_PBE Cu 05Jan2001                                                
   LULTRA =        F    use ultrasoft PP ?                                      
   IUNSCR =        1    unscreen: 0-lin 1-nonlin 2-no                           
   RPACOR =    2.000    partial core radius                                     
   POMASS =   63.546; ZVAL   =   11.000    mass and valenz                      
   RCORE  =    2.300    outmost cutoff radius                                   
   RWIGS  =    2.480; RWIGS  =    1.312    wigner-seitz radius (au A)           
   ENMAX  =  273.214; ENMIN  =  204.910 eV                                      
   RCLOC  =    1.712    cutoff for local pot                                    
   LCOR   =        T    correct aug charges                                     
   LPAW   =        T    paw PP                                                  
   EAUG   =  516.456                                                            
   DEXC   =    -.008                                                            
   RMAX   =    2.789    core radius for proj-oper                               
   RAUG   =    1.300    factor for augmentation sphere                          
   RDEP   =    2.302    radius for radial grids                                 
   QCUT   =   -4.481; QGAM   =    8.962    optimization parameters              
                                                                                
   Description                                                                  
     l     E      TYP  RCUT    TYP  RCUT                                        
     2   .000     23  2.300                                                     
     2   .000     23  2.300                                                     
     0   .000     23  2.300                                                     
     0   .000     23  2.300                                                     
     1  -.200     23  2.300                                                     
     1   .000     23  2.300                                                     
     3   .000      7   .000                                                     
  local pseudopotential read in
  partial core-charges read in
  atomic valenz-charges read in
  non local Contribution for L=           2  read in
    real space projection operators read in
  non local Contribution for L=           2  read in
    real space projection operators read in
  non local Contribution for L=           0  read in
    real space projection operators read in
  non local Contribution for L=           0  read in
    real space projection operators read in
  non local Contribution for L=           1  read in
    real space projection operators read in
  non local Contribution for L=           1  read in
    real space projection operators read in
    PAW grid and wavefunctions read in
 
   number of l-projection  operators is LMAX  =           6
   number of lm-projection operators is LMMAX =          18
 

 ----------------------------------------------------------------------------- 
|                                                                             |
|  ADVICE TO THIS USER RUNNING 'VASP/VAMP'   (HEAR YOUR MASTER'S VOICE ...):  |
|                                                                             |
|      You have a (more or less) 'large supercell' and for larger cells       |
|      it might be more efficient to use real space projection operators      |
|      So try LREAL= Auto  in the INCAR   file.                               |
|      Mind: If you want to do an extremely accurate calculations keep the    |
|      reciprocal projection scheme          (i.e. LREAL=.FALSE.)             |
|                                                                             |
 ----------------------------------------------------------------------------- 

 PAW_PBE Cu 05Jan2001                   :
 energy of atom  1       EATOM=-1390.9800
 kinetic energy error for atom=    0.0006 (will be added to EATOM!!)
 
 EXHCAR: internal setup
 exchange correlation table for  LEXCH =        8
   RHO(1)=    0.500       N(1)  =     2000
   RHO(2)=  100.500       N(2)  =     4000
 
 POSCAR: Cu                                      
  positions in direct lattice
  No initial velocities read in
 


--------------------------------------------------------------------------------------------------------


 ion  position               nearest neighbor table
   1  0.001  0.000  0.000-   9 2.67  11 2.67  17 2.67  21 2.67  25 2.67  27 2.67  29 2.67  31 2.67
                            10 2.68  12 2.68  18 2.68  22 2.68
   2  0.500  0.000  0.000-   9 2.67  10 2.67  11 2.67  12 2.67  17 2.67  18 2.67  21 2.67  22 2.67
                            26 2.67  28 2.67  30 2.67  32 2.67
   3  0.000  0.500  0.000-   9 2.67  10 2.67  11 2.67  12 2.67  19 2.67  20 2.67  23 2.67  24 2.67
                            25 2.67  27 2.67  29 2.67  31 2.67
   4  0.500  0.500  0.000-   9 2.67  10 2.67  11 2.67  12 2.67  19 2.67  20 2.67  23 2.67  24 2.67
                            26 2.67  28 2.67  30 2.67  32 2.67
   5  0.000  0.000  0.500-  13 2.67  14 2.67  15 2.67  16 2.67  17 2.67  18 2.67  21 2.67  22 2.67
                            25 2.67  27 2.67  29 2.67  31 2.67
   6  0.500  0.000  0.500-  13 2.67  14 2.67  15 2.67  16 2.67  17 2.67  18 2.67  21 2.67  22 2.67
                            26 2.67  28 2.67  30 2.67  32 2.67
   7  0.000  0.500  0.500-  13 2.67  14 2.67  15 2.67  16 2.67  19 2.67  20 2.67  23 2.67  24 2.67
                            25 2.67  27 2.67  29 2.67  31 2.67
   8  0.500  0.500  0.500-  13 2.67  14 2.67  15 2.67  16 2.67  19 2.67  20 2.67  23 2.67  24 2.67
                            26 2.67  28 2.67  30 2.67  32 2.67
   9  0.250  0.250  0.000-   1 2.67   2 2.67   3 2.67   4 2.67  17 2.67  19 2.67  21 2.67  23 2.67
                            25 2.67  26 2.67  29 2.67  30 2.67
  10  0.750  0.250  0.000-   2 2.67   3 2.67   4 2.67  18 2.67  20 2.67  22 2.67  24 2.67  25 2.67
                            26 2.67  29 2.67  30 2.67   1 2.68
  11  0.250  0.750  0.000-   1 2.67   2 2.67   3 2.67   4 2.67  17 2.67  19 2.67  21 2.67  23 2.67
                            27 2.67  28 2.67  31 2.67  32 2.67
  12  0.750  0.750  0.000-   2 2.67   3 2.67   4 2.67  18 2.67  20 2.67  22 2.67  24 2.67  27 2.67
                            28 2.67  31 2.67  32 2.67   1 2.68
  13  0.250  0.250  0.500-   5 2.67   6 2.67   7 2.67   8 2.67  17 2.67  19 2.67  21 2.67  23 2.67
                            25 2.67  26 2.67  29 2.67  30 2.67
  14  0.750  0.250  0.500-   5 2.67   6 2.67   7 2.67   8 2.67  18 2.67  20 2.67  22 2.67  24 2.67
                            25 2.67  26 2.67  29 2.67  30 2.67
  15  0.250  0.750  0.500-   5 2.67   6 2.67   7 2.67   8 2.67  17 2.67  19 2.67  21 2.67  23 2.67
                            27 2.67  28 2.67  31 2.67  32 2.67
  16  0.750  0.750  0.500-   5 2.67   6 2.67   7 2.67   8 2.67  18 2.67  20 2.67  22 2.67  24 2.67
                            27 2.67  28 2.67  31 2.67  32 2.67
  17  0.250  0.000  0.250-   1 2.67   2 2.67   5 2.67   6 2.67   9 2.67  11 2.67  13 2.67  15 2.67
                            25 2.67  26 2.67  27 2.67  28 2.67
  18  0.750  0.000  0.250-   2 2.67   5 2.67   6 2.67  10 2.67  12 2.67  14 2.67  16 2.67  25 2.67
                            26 2.67  27 2.67  28 2.67   1 2.68
  19  0.250  0.500  0.250-   3 2.67   4 2.67   7 2.67   8 2.67   9 2.67  11 2.67  13 2.67  15 2.67
                            25 2.67  26 2.67  27 2.67  28 2.67
  20  0.750  0.500  0.250-   3 2.67   4 2.67   7 2.67   8 2.67  10 2.67  12 2.67  14 2.67  16 2.67
                            25 2.67  26 2.67  27 2.67  28 2.67
  21  0.250  0.000  0.750-   1 2.67   2 2.67   5 2.67   6 2.67   9 2.67  11 2.67  13 2.67  15 2.67
                            29 2.67  30 2.67  31 2.67  32 2.67
  22  0.750  0.000  0.750-   2 2.67   5 2.67   6 2.67  10 2.67  12 2.67  14 2.67  16 2.67  29 2.67
                            30 2.67  31 2.67  32 2.67   1 2.68
  23  0.250  0.500  0.750-   3 2.67   4 2.67   7 2.67   8 2.67   9 2.67  11 2.67  13 2.67  15 2.67
                            29 2.67  30 2.67  31 2.67  32 2.67
  24  0.750  0.500  0.750-   3 2.67   4 2.67   7 2.67   8 2.67  10 2.67  12 2.67  14 2.67  16 2.67
                            29 2.67  30 2.67  31 2.67  32 2.67
  25  0.000  0.250  0.250-   3 2.67   5 2.67   7 2.67   9 2.67  10 2.67  13 2.67  14 2.67  17 2.67
                            18 2.67  19 2.67  20 2.67   1 2.67
  26  0.500  0.250  0.250-   2 2.67   4 2.67   6 2.67   8 2.67   9 2.67  10 2.67  13 2.67  14 2.67
                            17 2.67  18 2.67  19 2.67  20 2.67
  27  0.000  0.750  0.250-   3 2.67   5 2.67   7 2.67  11 2.67  12 2.67  15 2.67  16 2.67  17 2.67
                            18 2.67  19 2.67  20 2.67   1 2.67
  28  0.500  0.750  0.250-   2 2.67   4 2.67   6 2.67   8 2.67  11 2.67  12 2.67  15 2.67  16 2.67
                            17 2.67  18 2.67  19 2.67  20 2.67
  29  0.000  0.250  0.750-   3 2.67   5 2.67   7 2.67   9 2.67  10 2.67  13 2.67  14 2.67  21 2.67
                            22 2.67  23 2.67  24 2.67   1 2.67
  30  0.500  0.250  0.750-   2 2.67   4 2.67   6 2.67   8 2.67   9 2.67  10 2.67  13 2.67  14 2.67
                            21 2.67  22 2.67  23 2.67  24 2.67
  31  0.000  0.750  0.750-   3 2.67   5 2.67   7 2.67  11 2.67  12 2.67  15 2.67  16 2.67  21 2.67
                            22 2.67  23 2.67  24 2.67   1 2.67
  32  0.500  0.750  0.750-   2 2.67   4 2.67   6 2.67   8 2.67  11 2.67  12 2.67  15 2.67  16 2.67
                            21 2.67  22 2.67  23 2.67  24 2.67
 
  LATTYP: Found a simple cubic cell.
 ALAT       =     7.5637448884
  
  Lattice vectors:
  
 A1 = (   7.5637448884,   0.0000000000,   0.0000000000)
 A2 = (   0.0000000000,   7.5637448884,   0.0000000000)
 A3 = (   0.0000000000,   0.0000000000,   7.5637448884)
 Subroutine PRICEL returns:
 Original cell was already a primitive cell.
 

Analysis of symmetry for initial positions (statically):

 Routine SETGRP: Setting up the symmetry group for a 
 simple cubic supercell.


 Subroutine GETGRP returns: Found  8 space group operations
 (whereof  8 operations were pure point group operations)
 out of a pool of 48 trial point group operations.


The static configuration has the point symmetry C_4v.

Analysis of symmetry for dynamics (positions and initial velocities):

 Subroutine DYNSYM returns: Found  8 space group operations
 (whereof  8 operations were pure point group operations)
 out of a pool of  8 trial space group operations
 (whereof  8 operations were pure point group operations)
 and found also     1 'primitive' translations


The dynamic configuration has the point symmetry C_4v.
 
 
 KPOINTS: Automatic mesh                          

Automatic generation of k-mesh.
 
 Subroutine IBZKPT returns following result:
 ===========================================
 
 Found    196 irreducible k-points:
 
 Following reciprocal coordinates:
            Coordinates               Weight
  0.000000  0.000000  0.000000      1.000000
  0.083333  0.000000  0.000000      2.000000
  0.166667  0.000000  0.000000      2.000000
  0.250000  0.000000  0.000000      2.000000
  0.333333  0.000000  0.000000      2.000000
  0.416667  0.000000  0.000000      2.000000
  0.500000  0.000000  0.000000      1.000000
  0.000000  0.083333  0.000000      4.000000
  0.083333  0.083333  0.000000      8.000000
  0.166667  0.083333  0.000000      8.000000
  0.250000  0.083333  0.000000      8.000000
  0.333333  0.083333  0.000000      8.000000
  0.416667  0.083333  0.000000      8.000000
  0.500000  0.083333  0.000000      4.000000
  0.000000  0.166667  0.000000      4.000000
  0.083333  0.166667  0.000000      8.000000
  0.166667  0.166667  0.000000      8.000000
  0.250000  0.166667  0.000000      8.000000
  0.333333  0.166667  0.000000      8.000000
  0.416667  0.166667  0.000000      8.000000
  0.500000  0.166667  0.000000      4.000000
  0.000000  0.250000  0.000000      4.000000
  0.083333  0.250000  0.000000      8.000000
  0.166667  0.250000  0.000000      8.000000
  0.250000  0.250000  0.000000      8.000000
  0.333333  0.250000  0.000000      8.000000
  0.416667  0.250000  0.000000      8.000000
  0.500000  0.250000  0.000000      4.000000
  0.000000  0.333333  0.000000      4.000000
  0.083333  0.333333  0.000000      8.000000
  0.166667  0.333333  0.000000      8.000000
  0.250000  0.333333  0.000000      8.000000
  0.333333  0.333333  0.000000      8.000000
  0.416667  0.333333  0.000000      8.000000
  0.500000  0.333333  0.000000      4.000000
  0.000000  0.416667  0.000000      4.000000
  0.083333  0.416667  0.000000      8.000000
  0.166667  0.416667  0.000000      8.000000
  0.250000  0.416667  0.000000      8.000000
  0.333333  0.416667  0.000000      8.000000
  0.416667  0.416667  0.000000      8.000000
  0.500000  0.416667  0.000000      4.000000
  0.000000  0.500000  0.000000      2.000000
  0.083333  0.500000  0.000000      4.000000
  0.166667  0.500000  0.000000      4.000000
  0.250000  0.500000  0.000000      4.000000
  0.333333  0.500000  0.000000      4.000000
  0.416667  0.500000  0.000000      4.000000
  0.500000  0.500000  0.000000      2.000000
  0.000000  0.083333  0.083333      4.000000
  0.083333  0.083333  0.083333      8.000000
  0.166667  0.083333  0.083333      8.000000
  0.250000  0.083333  0.083333      8.000000
  0.333333  0.083333  0.083333      8.000000
  0.416667  0.083333  0.083333      8.000000
  0.500000  0.083333  0.083333      4.000000
  0.000000  0.166667  0.083333      8.000000
  0.083333  0.166667  0.083333     16.000000
  0.166667  0.166667  0.083333     16.000000
  0.250000  0.166667  0.083333     16.000000
  0.333333  0.166667  0.083333     16.000000
  0.416667  0.166667  0.083333     16.000000
  0.500000  0.166667  0.083333      8.000000
  0.000000  0.250000  0.083333      8.000000
  0.083333  0.250000  0.083333     16.000000
  0.166667  0.250000  0.083333     16.000000
  0.250000  0.250000  0.083333     16.000000
  0.333333  0.250000  0.083333     16.000000
  0.416667  0.250000  0.083333     16.000000
  0.500000  0.250000  0.083333      8.000000
  0.000000  0.333333  0.083333      8.000000
  0.083333  0.333333  0.083333     16.000000
  0.166667  0.333333  0.083333     16.000000
  0.250000  0.333333  0.083333     16.000000
  0.333333  0.333333  0.083333     16.000000
  0.416667  0.333333  0.083333     16.000000
  0.500000  0.333333  0.083333      8.000000
  0.000000  0.416667  0.083333      8.000000
  0.083333  0.416667  0.083333     16.000000
  0.166667  0.416667  0.083333     16.000000
  0.250000  0.416667  0.083333     16.000000
  0.333333  0.416667  0.083333     16.000000
  0.416667  0.416667  0.083333     16.000000
  0.500000  0.416667  0.083333      8.000000
  0.000000  0.500000  0.083333      4.000000
  0.083333  0.500000  0.083333      8.000000
  0.166667  0.500000  0.083333      8.000000
  0.250000  0.500000  0.083333      8.000000
  0.333333  0.500000  0.083333      8.000000
  0.416667  0.500000  0.083333      8.000000
  0.500000  0.500000  0.083333      4.000000
  0.000000  0.166667  0.166667      4.000000
  0.083333  0.166667  0.166667      8.000000
  0.166667  0.166667  0.166667      8.000000
  0.250000  0.166667  0.166667      8.000000
  0.333333  0.166667  0.166667      8.000000
  0.416667  0.166667  0.166667      8.000000
  0.500000  0.166667  0.166667      4.000000
  0.000000  0.250000  0.166667      8.000000
  0.083333  0.250000  0.166667     16.000000
  0.166667  0.250000  0.166667     16.000000
  0.250000  0.250000  0.166667     16.000000
  0.333333  0.250000  0.166667     16.000000
  0.416667  0.250000  0.166667     16.000000
  0.500000  0.250000  0.166667      8.000000
  0.000000  0.333333  0.166667      8.000000
  0.083333  0.333333  0.166667     16.000000
  0.166667  0.333333  0.166667     16.000000
  0.250000  0.333333  0.166667     16.000000
  0.333333  0.333333  0.166667     16.000000
  0.416667  0.333333  0.166667     16.000000
  0.500000  0.333333  0.166667      8.000000
  0.000000  0.416667  0.166667      8.000000
  0.083333  0.416667  0.166667     16.000000
  0.166667  0.416667  0.166667     16.000000
  0.250000  0.416667  0.166667     16.000000
  0.333333  0.416667  0.166667     16.000000
  0.416667  0.416667  0.166667     16.000000
  0.500000  0.416667  0.166667      8.000000
  0.000000  0.500000  0.166667      4.000000
  0.083333  0.500000  0.166667      8.000000
  0.166667  0.500000  0.166667      8.000000
  0.250000  0.500000  0.166667      8.000000
  0.333333  0.500000  0.166667      8.000000
  0.416667  0.500000  0.166667      8.000000
  0.500000  0.500000  0.166667      4.000000
  0.000000  0.250000  0.250000      4.000000
  0.083333  0.250000  0.250000      8.000000
  0.166667  0.250000  0.250000      8.000000
  0.250000  0.250000  0.250000      8.000000
  0.333333  0.250000  0.250000      8.000000
  0.416667  0.250000  0.250000      8.000000
  0.500000  0.250000  0.250000      4.000000
  0.000000  0.333333  0.250000      8.000000
  0.083333  0.333333  0.250000     16.000000
  0.166667  0.333333  0.250000     16.000000
  0.250000  0.333333  0.250000     16.000000
  0.333333  0.333333  0.250000     16.000000
  0.416667  0.333333  0.250000     16.000000
  0.500000  0.333333  0.250000      8.000000
  0.000000  0.416667  0.250000      8.000000
  0.083333  0.416667  0.250000     16.000000
  0.166667  0.416667  0.250000     16.000000
  0.250000  0.416667  0.250000     16.000000
  0.333333  0.416667  0.250000     16.000000
  0.416667  0.416667  0.250000     16.000000
  0.500000  0.416667  0.250000      8.000000
  0.000000  0.500000  0.250000      4.000000
  0.083333  0.500000  0.250000      8.000000
  0.166667  0.500000  0.250000      8.000000
  0.250000  0.500000  0.250000      8.000000
  0.333333  0.500000  0.250000      8.000000
  0.416667  0.500000  0.250000      8.000000
  0.500000  0.500000  0.250000      4.000000
  0.000000  0.333333  0.333333      4.000000
  0.083333  0.333333  0.333333      8.000000
  0.166667  0.333333  0.333333      8.000000
  0.250000  0.333333  0.333333      8.000000
  0.333333  0.333333  0.333333      8.000000
  0.416667  0.333333  0.333333      8.000000
  0.500000  0.333333  0.333333      4.000000
  0.000000  0.416667  0.333333      8.000000
  0.083333  0.416667  0.333333     16.000000
  0.166667  0.416667  0.333333     16.000000
  0.250000  0.416667  0.333333     16.000000
  0.333333  0.416667  0.333333     16.000000
  0.416667  0.416667  0.333333     16.000000
  0.500000  0.416667  0.333333      8.000000
  0.000000  0.500000  0.333333      4.000000
  0.083333  0.500000  0.333333      8.000000
  0.166667  0.500000  0.333333      8.000000
  0.250000  0.500000  0.333333      8.000000
  0.333333  0.500000  0.333333      8.000000
  0.416667  0.500000  0.333333      8.000000
  0.500000  0.500000  0.333333      4.000000
  0.000000  0.416667  0.416667      4.000000
  0.083333  0.416667  0.416667      8.000000
  0.166667  0.416667  0.416667      8.000000
  0.250000  0.416667  0.416667      8.000000
  0.333333  0.416667  0.416667      8.000000
  0.416667  0.416667  0.416667      8.000000
  0.500000  0.416667  0.416667      4.000000
  0.000000  0.500000  0.416667      4.000000
  0.083333  0.500000  0.416667      8.000000
  0.166667  0.500000  0.416667      8.000000
  0.250000  0.500000  0.416667      8.000000
  0.333333  0.500000  0.416667      8.000000
  0.416667  0.500000  0.416667      8.000000
  0.500000  0.500000  0.416667      4.000000
  0.000000  0.500000  0.500000      1.000000
  0.083333  0.500000  0.500000      2.000000
  0.166667  0.500000  0.500000      2.000000
  0.250000  0.500000  0.500000      2.000000
  0.333333  0.500000  0.500000      2.000000
  0.416667  0.500000  0.500000      2.000000
  0.500000  0.500000  0.500000      1.000000
 
 Following cartesian coordinates:
            Coordinates               Weight
  0.000000  0.000000  0.000000      1.000000
  0.011017  0.000000  0.000000      2.000000
  0.022035  0.000000  0.000000      2.000000
  0.033052  0.000000  0.000000      2.000000
  0.044070  0.000000  0.000000      2.000000
  0.055087  0.000000  0.000000      2.000000
  0.066105  0.000000  0.000000      1.000000
  0.000000  0.011017  0.000000      4.000000
  0.011017  0.011017  0.000000      8.000000
  0.022035  0.011017  0.000000      8.000000
  0.033052  0.011017  0.000000      8.000000
  0.044070  0.011017  0.000000      8.000000
  0.055087  0.011017  0.000000      8.000000
  0.066105  0.011017  0.000000      4.000000
  0.000000  0.022035  0.000000      4.000000
  0.011017  0.022035  0.000000      8.000000
  0.022035  0.022035  0.000000      8.000000
  0.033052  0.022035  0.000000      8.000000
  0.044070  0.022035  0.000000      8.000000
  0.055087  0.022035  0.000000      8.000000
  0.066105  0.022035  0.000000      4.000000
  0.000000  0.033052  0.000000      4.000000
  0.011017  0.033052  0.000000      8.000000
  0.022035  0.033052  0.000000      8.000000
  0.033052  0.033052  0.000000      8.000000
  0.044070  0.033052  0.000000      8.000000
  0.055087  0.033052  0.000000      8.000000
  0.066105  0.033052  0.000000      4.000000
  0.000000  0.044070  0.000000      4.000000
  0.011017  0.044070  0.000000      8.000000
  0.022035  0.044070  0.000000      8.000000
  0.033052  0.044070  0.000000      8.000000
  0.044070  0.044070  0.000000      8.000000
  0.055087  0.044070  0.000000      8.000000
  0.066105  0.044070  0.000000      4.000000
  0.000000  0.055087  0.000000      4.000000
  0.011017  0.055087  0.000000      8.000000
  0.022035  0.055087  0.000000      8.000000
  0.033052  0.055087  0.000000      8.000000
  0.044070  0.055087  0.000000      8.000000
  0.055087  0.055087  0.000000      8.000000
  0.066105  0.055087  0.000000      4.000000
  0.000000  0.066105  0.000000      2.000000
  0.011017  0.066105  0.000000      4.000000
  0.022035  0.066105  0.000000      4.000000
  0.033052  0.066105  0.000000      4.000000
  0.044070  0.066105  0.000000      4.000000
  0.055087  0.066105  0.000000      4.000000
  0.066105  0.066105  0.000000      2.000000
  0.000000  0.011017  0.011017      4.000000
  0.011017  0.011017  0.011017      8.000000
  0.022035  0.011017  0.011017      8.000000
  0.033052  0.011017  0.011017      8.000000
  0.044070  0.011017  0.011017      8.000000
  0.055087  0.011017  0.011017      8.000000
  0.066105  0.011017  0.011017      4.000000
  0.000000  0.022035  0.011017      8.000000
  0.011017  0.022035  0.011017     16.000000
  0.022035  0.022035  0.011017     16.000000
  0.033052  0.022035  0.011017     16.000000
  0.044070  0.022035  0.011017     16.000000
  0.055087  0.022035  0.011017     16.000000
  0.066105  0.022035  0.011017      8.000000
  0.000000  0.033052  0.011017      8.000000
  0.011017  0.033052  0.011017     16.000000
  0.022035  0.033052  0.011017     16.000000
  0.033052  0.033052  0.011017     16.000000
  0.044070  0.033052  0.011017     16.000000
  0.055087  0.033052  0.011017     16.000000
  0.066105  0.033052  0.011017      8.000000
  0.000000  0.044070  0.011017      8.000000
  0.011017  0.044070  0.011017     16.000000
  0.022035  0.044070  0.011017     16.000000
  0.033052  0.044070  0.011017     16.000000
  0.044070  0.044070  0.011017     16.000000
  0.055087  0.044070  0.011017     16.000000
  0.066105  0.044070  0.011017      8.000000
  0.000000  0.055087  0.011017      8.000000
  0.011017  0.055087  0.011017     16.000000
  0.022035  0.055087  0.011017     16.000000
  0.033052  0.055087  0.011017     16.000000
  0.044070  0.055087  0.011017     16.000000
  0.055087  0.055087  0.011017     16.000000
  0.066105  0.055087  0.011017      8.000000
  0.000000  0.066105  0.011017      4.000000
  0.011017  0.066105  0.011017      8.000000
  0.022035  0.066105  0.011017      8.000000
  0.033052  0.066105  0.011017      8.000000
  0.044070  0.066105  0.011017      8.000000
  0.055087  0.066105  0.011017      8.000000
  0.066105  0.066105  0.011017      4.000000
  0.000000  0.022035  0.022035      4.000000
  0.011017  0.022035  0.022035      8.000000
  0.022035  0.022035  0.022035      8.000000
  0.033052  0.022035  0.022035      8.000000
  0.044070  0.022035  0.022035      8.000000
  0.055087  0.022035  0.022035      8.000000
  0.066105  0.022035  0.022035      4.000000
  0.000000  0.033052  0.022035      8.000000
  0.011017  0.033052  0.022035     16.000000
  0.022035  0.033052  0.022035     16.000000
  0.033052  0.033052  0.022035     16.000000
  0.044070  0.033052  0.022035     16.000000
  0.055087  0.033052  0.022035     16.000000
  0.066105  0.033052  0.022035      8.000000
  0.000000  0.044070  0.022035      8.000000
  0.011017  0.044070  0.022035     16.000000
  0.022035  0.044070  0.022035     16.000000
  0.033052  0.044070  0.022035     16.000000
  0.044070  0.044070  0.022035     16.000000
  0.055087  0.044070  0.022035     16.000000
  0.066105  0.044070  0.022035      8.000000
  0.000000  0.055087  0.022035      8.000000
  0.011017  0.055087  0.022035     16.000000
  0.022035  0.055087  0.022035     16.000000
  0.033052  0.055087  0.022035     16.000000
  0.044070  0.055087  0.022035     16.000000
  0.055087  0.055087  0.022035     16.000000
  0.066105  0.055087  0.022035      8.000000
  0.000000  0.066105  0.022035      4.000000
  0.011017  0.066105  0.022035      8.000000
  0.022035  0.066105  0.022035      8.000000
  0.033052  0.066105  0.022035      8.000000
  0.044070  0.066105  0.022035      8.000000
  0.055087  0.066105  0.022035      8.000000
  0.066105  0.066105  0.022035      4.000000
  0.000000  0.033052  0.033052      4.000000
  0.011017  0.033052  0.033052      8.000000
  0.022035  0.033052  0.033052      8.000000
  0.033052  0.033052  0.033052      8.000000
  0.044070  0.033052  0.033052      8.000000
  0.055087  0.033052  0.033052      8.000000
  0.066105  0.033052  0.033052      4.000000
  0.000000  0.044070  0.033052      8.000000
  0.011017  0.044070  0.033052     16.000000
  0.022035  0.044070  0.033052     16.000000
  0.033052  0.044070  0.033052     16.000000
  0.044070  0.044070  0.033052     16.000000
  0.055087  0.044070  0.033052     16.000000
  0.066105  0.044070  0.033052      8.000000
  0.000000  0.055087  0.033052      8.000000
  0.011017  0.055087  0.033052     16.000000
  0.022035  0.055087  0.033052     16.000000
  0.033052  0.055087  0.033052     16.000000
  0.044070  0.055087  0.033052     16.000000
  0.055087  0.055087  0.033052     16.000000
  0.066105  0.055087  0.033052      8.000000
  0.000000  0.066105  0.033052      4.000000
  0.011017  0.066105  0.033052      8.000000
  0.022035  0.066105  0.033052      8.000000
  0.033052  0.066105  0.033052      8.000000
  0.044070  0.066105  0.033052      8.000000
  0.055087  0.066105  0.033052      8.000000
  0.066105  0.066105  0.033052      4.000000
  0.000000  0.044070  0.044070      4.000000
  0.011017  0.044070  0.044070      8.000000
  0.022035  0.044070  0.044070      8.000000
  0.033052  0.044070  0.044070      8.000000
  0.044070  0.044070  0.044070      8.000000
  0.055087  0.044070  0.044070      8.000000
  0.066105  0.044070  0.044070      4.000000
  0.000000  0.055087  0.044070      8.000000
  0.011017  0.055087  0.044070     16.000000
  0.022035  0.055087  0.044070     16.000000
  0.033052  0.055087  0.044070     16.000000
  0.044070  0.055087  0.044070     16.000000
  0.055087  0.055087  0.044070     16.000000
  0.066105  0.055087  0.044070      8.000000
  0.000000  0.066105  0.044070      4.000000
  0.011017  0.066105  0.044070      8.000000
  0.022035  0.066105  0.044070      8.000000
  0.033052  0.066105  0.044070      8.000000
  0.044070  0.066105  0.044070      8.000000
  0.055087  0.066105  0.044070      8.000000
  0.066105  0.066105  0.044070      4.000000
  0.000000  0.055087  0.055087      4.000000
  0.011017  0.055087  0.055087      8.000000
  0.022035  0.055087  0.055087      8.000000
  0.033052  0.055087  0.055087      8.000000
  0.044070  0.055087  0.055087      8.000000
  0.055087  0.055087  0.055087      8.000000
  0.066105  0.055087  0.055087      4.000000
  0.000000  0.066105  0.055087      4.000000
  0.011017  0.066105  0.055087      8.000000
  0.022035  0.066105  0.055087      8.000000
  0.033052  0.066105  0.055087      8.000000
  0.044070  0.066105  0.055087      8.000000
  0.055087  0.066105  0.055087      8.000000
  0.066105  0.066105  0.055087      4.000000
  0.000000  0.066105  0.066105      1.000000
  0.011017  0.066105  0.066105      2.000000
  0.022035  0.066105  0.066105      2.000000
  0.033052  0.066105  0.066105      2.000000
  0.044070  0.066105  0.066105      2.000000
  0.055087  0.066105  0.066105      2.000000
  0.066105  0.066105  0.066105      1.000000
 


--------------------------------------------------------------------------------------------------------




 Dimension of arrays:
   k-Points           NKPTS =    196   number of bands    NBANDS=    216
   number of dos      NEDOS =    301   number of ions     NIONS =     32
   non local maximal  LDIM  =      6   non local SUM 2l+1 LMDIM =     18
   total plane-waves  NPLWV = 343000
   max r-space proj   IRMAX =      1   max aug-charges    IRDMAX= 222731
   dimension x,y,z NGX =    70 NGY =   70 NGZ =   70
   dimension x,y,z NGXF=   140 NGYF=  140 NGZF=  140
   support grid    NGXF=   280 NGYF=  280 NGZF=  280
   ions per type =              32
 NGX,Y,Z   is equivalent  to a cutoff of  15.39, 15.39, 15.39 a.u.
 NGXF,Y,Z  is equivalent  to a cutoff of  30.77, 30.77, 30.77 a.u.


 I would recommend the setting:
   dimension x,y,z NGX =    68 NGY =   68 NGZ =   68
 SYSTEM =  unknown system                          
 POSCAR =  Cu                                      

 Startparameter for this run:
   NWRITE =      2    write-flag & timer
   PREC   = accura    medium, high low
   ISTART =      0    job   : 0-new  1-cont  2-samecut
   ICHARG =      2    charge: 1-file 2-atom 10-const
   ISPIN  =      1    spin polarized calculation?
   LNONCOLLINEAR =      F non collinear calculations
   LSORBIT =      F    spin-orbit coupling
   INIWAV =      1    electr: 0-lowe 1-rand  2-diag
   LASPH  =      F    aspherical Exc in radial PAW
   METAGGA=      F    non-selfconsistent MetaGGA calc.

 Electronic Relaxation 1
   ENCUT  =  750.0 eV  55.12 Ry    7.42 a.u.  16.89 16.89 16.89*2*pi/ulx,y,z
   ENINI  =  750.0     initial cutoff
   ENAUG  =  516.5 eV  augmentation charge cutoff
   NELM   =     60;   NELMIN=  2; NELMDL=  0     # of ELM steps 
   EDIFF  = 0.1E-07   stopping-criterion for ELM
   LREAL  =      F    real-space projection
   LCOMPAT=      F    compatible to vasp.4.4
   LREAL_COMPAT= F    compatible to vasp.4.5.1-3
   GGA_COMPAT  = T    GGA compatible to vasp.4.4-vasp.4.6
   LMAXPAW     = -100 max onsite density
   LMAXMIX     =    2 max onsite mixed and CHGCAR
   VOSKOWN=      0    Vosko Wilk Nusair interpolation
   ROPT   =    0.00000
 Ionic relaxation
   EDIFFG = 0.1E-06   stopping-criterion for IOM
   NSW    =      0    number of steps for IOM
   NBLOCK =      1;   KBLOCK =      1    inner block; outer block 
   IBRION =     -1    ionic relax: 0-MD 1-quasi-New 2-CG
   NFREE  =      0    steps in history (QN), initial steepest desc. (CG)
   ISIF   =      2    stress and relaxation
   IWAVPR =     10    prediction:  0-non 1-charg 2-wave 3-comb
   ISYM   =      2    0-nonsym 1-usesym 2-fastsym
   LCORR  =      T    Harris-Foulkes like correction to forces

   POTIM  =   0.50    time-step for ionic-motion
   TEIN   =    0.0    initial temperature
   TEBEG  =    0.0;   TEEND  =   0.0 temperature during run
   SMASS  =  -3.00    Nose mass-parameter (am)
   estimated Nose-frequenzy (Omega)   =  0.10E-29 period in steps =****** mass=  -0.131E-26a.u.
   NPACO  =    256;   APACO  = 16.0  distance and # of slots for P.C.
   PSTRESS=    0.0 pullay stress

  Mass of Ions in am
   POMASS =  63.55
  Ionic Valenz
   ZVAL   =  11.00
  Atomic Wigner-Seitz radii
   RWIGS  =  -1.00
   NELECT =     352.0000    total number of electrons
   NUPDOWN=      -1.0000    fix difference up-down

 DOS related values:
   EMIN   =  10.00;   EMAX   =-10.00  energy-range for DOS
   ISMEAR =     0;   SIGMA  =   0.01  broadening in eV -4-tet -1-fermi 0-gaus

 Electronic relaxation 2 (details)
   IALGO  =     38    algorithm
   LDIAG  =      T    sub-space diagonalisation
   IMIX   =      4    mixing-type and parameters
     AMIX     =   0.40;   BMIX     =  1.00
     AMIX_MAG =   1.60;   BMIX_MAG =  1.00
     AMIN     =   0.10
     WC   =   100.;   INIMIX=   1;  MIXPRE=   1

 Intra band minimization:
   WEIMIN = 0.0000     energy-eigenvalue tresh-hold
   EBREAK =  0.12E-10  absolut break condition
   DEPER  =   0.30     relativ break condition  

   TIME   =   0.10     timestep for ELM

  volume/ion in A,a.u.               =      13.52        91.26
  Fermi-wavevector in a.u.,eV,Ry     =   1.528219 31.775759  2.335452

 Second variation
   LSECVAR=     F    do a second variation
 
 Write flags
   LWAVE  =      F    write WAVECAR
   LCHARG =      F    write CHGCAR
   LVTOT  =      F    write LOCPOT, local potential
   LELF   =      F    write electronic localiz. function (ELF)
   LORBIT =      0    0 simple, 1 ext, 2 COOP (PROOUT)


 Dipole corrections
   IDIPOL =      0    1-x, 2-y, 3-z
   LDIPOL =      F    correct potential



--------------------------------------------------------------------------------------------------------


 Static calculation
 charge density will be updated during run
 non-spin polarized calculation
 Variant of blocked Davidson
 Davidson routine will perform the subspace rotation
 performe sub-space diagonalisation
    after iterative eigenvector-optimisation
 modified Broyden-mixing scheme, WC =      100.0
 initial mixing is a Kerker type mixing with AMIX =  0.4000 and BMIX =      1.0000
 Hartree-type preconditioning will be used
 using additional bands           40
 reciprocal scheme for non local part
 use partial core corrections
 calculate Harris-corrections to forces 
   (improved forces if not selfconsistent)
 use gradient corrections 
 use of overlap-Matrix (Vanderbilt PP)
 Gauss-broadening in eV      SIGMA  =   0.01


--------------------------------------------------------------------------------------------------------


  energy-cutoff  :      750.00
  volume of cell :      432.72
      direct lattice vectors                 reciprocal lattice vectors
     7.563744888  0.000000000  0.000000000     0.132209641  0.000000000  0.000000000
     0.000000000  7.563744888  0.000000000     0.000000000  0.132209641  0.000000000
     0.000000000  0.000000000  7.563744888     0.000000000  0.000000000  0.132209641

  length of vectors
     7.563744888  7.563744888  7.563744888     0.132209641  0.132209641  0.132209641


 
 k-points in units of 2pi/SCALE and weight: Automatic mesh                          
   0.00000000  0.00000000  0.00000000       0.001
   0.01101747  0.00000000  0.00000000       0.001
   0.02203494  0.00000000  0.00000000       0.001
   0.03305241  0.00000000  0.00000000       0.001
   0.04406988  0.00000000  0.00000000       0.001
   0.05508735  0.00000000  0.00000000       0.001
   0.06610482  0.00000000  0.00000000       0.001
   0.00000000  0.01101747  0.00000000       0.002
   0.01101747  0.01101747  0.00000000       0.005
   0.02203494  0.01101747  0.00000000       0.005
   0.03305241  0.01101747  0.00000000       0.005
   0.04406988  0.01101747  0.00000000       0.005
   0.05508735  0.01101747  0.00000000       0.005
   0.06610482  0.01101747  0.00000000       0.002
   0.00000000  0.02203494  0.00000000       0.002
   0.01101747  0.02203494  0.00000000       0.005
   0.02203494  0.02203494  0.00000000       0.005
   0.03305241  0.02203494  0.00000000       0.005
   0.04406988  0.02203494  0.00000000       0.005
   0.05508735  0.02203494  0.00000000       0.005
   0.06610482  0.02203494  0.00000000       0.002
   0.00000000  0.03305241  0.00000000       0.002
   0.01101747  0.03305241  0.00000000       0.005
   0.02203494  0.03305241  0.00000000       0.005
   0.03305241  0.03305241  0.00000000       0.005
   0.04406988  0.03305241  0.00000000       0.005
   0.05508735  0.03305241  0.00000000       0.005
   0.06610482  0.03305241  0.00000000       0.002
   0.00000000  0.04406988  0.00000000       0.002
   0.01101747  0.04406988  0.00000000       0.005
   0.02203494  0.04406988  0.00000000       0.005
   0.03305241  0.04406988  0.00000000       0.005
   0.04406988  0.04406988  0.00000000       0.005
   0.05508735  0.04406988  0.00000000       0.005
   0.06610482  0.04406988  0.00000000       0.002
   0.00000000  0.05508735  0.00000000       0.002
   0.01101747  0.05508735  0.00000000       0.005
   0.02203494  0.05508735  0.00000000       0.005
   0.03305241  0.05508735  0.00000000       0.005
   0.04406988  0.05508735  0.00000000       0.005
   0.05508735  0.05508735  0.00000000       0.005
   0.06610482  0.05508735  0.00000000       0.002
   0.00000000  0.06610482  0.00000000       0.001
   0.01101747  0.06610482  0.00000000       0.002
   0.02203494  0.06610482  0.00000000       0.002
   0.03305241  0.06610482  0.00000000       0.002
   0.04406988  0.06610482  0.00000000       0.002
   0.05508735  0.06610482  0.00000000       0.002
   0.06610482  0.06610482  0.00000000       0.001
   0.00000000  0.01101747  0.01101747       0.002
   0.01101747  0.01101747  0.01101747       0.005
   0.02203494  0.01101747  0.01101747       0.005
   0.03305241  0.01101747  0.01101747       0.005
   0.04406988  0.01101747  0.01101747       0.005
   0.05508735  0.01101747  0.01101747       0.005
   0.06610482  0.01101747  0.01101747       0.002
   0.00000000  0.02203494  0.01101747       0.005
   0.01101747  0.02203494  0.01101747       0.009
   0.02203494  0.02203494  0.01101747       0.009
   0.03305241  0.02203494  0.01101747       0.009
   0.04406988  0.02203494  0.01101747       0.009
   0.05508735  0.02203494  0.01101747       0.009
   0.06610482  0.02203494  0.01101747       0.005
   0.00000000  0.03305241  0.01101747       0.005
   0.01101747  0.03305241  0.01101747       0.009
   0.02203494  0.03305241  0.01101747       0.009
   0.03305241  0.03305241  0.01101747       0.009
   0.04406988  0.03305241  0.01101747       0.009
   0.05508735  0.03305241  0.01101747       0.009
   0.06610482  0.03305241  0.01101747       0.005
   0.00000000  0.04406988  0.01101747       0.005
   0.01101747  0.04406988  0.01101747       0.009
   0.02203494  0.04406988  0.01101747       0.009
   0.03305241  0.04406988  0.01101747       0.009
   0.04406988  0.04406988  0.01101747       0.009
   0.05508735  0.04406988  0.01101747       0.009
   0.06610482  0.04406988  0.01101747       0.005
   0.00000000  0.05508735  0.01101747       0.005
   0.01101747  0.05508735  0.01101747       0.009
   0.02203494  0.05508735  0.01101747       0.009
   0.03305241  0.05508735  0.01101747       0.009
   0.04406988  0.05508735  0.01101747       0.009
   0.05508735  0.05508735  0.01101747       0.009
   0.06610482  0.05508735  0.01101747       0.005
   0.00000000  0.06610482  0.01101747       0.002
   0.01101747  0.06610482  0.01101747       0.005
   0.02203494  0.06610482  0.01101747       0.005
   0.03305241  0.06610482  0.01101747       0.005
   0.04406988  0.06610482  0.01101747       0.005
   0.05508735  0.06610482  0.01101747       0.005
   0.06610482  0.06610482  0.01101747       0.002
   0.00000000  0.02203494  0.02203494       0.002
   0.01101747  0.02203494  0.02203494       0.005
   0.02203494  0.02203494  0.02203494       0.005
   0.03305241  0.02203494  0.02203494       0.005
   0.04406988  0.02203494  0.02203494       0.005
   0.05508735  0.02203494  0.02203494       0.005
   0.06610482  0.02203494  0.02203494       0.002
   0.00000000  0.03305241  0.02203494       0.005
   0.01101747  0.03305241  0.02203494       0.009
   0.02203494  0.03305241  0.02203494       0.009
   0.03305241  0.03305241  0.02203494       0.009
   0.04406988  0.03305241  0.02203494       0.009
   0.05508735  0.03305241  0.02203494       0.009
   0.06610482  0.03305241  0.02203494       0.005
   0.00000000  0.04406988  0.02203494       0.005
   0.01101747  0.04406988  0.02203494       0.009
   0.02203494  0.04406988  0.02203494       0.009
   0.03305241  0.04406988  0.02203494       0.009
   0.04406988  0.04406988  0.02203494       0.009
   0.05508735  0.04406988  0.02203494       0.009
   0.06610482  0.04406988  0.02203494       0.005
   0.00000000  0.05508735  0.02203494       0.005
   0.01101747  0.05508735  0.02203494       0.009
   0.02203494  0.05508735  0.02203494       0.009
   0.03305241  0.05508735  0.02203494       0.009
   0.04406988  0.05508735  0.02203494       0.009
   0.05508735  0.05508735  0.02203494       0.009
   0.06610482  0.05508735  0.02203494       0.005
   0.00000000  0.06610482  0.02203494       0.002
   0.01101747  0.06610482  0.02203494       0.005
   0.02203494  0.06610482  0.02203494       0.005
   0.03305241  0.06610482  0.02203494       0.005
   0.04406988  0.06610482  0.02203494       0.005
   0.05508735  0.06610482  0.02203494       0.005
   0.06610482  0.06610482  0.02203494       0.002
   0.00000000  0.03305241  0.03305241       0.002
   0.01101747  0.03305241  0.03305241       0.005
   0.02203494  0.03305241  0.03305241       0.005
   0.03305241  0.03305241  0.03305241       0.005
   0.04406988  0.03305241  0.03305241       0.005
   0.05508735  0.03305241  0.03305241       0.005
   0.06610482  0.03305241  0.03305241       0.002
   0.00000000  0.04406988  0.03305241       0.005
   0.01101747  0.04406988  0.03305241       0.009
   0.02203494  0.04406988  0.03305241       0.009
   0.03305241  0.04406988  0.03305241       0.009
   0.04406988  0.04406988  0.03305241       0.009
   0.05508735  0.04406988  0.03305241       0.009
   0.06610482  0.04406988  0.03305241       0.005
   0.00000000  0.05508735  0.03305241       0.005
   0.01101747  0.05508735  0.03305241       0.009
   0.02203494  0.05508735  0.03305241       0.009
   0.03305241  0.05508735  0.03305241       0.009
   0.04406988  0.05508735  0.03305241       0.009
   0.05508735  0.05508735  0.03305241       0.009
   0.06610482  0.05508735  0.03305241       0.005
   0.00000000  0.06610482  0.03305241       0.002
   0.01101747  0.06610482  0.03305241       0.005
   0.02203494  0.06610482  0.03305241       0.005
   0.03305241  0.06610482  0.03305241       0.005
   0.04406988  0.06610482  0.03305241       0.005
   0.05508735  0.06610482  0.03305241       0.005
   0.06610482  0.06610482  0.03305241       0.002
   0.00000000  0.04406988  0.04406988       0.002
   0.01101747  0.04406988  0.04406988       0.005
   0.02203494  0.04406988  0.04406988       0.005
   0.03305241  0.04406988  0.04406988       0.005
   0.04406988  0.04406988  0.04406988       0.005
   0.05508735  0.04406988  0.04406988       0.005
   0.06610482  0.04406988  0.04406988       0.002
   0.00000000  0.05508735  0.04406988       0.005
   0.01101747  0.05508735  0.04406988       0.009
   0.02203494  0.05508735  0.04406988       0.009
   0.03305241  0.05508735  0.04406988       0.009
   0.04406988  0.05508735  0.04406988       0.009
   0.05508735  0.05508735  0.04406988       0.009
   0.06610482  0.05508735  0.04406988       0.005
   0.00000000  0.06610482  0.04406988       0.002
   0.01101747  0.06610482  0.04406988       0.005
   0.02203494  0.06610482  0.04406988       0.005
   0.03305241  0.06610482  0.04406988       0.005
   0.04406988  0.06610482  0.04406988       0.005
   0.05508735  0.06610482  0.04406988       0.005
   0.06610482  0.06610482  0.04406988       0.002
   0.00000000  0.05508735  0.05508735       0.002
   0.01101747  0.05508735  0.05508735       0.005
   0.02203494  0.05508735  0.05508735       0.005
   0.03305241  0.05508735  0.05508735       0.005
   0.04406988  0.05508735  0.05508735       0.005
   0.05508735  0.05508735  0.05508735       0.005
   0.06610482  0.05508735  0.05508735       0.002
   0.00000000  0.06610482  0.05508735       0.002
   0.01101747  0.06610482  0.05508735       0.005
   0.02203494  0.06610482  0.05508735       0.005
   0.03305241  0.06610482  0.05508735       0.005
   0.04406988  0.06610482  0.05508735       0.005
   0.05508735  0.06610482  0.05508735       0.005
   0.06610482  0.06610482  0.05508735       0.002
   0.00000000  0.06610482  0.06610482       0.001
   0.01101747  0.06610482  0.06610482       0.001
   0.02203494  0.06610482  0.06610482       0.001
   0.03305241  0.06610482  0.06610482       0.001
   0.04406988  0.06610482  0.06610482       0.001
   0.05508735  0.06610482  0.06610482       0.001
   0.06610482  0.06610482  0.06610482       0.001
 
 k-points in reciprocal lattice and weights: Automatic mesh                          
   0.00000000  0.00000000  0.00000000       0.001
   0.08333333  0.00000000  0.00000000       0.001
   0.16666667  0.00000000  0.00000000       0.001
   0.25000000  0.00000000  0.00000000       0.001
   0.33333333  0.00000000  0.00000000       0.001
   0.41666667  0.00000000  0.00000000       0.001
   0.50000000  0.00000000  0.00000000       0.001
   0.00000000  0.08333333  0.00000000       0.002
   0.08333333  0.08333333  0.00000000       0.005
   0.16666667  0.08333333  0.00000000       0.005
   0.25000000  0.08333333  0.00000000       0.005
   0.33333333  0.08333333  0.00000000       0.005
   0.41666667  0.08333333  0.00000000       0.005
   0.50000000  0.08333333  0.00000000       0.002
   0.00000000  0.16666667  0.00000000       0.002
   0.08333333  0.16666667  0.00000000       0.005
   0.16666667  0.16666667  0.00000000       0.005
   0.25000000  0.16666667  0.00000000       0.005
   0.33333333  0.16666667  0.00000000       0.005
   0.41666667  0.16666667  0.00000000       0.005
   0.50000000  0.16666667  0.00000000       0.002
   0.00000000  0.25000000  0.00000000       0.002
   0.08333333  0.25000000  0.00000000       0.005
   0.16666667  0.25000000  0.00000000       0.005
   0.25000000  0.25000000  0.00000000       0.005
   0.33333333  0.25000000  0.00000000       0.005
   0.41666667  0.25000000  0.00000000       0.005
   0.50000000  0.25000000  0.00000000       0.002
   0.00000000  0.33333333  0.00000000       0.002
   0.08333333  0.33333333  0.00000000       0.005
   0.16666667  0.33333333  0.00000000       0.005
   0.25000000  0.33333333  0.00000000       0.005
   0.33333333  0.33333333  0.00000000       0.005
   0.41666667  0.33333333  0.00000000       0.005
   0.50000000  0.33333333  0.00000000       0.002
   0.00000000  0.41666667  0.00000000       0.002
   0.08333333  0.41666667  0.00000000       0.005
   0.16666667  0.41666667  0.00000000       0.005
   0.25000000  0.41666667  0.00000000       0.005
   0.33333333  0.41666667  0.00000000       0.005
   0.41666667  0.41666667  0.00000000       0.005
   0.50000000  0.41666667  0.00000000       0.002
   0.00000000  0.50000000  0.00000000       0.001
   0.08333333  0.50000000  0.00000000       0.002
   0.16666667  0.50000000  0.00000000       0.002
   0.25000000  0.50000000  0.00000000       0.002
   0.33333333  0.50000000  0.00000000       0.002
   0.41666667  0.50000000  0.00000000       0.002
   0.50000000  0.50000000  0.00000000       0.001
   0.00000000  0.08333333  0.08333333       0.002
   0.08333333  0.08333333  0.08333333       0.005
   0.16666667  0.08333333  0.08333333       0.005
   0.25000000  0.08333333  0.08333333       0.005
   0.33333333  0.08333333  0.08333333       0.005
   0.41666667  0.08333333  0.08333333       0.005
   0.50000000  0.08333333  0.08333333       0.002
   0.00000000  0.16666667  0.08333333       0.005
   0.08333333  0.16666667  0.08333333       0.009
   0.16666667  0.16666667  0.08333333       0.009
   0.25000000  0.16666667  0.08333333       0.009
   0.33333333  0.16666667  0.08333333       0.009
   0.41666667  0.16666667  0.08333333       0.009
   0.50000000  0.16666667  0.08333333       0.005
   0.00000000  0.25000000  0.08333333       0.005
   0.08333333  0.25000000  0.08333333       0.009
   0.16666667  0.25000000  0.08333333       0.009
   0.25000000  0.25000000  0.08333333       0.009
   0.33333333  0.25000000  0.08333333       0.009
   0.41666667  0.25000000  0.08333333       0.009
   0.50000000  0.25000000  0.08333333       0.005
   0.00000000  0.33333333  0.08333333       0.005
   0.08333333  0.33333333  0.08333333       0.009
   0.16666667  0.33333333  0.08333333       0.009
   0.25000000  0.33333333  0.08333333       0.009
   0.33333333  0.33333333  0.08333333       0.009
   0.41666667  0.33333333  0.08333333       0.009
   0.50000000  0.33333333  0.08333333       0.005
   0.00000000  0.41666667  0.08333333       0.005
   0.08333333  0.41666667  0.08333333       0.009
   0.16666667  0.41666667  0.08333333       0.009
   0.25000000  0.41666667  0.08333333       0.009
   0.33333333  0.41666667  0.08333333       0.009
   0.41666667  0.41666667  0.08333333       0.009
   0.50000000  0.41666667  0.08333333       0.005
   0.00000000  0.50000000  0.08333333       0.002
   0.08333333  0.50000000  0.08333333       0.005
   0.16666667  0.50000000  0.08333333       0.005
   0.25000000  0.50000000  0.08333333       0.005
   0.33333333  0.50000000  0.08333333       0.005
   0.41666667  0.50000000  0.08333333       0.005
   0.50000000  0.50000000  0.08333333       0.002
   0.00000000  0.16666667  0.16666667       0.002
   0.08333333  0.16666667  0.16666667       0.005
   0.16666667  0.16666667  0.16666667       0.005
   0.25000000  0.16666667  0.16666667       0.005
   0.33333333  0.16666667  0.16666667       0.005
   0.41666667  0.16666667  0.16666667       0.005
   0.50000000  0.16666667  0.16666667       0.002
   0.00000000  0.25000000  0.16666667       0.005
   0.08333333  0.25000000  0.16666667       0.009
   0.16666667  0.25000000  0.16666667       0.009
   0.25000000  0.25000000  0.16666667       0.009
   0.33333333  0.25000000  0.16666667       0.009
   0.41666667  0.25000000  0.16666667       0.009
   0.50000000  0.25000000  0.16666667       0.005
   0.00000000  0.33333333  0.16666667       0.005
   0.08333333  0.33333333  0.16666667       0.009
   0.16666667  0.33333333  0.16666667       0.009
   0.25000000  0.33333333  0.16666667       0.009
   0.33333333  0.33333333  0.16666667       0.009
   0.41666667  0.33333333  0.16666667       0.009
   0.50000000  0.33333333  0.16666667       0.005
   0.00000000  0.41666667  0.16666667       0.005
   0.08333333  0.41666667  0.16666667       0.009
   0.16666667  0.41666667  0.16666667       0.009
   0.25000000  0.41666667  0.16666667       0.009
   0.33333333  0.41666667  0.16666667       0.009
   0.41666667  0.41666667  0.16666667       0.009
   0.50000000  0.41666667  0.16666667       0.005
   0.00000000  0.50000000  0.16666667       0.002
   0.08333333  0.50000000  0.16666667       0.005
   0.16666667  0.50000000  0.16666667       0.005
   0.25000000  0.50000000  0.16666667       0.005
   0.33333333  0.50000000  0.16666667       0.005
   0.41666667  0.50000000  0.16666667       0.005
   0.50000000  0.50000000  0.16666667       0.002
   0.00000000  0.25000000  0.25000000       0.002
   0.08333333  0.25000000  0.25000000       0.005
   0.16666667  0.25000000  0.25000000       0.005
   0.25000000  0.25000000  0.25000000       0.005
   0.33333333  0.25000000  0.25000000       0.005
   0.41666667  0.25000000  0.25000000       0.005
   0.50000000  0.25000000  0.25000000       0.002
   0.00000000  0.33333333  0.25000000       0.005
   0.08333333  0.33333333  0.25000000       0.009
   0.16666667  0.33333333  0.25000000       0.009
   0.25000000  0.33333333  0.25000000       0.009
   0.33333333  0.33333333  0.25000000       0.009
   0.41666667  0.33333333  0.25000000       0.009
   0.50000000  0.33333333  0.25000000       0.005
   0.00000000  0.41666667  0.25000000       0.005
   0.08333333  0.41666667  0.25000000       0.009
   0.16666667  0.41666667  0.25000000       0.009
   0.25000000  0.41666667  0.25000000       0.009
   0.33333333  0.41666667  0.25000000       0.009
   0.41666667  0.41666667  0.25000000       0.009
   0.50000000  0.41666667  0.25000000       0.005
   0.00000000  0.50000000  0.25000000       0.002
   0.08333333  0.50000000  0.25000000       0.005
   0.16666667  0.50000000  0.25000000       0.005
   0.25000000  0.50000000  0.25000000       0.005
   0.33333333  0.50000000  0.25000000       0.005
   0.41666667  0.50000000  0.25000000       0.005
   0.50000000  0.50000000  0.25000000       0.002
   0.00000000  0.33333333  0.33333333       0.002
   0.08333333  0.33333333  0.33333333       0.005
   0.16666667  0.33333333  0.33333333       0.005
   0.25000000  0.33333333  0.33333333       0.005
   0.33333333  0.33333333  0.33333333       0.005
   0.41666667  0.33333333  0.33333333       0.005
   0.50000000  0.33333333  0.33333333       0.002
   0.00000000  0.41666667  0.33333333       0.005
   0.08333333  0.41666667  0.33333333       0.009
   0.16666667  0.41666667  0.33333333       0.009
   0.25000000  0.41666667  0.33333333       0.009
   0.33333333  0.41666667  0.33333333       0.009
   0.41666667  0.41666667  0.33333333       0.009
   0.50000000  0.41666667  0.33333333       0.005
   0.00000000  0.50000000  0.33333333       0.002
   0.08333333  0.50000000  0.33333333       0.005
   0.16666667  0.50000000  0.33333333       0.005
   0.25000000  0.50000000  0.33333333       0.005
   0.33333333  0.50000000  0.33333333       0.005
   0.41666667  0.50000000  0.33333333       0.005
   0.50000000  0.50000000  0.33333333       0.002
   0.00000000  0.41666667  0.41666667       0.002
   0.08333333  0.41666667  0.41666667       0.005
   0.16666667  0.41666667  0.41666667       0.005
   0.25000000  0.41666667  0.41666667       0.005
   0.33333333  0.41666667  0.41666667       0.005
   0.41666667  0.41666667  0.41666667       0.005
   0.50000000  0.41666667  0.41666667       0.002
   0.00000000  0.50000000  0.41666667       0.002
   0.08333333  0.50000000  0.41666667       0.005
   0.16666667  0.50000000  0.41666667       0.005
   0.25000000  0.50000000  0.41666667       0.005
   0.33333333  0.50000000  0.41666667       0.005
   0.41666667  0.50000000  0.41666667       0.005
   0.50000000  0.50000000  0.41666667       0.002
   0.00000000  0.50000000  0.50000000       0.001
   0.08333333  0.50000000  0.50000000       0.001
   0.16666667  0.50000000  0.50000000       0.001
   0.25000000  0.50000000  0.50000000       0.001
   0.33333333  0.50000000  0.50000000       0.001
   0.41666667  0.50000000  0.50000000       0.001
   0.50000000  0.50000000  0.50000000       0.001
 
 position of ions in fractional coordinates (direct lattice) 
   0.00132210  0.00000000  0.00000000
   0.50000000  0.00000000  0.00000000
   0.00000000  0.50000000  0.00000000
   0.50000000  0.50000000  0.00000000
   0.00000000  0.00000000  0.50000000
   0.50000000  0.00000000  0.50000000
   0.00000000  0.50000000  0.50000000
   0.50000000  0.50000000  0.50000000
   0.25000000  0.25000000  0.00000000
   0.75000000  0.25000000  0.00000000
   0.25000000  0.75000000  0.00000000
   0.75000000  0.75000000  0.00000000
   0.25000000  0.25000000  0.50000000
   0.75000000  0.25000000  0.50000000
   0.25000000  0.75000000  0.50000000
   0.75000000  0.75000000  0.50000000
   0.25000000  0.00000000  0.25000000
   0.75000000  0.00000000  0.25000000
   0.25000000  0.50000000  0.25000000
   0.75000000  0.50000000  0.25000000
   0.25000000  0.00000000  0.75000000
   0.75000000  0.00000000  0.75000000
   0.25000000  0.50000000  0.75000000
   0.75000000  0.50000000  0.75000000
   0.00000000  0.25000000  0.25000000
   0.50000000  0.25000000  0.25000000
   0.00000000  0.75000000  0.25000000
   0.50000000  0.75000000  0.25000000
   0.00000000  0.25000000  0.75000000
   0.50000000  0.25000000  0.75000000
   0.00000000  0.75000000  0.75000000
   0.50000000  0.75000000  0.75000000
 
 position of ions in cartesian coordinates  (Angst):
   0.01000000  0.00000000  0.00000000
   3.78187244  0.00000000  0.00000000
   0.00000000  3.78187244  0.00000000
   3.78187244  3.78187244  0.00000000
   0.00000000  0.00000000  3.78187244
   3.78187244  0.00000000  3.78187244
   0.00000000  3.78187244  3.78187244
   3.78187244  3.78187244  3.78187244
   1.89093622  1.89093622  0.00000000
   5.67280867  1.89093622  0.00000000
   1.89093622  5.67280867  0.00000000
   5.67280867  5.67280867  0.00000000
   1.89093622  1.89093622  3.78187244
   5.67280867  1.89093622  3.78187244
   1.89093622  5.67280867  3.78187244
   5.67280867  5.67280867  3.78187244
   1.89093622  0.00000000  1.89093622
   5.67280867  0.00000000  1.89093622
   1.89093622  3.78187244  1.89093622
   5.67280867  3.78187244  1.89093622
   1.89093622  0.00000000  5.67280867
   5.67280867  0.00000000  5.67280867
   1.89093622  3.78187244  5.67280867
   5.67280867  3.78187244  5.67280867
   0.00000000  1.89093622  1.89093622
   3.78187244  1.89093622  1.89093622
   0.00000000  5.67280867  1.89093622
   3.78187244  5.67280867  1.89093622
   0.00000000  1.89093622  5.67280867
   3.78187244  1.89093622  5.67280867
   0.00000000  5.67280867  5.67280867
   3.78187244  5.67280867  5.67280867
 


--------------------------------------------------------------------------------------------------------


 k-point  1 :  0.00000.00000.0000  plane waves:  20197
 k-point  2 :  0.08330.00000.0000  plane waves:  20157
 k-point  3 :  0.16670.00000.0000  plane waves:  20158
 k-point  4 :  0.25000.00000.0000  plane waves:  20162
 k-point  5 :  0.33330.00000.0000  plane waves:  20154
 k-point  6 :  0.41670.00000.0000  plane waves:  20174
 k-point  7 :  0.50000.00000.0000  plane waves:  20234
 k-point  8 :  0.00000.08330.0000  plane waves:  20157
 k-point  9 :  0.08330.08330.0000  plane waves:  20148
 k-point 10 :  0.16670.08330.0000  plane waves:  20144
 k-point 11 :  0.25000.08330.0000  plane waves:  20171
 k-point 12 :  0.33330.08330.0000  plane waves:  20144
 k-point 13 :  0.41670.08330.0000  plane waves:  20175
 k-point 14 :  0.50000.08330.0000  plane waves:  20198
 k-point 15 :  0.00000.16670.0000  plane waves:  20158
 k-point 16 :  0.08330.16670.0000  plane waves:  20144
 k-point 17 :  0.16670.16670.0000  plane waves:  20136
 k-point 18 :  0.25000.16670.0000  plane waves:  20178
 k-point 19 :  0.33330.16670.0000  plane waves:  20186
 k-point 20 :  0.41670.16670.0000  plane waves:  20179
 k-point 21 :  0.50000.16670.0000  plane waves:  20168
 k-point 22 :  0.00000.25000.0000  plane waves:  20162
 k-point 23 :  0.08330.25000.0000  plane waves:  20171
 k-point 24 :  0.16670.25000.0000  plane waves:  20178
 k-point 25 :  0.25000.25000.0000  plane waves:  20220
 k-point 26 :  0.33330.25000.0000  plane waves:  20193
 k-point 27 :  0.41670.25000.0000  plane waves:  20210
 k-point 28 :  0.50000.25000.0000  plane waves:  20168
 k-point 29 :  0.00000.33330.0000  plane waves:  20154
 k-point 30 :  0.08330.33330.0000  plane waves:  20144
 k-point 31 :  0.16670.33330.0000  plane waves:  20186
 k-point 32 :  0.25000.33330.0000  plane waves:  20193
 k-point 33 :  0.33330.33330.0000  plane waves:  20208
 k-point 34 :  0.41670.33330.0000  plane waves:  20178
 k-point 35 :  0.50000.33330.0000  plane waves:  20186
 k-point 36 :  0.00000.41670.0000  plane waves:  20174
 k-point 37 :  0.08330.41670.0000  plane waves:  20175
 k-point 38 :  0.16670.41670.0000  plane waves:  20179
 k-point 39 :  0.25000.41670.0000  plane waves:  20210
 k-point 40 :  0.33330.41670.0000  plane waves:  20178
 k-point 41 :  0.41670.41670.0000  plane waves:  20182
 k-point 42 :  0.50000.41670.0000  plane waves:  20198
 k-point 43 :  0.00000.50000.0000  plane waves:  20234
 k-point 44 :  0.08330.50000.0000  plane waves:  20198
 k-point 45 :  0.16670.50000.0000  plane waves:  20168
 k-point 46 :  0.25000.50000.0000  plane waves:  20168
 k-point 47 :  0.33330.50000.0000  plane waves:  20186
 k-point 48 :  0.41670.50000.0000  plane waves:  20198
 k-point 49 :  0.50000.50000.0000  plane waves:  20160
 k-point 50 :  0.00000.08330.0833  plane waves:  20148
 k-point 51 :  0.08330.08330.0833  plane waves:  20143
 k-point 52 :  0.16670.08330.0833  plane waves:  20142
 k-point 53 :  0.25000.08330.0833  plane waves:  20169
 k-point 54 :  0.33330.08330.0833  plane waves:  20162
 k-point 55 :  0.41670.08330.0833  plane waves:  20166
 k-point 56 :  0.50000.08330.0833  plane waves:  20204
 k-point 57 :  0.00000.16670.0833  plane waves:  20144
 k-point 58 :  0.08330.16670.0833  plane waves:  20142
 k-point 59 :  0.16670.16670.0833  plane waves:  20158
 k-point 60 :  0.25000.16670.0833  plane waves:  20186
 k-point 61 :  0.33330.16670.0833  plane waves:  20171
 k-point 62 :  0.41670.16670.0833  plane waves:  20182
 k-point 63 :  0.50000.16670.0833  plane waves:  20168
 k-point 64 :  0.00000.25000.0833  plane waves:  20171
 k-point 65 :  0.08330.25000.0833  plane waves:  20169
 k-point 66 :  0.16670.25000.0833  plane waves:  20186
 k-point 67 :  0.25000.25000.0833  plane waves:  20167
 k-point 68 :  0.33330.25000.0833  plane waves:  20178
 k-point 69 :  0.41670.25000.0833  plane waves:  20200
 k-point 70 :  0.50000.25000.0833  plane waves:  20190
 k-point 71 :  0.00000.33330.0833  plane waves:  20144
 k-point 72 :  0.08330.33330.0833  plane waves:  20162
 k-point 73 :  0.16670.33330.0833  plane waves:  20171
 k-point 74 :  0.25000.33330.0833  plane waves:  20178
 k-point 75 :  0.33330.33330.0833  plane waves:  20206
 k-point 76 :  0.41670.33330.0833  plane waves:  20188
 k-point 77 :  0.50000.33330.0833  plane waves:  20188
 k-point 78 :  0.00000.41670.0833  plane waves:  20175
 k-point 79 :  0.08330.41670.0833  plane waves:  20166
 k-point 80 :  0.16670.41670.0833  plane waves:  20182
 k-point 81 :  0.25000.41670.0833  plane waves:  20200
 k-point 82 :  0.33330.41670.0833  plane waves:  20188
 k-point 83 :  0.41670.41670.0833  plane waves:  20200
 k-point 84 :  0.50000.41670.0833  plane waves:  20202
 k-point 85 :  0.00000.50000.0833  plane waves:  20198
 k-point 86 :  0.08330.50000.0833  plane waves:  20204
 k-point 87 :  0.16670.50000.0833  plane waves:  20168
 k-point 88 :  0.25000.50000.0833  plane waves:  20190
 k-point 89 :  0.33330.50000.0833  plane waves:  20188
 k-point 90 :  0.41670.50000.0833  plane waves:  20202
 k-point 91 :  0.50000.50000.0833  plane waves:  20184
 k-point 92 :  0.00000.16670.1667  plane waves:  20136
 k-point 93 :  0.08330.16670.1667  plane waves:  20158
 k-point 94 :  0.16670.16670.1667  plane waves:  20137
 k-point 95 :  0.25000.16670.1667  plane waves:  20155
 k-point 96 :  0.33330.16670.1667  plane waves:  20203
 k-point 97 :  0.41670.16670.1667  plane waves:  20199
 k-point 98 :  0.50000.16670.1667  plane waves:  20206
 k-point 99 :  0.00000.25000.1667  plane waves:  20178
 k-point ** :  0.08330.25000.1667  plane waves:  20186
 k-point ** :  0.16670.25000.1667  plane waves:  20155
 k-point ** :  0.25000.25000.1667  plane waves:  20154
 k-point ** :  0.33330.25000.1667  plane waves:  20185
 k-point ** :  0.41670.25000.1667  plane waves:  20207
 k-point ** :  0.50000.25000.1667  plane waves:  20182
 k-point ** :  0.00000.33330.1667  plane waves:  20186
 k-point ** :  0.08330.33330.1667  plane waves:  20171
 k-point ** :  0.16670.33330.1667  plane waves:  20203
 k-point ** :  0.25000.33330.1667  plane waves:  20185
 k-point ** :  0.33330.33330.1667  plane waves:  20213
 k-point ** :  0.41670.33330.1667  plane waves:  20193
 k-point ** :  0.50000.33330.1667  plane waves:  20172
 k-point ** :  0.00000.41670.1667  plane waves:  20179
 k-point ** :  0.08330.41670.1667  plane waves:  20182
 k-point ** :  0.16670.41670.1667  plane waves:  20199
 k-point ** :  0.25000.41670.1667  plane waves:  20207
 k-point ** :  0.33330.41670.1667  plane waves:  20193
 k-point ** :  0.41670.41670.1667  plane waves:  20199
 k-point ** :  0.50000.41670.1667  plane waves:  20174
 k-point ** :  0.00000.50000.1667  plane waves:  20168
 k-point ** :  0.08330.50000.1667  plane waves:  20168
 k-point ** :  0.16670.50000.1667  plane waves:  20206
 k-point ** :  0.25000.50000.1667  plane waves:  20182
 k-point ** :  0.33330.50000.1667  plane waves:  20172
 k-point ** :  0.41670.50000.1667  plane waves:  20174
 k-point ** :  0.50000.50000.1667  plane waves:  20216
 k-point ** :  0.00000.25000.2500  plane waves:  20220
 k-point ** :  0.08330.25000.2500  plane waves:  20167
 k-point ** :  0.16670.25000.2500  plane waves:  20154
 k-point ** :  0.25000.25000.2500  plane waves:  20186
 k-point ** :  0.33330.25000.2500  plane waves:  20199
 k-point ** :  0.41670.25000.2500  plane waves:  20190
 k-point ** :  0.50000.25000.2500  plane waves:  20162
 k-point ** :  0.00000.33330.2500  plane waves:  20193
 k-point ** :  0.08330.33330.2500  plane waves:  20178
 k-point ** :  0.16670.33330.2500  plane waves:  20185
 k-point ** :  0.25000.33330.2500  plane waves:  20199
 k-point ** :  0.33330.33330.2500  plane waves:  20175
 k-point ** :  0.41670.33330.2500  plane waves:  20187
 k-point ** :  0.50000.33330.2500  plane waves:  20200
 k-point ** :  0.00000.41670.2500  plane waves:  20210
 k-point ** :  0.08330.41670.2500  plane waves:  20200
 k-point ** :  0.16670.41670.2500  plane waves:  20207
 k-point ** :  0.25000.41670.2500  plane waves:  20190
 k-point ** :  0.33330.41670.2500  plane waves:  20187
 k-point ** :  0.41670.41670.2500  plane waves:  20196
 k-point ** :  0.50000.41670.2500  plane waves:  20182
 k-point ** :  0.00000.50000.2500  plane waves:  20168
 k-point ** :  0.08330.50000.2500  plane waves:  20190
 k-point ** :  0.16670.50000.2500  plane waves:  20182
 k-point ** :  0.25000.50000.2500  plane waves:  20162
 k-point ** :  0.33330.50000.2500  plane waves:  20200
 k-point ** :  0.41670.50000.2500  plane waves:  20182
 k-point ** :  0.50000.50000.2500  plane waves:  20196
 k-point ** :  0.00000.33330.3333  plane waves:  20208
 k-point ** :  0.08330.33330.3333  plane waves:  20206
 k-point ** :  0.16670.33330.3333  plane waves:  20213
 k-point ** :  0.25000.33330.3333  plane waves:  20175
 k-point ** :  0.33330.33330.3333  plane waves:  20162
 k-point ** :  0.41670.33330.3333  plane waves:  20185
 k-point ** :  0.50000.33330.3333  plane waves:  20186
 k-point ** :  0.00000.41670.3333  plane waves:  20178
 k-point ** :  0.08330.41670.3333  plane waves:  20188
 k-point ** :  0.16670.41670.3333  plane waves:  20193
 k-point ** :  0.25000.41670.3333  plane waves:  20187
 k-point ** :  0.33330.41670.3333  plane waves:  20185
 k-point ** :  0.41670.41670.3333  plane waves:  20186
 k-point ** :  0.50000.41670.3333  plane waves:  20200
 k-point ** :  0.00000.50000.3333  plane waves:  20186
 k-point ** :  0.08330.50000.3333  plane waves:  20188
 k-point ** :  0.16670.50000.3333  plane waves:  20172
 k-point ** :  0.25000.50000.3333  plane waves:  20200
 k-point ** :  0.33330.50000.3333  plane waves:  20186
 k-point ** :  0.41670.50000.3333  plane waves:  20200
 k-point ** :  0.50000.50000.3333  plane waves:  20172
 k-point ** :  0.00000.41670.4167  plane waves:  20182
 k-point ** :  0.08330.41670.4167  plane waves:  20200
 k-point ** :  0.16670.41670.4167  plane waves:  20199
 k-point ** :  0.25000.41670.4167  plane waves:  20196
 k-point ** :  0.33330.41670.4167  plane waves:  20186
 k-point ** :  0.41670.41670.4167  plane waves:  20186
 k-point ** :  0.50000.41670.4167  plane waves:  20196
 k-point ** :  0.00000.50000.4167  plane waves:  20198
 k-point ** :  0.08330.50000.4167  plane waves:  20202
 k-point ** :  0.16670.50000.4167  plane waves:  20174
 k-point ** :  0.25000.50000.4167  plane waves:  20182
 k-point ** :  0.33330.50000.4167  plane waves:  20200
 k-point ** :  0.41670.50000.4167  plane waves:  20196
 k-point ** :  0.50000.50000.4167  plane waves:  20192
 k-point ** :  0.00000.50000.5000  plane waves:  20160
 k-point ** :  0.08330.50000.5000  plane waves:  20184
 k-point ** :  0.16670.50000.5000  plane waves:  20216
 k-point ** :  0.25000.50000.5000  plane waves:  20196
 k-point ** :  0.33330.50000.5000  plane waves:  20172
 k-point ** :  0.41670.50000.5000  plane waves:  20192
 k-point ** :  0.50000.50000.5000  plane waves:  20336

 maximum and minimum number of plane-waves per node :  20336 20136

 maximum number of plane-waves:  20336
 maximal index in each direction: 
   IXMAX= 16   IYMAX= 16   IZMAX= 16
   IXMIN=-17   IYMIN=-17   IZMIN=-17

 NGX is ok and might be reduce to  68
 NGY is ok and might be reduce to  68
 NGZ is ok and might be reduce to  68

 parallel 3dFFT wavefunction:
    minimum data exchange during FFTs selected (reduces bandwidth)
 parallel 3dFFT charge:
    minimum data exchange during FFTs selected (reduces bandwidth)

 For storing wavefunctions ******* MBYTES are necessary
 For predicting wavefunctions  148.76 MBYTES are necessary
Broyden mixing: mesh for mixing (old mesh)
   NGX = 33   NGY = 33   NGZ = 33
  (NGX  =140   NGY  =140   NGZ  =140)
 gives a total of  35937 points
 initial charge density was supplied:
 charge density of overlapping atoms calculated
 number of electron  352.0000000 magnetization 
 keeping initial charge density in first step


--------------------------------------------------------------------------------------------------------


 Maximum index for augmentation-charges        27157 (set IRDMAX)


--------------------------------------------------------------------------------------------------------


 First call to EWALD:  gamma=   0.234
 Maximum number of real-space cells 3x 3x 3
 Maximum number of reciprocal cells 3x 3x 3

    FEWALD:  VPU time    0.00: CPU time    0.00


----------------------------------------- Iteration    1(   1)  ---------------------------------------


    POTLOK:  VPU time    1.70: CPU time    4.33
    SETDIJ:  VPU time    0.69: CPU time    1.71
    EDDAV :  VPU time  742.15: CPU time  745.72
    DOS   :  VPU time    0.00: CPU time   -0.00
    ------------------------------------------
      LOOP:  VPU time  744.66: CPU time  752.14

 eigenvalue-minimisations  : 84672
 total energy-change (2. order) : 0.3794055E+04  (-0.1885053E+05)
 number of electron  352.0000000 magnetization 
 augmentation part   352.0000000 magnetization 

 Free energy of the ion-electron system (eV)
  ---------------------------------------------------
  alpha Z        PSCENC =      3023.38010415
  Ewald energy   TEWEN  =    -33797.18586038
  -1/2 Hartree   DENC   =    -11279.23417337
  -V(xc)+E(xc)   XCENC  =      1393.53931368
  PAW double counting   =     34625.67335558   -39234.46421604
  entropy T*S    EENTRO =        -0.00028760
  eigenvalues    EBANDS =      4551.00614743
  atomic energy  EATOM  =     44511.34040493
  ---------------------------------------------------
  free energy    TOTEN  =      3794.05478839 eV

  energy without entropy =     3794.05507599  energy(sigma->0) =     3794.05493219


--------------------------------------------------------------------------------------------------------




----------------------------------------- Iteration    1(   2)  ---------------------------------------


    EDDAV :  VPU time  750.52: CPU time  750.28
    DOS   :  VPU time    0.00: CPU time   -0.00
    ------------------------------------------
      LOOP:  VPU time  750.64: CPU time  750.40

 eigenvalue-minimisations  : 84672
 total energy-change (2. order) :-0.3381261E+04  (-0.3252506E+04)
 number of electron  352.0000000 magnetization 
 augmentation part   352.0000000 magnetization 

 Free energy of the ion-electron system (eV)
  ---------------------------------------------------
  alpha Z        PSCENC =      3023.38010415
  Ewald energy   TEWEN  =    -33797.18586038
  -1/2 Hartree   DENC   =    -11279.23417337
  -V(xc)+E(xc)   XCENC  =      1393.53931368
  PAW double counting   =     34625.67335558   -39234.46421604
  entropy T*S    EENTRO =        -0.00030909
  eigenvalues    EBANDS =      1169.74496730
  atomic energy  EATOM  =     44511.34040493
  ---------------------------------------------------
  free energy    TOTEN  =       412.79358677 eV

  energy without entropy =      412.79389586  energy(sigma->0) =      412.79374132


--------------------------------------------------------------------------------------------------------




----------------------------------------- Iteration    1(   3)  ---------------------------------------


    EDDAV :  VPU time  753.79: CPU time  753.54
    DOS   :  VPU time    0.00: CPU time   -0.00
    ------------------------------------------
      LOOP:  VPU time  753.91: CPU time  753.66

 eigenvalue-minimisations  : 84672
 total energy-change (2. order) :-0.5217249E+03  (-0.4759122E+03)
 number of electron  352.0000000 magnetization 
 augmentation part   352.0000000 magnetization 

 Free energy of the ion-electron system (eV)
  ---------------------------------------------------
  alpha Z        PSCENC =      3023.38010415
  Ewald energy   TEWEN  =    -33797.18586038
  -1/2 Hartree   DENC   =    -11279.23417337
  -V(xc)+E(xc)   XCENC  =      1393.53931368
  PAW double counting   =     34625.67335558   -39234.46421604
  entropy T*S    EENTRO =        -0.00084753
  eigenvalues    EBANDS =       648.02065138
  atomic energy  EATOM  =     44511.34040493
  ---------------------------------------------------
  free energy    TOTEN  =      -108.93126759 eV

  energy without entropy =     -108.93042006  energy(sigma->0) =     -108.93084382


--------------------------------------------------------------------------------------------------------




----------------------------------------- Iteration    1(   4)  ---------------------------------------


    EDDAV :  VPU time  788.80: CPU time  788.54
    DOS   :  VPU time    0.00: CPU time   -0.00
    ------------------------------------------
      LOOP:  VPU time  788.92: CPU time  788.66

 eigenvalue-minimisations  : 89264
 total energy-change (2. order) :-0.3359112E+02  (-0.3243171E+02)
 number of electron  352.0000000 magnetization 
 augmentation part   352.0000000 magnetization 

 Free energy of the ion-electron system (eV)
  ---------------------------------------------------
  alpha Z        PSCENC =      3023.38010415
  Ewald energy   TEWEN  =    -33797.18586038
  -1/2 Hartree   DENC   =    -11279.23417337
  -V(xc)+E(xc)   XCENC  =      1393.53931368
  PAW double counting   =     34625.67335558   -39234.46421604
  entropy T*S    EENTRO =        -0.00093443
  eigenvalues    EBANDS =       614.42962036
  atomic energy  EATOM  =     44511.34040493
  ---------------------------------------------------
  free energy    TOTEN  =      -142.52238550 eV

  energy without entropy =     -142.52145108  energy(sigma->0) =     -142.52191829


--------------------------------------------------------------------------------------------------------




----------------------------------------- Iteration    1(   5)  ---------------------------------------


    EDDAV :  VPU time  936.04: CPU time  935.71
    DOS   :  VPU time    0.00: CPU time   -0.00
    CHARGE:  VPU time   77.02: CPU time   76.98
    MIXING:  VPU time    0.06: CPU time    0.06
    ------------------------------------------
      LOOP:  VPU time 1013.24: CPU time 1012.88

 eigenvalue-minimisations  : 90440
 total energy-change (2. order) :-0.3735187E+00  (-0.3722641E+00)
 number of electron  352.0000018 magnetization 
 augmentation part   214.8939464 magnetization 

 Broyden mixing:
  rms(total) = 0.38260E+01    rms(broyden)= 0.38260E+01
  rms(prec ) = 0.56054E+01
  weight for this iteration     100.00

 Free energy of the ion-electron system (eV)
  ---------------------------------------------------
  alpha Z        PSCENC =      3023.38010415
  Ewald energy   TEWEN  =    -33797.18586038
  -1/2 Hartree   DENC   =    -11279.23417337
  -V(xc)+E(xc)   XCENC  =      1393.53931368
  PAW double counting   =     34625.67335558   -39234.46421604
  entropy T*S    EENTRO =        -0.00090866
  eigenvalues    EBANDS =       614.05607594
  atomic energy  EATOM  =     44511.34040493
  ---------------------------------------------------
  free energy    TOTEN  =      -142.89590416 eV

  energy without entropy =     -142.89499550  energy(sigma->0) =     -142.89544983


--------------------------------------------------------------------------------------------------------




----------------------------------------- Iteration    1(   6)  ---------------------------------------


    POTLOK:  VPU time    0.32: CPU time    0.32
    SETDIJ:  VPU time    0.57: CPU time    0.57
    EDDAV :  VPU time 1007.71: CPU time 1007.57
    DOS   :  VPU time    0.00: CPU time   -0.00
    CHARGE:  VPU time   86.53: CPU time   86.51
    MIXING:  VPU time    0.08: CPU time    0.08
    ------------------------------------------
      LOOP:  VPU time 1095.34: CPU time 1095.18

 eigenvalue-minimisations  : 91296
 total energy-change (2. order) : 0.1317459E+02  (-0.2865396E+02)
 number of electron  352.0000020 magnetization 
 augmentation part   240.7596221 magnetization 

 Broyden mixing:
  rms(total) = 0.20909E+01    rms(broyden)= 0.20909E+01
  rms(prec ) = 0.28855E+01
  weight for this iteration     100.00

 eigenvalues of (default mixing * dielectric matrix)
  average eigenvalue GAMMA=   0.6473
  0.6473

 Free energy of the ion-electron system (eV)
  ---------------------------------------------------
  alpha Z        PSCENC =      3023.38010415
  Ewald energy   TEWEN  =    -33797.18586038
  -1/2 Hartree   DENC   =    -10464.88940208
  -V(xc)+E(xc)   XCENC  =      1352.92321551
  PAW double counting   =     33577.21355162   -37917.68979604
  entropy T*S    EENTRO =        -0.00034440
  eigenvalues    EBANDS =      -414.81318649
  atomic energy  EATOM  =     44511.34040493
  ---------------------------------------------------
  free energy    TOTEN  =      -129.72131317 eV

  energy without entropy =     -129.72096877  energy(sigma->0) =     -129.72114097


--------------------------------------------------------------------------------------------------------




----------------------------------------- Iteration    1(   7)  ---------------------------------------


    POTLOK:  VPU time    0.35: CPU time    0.35
    SETDIJ:  VPU time    0.76: CPU time    0.76
    EDDAV :  VPU time  928.05: CPU time  928.85
    DOS   :  VPU time   -0.00: CPU time   -0.10
    CHARGE:  VPU time   37.31: CPU time   38.68
    MIXING:  VPU time    0.03: CPU time    0.53
    ------------------------------------------
      LOOP:  VPU time  966.65: CPU time  969.41

 eigenvalue-minimisations  : 94960
 total energy-change (2. order) : 0.1253055E+02  (-0.5501794E+01)
 number of electron  352.0000019 magnetization 
 augmentation part   230.9849743 magnetization 

 Broyden mixing:
  rms(total) = 0.22123E+00    rms(broyden)= 0.22123E+00
  rms(prec ) = 0.33130E+00
  weight for this iteration     100.00

 eigenvalues of (default mixing * dielectric matrix)
  average eigenvalue GAMMA=   1.2538
  1.8746  0.6331

 Free energy of the ion-electron system (eV)
  ---------------------------------------------------
  alpha Z        PSCENC =      3023.38010415
  Ewald energy   TEWEN  =    -33797.18586038
  -1/2 Hartree   DENC   =    -10720.83283386
  -V(xc)+E(xc)   XCENC  =      1366.26055411
  PAW double counting   =     34219.32071633   -38752.73924083
  entropy T*S    EENTRO =        -0.00105960
  eigenvalues    EBANDS =        33.26644874
  atomic energy  EATOM  =     44511.34040493
[...]
     72       0.0806      2.00000
     73       0.0807      2.00000
     74       0.0807      2.00000
     75       0.0807      2.00000
     76       0.0807      2.00000
     77       0.0808      2.00000
     78       0.0808      2.00000
     79       0.0808      2.00000
     80       0.0808      2.00000
     81       0.0809      2.00000
     82       0.0809      2.00000
     83       0.0809      2.00000
     84       0.0816      2.00000
     85       0.0823      2.00000
     86       0.0825      2.00000
     87       0.0831      2.00000
     88       0.0831      2.00000
     89       0.1722      2.00000
     90       0.1722      2.00000
     91       0.1725      2.00000
     92       0.1727      2.00000
     93       0.1730      2.00000
     94       0.1730      2.00000
     95       0.1731      2.00000
     96       0.1731      2.00000
     97       0.1733      2.00000
     98       0.1733      2.00000
     99       0.1734      2.00000
    100       0.1734      2.00000
    101       0.1737      2.00000
    102       0.1738      2.00000
    103       0.1741      2.00000
    104       0.1741      2.00000
    105       0.5663      2.00000
    106       0.5670      2.00000
    107       0.5670      2.00000
    108       0.5683      2.00000
    109       0.5684      2.00000
    110       0.5684      2.00000
    111       0.5684      2.00000
    112       0.5686      2.00000
    113       0.5687      2.00000
    114       0.5687      2.00000
    115       0.5687      2.00000
    116       0.5687      2.00000
    117       0.5688      2.00000
    118       0.5688      2.00000
    119       0.5688      2.00000
    120       0.5689      2.00000
    121       0.5689      2.00000
    122       0.5691      2.00000
    123       0.5691      2.00000
    124       0.5691      2.00000
    125       0.5692      2.00000
    126       0.5705      2.00000
    127       0.5705      2.00000
    128       0.5712      2.00000
    129       0.7808      2.00000
    130       0.7818      2.00000
    131       0.7818      2.00000
    132       0.7818      2.00000
    133       0.7822      2.00000
    134       0.7822      2.00000
    135       0.7824      2.00000
    136       0.7824      2.00000
    137       0.7826      2.00000
    138       0.7826      2.00000
    139       0.7828      2.00000
    140       0.7828      2.00000
    141       0.7833      2.00000
    142       0.7833      2.00000
    143       0.7833      2.00000
    144       0.7843      2.00000
    145       1.2040      2.00000
    146       1.2040      2.00000
    147       1.2041      2.00000
    148       1.2041      2.00000
    149       1.2042      2.00000
    150       1.2042      2.00000
    151       1.2042      2.00000
    152       1.2042      2.00000
    153       1.2043      2.00000
    154       1.2043      2.00000
    155       1.2043      2.00000
    156       1.2044      2.00000
    157       1.2045      2.00000
    158       1.2045      2.00000
    159       1.2045      2.00000
    160       1.2046      2.00000
    161       1.2046      2.00000
    162       1.2047      2.00000
    163       1.2047      2.00000
    164       1.2047      2.00000
    165       1.2047      2.00000
    166       1.2048      2.00000
    167       1.2049      2.00000
    168       1.2049      2.00000
    169       3.5316      0.00000
    170       3.5337      0.00000
    171       3.5337      0.00000
    172       3.5362      0.00000
    173       3.5366      0.00000
    174       3.5367      0.00000
    175       3.5367      0.00000
    176       3.5368      0.00000
    177       3.5368      0.00000
    178       3.5368      0.00000
    179       3.5369      0.00000
    180       3.5369      0.00000
    181       3.5370      0.00000
    182       3.5370      0.00000
    183       3.5371      0.00000
    184       3.5371      0.00000
    185       3.5371      0.00000
    186       3.5372      0.00000
    187       3.5372      0.00000
    188       3.5373      0.00000
    189       3.5377      0.00000
    190       3.5402      0.00000
    191       3.5402      0.00000
    192       3.5423      0.00000
    193       8.7669      0.00000
    194       8.7669      0.00000
    195       8.7691      0.00000
    196       8.7721      0.00000
    197       8.7722      0.00000
    198       8.7723      0.00000
    199       8.7723      0.00000
    200       8.7727      0.00000
    201       8.7727      0.00000
    202       8.7727      0.00000
    203       8.7727      0.00000
    204       8.7728      0.00000
    205       8.7728      0.00000
    206       8.7729      0.00000
    207       8.7729      0.00000
    208       8.7729      0.00000
    209       8.7729      0.00000
    210       8.7733      0.00000
    211       8.7733      0.00000
    212       8.7734      0.00000
    213       8.7735      0.00000
    214       8.7765      0.00000
    215       8.7787      0.00000
    216       8.7787      0.00000


--------------------------------------------------------------------------------------------------------


 soft charge-density along one line, spin component           1
         0         1         2         3         4         5         6         7         8         9
 total charge-density along one line
 
 pseudopotential strength for first ion, spin component:           1
 -7.008   0.000  -0.000   0.000   0.000   0.000  -0.000   0.000
  0.000  -7.008  -0.000   0.000  -0.000  -0.000   0.000   0.000
 -0.000  -0.000  -6.992  -0.000  -0.000   0.000   0.000  -0.007
  0.000   0.000  -0.000  -7.008   0.000  -0.000  -0.000   0.000
  0.000  -0.000  -0.000   0.000  -6.992  -0.000   0.000   0.000
  0.000  -0.000   0.000  -0.000  -0.000   1.568   0.000  -0.000
 -0.000   0.000   0.000  -0.000   0.000   0.000   1.568  -0.000
  0.000   0.000  -0.007   0.000   0.000  -0.000  -0.000   1.571
 -0.000  -0.000   0.000   0.000  -0.000   0.000   0.000  -0.000
 -0.000   0.000   0.000  -0.000  -0.007   0.000  -0.000  -0.000
 -0.000  -0.000   0.000  -0.000  -0.000  -0.000  -0.000  -0.000
  0.000   0.000  -0.000   0.000   0.000  -0.000  -0.000   0.000
 -0.000  -0.000   0.000  -0.000   0.000   0.000   0.000   0.000
 -0.000  -0.000  -0.000  -0.000  -0.000  -0.000   0.000   0.000
 -0.000  -0.000   0.000  -0.000  -0.000  -0.000  -0.000  -0.000
  0.000   0.000  -0.000   0.000   0.000  -0.000  -0.000   0.000
  0.000   0.000  -0.000   0.000   0.000  -0.000  -0.000   0.000
  0.000   0.000  -0.000   0.000   0.000  -0.000  -0.000   0.000
 total augmentation occupancy for first ion, spin component:           1
  1.896  -0.000  -0.003  -0.000  -0.001  -0.033  -0.000   0.001   0.000   0.000   0.006   0.000   0.001   0.000  -0.000  -0.000
 -0.000   1.899  -0.001  -0.001  -0.003  -0.000  -0.036   0.001   0.000   0.001   0.004  -0.000   0.000   0.000  -0.000  -0.000
 -0.003  -0.001   1.916  -0.000  -0.003   0.001   0.001  -0.073   0.001   0.002   0.014   0.002   0.000  -0.000  -0.000  -0.000
 -0.000  -0.001  -0.000   1.902   0.001   0.000   0.000   0.001  -0.040   0.000   0.003  -0.000   0.000   0.001  -0.000  -0.000
 -0.001  -0.003  -0.003   0.001   1.905   0.000   0.001   0.002   0.000  -0.066   0.008   0.001   0.000   0.000   0.000   0.000
 -0.033  -0.000   0.001   0.000   0.000   0.054   0.000   0.001  -0.000  -0.000  -0.001   0.000   0.001  -0.000   0.000  -0.000
 -0.000  -0.036   0.001   0.000   0.001   0.000   0.056  -0.001  -0.000   0.000  -0.000   0.001   0.000  -0.000   0.000   0.000
  0.001   0.001  -0.073   0.001   0.002   0.001  -0.001   0.054  -0.001  -0.001  -0.007   0.000   0.000   0.000  -0.000   0.000
  0.000   0.000   0.001  -0.040   0.000  -0.000  -0.000  -0.001   0.059  -0.001   0.001   0.001  -0.000   0.001   0.000   0.000
  0.000   0.001   0.002   0.000  -0.066  -0.000   0.000  -0.001  -0.001   0.052  -0.004   0.000  -0.000  -0.000   0.000   0.000
  0.006   0.004   0.014   0.003   0.008  -0.001  -0.000  -0.007   0.001  -0.004   1.115  -0.294   0.000  -0.000   0.003   0.000
  0.000  -0.000   0.002  -0.000   0.001   0.000   0.001   0.000   0.001   0.000  -0.294   0.114   0.000  -0.000  -0.001  -0.000
  0.001   0.000   0.000   0.000   0.000   0.001   0.000   0.000  -0.000  -0.000   0.000   0.000   0.149  -0.000   0.001  -0.010
  0.000   0.000  -0.000   0.001   0.000  -0.000  -0.000   0.000   0.001  -0.000  -0.000  -0.000  -0.000   0.152  -0.002  -0.000
 -0.000  -0.000  -0.000  -0.000   0.000   0.000   0.000  -0.000   0.000   0.000   0.003  -0.001   0.001  -0.002   0.151  -0.000
 -0.000  -0.000  -0.000  -0.000   0.000  -0.000   0.000   0.000   0.000   0.000   0.000  -0.000  -0.010  -0.000  -0.000   0.001
 -0.000  -0.000  -0.000  -0.000   0.000   0.000   0.000  -0.000  -0.000   0.000   0.000   0.000  -0.000  -0.010  -0.000   0.000
  0.000  -0.000   0.000   0.000  -0.000  -0.000  -0.000   0.000  -0.000  -0.000  -0.000   0.000  -0.000  -0.000  -0.010   0.000


------------------------ aborting loop because EDIFF is reached ----------------------------------------




--------------------------------------------------------------------------------------------------------


    CHARGE:  VPU time   30.31: CPU time   30.85
    FORLOC:  VPU time    0.07: CPU time    0.10
    FORNL :  VPU time  318.33: CPU time  318.18
    STRESS:  VPU time  680.28: CPU time  680.02
    FORCOR:  VPU time    0.32: CPU time    0.32
    FORHAR:  VPU time    0.10: CPU time    0.10
    MIXING:  VPU time    0.03: CPU time    0.64


--------------------------------------------------------------------------------------------------------



  FREE ENERGIE OF THE ION-ELECTRON SYSTEM (eV)
  ---------------------------------------------------
  free  energy   TOTEN  =      -116.969137 eV

  energy  without entropy=     -116.968092  energy(sigma->0) =     -116.968615
 

  FORCE on cell =-STRESS in cart. coord.  units (eV/reduce length):
  Direction    X        Y        Z        XY       YZ       ZX
  --------------------------------------------------------------------------------------
  Alpha Z   3023.38   3023.38   3023.38
  Ewald   -11265.81 -11265.76 -11265.76     -0.00     -0.00     -0.00
  Hartree   3537.29   3537.32   3537.32     -0.00     -0.00     -0.00
  E(xc)    -1997.88  -1997.88  -1997.88     -0.00     -0.00     -0.00
  Local     3583.74   3583.66   3583.66     -0.00     -0.00     -0.00
  n-local  -1207.59  -1211.03  -1204.14      1.47      0.84      0.22
  augment   1802.87   1802.87   1802.87     -0.00     -0.00     -0.00
  Kinetic   2491.71   2487.96   2495.45      0.47     -0.97     -2.41
  -------------------------------------------------------------------------------------
  Total      -32.29    -32.29    -32.29      0.00      0.00      0.00
  in kB     -119.55   -119.55   -119.55      0.00      0.00      0.00
  external pressure =     -119.55 kB  Pullay stress =        0.00 kB


 VOLUME and BASIS-vectors are now :
 -----------------------------------------------------------------------------
  energy-cutoff  :      750.00
  volume of cell :      432.72
      direct lattice vectors                 reciprocal lattice vectors
     7.563744888  0.000000000  0.000000000     0.132209641  0.000000000  0.000000000
     0.000000000  7.563744888  0.000000000     0.000000000  0.132209641  0.000000000
     0.000000000  0.000000000  7.563744888     0.000000000  0.000000000  0.132209641

  length of vectors
     7.563744888  7.563744888  7.563744888     0.132209641  0.132209641  0.132209641


 FORCES acting on ions
    electron-ion (+dipol)            ewald-force                    non-local-force                 convergence-correction
 -----------------------------------------------------------------------------------------------
   0.524E+01 -.880E-13 0.942E-06   -.523E+01 0.142E-12 0.000E+00   -.493E-01 0.208E-19 -.128E-19   0.143E-05 0.263E-12 0.578E-12
   -.136E+01 -.692E-13 -.948E-06   0.138E+01 0.853E-13 0.853E-13   -.161E-01 0.236E-20 -.656E-20   0.546E-06 0.267E-12 0.588E-12
   0.433E+00 0.785E-12 0.111E-10   -.437E+00 0.782E-13 0.853E-13   0.350E-02 -.185E-20 0.559E-21   -.460E-05 -.198E-12 0.556E-12
   -.350E+00 -.485E-11 0.144E-10   0.343E+00 0.853E-13 0.568E-13   0.670E-02 -.459E-20 0.709E-22   0.533E-05 -.218E-12 0.557E-12
   0.433E+00 -.879E-13 0.328E-09   -.437E+00 0.853E-13 0.497E-13   0.350E-02 -.660E-21 -.285E-20   -.390E-05 0.246E-12 -.135E-12
   -.350E+00 -.855E-13 0.322E-09   0.343E+00 0.568E-13 0.568E-13   0.670E-02 -.157E-21 0.877E-20   0.522E-05 0.244E-12 -.213E-12
   0.182E+00 0.785E-12 0.164E-10   -.180E+00 0.853E-13 0.568E-13   -.160E-02 0.231E-20 0.768E-21   -.446E-05 -.187E-12 -.176E-12
   -.168E+00 -.466E-11 0.107E-10   0.169E+00 0.853E-13 0.568E-13   -.689E-03 0.224E-20 0.455E-20   0.514E-05 -.199E-12 -.241E-12
   -.667E+00 -.128E+01 0.105E-09   0.663E+00 0.127E+01 0.995E-13   0.795E-02 0.582E-02 0.618E-22   0.167E-04 0.130E-05 0.595E-12
   -.671E+00 0.126E+01 0.103E-09   0.667E+00 -.126E+01 -.142E-13   0.804E-02 -.584E-02 -.492E-20   -.178E-04 0.651E-05 0.558E-12
   -.667E+00 0.128E+01 0.105E-09   0.663E+00 -.127E+01 0.284E-13   0.795E-02 -.582E-02 0.679E-21   0.167E-04 -.130E-05 0.585E-12
   -.671E+00 -.126E+01 0.103E-09   0.667E+00 0.126E+01 0.853E-13   0.804E-02 0.584E-02 0.890E-20   -.178E-04 -.651E-05 0.551E-12
   -.178E-01 -.105E+00 -.889E-11   0.201E-01 0.105E+00 0.426E-13   -.196E-02 0.321E-03 0.231E-20   0.691E-05 0.741E-05 -.146E-12
   -.201E-01 0.105E+00 -.809E-11   0.223E-01 -.105E+00 0.426E-13   -.194E-02 -.342E-03 -.472E-21   -.770E-05 0.728E-05 -.161E-12
   -.178E-01 0.105E+00 -.879E-11   0.201E-01 -.105E+00 0.568E-13   -.196E-02 -.321E-03 -.116E-20   0.691E-05 -.741E-05 -.191E-12
   -.201E-01 -.105E+00 -.462E-11   0.223E-01 0.105E+00 0.114E-12   -.194E-02 0.342E-03 -.632E-20   -.770E-05 -.728E-05 -.243E-12
   -.667E+00 -.845E-13 -.128E+01   0.663E+00 0.995E-13 0.127E+01   0.795E-02 -.189E-20 0.582E-02   0.165E-04 0.253E-12 0.139E-05
   -.671E+00 -.944E-13 0.126E+01   0.667E+00 0.995E-13 -.126E+01   0.804E-02 0.123E-19 -.584E-02   -.179E-04 0.232E-12 0.642E-05
   -.178E-01 0.793E-12 -.105E+00   0.201E-01 0.995E-13 0.105E+00   -.196E-02 0.374E-21 0.321E-03   0.693E-05 -.193E-12 0.750E-05
   -.201E-01 -.202E-11 0.105E+00   0.223E-01 0.995E-13 -.105E+00   -.194E-02 0.707E-20 -.342E-03   -.767E-05 -.169E-12 0.719E-05
   -.667E+00 -.882E-13 0.128E+01   0.663E+00 0.853E-13 -.127E+01   0.795E-02 -.717E-20 -.582E-02   0.165E-04 0.270E-12 -.139E-05
   -.671E+00 -.675E-13 -.126E+01   0.667E+00 0.853E-13 0.126E+01   0.804E-02 -.180E-20 0.584E-02   -.179E-04 0.268E-12 -.642E-05
   -.178E-01 0.783E-12 0.105E+00   0.201E-01 0.853E-13 -.105E+00   -.196E-02 0.165E-20 -.321E-03   0.693E-05 -.210E-12 -.750E-05
   -.201E-01 0.123E-12 -.105E+00   0.223E-01 0.853E-13 0.105E+00   -.194E-02 -.117E-20 0.342E-03   -.767E-05 -.206E-12 -.719E-05
   0.822E+00 0.342E-02 0.342E-02   -.824E+00 -.343E-02 -.343E-02   0.230E-02 -.135E-04 -.135E-04   -.304E-05 0.107E-04 0.107E-04
   -.460E+00 -.101E-02 -.101E-02   0.464E+00 0.103E-02 0.103E-02   -.259E-02 -.170E-04 -.170E-04   0.383E-05 0.820E-06 0.820E-06
   0.822E+00 -.342E-02 0.342E-02   -.824E+00 0.343E-02 -.343E-02   0.230E-02 0.135E-04 -.135E-04   -.304E-05 -.107E-04 0.107E-04
   -.460E+00 0.101E-02 -.101E-02   0.464E+00 -.103E-02 0.103E-02   -.259E-02 0.170E-04 -.170E-04   0.383E-05 -.820E-06 0.820E-06
   0.822E+00 0.342E-02 -.342E-02   -.824E+00 -.343E-02 0.343E-02   0.230E-02 -.135E-04 0.135E-04   -.304E-05 0.107E-04 -.107E-04
   -.460E+00 -.101E-02 0.101E-02   0.464E+00 0.103E-02 -.103E-02   -.259E-02 -.170E-04 0.170E-04   0.383E-05 0.820E-06 -.820E-06
   0.822E+00 -.342E-02 -.342E-02   -.824E+00 0.343E-02 0.343E-02   0.230E-02 0.135E-04 0.135E-04   -.304E-05 -.107E-04 -.107E-04
   -.460E+00 0.101E-02 0.101E-02   0.464E+00 -.103E-02 -.103E-02   -.259E-02 0.170E-04 0.170E-04   0.383E-05 -.820E-06 -.820E-06
 -----------------------------------------------------------------------------------------------
   -.448E-05 -.517E-10 -.549E-08   0.959E-13 0.223E-12 0.218E-12   -.703E-05 -.847E-18 0.156E-18   -.276E-06 0.182E-13 -.121E-11
 
 
 POSITION                                       TOTAL-FORCE (eV/Angst)
 -----------------------------------------------------------------------------------
      0.01000      0.00000      0.00000        -0.036658     -0.000000      0.000000
      3.78187      0.00000      0.00000         0.000875     -0.000000     -0.000000
      0.00000      3.78187      0.00000        -0.000387     -0.000000      0.000000
      3.78187      3.78187      0.00000        -0.000360      0.000000      0.000000
      0.00000      0.00000      3.78187        -0.000387      0.000000     -0.000000
      3.78187      0.00000      3.78187        -0.000360      0.000000     -0.000000
      0.00000      3.78187      3.78187        -0.000061     -0.000000     -0.000000
      3.78187      3.78187      3.78187        -0.000113     -0.000000      0.000000
      1.89094      1.89094      0.00000         0.004178      0.004588      0.000000
      5.67281      1.89094      0.00000         0.004010     -0.004368     -0.000000
      1.89094      5.67281      0.00000         0.004178     -0.004588      0.000000
      5.67281      5.67281      0.00000         0.004010      0.004368     -0.000000
      1.89094      1.89094      3.78187         0.000327      0.000060     -0.000000
      5.67281      1.89094      3.78187         0.000325     -0.000057     -0.000000
      1.89094      5.67281      3.78187         0.000327     -0.000060      0.000000
      5.67281      5.67281      3.78187         0.000325      0.000057     -0.000000
      1.89094      0.00000      1.89094         0.004178     -0.000000      0.004588
      5.67281      0.00000      1.89094         0.004010     -0.000000     -0.004368
      1.89094      3.78187      1.89094         0.000327      0.000000      0.000060
      5.67281      3.78187      1.89094         0.000325     -0.000000     -0.000057
      1.89094      0.00000      5.67281         0.004178      0.000000     -0.004588
      5.67281      0.00000      5.67281         0.004010     -0.000000      0.004368
      1.89094      3.78187      5.67281         0.000327     -0.000000     -0.000060
      5.67281      3.78187      5.67281         0.000325      0.000000      0.000057
      0.00000      1.89094      1.89094        -0.000071     -0.000007     -0.000007
      3.78187      1.89094      1.89094         0.000593      0.000003      0.000003
      0.00000      5.67281      1.89094        -0.000071      0.000007     -0.000007
      3.78187      5.67281      1.89094         0.000593     -0.000003      0.000003
      0.00000      1.89094      5.67281        -0.000071     -0.000007      0.000007
      3.78187      1.89094      5.67281         0.000593      0.000003     -0.000003
      0.00000      5.67281      5.67281        -0.000071      0.000007      0.000007
      3.78187      5.67281      5.67281         0.000593     -0.000003     -0.000003
 -----------------------------------------------------------------------------------
    total drift:                               -0.000012     -0.000000     -0.000000


--------------------------------------------------------------------------------------------------------



 mean value of Nose-termostat <S>:     1.000 mean value of <T> :     0.000
 mean temperature <T/S>/<1/S>  :     0.000

     LOOP+:  VPU time19214.68: CPU time19399.29
  
  
 General timing and accounting informations for this job:
 ========================================================
  
                  Total CPU time used (sec):    19973.174
                            User time (sec):    17001.722
                          System time (sec):     2971.451
                         Elapsed time (sec):    20801.441
  
                   Maximum memory used (kb):    16998852.
                   Average memory used (kb):           0.
  
                          Minor page faults:      4949099
                          Major page faults:        29189
                 Voluntary context switches:        47272
