<?xml version="1.0" encoding="ISO-8859-1"?>
<modeling>
 <generator>
  <i name="program" type="string">vasp</i>
  <i name="version" type="string">4.6.28 </i>
  <i name="subversion" type="string">25Jul05 complex  parallel</i>
  <i name="platform" type="string">LinuxIFC</i>
  <i name="date" type="string">2017 01 13</i>
  <i name="time" type="string">03:28:42</i>
 </generator>
 <incar>
  <i type="string" name="PREC">accurate</i>
  <i type="int" name="IALGO">    38</i>
  <i type="logical" name="ADDGRID"> T  </i>
  <i name="EDIFF">      0.00000001</i>
  <i type="int" name="IBRION">    -1</i>
  <i name="ENCUT">    750.00000000</i>
  <i type="logical" name="LREAL"> F  </i>
  <i type="int" name="ISMEAR">     0</i>
  <i name="SIGMA">      0.01000000</i>
  <i type="logical" name="LWAVE"> F  </i>
  <i type="logical" name="LCHARG"> F  </i>
 </incar>
 <kpoints>
  <generation param="Gamma">
   <v type="int" name="divisions">      12      12      12</v>
   <v name="usershift">      0.00000000      0.00000000      0.00000000</v>
   <v name="genvec1">      0.08333333      0.00000000      0.00000000</v>
   <v name="genvec2">      0.00000000      0.08333333      0.00000000</v>
   <v name="genvec3">      0.00000000      0.00000000      0.08333333</v>
   <v name="shift">      0.00000000      0.00000000      0.00000000</v>
  </generation>
  <varray name="kpointlist" >
   <v>       0.00000000      0.00000000      0.00000000</v>
   <v>       0.08333333      0.00000000      0.00000000</v>
   <v>       0.16666667      0.00000000      0.00000000</v>
   <v>       0.25000000      0.00000000      0.00000000</v>
   <v>       0.33333333      0.00000000      0.00000000</v>
   <v>       0.41666667      0.00000000      0.00000000</v>
   <v>       0.50000000      0.00000000      0.00000000</v>
   <v>       0.00000000      0.08333333      0.00000000</v>
   <v>       0.08333333      0.08333333      0.00000000</v>
   <v>       0.16666667      0.08333333      0.00000000</v>
   <v>       0.25000000      0.08333333      0.00000000</v>
   <v>       0.33333333      0.08333333      0.00000000</v>
   <v>       0.41666667      0.08333333      0.00000000</v>
   <v>       0.50000000      0.08333333      0.00000000</v>
   <v>       0.00000000      0.16666667      0.00000000</v>
   <v>       0.08333333      0.16666667      0.00000000</v>
   <v>       0.16666667      0.16666667      0.00000000</v>
   <v>       0.25000000      0.16666667      0.00000000</v>
   <v>       0.33333333      0.16666667      0.00000000</v>
   <v>       0.41666667      0.16666667      0.00000000</v>
   <v>       0.50000000      0.16666667      0.00000000</v>
   <v>       0.00000000      0.25000000      0.00000000</v>
   <v>       0.08333333      0.25000000      0.00000000</v>
   <v>       0.16666667      0.25000000      0.00000000</v>
   <v>       0.25000000      0.25000000      0.00000000</v>
   <v>       0.33333333      0.25000000      0.00000000</v>
   <v>       0.41666667      0.25000000      0.00000000</v>
   <v>       0.50000000      0.25000000      0.00000000</v>
   <v>       0.00000000      0.33333333      0.00000000</v>
   <v>       0.08333333      0.33333333      0.00000000</v>
   <v>       0.16666667      0.33333333      0.00000000</v>
   <v>       0.25000000      0.33333333      0.00000000</v>
   <v>       0.33333333      0.33333333      0.00000000</v>
   <v>       0.41666667      0.33333333      0.00000000</v>
   <v>       0.50000000      0.33333333      0.00000000</v>
   <v>       0.00000000      0.41666667      0.00000000</v>
   <v>       0.08333333      0.41666667      0.00000000</v>
   <v>       0.16666667      0.41666667      0.00000000</v>
   <v>       0.25000000      0.41666667      0.00000000</v>
   <v>       0.33333333      0.41666667      0.00000000</v>
   <v>       0.41666667      0.41666667      0.00000000</v>
   <v>       0.50000000      0.41666667      0.00000000</v>
   <v>       0.00000000      0.50000000      0.00000000</v>
   <v>       0.08333333      0.50000000      0.00000000</v>
   <v>       0.16666667      0.50000000      0.00000000</v>
   <v>       0.25000000      0.50000000      0.00000000</v>
   <v>       0.33333333      0.50000000      0.00000000</v>
   <v>       0.41666667      0.50000000      0.00000000</v>
   <v>       0.50000000      0.50000000      0.00000000</v>
   <v>       0.00000000      0.08333333      0.08333333</v>
   <v>       0.08333333      0.08333333      0.08333333</v>
   <v>       0.16666667      0.08333333      0.08333333</v>
   <v>       0.25000000      0.08333333      0.08333333</v>
   <v>       0.33333333      0.08333333      0.08333333</v>
   <v>       0.41666667      0.08333333      0.08333333</v>
   <v>       0.50000000      0.08333333      0.08333333</v>
   <v>       0.00000000      0.16666667      0.08333333</v>
   <v>       0.08333333      0.16666667      0.08333333</v>
   <v>       0.16666667      0.16666667      0.08333333</v>
   <v>       0.25000000      0.16666667      0.08333333</v>
   <v>       0.33333333      0.16666667      0.08333333</v>
   <v>       0.41666667      0.16666667      0.08333333</v>
   <v>       0.50000000      0.16666667      0.08333333</v>
   <v>       0.00000000      0.25000000      0.08333333</v>
   <v>       0.08333333      0.25000000      0.08333333</v>
   <v>       0.16666667      0.25000000      0.08333333</v>
   <v>       0.25000000      0.25000000      0.08333333</v>
   <v>       0.33333333      0.25000000      0.08333333</v>
   <v>       0.41666667      0.25000000      0.08333333</v>
   <v>       0.50000000      0.25000000      0.08333333</v>
   <v>       0.00000000      0.33333333      0.08333333</v>
   <v>       0.08333333      0.33333333      0.08333333</v>
   <v>       0.16666667      0.33333333      0.08333333</v>
   <v>       0.25000000      0.33333333      0.08333333</v>
   <v>       0.33333333      0.33333333      0.08333333</v>
   <v>       0.41666667      0.33333333      0.08333333</v>
   <v>       0.50000000      0.33333333      0.08333333</v>
   <v>       0.00000000      0.41666667      0.08333333</v>
   <v>       0.08333333      0.41666667      0.08333333</v>
   <v>       0.16666667      0.41666667      0.08333333</v>
   <v>       0.25000000      0.41666667      0.08333333</v>
   <v>       0.33333333      0.41666667      0.08333333</v>
   <v>       0.41666667      0.41666667      0.08333333</v>
   <v>       0.50000000      0.41666667      0.08333333</v>
   <v>       0.00000000      0.50000000      0.08333333</v>
   <v>       0.08333333      0.50000000      0.08333333</v>
   <v>       0.16666667      0.50000000      0.08333333</v>
   <v>       0.25000000      0.50000000      0.08333333</v>
   <v>       0.33333333      0.50000000      0.08333333</v>
   <v>       0.41666667      0.50000000      0.08333333</v>
   <v>       0.50000000      0.50000000      0.08333333</v>
   <v>       0.00000000      0.16666667      0.16666667</v>
   <v>       0.08333333      0.16666667      0.16666667</v>
   <v>       0.16666667      0.16666667      0.16666667</v>
   <v>       0.25000000      0.16666667      0.16666667</v>
   <v>       0.33333333      0.16666667      0.16666667</v>
   <v>       0.41666667      0.16666667      0.16666667</v>
   <v>       0.50000000      0.16666667      0.16666667</v>
   <v>       0.00000000      0.25000000      0.16666667</v>
   <v>       0.08333333      0.25000000      0.16666667</v>
   <v>       0.16666667      0.25000000      0.16666667</v>
   <v>       0.25000000      0.25000000      0.16666667</v>
   <v>       0.33333333      0.25000000      0.16666667</v>
   <v>       0.41666667      0.25000000      0.16666667</v>
   <v>       0.50000000      0.25000000      0.16666667</v>
   <v>       0.00000000      0.33333333      0.16666667</v>
   <v>       0.08333333      0.33333333      0.16666667</v>
   <v>       0.16666667      0.33333333      0.16666667</v>
   <v>       0.25000000      0.33333333      0.16666667</v>
   <v>       0.33333333      0.33333333      0.16666667</v>
   <v>       0.41666667      0.33333333      0.16666667</v>
   <v>       0.50000000      0.33333333      0.16666667</v>
   <v>       0.00000000      0.41666667      0.16666667</v>
   <v>       0.08333333      0.41666667      0.16666667</v>
   <v>       0.16666667      0.41666667      0.16666667</v>
   <v>       0.25000000      0.41666667      0.16666667</v>
   <v>       0.33333333      0.41666667      0.16666667</v>
   <v>       0.41666667      0.41666667      0.16666667</v>
   <v>       0.50000000      0.41666667      0.16666667</v>
   <v>       0.00000000      0.50000000      0.16666667</v>
   <v>       0.08333333      0.50000000      0.16666667</v>
   <v>       0.16666667      0.50000000      0.16666667</v>
   <v>       0.25000000      0.50000000      0.16666667</v>
   <v>       0.33333333      0.50000000      0.16666667</v>
   <v>       0.41666667      0.50000000      0.16666667</v>
   <v>       0.50000000      0.50000000      0.16666667</v>
   <v>       0.00000000      0.25000000      0.25000000</v>
   <v>       0.08333333      0.25000000      0.25000000</v>
   <v>       0.16666667      0.25000000      0.25000000</v>
   <v>       0.25000000      0.25000000      0.25000000</v>
   <v>       0.33333333      0.25000000      0.25000000</v>
   <v>       0.41666667      0.25000000      0.25000000</v>
   <v>       0.50000000      0.25000000      0.25000000</v>
   <v>       0.00000000      0.33333333      0.25000000</v>
   <v>       0.08333333      0.33333333      0.25000000</v>
   <v>       0.16666667      0.33333333      0.25000000</v>
   <v>       0.25000000      0.33333333      0.25000000</v>
   <v>       0.33333333      0.33333333      0.25000000</v>
   <v>       0.41666667      0.33333333      0.25000000</v>
   <v>       0.50000000      0.33333333      0.25000000</v>
   <v>       0.00000000      0.41666667      0.25000000</v>
   <v>       0.08333333      0.41666667      0.25000000</v>
   <v>       0.16666667      0.41666667      0.25000000</v>
   <v>       0.25000000      0.41666667      0.25000000</v>
   <v>       0.33333333      0.41666667      0.25000000</v>
   <v>       0.41666667      0.41666667      0.25000000</v>
   <v>       0.50000000      0.41666667      0.25000000</v>
   <v>       0.00000000      0.50000000      0.25000000</v>
   <v>       0.08333333      0.50000000      0.25000000</v>
   <v>       0.16666667      0.50000000      0.25000000</v>
   <v>       0.25000000      0.50000000      0.25000000</v>
   <v>       0.33333333      0.50000000      0.25000000</v>
   <v>       0.41666667      0.50000000      0.25000000</v>
   <v>       0.50000000      0.50000000      0.25000000</v>
   <v>       0.00000000      0.33333333      0.33333333</v>
   <v>       0.08333333      0.33333333      0.33333333</v>
   <v>       0.16666667      0.33333333      0.33333333</v>
   <v>       0.25000000      0.33333333      0.33333333</v>
   <v>       0.33333333      0.33333333      0.33333333</v>
   <v>       0.41666667      0.33333333      0.33333333</v>
   <v>       0.50000000      0.33333333      0.33333333</v>
   <v>       0.00000000      0.41666667      0.33333333</v>
   <v>       0.08333333      0.41666667      0.33333333</v>
   <v>       0.16666667      0.41666667      0.33333333</v>
   <v>       0.25000000      0.41666667      0.33333333</v>
   <v>       0.33333333      0.41666667      0.33333333</v>
   <v>       0.41666667      0.41666667      0.33333333</v>
   <v>       0.50000000      0.41666667      0.33333333</v>
   <v>       0.00000000      0.50000000      0.33333333</v>
   <v>       0.08333333      0.50000000      0.33333333</v>
   <v>       0.16666667      0.50000000      0.33333333</v>
   <v>       0.25000000      0.50000000      0.33333333</v>
   <v>       0.33333333      0.50000000      0.33333333</v>
   <v>       0.41666667      0.50000000      0.33333333</v>
   <v>       0.50000000      0.50000000      0.33333333</v>
   <v>       0.00000000      0.41666667      0.41666667</v>
   <v>       0.08333333      0.41666667      0.41666667</v>
   <v>       0.16666667      0.41666667      0.41666667</v>
   <v>       0.25000000      0.41666667      0.41666667</v>
   <v>       0.33333333      0.41666667      0.41666667</v>
   <v>       0.41666667      0.41666667      0.41666667</v>
   <v>       0.50000000      0.41666667      0.41666667</v>
   <v>       0.00000000      0.50000000      0.41666667</v>
   <v>       0.08333333      0.50000000      0.41666667</v>
   <v>       0.16666667      0.50000000      0.41666667</v>
   <v>       0.25000000      0.50000000      0.41666667</v>
   <v>       0.33333333      0.50000000      0.41666667</v>
   <v>       0.41666667      0.50000000      0.41666667</v>
   <v>       0.50000000      0.50000000      0.41666667</v>
   <v>       0.00000000      0.50000000      0.50000000</v>
   <v>       0.08333333      0.50000000      0.50000000</v>
   <v>       0.16666667      0.50000000      0.50000000</v>
   <v>       0.25000000      0.50000000      0.50000000</v>
   <v>       0.33333333      0.50000000      0.50000000</v>
   <v>       0.41666667      0.50000000      0.50000000</v>
   <v>       0.50000000      0.50000000      0.50000000</v>
  </varray>
  <varray name="weights" >
   <v>       0.00057870</v>
   <v>       0.00115741</v>
   <v>       0.00115741</v>
   <v>       0.00115741</v>
   <v>       0.00115741</v>
   <v>       0.00115741</v>
   <v>       0.00057870</v>
   <v>       0.00231481</v>
   <v>       0.00462963</v>
   <v>       0.00462963</v>
   <v>       0.00462963</v>
   <v>       0.00462963</v>
   <v>       0.00462963</v>
   <v>       0.00231481</v>
   <v>       0.00231481</v>
   <v>       0.00462963</v>
   <v>       0.00462963</v>
   <v>       0.00462963</v>
   <v>       0.00462963</v>
   <v>       0.00462963</v>
   <v>       0.00231481</v>
   <v>       0.00231481</v>
   <v>       0.00462963</v>
   <v>       0.00462963</v>
   <v>       0.00462963</v>
   <v>       0.00462963</v>
   <v>       0.00462963</v>
   <v>       0.00231481</v>
   <v>       0.00231481</v>
   <v>       0.00462963</v>
   <v>       0.00462963</v>
   <v>       0.00462963</v>
   <v>       0.00462963</v>
   <v>       0.00462963</v>
   <v>       0.00231481</v>
   <v>       0.00231481</v>
   <v>       0.00462963</v>
   <v>       0.00462963</v>
   <v>       0.00462963</v>
   <v>       0.00462963</v>
   <v>       0.00462963</v>
   <v>       0.00231481</v>
   <v>       0.00115741</v>
   <v>       0.00231481</v>
   <v>       0.00231481</v>
   <v>       0.00231481</v>
   <v>       0.00231481</v>
   <v>       0.00231481</v>
   <v>       0.00115741</v>
   <v>       0.00231481</v>
   <v>       0.00462963</v>
   <v>       0.00462963</v>
   <v>       0.00462963</v>
   <v>       0.00462963</v>
   <v>       0.00462963</v>
   <v>       0.00231481</v>
   <v>       0.00462963</v>
   <v>       0.00925926</v>
   <v>       0.00925926</v>
   <v>       0.00925926</v>
   <v>       0.00925926</v>
   <v>       0.00925926</v>
   <v>       0.00462963</v>
   <v>       0.00462963</v>
   <v>       0.00925926</v>
   <v>       0.00925926</v>
   <v>       0.00925926</v>
   <v>       0.00925926</v>
   <v>       0.00925926</v>
   <v>       0.00462963</v>
   <v>       0.00462963</v>
   <v>       0.00925926</v>
   <v>       0.00925926</v>
   <v>       0.00925926</v>
   <v>       0.00925926</v>
   <v>       0.00925926</v>
   <v>       0.00462963</v>
   <v>       0.00462963</v>
   <v>       0.00925926</v>
   <v>       0.00925926</v>
   <v>       0.00925926</v>
   <v>       0.00925926</v>
   <v>       0.00925926</v>
   <v>       0.00462963</v>
   <v>       0.00231481</v>
   <v>       0.00462963</v>
   <v>       0.00462963</v>
   <v>       0.00462963</v>
   <v>       0.00462963</v>
   <v>       0.00462963</v>
   <v>       0.00231481</v>
   <v>       0.00231481</v>
   <v>       0.00462963</v>
   <v>       0.00462963</v>
   <v>       0.00462963</v>
   <v>       0.00462963</v>
   <v>       0.00462963</v>
   <v>       0.00231481</v>
   <v>       0.00462963</v>
   <v>       0.00925926</v>
   <v>       0.00925926</v>
   <v>       0.00925926</v>
   <v>       0.00925926</v>
   <v>       0.00925926</v>
   <v>       0.00462963</v>
   <v>       0.00462963</v>
   <v>       0.00925926</v>
   <v>       0.00925926</v>
   <v>       0.00925926</v>
   <v>       0.00925926</v>
   <v>       0.00925926</v>
   <v>       0.00462963</v>
   <v>       0.00462963</v>
   <v>       0.00925926</v>
   <v>       0.00925926</v>
   <v>       0.00925926</v>
   <v>       0.00925926</v>
   <v>       0.00925926</v>
   <v>       0.00462963</v>
   <v>       0.00231481</v>
   <v>       0.00462963</v>
   <v>       0.00462963</v>
   <v>       0.00462963</v>
   <v>       0.00462963</v>
   <v>       0.00462963</v>
   <v>       0.00231481</v>
   <v>       0.00231481</v>
   <v>       0.00462963</v>
   <v>       0.00462963</v>
   <v>       0.00462963</v>
   <v>       0.00462963</v>
   <v>       0.00462963</v>
   <v>       0.00231481</v>
   <v>       0.00462963</v>
   <v>       0.00925926</v>
   <v>       0.00925926</v>
   <v>       0.00925926</v>
   <v>       0.00925926</v>
   <v>       0.00925926</v>
   <v>       0.00462963</v>
   <v>       0.00462963</v>
   <v>       0.00925926</v>
   <v>       0.00925926</v>
   <v>       0.00925926</v>
   <v>       0.00925926</v>
   <v>       0.00925926</v>
   <v>       0.00462963</v>
   <v>       0.00231481</v>
   <v>       0.00462963</v>
   <v>       0.00462963</v>
   <v>       0.00462963</v>
   <v>       0.00462963</v>
   <v>       0.00462963</v>
   <v>       0.00231481</v>
   <v>       0.00231481</v>
   <v>       0.00462963</v>
   <v>       0.00462963</v>
   <v>       0.00462963</v>
   <v>       0.00462963</v>
   <v>       0.00462963</v>
   <v>       0.00231481</v>
   <v>       0.00462963</v>
   <v>       0.00925926</v>
   <v>       0.00925926</v>
   <v>       0.00925926</v>
   <v>       0.00925926</v>
   <v>       0.00925926</v>
   <v>       0.00462963</v>
   <v>       0.00231481</v>
   <v>       0.00462963</v>
   <v>       0.00462963</v>
   <v>       0.00462963</v>
   <v>       0.00462963</v>
   <v>       0.00462963</v>
   <v>       0.00231481</v>
   <v>       0.00231481</v>
   <v>       0.00462963</v>
   <v>       0.00462963</v>
   <v>       0.00462963</v>
   <v>       0.00462963</v>
   <v>       0.00462963</v>
   <v>       0.00231481</v>
   <v>       0.00231481</v>
   <v>       0.00462963</v>
   <v>       0.00462963</v>
   <v>       0.00462963</v>
   <v>       0.00462963</v>
   <v>       0.00462963</v>
   <v>       0.00231481</v>
   <v>       0.00057870</v>
   <v>       0.00115741</v>
   <v>       0.00115741</v>
   <v>       0.00115741</v>
   <v>       0.00115741</v>
   <v>       0.00115741</v>
   <v>       0.00057870</v>
  </varray>
 </kpoints>
 <parameters>
  <separator name="general" >
   <i type="string" name="SYSTEM">unknown system</i>
   <i type="logical" name="LCOMPAT"> F  </i>
  </separator>
  <separator name="electronic" >
   <i type="string" name="PREC">accura</i>
   <i name="ENMAX">    750.00000000</i>
   <i name="ENAUG">    516.45600000</i>
   <i name="EDIFF">      0.00000001</i>
   <i type="int" name="IALGO">    38</i>
   <i type="int" name="IWAVPR">    10</i>
   <i type="int" name="NBANDS">   211</i>
   <i name="NELECT">    352.00000000</i>
   <separator name="electronic smearing" >
    <i type="int" name="ISMEAR">     0</i>
    <i name="SIGMA">      0.01000000</i>
   </separator>
   <separator name="electronic projectors" >
    <i type="logical" name="LREAL"> F  </i>
    <v name="ROPT">      0.00000000</v>
    <i type="int" name="LMAXPAW">  -100</i>
    <i type="int" name="LMAXMIX">     2</i>
   </separator>
   <separator name="electronic startup" >
    <i type="int" name="ISTART">     0</i>
    <i type="int" name="ICHARG">     2</i>
    <i type="int" name="INIWAV">     1</i>
   </separator>
   <separator name="electronic spin" >
    <i type="int" name="ISPIN">     1</i>
    <i type="logical" name="LNONCOLLINEAR"> F  </i>
    <v name="MAGMOM">      1.00000000      1.00000000      1.00000000      1.00000000      1.00000000      1.00000000      1.00000000      1.00000000      1.00000000      1.00000000      1.00000000      1.00000000      1.00000000      1.00000000      1.00000000      1.00000000      1.00000000      1.00000000      1.00000000      1.00000000
      1.00000000      1.00000000      1.00000000      1.00000000      1.00000000      1.00000000      1.00000000      1.00000000      1.00000000      1.00000000      1.00000000      1.00000000</v>
    <i name="NUPDOWN">     -1.00000000</i>
    <i type="logical" name="LSORBIT"> F  </i>
    <v name="SAXIS">      0.00000000      0.00000000      1.00000000</v>
    <i type="logical" name="LSPIRAL"> F  </i>
    <v name="QSPIRAL">      0.00000000      0.00000000      0.00000000</v>
    <i type="logical" name="LZEROZ"> F  </i>
   </separator>
   <separator name="electronic exchange-correlation" >
    <i type="string" name="GGA">--</i>
    <i type="int" name="VOSKOWN">     0</i>
    <i type="logical" name="LASPH"> F  </i>
    <i type="logical" name="LMETAGGA"> F  </i>
    <i type="string" name="GGA2">--</i>
   </separator>
   <separator name="electronic convergence" >
    <i type="int" name="NELM">    60</i>
    <i type="int" name="NELMDL">     0</i>
    <i type="int" name="NELMIN">     2</i>
    <i name="ENINI">    750.00000000</i>
    <separator name="electronic convergence detail" >
     <i type="logical" name="LDIAG"> T  </i>
     <i name="WEIMIN">      0.00000000</i>
     <i name="EBREAK">      0.00000000</i>
     <i name="DEPER">      0.30000000</i>
     <i type="int" name="NRMM">     4</i>
     <i name="TIME">      0.10000000</i>
    </separator>
   </separator>
   <separator name="electronic mixer" >
    <i name="AMIX">      0.40000000</i>
    <i name="BMIX">      1.00000000</i>
    <i name="AMIN">      0.10000000</i>
    <i name="AMIX_MAG">      1.60000000</i>
    <i name="BMIX_MAG">      1.00000000</i>
    <separator name="electronic mixer details" >
     <i type="int" name="IMIX">     4</i>
     <i type="int" name="MAXMIX">   -45</i>
     <i name="WC">    100.00000000</i>
     <i type="int" name="INIMIX">     1</i>
     <i type="int" name="MIXPRE">     1</i>
     <i type="int" name="MREMOVE">     5</i>
    </separator>
   </separator>
   <separator name="electronic dipolcorrection" >
    <i type="int" name="IDIPOL">     0</i>
    <i type="logical" name="LDIPOL"> F  </i>
    <v name="DIPOL">   -100.00000000</v>
    <i name="EFIELD">      0.00000000</i>
   </separator>
  </separator>
  <separator name="grids" >
   <i type="int" name="NGX">    70</i>
   <i type="int" name="NGY">    70</i>
   <i type="int" name="NGZ">    70</i>
   <i type="int" name="NGXF">   140</i>
   <i type="int" name="NGYF">   140</i>
   <i type="int" name="NGZF">   140</i>
   <i type="logical" name="ADDGRID"> T  </i>
  </separator>
  <separator name="ionic" >
   <i type="int" name="NSW">     0</i>
   <i type="int" name="IBRION">    -1</i>
   <i type="int" name="ISIF">     2</i>
   <i name="PSTRESS">      0.00000000</i>
   <i name="EDIFFG">      0.00000010</i>
   <i type="int" name="NFREE">     0</i>
   <i name="POTIM">      0.50000000</i>
   <i name="SMASS">     -3.00000000</i>
  </separator>
  <separator name="ionic md" >
   <i name="TEBEG">      0.00010000</i>
   <i name="TEEND">      0.00010000</i>
   <i type="int" name="NBLOCK">     1</i>
   <i type="int" name="KBLOCK">     1</i>
   <i type="int" name="NPACO">   256</i>
   <i name="APACO">     16.00000000</i>
  </separator>
  <separator name="symmetry" >
   <i type="int" name="ISYM">     2</i>
   <i name="SYMPREC">      0.00001000</i>
  </separator>
  <separator name="dos" >
   <i type="logical" name="LORBIT"> F  </i>
   <v name="RWIGS">     -1.00000000</v>
   <i type="int" name="NEDOS">   301</i>
   <i name="EMIN">     10.00000000</i>
   <i name="EMAX">    -10.00000000</i>
  </separator>
  <separator name="writing" >
   <i type="int" name="NWRITE">     2</i>
   <i type="logical" name="LWAVE"> F  </i>
   <i type="logical" name="LCHARG"> F  </i>
   <i type="logical" name="LPARD"> F  </i>
   <i type="logical" name="LVTOT"> F  </i>
   <i type="logical" name="LELF"> F  </i>
   <i type="logical" name="LOPTICS"> F  </i>
   <i name="STM">      0.00000000</i>
  </separator>
  <separator name="performance" >
   <i type="int" name="NPAR">     8</i>
   <i type="int" name="NSIM">     4</i>
   <i type="int" name="NBLK">   256</i>
   <i type="logical" name="LPLANE"> T  </i>
   <i type="logical" name="LCRITICAL_MEM"> F  </i>
   <i type="logical" name="LSCALAPACK"> F  </i>
   <i type="logical" name="LSCALU"> F  </i>
   <i type="logical" name="LASYNC"> F  </i>
  </separator>
  <separator name="miscellaneous" >
   <i type="int" name="IDIOT">     3</i>
   <i type="logical" name="LMUSIC"> F  </i>
   <v name="POMASS">     63.54600000</v>
   <i type="logical" name="LCORR"> T  </i>
  </separator>
  <i type="logical" name="LREAL_COMPAT"> F  </i>
  <i type="logical" name="GGA_COMPAT"> T  </i>
  <i type="logical" name="LBERRY"> F  </i>
  <i type="int" name="ICORELEVEL">     0</i>
  <i type="logical" name="LDAU"> F  </i>
  <i type="int" name="I_CONSTRAINED_M">     0</i>
 </parameters>
 <atominfo>
  <atoms>      32</atoms>
  <types>       1</types>
  <array name="atoms" >
   <dimension dim="1">ion</dimension>
   <field type="string">element</field>
   <field type="int">atomtype</field>
   <set>
    <rc><c>Cu</c><c>   1</c></rc>
    <rc><c>Cu</c><c>   1</c></rc>
    <rc><c>Cu</c><c>   1</c></rc>
    <rc><c>Cu</c><c>   1</c></rc>
    <rc><c>Cu</c><c>   1</c></rc>
    <rc><c>Cu</c><c>   1</c></rc>
    <rc><c>Cu</c><c>   1</c></rc>
    <rc><c>Cu</c><c>   1</c></rc>
    <rc><c>Cu</c><c>   1</c></rc>
    <rc><c>Cu</c><c>   1</c></rc>
    <rc><c>Cu</c><c>   1</c></rc>
    <rc><c>Cu</c><c>   1</c></rc>
    <rc><c>Cu</c><c>   1</c></rc>
    <rc><c>Cu</c><c>   1</c></rc>
    <rc><c>Cu</c><c>   1</c></rc>
    <rc><c>Cu</c><c>   1</c></rc>
    <rc><c>Cu</c><c>   1</c></rc>
    <rc><c>Cu</c><c>   1</c></rc>
    <rc><c>Cu</c><c>   1</c></rc>
    <rc><c>Cu</c><c>   1</c></rc>
    <rc><c>Cu</c><c>   1</c></rc>
    <rc><c>Cu</c><c>   1</c></rc>
    <rc><c>Cu</c><c>   1</c></rc>
    <rc><c>Cu</c><c>   1</c></rc>
    <rc><c>Cu</c><c>   1</c></rc>
    <rc><c>Cu</c><c>   1</c></rc>
    <rc><c>Cu</c><c>   1</c></rc>
    <rc><c>Cu</c><c>   1</c></rc>
    <rc><c>Cu</c><c>   1</c></rc>
    <rc><c>Cu</c><c>   1</c></rc>
    <rc><c>Cu</c><c>   1</c></rc>
    <rc><c>Cu</c><c>   1</c></rc>
   </set>
  </array>
  <array name="atomtypes" >
   <dimension dim="1">type</dimension>
   <field type="int">atomspertype</field>
   <field type="string">element</field>
   <field>mass</field>
   <field>valence</field>
   <field type="string">pseudopotential</field>
   <set>
    <rc><c>  32</c><c>Cu</c><c>     63.54600000</c><c>     11.00000000</c><c> PAW_PBE Cu 05Jan2001                   </c></rc>
   </set>
  </array>
 </atominfo>
 <structure name="initialpos" >
  <crystal>
   <varray name="basis" >
    <v>       7.56374489      0.00000000      0.00000000</v>
    <v>       0.00000000      7.56374489      0.00000000</v>
    <v>       0.00000000      0.00000000      7.56374489</v>
   </varray>
   <i name="volume">    432.72363568</i>
   <varray name="rec_basis" >
    <v>       0.13220964      0.00000000      0.00000000</v>
    <v>       0.00000000      0.13220964      0.00000000</v>
    <v>       0.00000000      0.00000000      0.13220964</v>
   </varray>
  </crystal>
  <varray name="positions" >
   <v>       0.00132210      0.00000000      0.00000000</v>
   <v>       0.50000000      0.00000000      0.00000000</v>
   <v>       0.00000000      0.50000000      0.00000000</v>
   <v>       0.50000000      0.50000000      0.00000000</v>
   <v>       0.00000000      0.00000000      0.50000000</v>
   <v>       0.50000000      0.00000000      0.50000000</v>
   <v>       0.00000000      0.50000000      0.50000000</v>
   <v>       0.50000000      0.50000000      0.50000000</v>
   <v>       0.25000000      0.25000000      0.00000000</v>
   <v>       0.75000000      0.25000000      0.00000000</v>
   <v>       0.25000000      0.75000000      0.00000000</v>
   <v>       0.75000000      0.75000000      0.00000000</v>
   <v>       0.25000000      0.25000000      0.50000000</v>
   <v>       0.75000000      0.25000000      0.50000000</v>
   <v>       0.25000000      0.75000000      0.50000000</v>
   <v>       0.75000000      0.75000000      0.50000000</v>
   <v>       0.25000000      0.00000000      0.25000000</v>
   <v>       0.75000000      0.00000000      0.25000000</v>
   <v>       0.25000000      0.50000000      0.25000000</v>
   <v>       0.75000000      0.50000000      0.25000000</v>
   <v>       0.25000000      0.00000000      0.75000000</v>
   <v>       0.75000000      0.00000000      0.75000000</v>
   <v>       0.25000000      0.50000000      0.75000000</v>
   <v>       0.75000000      0.50000000      0.75000000</v>
   <v>       0.00000000      0.25000000      0.25000000</v>
   <v>       0.50000000      0.25000000      0.25000000</v>
   <v>       0.00000000      0.75000000      0.25000000</v>
   <v>       0.50000000      0.75000000      0.25000000</v>
   <v>       0.00000000      0.25000000      0.75000000</v>
   <v>       0.50000000      0.25000000      0.75000000</v>
   <v>       0.00000000      0.75000000      0.75000000</v>
   <v>       0.50000000      0.75000000      0.75000000</v>
  </varray>
 </structure>
 <calculation>
  <scstep>
   <time name="dav">  742.15  745.72</time>
   <time name="total">  744.66  752.14</time>
   <energy>
    <i name="alphaZ">   3023.38010415</i>
    <i name="ewald"> -33797.18586038</i>
    <i name="hartreedc"> -11279.23417337</i>
    <i name="XCdc">   1393.53931368</i>
    <i name="pawpsdc">  34625.67335558</i>
    <i name="pawaedc"> -39234.46421604</i>
    <i name="eentropy">     -0.00028760</i>
    <i name="bandstr">   4551.00614743</i>
    <i name="atom">  44511.34040493</i>
    <i name="e_fr_energy">   3794.05478839</i>
    <i name="e_wo_entrp">   3794.05507599</i>
    <i name="e_0_energy">   3794.05493219</i>
   </energy>
  </scstep>
  <scstep>
   <time name="dav">  750.52  750.28</time>
   <time name="total">  750.64  750.40</time>
   <energy>
    <i name="e_fr_energy">    412.79358677</i>
    <i name="e_wo_entrp">    412.79389586</i>
    <i name="e_0_energy">    412.79374132</i>
   </energy>
  </scstep>
  <scstep>
   <time name="dav">  753.79  753.54</time>
   <time name="total">  753.91  753.66</time>
   <energy>
    <i name="e_fr_energy">   -108.93126759</i>
    <i name="e_wo_entrp">   -108.93042006</i>
    <i name="e_0_energy">   -108.93084382</i>
   </energy>
  </scstep>
  <scstep>
   <time name="dav">  788.80  788.54</time>
   <time name="total">  788.92  788.66</time>
   <energy>
    <i name="e_fr_energy">   -142.52238550</i>
    <i name="e_wo_entrp">   -142.52145108</i>
    <i name="e_0_energy">   -142.52191829</i>
   </energy>
  </scstep>
  <scstep>
   <time name="dav">  936.04  935.71</time>
   <time name="total"> 1013.24 1012.88</time>
   <energy>
    <i name="e_fr_energy">   -142.89590416</i>
    <i name="e_wo_entrp">   -142.89499550</i>
    <i name="e_0_energy">   -142.89544983</i>
   </energy>
  </scstep>
  <scstep>
   <time name="dav"> 1007.71 1007.57</time>
   <time name="total"> 1095.34 1095.18</time>
   <energy>
    <i name="e_fr_energy">   -129.72131317</i>
    <i name="e_wo_entrp">   -129.72096877</i>
    <i name="e_0_energy">   -129.72114097</i>
   </energy>
  </scstep>
  <scstep>
   <time name="dav">  928.05  928.85</time>
   <time name="total">  966.65  969.41</time>
   <energy>
    <i name="e_fr_energy">   -117.19076641</i>
    <i name="e_wo_entrp">   -117.18970681</i>
    <i name="e_0_energy">   -117.19023661</i>
   </energy>
  </scstep>
  <scstep>
   <time name="dav">  764.57  792.06</time>
   <time name="total">  792.36  822.05</time>
   <energy>
    <i name="e_fr_energy">   -117.08224940</i>
    <i name="e_wo_entrp">   -117.08122502</i>
    <i name="e_0_energy">   -117.08173721</i>
   </energy>
  </scstep>
  <scstep>
   <time name="dav">  810.91  811.85</time>
   <time name="total">  852.13  854.96</time>
   <energy>
    <i name="e_fr_energy">   -116.96817068</i>
    <i name="e_wo_entrp">   -116.96714835</i>
    <i name="e_0_energy">   -116.96765951</i>
   </energy>
  </scstep>
  <scstep>
   <time name="dav">  757.37  757.63</time>
   <time name="total">  789.79  791.42</time>
   <energy>
    <i name="e_fr_energy">   -116.96985007</i>
    <i name="e_wo_entrp">   -116.96884792</i>
    <i name="e_0_energy">   -116.96934899</i>
   </energy>
  </scstep>
  <scstep>
   <time name="dav">  807.68  809.16</time>
   <time name="total">  845.21  848.56</time>
   <energy>
    <i name="e_fr_energy">   -116.96912158</i>
    <i name="e_wo_entrp">   -116.96807733</i>
    <i name="e_0_energy">   -116.96859946</i>
   </energy>
  </scstep>
  <scstep>
   <time name="dav">  844.02  845.19</time>
   <time name="total">  889.70  891.74</time>
   <energy>
    <i name="e_fr_energy">   -116.96913899</i>
    <i name="e_wo_entrp">   -116.96809242</i>
    <i name="e_0_energy">   -116.96861570</i>
   </energy>
  </scstep>
  <scstep>
   <time name="dav">  841.82  841.73</time>
   <time name="total">  879.67  880.38</time>
   <energy>
    <i name="e_fr_energy">   -116.96913903</i>
    <i name="e_wo_entrp">   -116.96809336</i>
    <i name="e_0_energy">   -116.96861619</i>
   </energy>
  </scstep>
  <scstep>
   <time name="dav">  996.08 1018.56</time>
   <time name="total"> 1116.06 1142.69</time>
   <energy>
    <i name="e_fr_energy">   -116.96913703</i>
    <i name="e_wo_entrp">   -116.96809251</i>
    <i name="e_0_energy">   -116.96861477</i>
   </energy>
  </scstep>
  <scstep>
   <time name="dav"> 1066.42 1151.47</time>
   <time name="total"> 1108.90 1196.35</time>
   <energy>
    <i name="e_fr_energy">   -116.96913645</i>
    <i name="e_wo_entrp">   -116.96809211</i>
    <i name="e_0_energy">   -116.96861428</i>
   </energy>
  </scstep>
  <scstep>
   <time name="dav">  982.48  989.83</time>
   <time name="total"> 1027.14 1036.16</time>
   <energy>
    <i name="e_fr_energy">   -116.96913584</i>
    <i name="e_wo_entrp">   -116.96809152</i>
    <i name="e_0_energy">   -116.96861368</i>
   </energy>
  </scstep>
  <scstep>
   <time name="dav">  806.92  808.81</time>
   <time name="total">  850.85  853.68</time>
   <energy>
    <i name="e_fr_energy">   -116.96913647</i>
    <i name="e_wo_entrp">   -116.96809206</i>
    <i name="e_0_energy">   -116.96861427</i>
   </energy>
  </scstep>
  <scstep>
   <time name="dav">  648.95  648.73</time>
   <time name="total">  685.83  687.08</time>
   <energy>
    <i name="e_fr_energy">   -116.96913700</i>
    <i name="e_wo_entrp">   -116.96809251</i>
    <i name="e_0_energy">   -116.96861476</i>
   </energy>
  </scstep>
  <scstep>
   <time name="dav">  537.29  538.78</time>
   <time name="total">  575.04  577.43</time>
   <energy>
    <i name="e_fr_energy">   -116.96913704</i>
    <i name="e_wo_entrp">   -116.96809256</i>
    <i name="e_0_energy">   -116.96861480</i>
   </energy>
  </scstep>
  <scstep>
   <time name="dav">  541.88  541.69</time>
   <time name="total">  580.32  580.65</time>
   <energy>
    <i name="e_fr_energy">   -116.96913698</i>
    <i name="e_wo_entrp">   -116.96809252</i>
    <i name="e_0_energy">   -116.96861475</i>
   </energy>
  </scstep>
  <scstep>
   <time name="dav">  541.19  542.39</time>
   <time name="total">  578.78  581.23</time>
   <energy>
    <i name="e_fr_energy">   -116.96913690</i>
    <i name="e_wo_entrp">   -116.96809244</i>
    <i name="e_0_energy">   -116.96861467</i>
   </energy>
  </scstep>
  <scstep>
   <time name="dav">  499.11  500.68</time>
   <time name="total">  499.93  501.51</time>
   <energy>
    <i name="alphaZ">   3023.38010415</i>
    <i name="ewald"> -33797.18586038</i>
    <i name="hartreedc"> -10611.93042581</i>
    <i name="XCdc">   1361.46879461</i>
    <i name="pawpsdc">  34601.13752201</i>
    <i name="pawaedc"> -39217.09986699</i>
    <i name="eentropy">     -0.00104445</i>
    <i name="bandstr">     11.92123505</i>
    <i name="atom">  44511.34040493</i>
    <i name="e_fr_energy">   -116.96913689</i>
    <i name="e_wo_entrp">   -116.96809244</i>
    <i name="e_0_energy">   -116.96861466</i>
   </energy>
  </scstep>
  <structure>
   <crystal>
    <varray name="basis" >
     <v>       7.56374489      0.00000000      0.00000000</v>
     <v>       0.00000000      7.56374489      0.00000000</v>
     <v>       0.00000000      0.00000000      7.56374489</v>
    </varray>
    <i name="volume">    432.72363568</i>
    <varray name="rec_basis" >
     <v>       0.13220964      0.00000000      0.00000000</v>
     <v>       0.00000000      0.13220964      0.00000000</v>
     <v>       0.00000000      0.00000000      0.13220964</v>
    </varray>
   </crystal>
   <varray name="positions" >
    <v>       0.00132210      0.00000000      0.00000000</v>
    <v>       0.50000000      0.00000000      0.00000000</v>
    <v>       0.00000000      0.50000000      0.00000000</v>
    <v>       0.50000000      0.50000000      0.00000000</v>
    <v>       0.00000000      0.00000000      0.50000000</v>
    <v>       0.50000000      0.00000000      0.50000000</v>
    <v>       0.00000000      0.50000000      0.50000000</v>
    <v>       0.50000000      0.50000000      0.50000000</v>
    <v>       0.25000000      0.25000000      0.00000000</v>
    <v>       0.75000000      0.25000000      0.00000000</v>
    <v>       0.25000000      0.75000000      0.00000000</v>
    <v>       0.75000000      0.75000000      0.00000000</v>
    <v>       0.25000000      0.25000000      0.50000000</v>
    <v>       0.75000000      0.25000000      0.50000000</v>
    <v>       0.25000000      0.75000000      0.50000000</v>
    <v>       0.75000000      0.75000000      0.50000000</v>
    <v>       0.25000000      0.00000000      0.25000000</v>
    <v>       0.75000000      0.00000000      0.25000000</v>
    <v>       0.25000000      0.50000000      0.25000000</v>
    <v>       0.75000000      0.50000000      0.25000000</v>
    <v>       0.25000000      0.00000000      0.75000000</v>
    <v>       0.75000000      0.00000000      0.75000000</v>
    <v>       0.25000000      0.50000000      0.75000000</v>
    <v>       0.75000000      0.50000000      0.75000000</v>
    <v>       0.00000000      0.25000000      0.25000000</v>
    <v>       0.50000000      0.25000000      0.25000000</v>
    <v>       0.00000000      0.75000000      0.25000000</v>
    <v>       0.50000000      0.75000000      0.25000000</v>
    <v>       0.00000000      0.25000000      0.75000000</v>
    <v>       0.50000000      0.25000000      0.75000000</v>
    <v>       0.00000000      0.75000000      0.75000000</v>
    <v>       0.50000000      0.75000000      0.75000000</v>
   </varray>
  </structure>
  <varray name="forces" >
   <v>      -0.03665830     -0.00000000      0.00000000</v>
   <v>       0.00087510     -0.00000000     -0.00000000</v>
   <v>      -0.00038682     -0.00000000      0.00000000</v>
   <v>      -0.00035998      0.00000000      0.00000000</v>
   <v>      -0.00038682      0.00000000     -0.00000000</v>
   <v>      -0.00035998      0.00000000     -0.00000000</v>
   <v>      -0.00006098     -0.00000000     -0.00000000</v>
   <v>      -0.00011284     -0.00000000      0.00000000</v>
   <v>       0.00417827      0.00458821      0.00000000</v>
   <v>       0.00400955     -0.00436815     -0.00000000</v>
   <v>       0.00417827     -0.00458821      0.00000000</v>
   <v>       0.00400955      0.00436815     -0.00000000</v>
   <v>       0.00032710      0.00005983     -0.00000000</v>
   <v>       0.00032511     -0.00005671     -0.00000000</v>
   <v>       0.00032710     -0.00005983      0.00000000</v>
   <v>       0.00032511      0.00005671     -0.00000000</v>
   <v>       0.00417827     -0.00000000      0.00458821</v>
   <v>       0.00400955     -0.00000000     -0.00436815</v>
   <v>       0.00032710      0.00000000      0.00005983</v>
   <v>       0.00032511     -0.00000000     -0.00005671</v>
   <v>       0.00417827      0.00000000     -0.00458821</v>
   <v>       0.00400955     -0.00000000      0.00436815</v>
   <v>       0.00032710     -0.00000000     -0.00005983</v>
   <v>       0.00032511      0.00000000      0.00005671</v>
   <v>      -0.00007057     -0.00000688     -0.00000688</v>
   <v>       0.00059319      0.00000318      0.00000318</v>
   <v>      -0.00007057      0.00000688     -0.00000688</v>
   <v>       0.00059319     -0.00000318      0.00000318</v>
   <v>      -0.00007057     -0.00000688      0.00000688</v>
   <v>       0.00059319      0.00000318     -0.00000318</v>
   <v>      -0.00007057      0.00000688      0.00000688</v>
   <v>       0.00059319     -0.00000318     -0.00000318</v>
  </varray>
  <varray name="stress" >
   <v>    -119.55439674      0.00000000      0.00000000</v>
   <v>       0.00000000   -119.55416034      0.00000000</v>
   <v>       0.00000000      0.00000000   -119.55416034</v>
  </varray>
  <energy>
   <i name="e_fr_energy">   -116.96913689</i>
   <i name="e_wo_entrp">   -116.96861466</i>
   <i name="e_0_energy">     -0.00104445</i>
  </energy>
  <eigenvalues>
   <array>
    <dimension dim="1">band</dimension>
    <dimension dim="2">kpoint</dimension>
    <dimension dim="3">spin</dimension>
    <field>eigene</field>
    <field>occ</field>
    <set>
     <set comment="spin 1">
      <set comment="kpoint 1">
       <r>  -5.6563  1.0000</r>
       <r>  -3.1195  1.0000</r>
       <r>  -3.1165  1.0000</r>
       <r>  -3.1165  1.0000</r>
       <r>  -3.1165  1.0000</r>
       <r>  -3.1165  1.0000</r>
       <r>  -3.1136  1.0000</r>
       <r>  -1.6764  1.0000</r>
       <r>  -1.6764  1.0000</r>
       <r>  -1.6764  1.0000</r>
       <r>  -1.6764  1.0000</r>
       <r>  -1.4530  1.0000</r>
       <r>  -1.4530  1.0000</r>
       <r>  -1.4530  1.0000</r>
       <r>  -1.3726  1.0000</r>
       <r>  -1.3704  1.0000</r>
       <r>  -1.3704  1.0000</r>
       <r>  -1.3694  1.0000</r>
       <r>  -1.3692  1.0000</r>
       <r>  -1.3692  1.0000</r>
       <r>  -1.3692  1.0000</r>
       <r>  -1.3692  1.0000</r>
       <r>  -1.3690  1.0000</r>
       <r>  -1.3680  1.0000</r>
       <r>  -1.3680  1.0000</r>
       <r>  -1.3658  1.0000</r>
       <r>  -1.0816  1.0000</r>
       <r>  -1.0816  1.0000</r>
       <r>  -1.0816  1.0000</r>
       <r>  -0.8296  1.0000</r>
       <r>  -0.8280  1.0000</r>
       <r>  -0.8280  1.0000</r>
       <r>  -0.8280  1.0000</r>
       <r>  -0.8280  1.0000</r>
       <r>  -0.8265  1.0000</r>
       <r>  -0.5319  1.0000</r>
       <r>  -0.5306  1.0000</r>
       <r>  -0.5306  1.0000</r>
       <r>  -0.5305  1.0000</r>
       <r>  -0.5305  1.0000</r>
       <r>  -0.5292  1.0000</r>
       <r>  -0.3531  1.0000</r>
       <r>  -0.3519  1.0000</r>
       <r>  -0.3519  1.0000</r>
       <r>  -0.3499  1.0000</r>
       <r>  -0.3499  1.0000</r>
       <r>  -0.3499  1.0000</r>
       <r>  -0.3498  1.0000</r>
       <r>  -0.3498  1.0000</r>
       <r>  -0.3497  1.0000</r>
       <r>  -0.3497  1.0000</r>
       <r>  -0.3497  1.0000</r>
       <r>  -0.3495  1.0000</r>
       <r>  -0.3495  1.0000</r>
       <r>  -0.3494  1.0000</r>
       <r>  -0.3494  1.0000</r>
       <r>  -0.3494  1.0000</r>
       <r>  -0.3494  1.0000</r>
       <r>  -0.3493  1.0000</r>
       <r>  -0.3493  1.0000</r>
       <r>  -0.3492  1.0000</r>
       <r>  -0.3492  1.0000</r>
       <r>  -0.3474  1.0000</r>
       <r>  -0.3474  1.0000</r>
       <r>  -0.3458  1.0000</r>
       <r>  -0.1768  1.0000</r>
       <r>  -0.1748  1.0000</r>
       <r>  -0.1748  1.0000</r>
       <r>  -0.1746  1.0000</r>
       <r>  -0.1744  1.0000</r>
       <r>  -0.1744  1.0000</r>
       <r>  -0.1744  1.0000</r>
       <r>  -0.1744  1.0000</r>
       <r>  -0.1743  1.0000</r>
       <r>  -0.1740  1.0000</r>
       <r>  -0.1740  1.0000</r>
       <r>  -0.1720  1.0000</r>
       <r>   0.0227  1.0000</r>
       <r>   0.0227  1.0000</r>
       <r>   0.0227  1.0000</r>
       <r>   0.0227  1.0000</r>
       <r>   0.0227  1.0000</r>
       <r>   0.0227  1.0000</r>
       <r>   0.0227  1.0000</r>
       <r>   0.0228  1.0000</r>
       <r>   0.0433  1.0000</r>
       <r>   0.0433  1.0000</r>
       <r>   0.0433  1.0000</r>
       <r>   0.3533  1.0000</r>
       <r>   0.3546  1.0000</r>
       <r>   0.3546  1.0000</r>
       <r>   0.3546  1.0000</r>
       <r>   0.3546  1.0000</r>
       <r>   0.3559  1.0000</r>
       <r>   0.4566  1.0000</r>
       <r>   0.4571  1.0000</r>
       <r>   0.4577  1.0000</r>
       <r>   0.4577  1.0000</r>
       <r>   0.4581  1.0000</r>
       <r>   0.4581  1.0000</r>
       <r>   0.4581  1.0000</r>
       <r>   0.4581  1.0000</r>
       <r>   0.4585  1.0000</r>
       <r>   0.4585  1.0000</r>
       <r>   0.4591  1.0000</r>
       <r>   0.4595  1.0000</r>
       <r>   0.5810  1.0000</r>
       <r>   0.5810  1.0000</r>
       <r>   0.5824  1.0000</r>
       <r>   0.5824  1.0000</r>
       <r>   0.5826  1.0000</r>
       <r>   0.5826  1.0000</r>
       <r>   0.5826  1.0000</r>
       <r>   0.5826  1.0000</r>
       <r>   0.5827  1.0000</r>
       <r>   0.5827  1.0000</r>
       <r>   0.5841  1.0000</r>
       <r>   0.5841  1.0000</r>
       <r>   0.6861  1.0000</r>
       <r>   0.6869  1.0000</r>
       <r>   0.6869  1.0000</r>
       <r>   0.6870  1.0000</r>
       <r>   0.6870  1.0000</r>
       <r>   0.6878  1.0000</r>
       <r>   0.7096  1.0000</r>
       <r>   0.7096  1.0000</r>
       <r>   0.7107  1.0000</r>
       <r>   0.7109  1.0000</r>
       <r>   0.7110  1.0000</r>
       <r>   0.7111  1.0000</r>
       <r>   0.7111  1.0000</r>
       <r>   0.7111  1.0000</r>
       <r>   0.7111  1.0000</r>
       <r>   0.7115  1.0000</r>
       <r>   0.7127  1.0000</r>
       <r>   0.7127  1.0000</r>
       <r>   0.7139  1.0000</r>
       <r>   0.7141  1.0000</r>
       <r>   0.9344  1.0000</r>
       <r>   0.9351  1.0000</r>
       <r>   0.9351  1.0000</r>
       <r>   0.9351  1.0000</r>
       <r>   0.9351  1.0000</r>
       <r>   0.9358  1.0000</r>
       <r>   1.1604  1.0000</r>
       <r>   1.1604  1.0000</r>
       <r>   1.1604  1.0000</r>
       <r>   1.1721  1.0000</r>
       <r>   1.1721  1.0000</r>
       <r>   1.1721  1.0000</r>
       <r>   1.1721  1.0000</r>
       <r>   1.1721  1.0000</r>
       <r>   1.1721  1.0000</r>
       <r>   1.1721  1.0000</r>
       <r>   1.1721  1.0000</r>
       <r>   1.2850  1.0000</r>
       <r>   1.2853  1.0000</r>
       <r>   1.2853  1.0000</r>
       <r>   1.2853  1.0000</r>
       <r>   1.2853  1.0000</r>
       <r>   1.2853  1.0000</r>
       <r>   1.2859  1.0000</r>
       <r>   1.2859  1.0000</r>
       <r>   1.2859  1.0000</r>
       <r>   1.2859  1.0000</r>
       <r>   1.2859  1.0000</r>
       <r>   1.2862  1.0000</r>
       <r>   2.0916  1.0000</r>
       <r>   2.0916  1.0000</r>
       <r>   2.0916  1.0000</r>
       <r>   2.0916  1.0000</r>
       <r>   2.3322  1.0000</r>
       <r>   2.3325  1.0000</r>
       <r>   2.3325  1.0000</r>
       <r>   2.3333  1.0000</r>
       <r>   2.3336  1.0000</r>
       <r>   2.3336  1.0000</r>
       <r>   2.3336  1.0000</r>
       <r>   2.3336  1.0000</r>
       <r>   2.3339  1.0000</r>
       <r>   2.3347  1.0000</r>
       <r>   2.3347  1.0000</r>
       <r>   2.3351  1.0000</r>
       <r>   4.3191  0.0000</r>
       <r>   4.3191  0.0000</r>
       <r>   4.3191  0.0000</r>
       <r>   5.8295  0.0000</r>
       <r>   5.8295  0.0000</r>
       <r>   5.8295  0.0000</r>
       <r>   5.8295  0.0000</r>
       <r>   8.4427  0.0000</r>
       <r>   8.4427  0.0000</r>
       <r>   8.4461  0.0000</r>
       <r>   8.4461  0.0000</r>
       <r>   8.4464  0.0000</r>
       <r>   8.4464  0.0000</r>
       <r>   8.4464  0.0000</r>
       <r>   8.4464  0.0000</r>
       <r>   8.4467  0.0000</r>
       <r>   8.4467  0.0000</r>
       <r>   8.4500  0.0000</r>
       <r>   8.4500  0.0000</r>
       <r>   8.9265  0.0000</r>
       <r>   8.9265  0.0000</r>
       <r>   8.9265  0.0000</r>
       <r>  10.3494  0.0000</r>
       <r>  10.3495  0.0000</r>
       <r>  10.3496  0.0000</r>
       <r>  10.3497  0.0000</r>
       <r>  10.3497  0.0000</r>
       <r>  10.3500  0.0000</r>
       <r>  10.4034  0.0000</r>
       <r>  10.4060  0.0000</r>
       <r>  10.4060  0.0000</r>
       <r>  10.4060  0.0000</r>
       <r>  10.4081  0.0000</r>
      </set>
      <set comment="kpoint 2">
       <r>  -5.6371  1.0000</r>
       <r>  -3.4786  1.0000</r>
       <r>  -3.1007  1.0000</r>
       <r>  -3.1007  1.0000</r>
       <r>  -3.1007  1.0000</r>
       <r>  -3.1007  1.0000</r>
       <r>  -2.7548  1.0000</r>
       <r>  -1.6725  1.0000</r>
       <r>  -1.6725  1.0000</r>
       <r>  -1.6725  1.0000</r>
       <r>  -1.6725  1.0000</r>
       <r>  -1.5647  1.0000</r>
       <r>  -1.5647  1.0000</r>
       <r>  -1.5647  1.0000</r>
       <r>  -1.5647  1.0000</r>
       <r>  -1.4534  1.0000</r>
       <r>  -1.4445  1.0000</r>
       <r>  -1.4445  1.0000</r>
       <r>  -1.3772  1.0000</r>
       <r>  -1.3772  1.0000</r>
       <r>  -1.3772  1.0000</r>
       <r>  -1.3772  1.0000</r>
       <r>  -1.1925  1.0000</r>
       <r>  -1.1925  1.0000</r>
       <r>  -1.1925  1.0000</r>
       <r>  -1.1925  1.0000</r>
       <r>  -1.0770  1.0000</r>
       <r>  -1.0767  1.0000</r>
       <r>  -1.0767  1.0000</r>
       <r>  -0.8425  1.0000</r>
       <r>  -0.8424  1.0000</r>
       <r>  -0.8216  1.0000</r>
       <r>  -0.8216  1.0000</r>
       <r>  -0.8216  1.0000</r>
       <r>  -0.8216  1.0000</r>
       <r>  -0.6038  1.0000</r>
       <r>  -0.5285  1.0000</r>
       <r>  -0.5285  1.0000</r>
       <r>  -0.5285  1.0000</r>
       <r>  -0.5285  1.0000</r>
       <r>  -0.4695  1.0000</r>
       <r>  -0.4695  1.0000</r>
       <r>  -0.4569  1.0000</r>
       <r>  -0.3640  1.0000</r>
       <r>  -0.3637  1.0000</r>
       <r>  -0.3637  1.0000</r>
       <r>  -0.3637  1.0000</r>
       <r>  -0.3569  1.0000</r>
       <r>  -0.3569  1.0000</r>
       <r>  -0.3569  1.0000</r>
       <r>  -0.3569  1.0000</r>
       <r>  -0.3492  1.0000</r>
       <r>  -0.3491  1.0000</r>
       <r>  -0.3491  1.0000</r>
       <r>  -0.3491  1.0000</r>
       <r>  -0.3386  1.0000</r>
       <r>  -0.3386  1.0000</r>
       <r>  -0.3386  1.0000</r>
       <r>  -0.3384  1.0000</r>
       <r>  -0.3291  1.0000</r>
       <r>  -0.3290  1.0000</r>
       <r>  -0.3290  1.0000</r>
       <r>  -0.3288  1.0000</r>
       <r>  -0.2317  1.0000</r>
       <r>  -0.2317  1.0000</r>
       <r>  -0.2317  1.0000</r>
       <r>  -0.2317  1.0000</r>
       <r>  -0.2192  1.0000</r>
       <r>  -0.2192  1.0000</r>
       <r>  -0.1707  1.0000</r>
       <r>  -0.1707  1.0000</r>
       <r>  -0.1707  1.0000</r>
       <r>  -0.1707  1.0000</r>
       <r>  -0.1282  1.0000</r>
       <r>  -0.1282  1.0000</r>
       <r>  -0.1282  1.0000</r>
       <r>  -0.1281  1.0000</r>
       <r>   0.0197  1.0000</r>
       <r>   0.0197  1.0000</r>
       <r>   0.0197  1.0000</r>
       <r>   0.0197  1.0000</r>
       <r>   0.0272  1.0000</r>
       <r>   0.0272  1.0000</r>
       <r>   0.0272  1.0000</r>
       <r>   0.0272  1.0000</r>
       <r>   0.0383  1.0000</r>
       <r>   0.0474  1.0000</r>
       <r>   0.0474  1.0000</r>
       <r>   0.3296  1.0000</r>
       <r>   0.3296  1.0000</r>
       <r>   0.3296  1.0000</r>
       <r>   0.3296  1.0000</r>
       <r>   0.3592  1.0000</r>
       <r>   0.3846  1.0000</r>
       <r>   0.4386  1.0000</r>
       <r>   0.4387  1.0000</r>
       <r>   0.4387  1.0000</r>
       <r>   0.4387  1.0000</r>
       <r>   0.4567  1.0000</r>
       <r>   0.4567  1.0000</r>
       <r>   0.4567  1.0000</r>
       <r>   0.4567  1.0000</r>
       <r>   0.4785  1.0000</r>
       <r>   0.4785  1.0000</r>
       <r>   0.4785  1.0000</r>
       <r>   0.4785  1.0000</r>
       <r>   0.5045  1.0000</r>
       <r>   0.5045  1.0000</r>
       <r>   0.5825  1.0000</r>
       <r>   0.5825  1.0000</r>
       <r>   0.5825  1.0000</r>
       <r>   0.5825  1.0000</r>
       <r>   0.6043  1.0000</r>
       <r>   0.6043  1.0000</r>
       <r>   0.6043  1.0000</r>
       <r>   0.6043  1.0000</r>
       <r>   0.6632  1.0000</r>
       <r>   0.6632  1.0000</r>
       <r>   0.6742  1.0000</r>
       <r>   0.6742  1.0000</r>
       <r>   0.6742  1.0000</r>
       <r>   0.6742  1.0000</r>
       <r>   0.6871  1.0000</r>
       <r>   0.6872  1.0000</r>
       <r>   0.6872  1.0000</r>
       <r>   0.6872  1.0000</r>
       <r>   0.6988  1.0000</r>
       <r>   0.6989  1.0000</r>
       <r>   0.7093  1.0000</r>
       <r>   0.7157  1.0000</r>
       <r>   0.7309  1.0000</r>
       <r>   0.7309  1.0000</r>
       <r>   0.7309  1.0000</r>
       <r>   0.7310  1.0000</r>
       <r>   0.7557  1.0000</r>
       <r>   0.7557  1.0000</r>
       <r>   0.7558  1.0000</r>
       <r>   0.7558  1.0000</r>
       <r>   0.9060  1.0000</r>
       <r>   0.9402  1.0000</r>
       <r>   0.9402  1.0000</r>
       <r>   0.9402  1.0000</r>
       <r>   0.9402  1.0000</r>
       <r>   0.9643  1.0000</r>
       <r>   1.1262  1.0000</r>
       <r>   1.1262  1.0000</r>
       <r>   1.1262  1.0000</r>
       <r>   1.1262  1.0000</r>
       <r>   1.1545  1.0000</r>
       <r>   1.1545  1.0000</r>
       <r>   1.1585  1.0000</r>
       <r>   1.1672  1.0000</r>
       <r>   1.1672  1.0000</r>
       <r>   1.1672  1.0000</r>
       <r>   1.1672  1.0000</r>
       <r>   1.2563  1.0000</r>
       <r>   1.2563  1.0000</r>
       <r>   1.2783  1.0000</r>
       <r>   1.2783  1.0000</r>
       <r>   1.2783  1.0000</r>
       <r>   1.2783  1.0000</r>
       <r>   1.2783  1.0000</r>
       <r>   1.2783  1.0000</r>
       <r>   1.2850  1.0000</r>
       <r>   1.2853  1.0000</r>
       <r>   1.2859  1.0000</r>
       <r>   1.2862  1.0000</r>
       <r>   2.0901  1.0000</r>
       <r>   2.0901  1.0000</r>
       <r>   2.0901  1.0000</r>
       <r>   2.0901  1.0000</r>
       <r>   2.1095  1.0000</r>
       <r>   2.1095  1.0000</r>
       <r>   2.1096  1.0000</r>
       <r>   2.1096  1.0000</r>
       <r>   2.3329  1.0000</r>
       <r>   2.3329  1.0000</r>
       <r>   2.3329  1.0000</r>
       <r>   2.3329  1.0000</r>
       <r>   2.6219  1.0000</r>
       <r>   2.6219  1.0000</r>
       <r>   2.6219  1.0000</r>
       <r>   2.6219  1.0000</r>
       <r>   4.1727  0.0000</r>
       <r>   4.3657  0.0000</r>
       <r>   4.3657  0.0000</r>
       <r>   5.8919  0.0000</r>
       <r>   5.8919  0.0000</r>
       <r>   5.8919  0.0000</r>
       <r>   5.8919  0.0000</r>
       <r>   7.9239  0.0000</r>
       <r>   7.9239  0.0000</r>
       <r>   8.1366  0.0000</r>
       <r>   8.1366  0.0000</r>
       <r>   8.1367  0.0000</r>
       <r>   8.1367  0.0000</r>
       <r>   8.4718  0.0000</r>
       <r>   8.4718  0.0000</r>
       <r>   8.4718  0.0000</r>
       <r>   8.4718  0.0000</r>
       <r>   8.9346  0.0000</r>
       <r>   8.9346  0.0000</r>
       <r>   8.9892  0.0000</r>
       <r>   8.9892  0.0000</r>
       <r>   9.1124  0.0000</r>
       <r>  10.1111  0.0000</r>
       <r>  10.1111  0.0000</r>
       <r>  10.3878  0.0000</r>
       <r>  10.3878  0.0000</r>
       <r>  10.3878  0.0000</r>
       <r>  10.3878  0.0000</r>
       <r>  10.6789  0.0000</r>
       <r>  10.6808  0.0000</r>
       <r>  10.7289  0.0000</r>
       <r>  10.7290  0.0000</r>
       <r>  10.7290  0.0000</r>
      </set>
      <set comment="kpoint 3">
       <r>  -5.5796  1.0000</r>
       <r>  -3.8285  1.0000</r>
       <r>  -3.0535  1.0000</r>
       <r>  -3.0535  1.0000</r>
       <r>  -3.0535  1.0000</r>
       <r>  -3.0535  1.0000</r>
       <r>  -2.4112  1.0000</r>
       <r>  -1.7726  1.0000</r>
       <r>  -1.7726  1.0000</r>
       <r>  -1.7726  1.0000</r>
       <r>  -1.7726  1.0000</r>
       <r>  -1.6612  1.0000</r>
       <r>  -1.6612  1.0000</r>
       <r>  -1.6611  1.0000</r>
       <r>  -1.6611  1.0000</r>
       <r>  -1.4558  1.0000</r>
       <r>  -1.4195  1.0000</r>
       <r>  -1.4195  1.0000</r>
       <r>  -1.3995  1.0000</r>
       <r>  -1.3995  1.0000</r>
       <r>  -1.3995  1.0000</r>
       <r>  -1.3995  1.0000</r>
       <r>  -1.0632  1.0000</r>
       <r>  -1.0621  1.0000</r>
       <r>  -1.0621  1.0000</r>
       <r>  -1.0380  1.0000</r>
       <r>  -1.0380  1.0000</r>
       <r>  -1.0380  1.0000</r>
       <r>  -1.0380  1.0000</r>
       <r>  -0.8834  1.0000</r>
       <r>  -0.8833  1.0000</r>
       <r>  -0.8029  1.0000</r>
       <r>  -0.8029  1.0000</r>
       <r>  -0.8029  1.0000</r>
       <r>  -0.8029  1.0000</r>
       <r>  -0.6753  1.0000</r>
       <r>  -0.5783  1.0000</r>
       <r>  -0.5783  1.0000</r>
       <r>  -0.5225  1.0000</r>
       <r>  -0.5225  1.0000</r>
       <r>  -0.5225  1.0000</r>
       <r>  -0.5224  1.0000</r>
       <r>  -0.3843  1.0000</r>
       <r>  -0.3812  1.0000</r>
       <r>  -0.3811  1.0000</r>
       <r>  -0.3811  1.0000</r>
       <r>  -0.3811  1.0000</r>
       <r>  -0.3777  1.0000</r>
       <r>  -0.3777  1.0000</r>
       <r>  -0.3777  1.0000</r>
       <r>  -0.3777  1.0000</r>
       <r>  -0.3472  1.0000</r>
       <r>  -0.3471  1.0000</r>
       <r>  -0.3471  1.0000</r>
       <r>  -0.3471  1.0000</r>
       <r>  -0.3315  1.0000</r>
       <r>  -0.3315  1.0000</r>
       <r>  -0.3315  1.0000</r>
       <r>  -0.3313  1.0000</r>
       <r>  -0.2980  1.0000</r>
       <r>  -0.2980  1.0000</r>
       <r>  -0.2980  1.0000</r>
       <r>  -0.2980  1.0000</r>
       <r>  -0.2698  1.0000</r>
       <r>  -0.2698  1.0000</r>
       <r>  -0.2698  1.0000</r>
       <r>  -0.2697  1.0000</r>
       <r>  -0.1599  1.0000</r>
       <r>  -0.1599  1.0000</r>
       <r>  -0.1599  1.0000</r>
       <r>  -0.1599  1.0000</r>
       <r>  -0.0916  1.0000</r>
       <r>  -0.0915  1.0000</r>
       <r>  -0.0915  1.0000</r>
       <r>  -0.0915  1.0000</r>
       <r>  -0.0782  1.0000</r>
       <r>  -0.0782  1.0000</r>
       <r>   0.0107  1.0000</r>
       <r>   0.0107  1.0000</r>
       <r>   0.0107  1.0000</r>
       <r>   0.0107  1.0000</r>
       <r>   0.0234  1.0000</r>
       <r>   0.0405  1.0000</r>
       <r>   0.0405  1.0000</r>
       <r>   0.0405  1.0000</r>
       <r>   0.0405  1.0000</r>
       <r>   0.0597  1.0000</r>
       <r>   0.0597  1.0000</r>
       <r>   0.2749  1.0000</r>
       <r>   0.2749  1.0000</r>
       <r>   0.2749  1.0000</r>
       <r>   0.2749  1.0000</r>
       <r>   0.3857  1.0000</r>
       <r>   0.3930  1.0000</r>
       <r>   0.3930  1.0000</r>
       <r>   0.3930  1.0000</r>
       <r>   0.3930  1.0000</r>
       <r>   0.4303  1.0000</r>
       <r>   0.4303  1.0000</r>
       <r>   0.4670  1.0000</r>
       <r>   0.4747  1.0000</r>
       <r>   0.4747  1.0000</r>
       <r>   0.4747  1.0000</r>
       <r>   0.4751  1.0000</r>
       <r>   0.5126  1.0000</r>
       <r>   0.5126  1.0000</r>
       <r>   0.5126  1.0000</r>
       <r>   0.5127  1.0000</r>
       <r>   0.5824  1.0000</r>
       <r>   0.5824  1.0000</r>
       <r>   0.5824  1.0000</r>
       <r>   0.5824  1.0000</r>
       <r>   0.6444  1.0000</r>
       <r>   0.6444  1.0000</r>
       <r>   0.6449  1.0000</r>
       <r>   0.6449  1.0000</r>
       <r>   0.6453  1.0000</r>
       <r>   0.6453  1.0000</r>
       <r>   0.6458  1.0000</r>
       <r>   0.6458  1.0000</r>
       <r>   0.6873  1.0000</r>
       <r>   0.6873  1.0000</r>
       <r>   0.6873  1.0000</r>
       <r>   0.6873  1.0000</r>
       <r>   0.6958  1.0000</r>
       <r>   0.7213  1.0000</r>
       <r>   0.7322  1.0000</r>
       <r>   0.7322  1.0000</r>
       <r>   0.7455  1.0000</r>
       <r>   0.7455  1.0000</r>
       <r>   0.7779  1.0000</r>
       <r>   0.7779  1.0000</r>
       <r>   0.7779  1.0000</r>
       <r>   0.7779  1.0000</r>
       <r>   0.8075  1.0000</r>
       <r>   0.8075  1.0000</r>
       <r>   0.8075  1.0000</r>
       <r>   0.8076  1.0000</r>
       <r>   0.8775  1.0000</r>
       <r>   0.9598  1.0000</r>
       <r>   0.9598  1.0000</r>
       <r>   0.9598  1.0000</r>
       <r>   0.9598  1.0000</r>
       <r>   0.9930  1.0000</r>
       <r>   1.0043  1.0000</r>
       <r>   1.0043  1.0000</r>
       <r>   1.0043  1.0000</r>
       <r>   1.0043  1.0000</r>
       <r>   1.1371  1.0000</r>
       <r>   1.1371  1.0000</r>
       <r>   1.1526  1.0000</r>
       <r>   1.1526  1.0000</r>
       <r>   1.1526  1.0000</r>
       <r>   1.1526  1.0000</r>
       <r>   1.1527  1.0000</r>
       <r>   1.1744  1.0000</r>
       <r>   1.1744  1.0000</r>
       <r>   1.2561  1.0000</r>
       <r>   1.2561  1.0000</r>
       <r>   1.2561  1.0000</r>
       <r>   1.2561  1.0000</r>
       <r>   1.2576  1.0000</r>
       <r>   1.2576  1.0000</r>
       <r>   1.2850  1.0000</r>
       <r>   1.2853  1.0000</r>
       <r>   1.2858  1.0000</r>
       <r>   1.2862  1.0000</r>
       <r>   1.8831  1.0000</r>
       <r>   1.8831  1.0000</r>
       <r>   1.8831  1.0000</r>
       <r>   1.8831  1.0000</r>
       <r>   2.1515  1.0000</r>
       <r>   2.1515  1.0000</r>
       <r>   2.1515  1.0000</r>
       <r>   2.1515  1.0000</r>
       <r>   2.3307  1.0000</r>
       <r>   2.3307  1.0000</r>
       <r>   2.3307  1.0000</r>
       <r>   2.3307  1.0000</r>
       <r>   2.9621  0.0000</r>
       <r>   2.9621  0.0000</r>
       <r>   2.9621  0.0000</r>
       <r>   2.9621  0.0000</r>
       <r>   3.7920  0.0000</r>
       <r>   4.5004  0.0000</r>
       <r>   4.5004  0.0000</r>
       <r>   6.0748  0.0000</r>
       <r>   6.0748  0.0000</r>
       <r>   6.0749  0.0000</r>
       <r>   6.0749  0.0000</r>
       <r>   7.4230  0.0000</r>
       <r>   7.4230  0.0000</r>
       <r>   7.5125  0.0000</r>
       <r>   7.5125  0.0000</r>
       <r>   7.5126  0.0000</r>
       <r>   7.5126  0.0000</r>
       <r>   8.5476  0.0000</r>
       <r>   8.5476  0.0000</r>
       <r>   8.5476  0.0000</r>
       <r>   8.5476  0.0000</r>
       <r>   8.9593  0.0000</r>
       <r>   8.9593  0.0000</r>
       <r>   9.5513  0.0000</r>
       <r>   9.5513  0.0000</r>
       <r>   9.6127  0.0000</r>
       <r>   9.8794  0.0000</r>
       <r>   9.8794  0.0000</r>
       <r>  10.4277  0.0000</r>
       <r>  10.4277  0.0000</r>
       <r>  10.4278  0.0000</r>
       <r>  10.4279  0.0000</r>
       <r>  10.4333  0.0000</r>
       <r>  10.4333  0.0000</r>
       <r>  10.4334  0.0000</r>
       <r>  10.4334  0.0000</r>
       <r>  10.7289  0.0000</r>
      </set>
      <set comment="kpoint 4">
       <r>  -5.4840  1.0000</r>
       <r>  -4.1579  1.0000</r>
       <r>  -2.9756  1.0000</r>
       <r>  -2.9756  1.0000</r>
       <r>  -2.9756  1.0000</r>
       <r>  -2.9756  1.0000</r>
       <r>  -2.1078  1.0000</r>
       <r>  -1.9850  1.0000</r>
       <r>  -1.9850  1.0000</r>
       <r>  -1.9850  1.0000</r>
       <r>  -1.9850  1.0000</r>
       <r>  -1.6425  1.0000</r>
       <r>  -1.6425  1.0000</r>
       <r>  -1.6425  1.0000</r>
       <r>  -1.6425  1.0000</r>
       <r>  -1.4627  1.0000</r>
       <r>  -1.4321  1.0000</r>
       <r>  -1.4321  1.0000</r>
       <r>  -1.4321  1.0000</r>
       <r>  -1.4321  1.0000</r>
       <r>  -1.3789  1.0000</r>
       <r>  -1.3789  1.0000</r>
       <r>  -1.0404  1.0000</r>
       <r>  -1.0376  1.0000</r>
       <r>  -1.0376  1.0000</r>
       <r>  -0.9449  1.0000</r>
       <r>  -0.9449  1.0000</r>
       <r>  -0.9065  1.0000</r>
       <r>  -0.9065  1.0000</r>
       <r>  -0.9065  1.0000</r>
       <r>  -0.9065  1.0000</r>
       <r>  -0.7726  1.0000</r>
       <r>  -0.7726  1.0000</r>
       <r>  -0.7726  1.0000</r>
       <r>  -0.7725  1.0000</r>
       <r>  -0.7441  1.0000</r>
       <r>  -0.6760  1.0000</r>
       <r>  -0.6760  1.0000</r>
       <r>  -0.5126  1.0000</r>
       <r>  -0.5126  1.0000</r>
       <r>  -0.5126  1.0000</r>
       <r>  -0.5126  1.0000</r>
       <r>  -0.4111  1.0000</r>
       <r>  -0.4111  1.0000</r>
       <r>  -0.4111  1.0000</r>
       <r>  -0.4111  1.0000</r>
       <r>  -0.4009  1.0000</r>
       <r>  -0.4008  1.0000</r>
       <r>  -0.4008  1.0000</r>
       <r>  -0.4008  1.0000</r>
       <r>  -0.3693  1.0000</r>
       <r>  -0.3693  1.0000</r>
       <r>  -0.3693  1.0000</r>
       <r>  -0.3693  1.0000</r>
       <r>  -0.3442  1.0000</r>
       <r>  -0.3440  1.0000</r>
       <r>  -0.3440  1.0000</r>
       <r>  -0.3440  1.0000</r>
       <r>  -0.3279  1.0000</r>
       <r>  -0.3279  1.0000</r>
       <r>  -0.3279  1.0000</r>
       <r>  -0.3278  1.0000</r>
       <r>  -0.3135  1.0000</r>
       <r>  -0.1757  1.0000</r>
       <r>  -0.1756  1.0000</r>
       <r>  -0.1756  1.0000</r>
       <r>  -0.1756  1.0000</r>
       <r>  -0.1429  1.0000</r>
       <r>  -0.1429  1.0000</r>
       <r>  -0.1429  1.0000</r>
       <r>  -0.1429  1.0000</r>
       <r>  -0.0601  1.0000</r>
       <r>  -0.0601  1.0000</r>
       <r>  -0.0601  1.0000</r>
       <r>  -0.0601  1.0000</r>
       <r>  -0.0038  1.0000</r>
       <r>  -0.0038  1.0000</r>
       <r>  -0.0038  1.0000</r>
       <r>  -0.0038  1.0000</r>
       <r>  -0.0012  1.0000</r>
       <r>   0.0624  1.0000</r>
       <r>   0.0624  1.0000</r>
       <r>   0.0624  1.0000</r>
       <r>   0.0624  1.0000</r>
       <r>   0.0725  1.0000</r>
       <r>   0.0725  1.0000</r>
       <r>   0.0801  1.0000</r>
       <r>   0.0801  1.0000</r>
       <r>   0.2128  1.0000</r>
       <r>   0.2129  1.0000</r>
       <r>   0.2129  1.0000</r>
       <r>   0.2129  1.0000</r>
       <r>   0.3375  1.0000</r>
       <r>   0.3375  1.0000</r>
       <r>   0.3375  1.0000</r>
       <r>   0.3375  1.0000</r>
       <r>   0.3609  1.0000</r>
       <r>   0.3609  1.0000</r>
       <r>   0.4248  1.0000</r>
       <r>   0.5076  1.0000</r>
       <r>   0.5076  1.0000</r>
       <r>   0.5076  1.0000</r>
       <r>   0.5076  1.0000</r>
       <r>   0.5530  1.0000</r>
       <r>   0.5530  1.0000</r>
       <r>   0.5530  1.0000</r>
       <r>   0.5530  1.0000</r>
       <r>   0.5825  1.0000</r>
       <r>   0.5825  1.0000</r>
       <r>   0.5825  1.0000</r>
       <r>   0.5825  1.0000</r>
       <r>   0.6227  1.0000</r>
       <r>   0.6227  1.0000</r>
       <r>   0.6227  1.0000</r>
       <r>   0.6227  1.0000</r>
       <r>   0.6247  1.0000</r>
       <r>   0.6737  1.0000</r>
       <r>   0.6744  1.0000</r>
       <r>   0.6744  1.0000</r>
       <r>   0.6744  1.0000</r>
       <r>   0.6745  1.0000</r>
       <r>   0.6858  1.0000</r>
       <r>   0.6858  1.0000</r>
       <r>   0.6859  1.0000</r>
       <r>   0.6859  1.0000</r>
       <r>   0.7305  1.0000</r>
       <r>   0.7817  1.0000</r>
       <r>   0.7817  1.0000</r>
       <r>   0.8276  1.0000</r>
       <r>   0.8276  1.0000</r>
       <r>   0.8354  1.0000</r>
       <r>   0.8354  1.0000</r>
       <r>   0.8354  1.0000</r>
       <r>   0.8354  1.0000</r>
       <r>   0.8364  1.0000</r>
       <r>   0.8364  1.0000</r>
       <r>   0.8364  1.0000</r>
       <r>   0.8364  1.0000</r>
       <r>   0.8500  1.0000</r>
       <r>   0.8654  1.0000</r>
       <r>   0.8654  1.0000</r>
       <r>   0.8654  1.0000</r>
       <r>   0.8654  1.0000</r>
       <r>   1.0031  1.0000</r>
       <r>   1.0031  1.0000</r>
       <r>   1.0031  1.0000</r>
       <r>   1.0031  1.0000</r>
       <r>   1.0208  1.0000</r>
       <r>   1.0518  1.0000</r>
       <r>   1.0518  1.0000</r>
       <r>   1.1084  1.0000</r>
       <r>   1.1084  1.0000</r>
       <r>   1.1287  1.0000</r>
       <r>   1.1287  1.0000</r>
       <r>   1.1287  1.0000</r>
       <r>   1.1287  1.0000</r>
       <r>   1.1431  1.0000</r>
       <r>   1.2205  1.0000</r>
       <r>   1.2205  1.0000</r>
       <r>   1.2205  1.0000</r>
       <r>   1.2205  1.0000</r>
       <r>   1.2239  1.0000</r>
       <r>   1.2239  1.0000</r>
       <r>   1.2850  1.0000</r>
       <r>   1.2854  1.0000</r>
       <r>   1.2858  1.0000</r>
       <r>   1.2862  1.0000</r>
       <r>   1.7045  1.0000</r>
       <r>   1.7045  1.0000</r>
       <r>   1.7045  1.0000</r>
       <r>   1.7045  1.0000</r>
       <r>   2.1983  1.0000</r>
       <r>   2.1984  1.0000</r>
       <r>   2.1984  1.0000</r>
       <r>   2.1984  1.0000</r>
       <r>   2.3265  1.0000</r>
       <r>   2.3265  1.0000</r>
       <r>   2.3265  1.0000</r>
       <r>   2.3265  1.0000</r>
       <r>   3.2838  0.0000</r>
       <r>   3.3588  0.0000</r>
       <r>   3.3588  0.0000</r>
       <r>   3.3588  0.0000</r>
       <r>   3.3588  0.0000</r>
       <r>   4.7110  0.0000</r>
       <r>   4.7110  0.0000</r>
       <r>   6.3674  0.0000</r>
       <r>   6.3674  0.0000</r>
       <r>   6.3674  0.0000</r>
       <r>   6.3674  0.0000</r>
       <r>   6.8260  0.0000</r>
       <r>   6.8260  0.0000</r>
       <r>   6.8260  0.0000</r>
       <r>   6.8260  0.0000</r>
       <r>   6.9449  0.0000</r>
       <r>   6.9449  0.0000</r>
       <r>   8.6725  0.0000</r>
       <r>   8.6725  0.0000</r>
       <r>   8.6725  0.0000</r>
       <r>   8.6725  0.0000</r>
       <r>   9.0009  0.0000</r>
       <r>   9.0009  0.0000</r>
       <r>   9.6781  0.0000</r>
       <r>   9.6781  0.0000</r>
       <r>   9.7025  0.0000</r>
       <r>   9.7025  0.0000</r>
       <r>   9.7025  0.0000</r>
       <r>   9.7025  0.0000</r>
       <r>  10.1312  0.0000</r>
       <r>  10.1312  0.0000</r>
       <r>  10.3227  0.0000</r>
       <r>  10.3255  0.0000</r>
       <r>  10.3255  0.0000</r>
       <r>  10.3255  0.0000</r>
       <r>  10.3255  0.0000</r>
       <r>  10.5071  0.0000</r>
      </set>
      <set comment="kpoint 5">
       <r>  -5.3509  1.0000</r>
       <r>  -4.4611  1.0000</r>
       <r>  -2.8682  1.0000</r>
       <r>  -2.8682  1.0000</r>
       <r>  -2.8682  1.0000</r>
       <r>  -2.8682  1.0000</r>
       <r>  -2.1938  1.0000</r>
       <r>  -2.1938  1.0000</r>
       <r>  -2.1938  1.0000</r>
       <r>  -2.1938  1.0000</r>
       <r>  -1.8649  1.0000</r>
       <r>  -1.6171  1.0000</r>
       <r>  -1.6171  1.0000</r>
       <r>  -1.6171  1.0000</r>
       <r>  -1.6171  1.0000</r>
       <r>  -1.4795  1.0000</r>
       <r>  -1.4704  1.0000</r>
       <r>  -1.4704  1.0000</r>
       <r>  -1.4704  1.0000</r>
       <r>  -1.4704  1.0000</r>
       <r>  -1.3240  1.0000</r>
       <r>  -1.3240  1.0000</r>
       <r>  -1.0197  1.0000</r>
       <r>  -1.0197  1.0000</r>
       <r>  -1.0091  1.0000</r>
       <r>  -1.0032  1.0000</r>
       <r>  -1.0032  1.0000</r>
       <r>  -0.8089  1.0000</r>
       <r>  -0.7969  1.0000</r>
       <r>  -0.7969  1.0000</r>
       <r>  -0.7968  1.0000</r>
       <r>  -0.7968  1.0000</r>
       <r>  -0.7627  1.0000</r>
       <r>  -0.7627  1.0000</r>
       <r>  -0.7329  1.0000</r>
       <r>  -0.7328  1.0000</r>
       <r>  -0.7328  1.0000</r>
       <r>  -0.7328  1.0000</r>
       <r>  -0.4992  1.0000</r>
       <r>  -0.4992  1.0000</r>
       <r>  -0.4992  1.0000</r>
       <r>  -0.4992  1.0000</r>
       <r>  -0.4548  1.0000</r>
       <r>  -0.4547  1.0000</r>
       <r>  -0.4547  1.0000</r>
       <r>  -0.4547  1.0000</r>
       <r>  -0.4405  1.0000</r>
       <r>  -0.4405  1.0000</r>
       <r>  -0.4405  1.0000</r>
       <r>  -0.4404  1.0000</r>
       <r>  -0.4219  1.0000</r>
       <r>  -0.4219  1.0000</r>
       <r>  -0.4219  1.0000</r>
       <r>  -0.4219  1.0000</r>
       <r>  -0.3403  1.0000</r>
       <r>  -0.3401  1.0000</r>
       <r>  -0.3401  1.0000</r>
       <r>  -0.3401  1.0000</r>
       <r>  -0.3272  1.0000</r>
       <r>  -0.3271  1.0000</r>
       <r>  -0.3271  1.0000</r>
       <r>  -0.3269  1.0000</r>
       <r>  -0.2465  1.0000</r>
       <r>  -0.1214  1.0000</r>
       <r>  -0.1214  1.0000</r>
       <r>  -0.1214  1.0000</r>
       <r>  -0.1213  1.0000</r>
       <r>  -0.0511  1.0000</r>
       <r>  -0.0511  1.0000</r>
       <r>  -0.0511  1.0000</r>
       <r>  -0.0511  1.0000</r>
       <r>  -0.0349  1.0000</r>
       <r>  -0.0288  1.0000</r>
       <r>  -0.0287  1.0000</r>
       <r>  -0.0287  1.0000</r>
       <r>  -0.0287  1.0000</r>
       <r>  -0.0230  1.0000</r>
       <r>  -0.0230  1.0000</r>
       <r>  -0.0230  1.0000</r>
       <r>  -0.0229  1.0000</r>
       <r>   0.0925  1.0000</r>
       <r>   0.0925  1.0000</r>
       <r>   0.0925  1.0000</r>
       <r>   0.0926  1.0000</r>
       <r>   0.1084  1.0000</r>
       <r>   0.1084  1.0000</r>
       <r>   0.1523  1.0000</r>
       <r>   0.1523  1.0000</r>
       <r>   0.1523  1.0000</r>
       <r>   0.1523  1.0000</r>
       <r>   0.2318  1.0000</r>
       <r>   0.2318  1.0000</r>
       <r>   0.2804  1.0000</r>
       <r>   0.2804  1.0000</r>
       <r>   0.2804  1.0000</r>
       <r>   0.2804  1.0000</r>
       <r>   0.2970  1.0000</r>
       <r>   0.2970  1.0000</r>
       <r>   0.4704  1.0000</r>
       <r>   0.5487  1.0000</r>
       <r>   0.5488  1.0000</r>
       <r>   0.5488  1.0000</r>
       <r>   0.5488  1.0000</r>
       <r>   0.5832  1.0000</r>
       <r>   0.5832  1.0000</r>
       <r>   0.5832  1.0000</r>
       <r>   0.5832  1.0000</r>
       <r>   0.5926  1.0000</r>
       <r>   0.5926  1.0000</r>
       <r>   0.5926  1.0000</r>
       <r>   0.5926  1.0000</r>
       <r>   0.6067  1.0000</r>
       <r>   0.6067  1.0000</r>
       <r>   0.6067  1.0000</r>
       <r>   0.6067  1.0000</r>
       <r>   0.6437  1.0000</r>
       <r>   0.6477  1.0000</r>
       <r>   0.6477  1.0000</r>
       <r>   0.6477  1.0000</r>
       <r>   0.6477  1.0000</r>
       <r>   0.6789  1.0000</r>
       <r>   0.6790  1.0000</r>
       <r>   0.6791  1.0000</r>
       <r>   0.6791  1.0000</r>
       <r>   0.6810  1.0000</r>
       <r>   0.6810  1.0000</r>
       <r>   0.6811  1.0000</r>
       <r>   0.6812  1.0000</r>
       <r>   0.7433  1.0000</r>
       <r>   0.8240  1.0000</r>
       <r>   0.8407  1.0000</r>
       <r>   0.8408  1.0000</r>
       <r>   0.8761  1.0000</r>
       <r>   0.8952  1.0000</r>
       <r>   0.8952  1.0000</r>
       <r>   0.8952  1.0000</r>
       <r>   0.8952  1.0000</r>
       <r>   0.9025  1.0000</r>
       <r>   0.9025  1.0000</r>
       <r>   0.9081  1.0000</r>
       <r>   0.9081  1.0000</r>
       <r>   0.9277  1.0000</r>
       <r>   0.9277  1.0000</r>
       <r>   0.9278  1.0000</r>
       <r>   0.9278  1.0000</r>
       <r>   1.0472  1.0000</r>
       <r>   1.0692  1.0000</r>
       <r>   1.0693  1.0000</r>
       <r>   1.0747  1.0000</r>
       <r>   1.0747  1.0000</r>
       <r>   1.0747  1.0000</r>
       <r>   1.0748  1.0000</r>
       <r>   1.0959  1.0000</r>
       <r>   1.0959  1.0000</r>
       <r>   1.0959  1.0000</r>
       <r>   1.0959  1.0000</r>
       <r>   1.1300  1.0000</r>
       <r>   1.1736  1.0000</r>
       <r>   1.1736  1.0000</r>
       <r>   1.1736  1.0000</r>
       <r>   1.1736  1.0000</r>
       <r>   1.1782  1.0000</r>
       <r>   1.1782  1.0000</r>
       <r>   1.2850  1.0000</r>
       <r>   1.2854  1.0000</r>
       <r>   1.2857  1.0000</r>
       <r>   1.2861  1.0000</r>
       <r>   1.5475  1.0000</r>
       <r>   1.5475  1.0000</r>
       <r>   1.5475  1.0000</r>
       <r>   1.5475  1.0000</r>
       <r>   2.2390  1.0000</r>
       <r>   2.2391  1.0000</r>
       <r>   2.2391  1.0000</r>
       <r>   2.2391  1.0000</r>
       <r>   2.3197  1.0000</r>
       <r>   2.3197  1.0000</r>
       <r>   2.3197  1.0000</r>
       <r>   2.3197  1.0000</r>
       <r>   2.7296  0.0001</r>
       <r>   3.8132  0.0000</r>
       <r>   3.8132  0.0000</r>
       <r>   3.8132  0.0000</r>
       <r>   3.8132  0.0000</r>
       <r>   4.9832  0.0000</r>
       <r>   4.9832  0.0000</r>
       <r>   6.1463  0.0000</r>
       <r>   6.1463  0.0000</r>
       <r>   6.1463  0.0000</r>
       <r>   6.1463  0.0000</r>
       <r>   6.4913  0.0000</r>
       <r>   6.4913  0.0000</r>
       <r>   6.7555  0.0000</r>
       <r>   6.7555  0.0000</r>
       <r>   6.7555  0.0000</r>
       <r>   6.7555  0.0000</r>
       <r>   8.8446  0.0000</r>
       <r>   8.8446  0.0000</r>
       <r>   8.8446  0.0000</r>
       <r>   8.8446  0.0000</r>
       <r>   9.0101  0.0000</r>
       <r>   9.0101  0.0000</r>
       <r>   9.0101  0.0000</r>
       <r>   9.0101  0.0000</r>
       <r>   9.0603  0.0000</r>
       <r>   9.0603  0.0000</r>
       <r>   9.5056  0.0000</r>
       <r>   9.5056  0.0000</r>
       <r>   9.9549  0.0000</r>
       <r>   9.9549  0.0000</r>
       <r>   9.9549  0.0000</r>
       <r>   9.9549  0.0000</r>
       <r>  10.6107  0.0000</r>
       <r>  10.6107  0.0000</r>
       <r>  10.6108  0.0000</r>
       <r>  10.6118  0.0000</r>
      </set>
      <set comment="kpoint 6">
       <r>  -5.1808  1.0000</r>
       <r>  -4.7343  1.0000</r>
       <r>  -2.7332  1.0000</r>
       <r>  -2.7332  1.0000</r>
       <r>  -2.7332  1.0000</r>
       <r>  -2.7332  1.0000</r>
       <r>  -2.3919  1.0000</r>
       <r>  -2.3919  1.0000</r>
       <r>  -2.3919  1.0000</r>
       <r>  -2.3919  1.0000</r>
       <r>  -1.6912  1.0000</r>
       <r>  -1.5859  1.0000</r>
       <r>  -1.5859  1.0000</r>
       <r>  -1.5859  1.0000</r>
       <r>  -1.5859  1.0000</r>
       <r>  -1.5143  1.0000</r>
       <r>  -1.5107  1.0000</r>
       <r>  -1.5107  1.0000</r>
       <r>  -1.5107  1.0000</r>
       <r>  -1.5107  1.0000</r>
       <r>  -1.2572  1.0000</r>
       <r>  -1.2572  1.0000</r>
       <r>  -1.1006  1.0000</r>
       <r>  -1.1006  1.0000</r>
       <r>  -0.9696  1.0000</r>
       <r>  -0.9587  1.0000</r>
       <r>  -0.9587  1.0000</r>
       <r>  -0.8687  1.0000</r>
       <r>  -0.8386  1.0000</r>
       <r>  -0.8386  1.0000</r>
       <r>  -0.7108  1.0000</r>
       <r>  -0.7108  1.0000</r>
       <r>  -0.7108  1.0000</r>
       <r>  -0.7108  1.0000</r>
       <r>  -0.6896  1.0000</r>
       <r>  -0.6896  1.0000</r>
       <r>  -0.6896  1.0000</r>
       <r>  -0.6896  1.0000</r>
       <r>  -0.5042  1.0000</r>
       <r>  -0.5035  1.0000</r>
       <r>  -0.5035  1.0000</r>
       <r>  -0.5035  1.0000</r>
       <r>  -0.5031  1.0000</r>
       <r>  -0.5031  1.0000</r>
       <r>  -0.5031  1.0000</r>
       <r>  -0.5025  1.0000</r>
       <r>  -0.4828  1.0000</r>
       <r>  -0.4827  1.0000</r>
       <r>  -0.4827  1.0000</r>
       <r>  -0.4827  1.0000</r>
       <r>  -0.4432  1.0000</r>
       <r>  -0.4432  1.0000</r>
       <r>  -0.4432  1.0000</r>
       <r>  -0.4432  1.0000</r>
       <r>  -0.3363  1.0000</r>
       <r>  -0.3359  1.0000</r>
       <r>  -0.3359  1.0000</r>
       <r>  -0.3359  1.0000</r>
       <r>  -0.3287  1.0000</r>
       <r>  -0.3287  1.0000</r>
       <r>  -0.3287  1.0000</r>
       <r>  -0.3283  1.0000</r>
       <r>  -0.1839  1.0000</r>
       <r>  -0.0967  1.0000</r>
       <r>  -0.0967  1.0000</r>
       <r>  -0.0967  1.0000</r>
       <r>  -0.0967  1.0000</r>
       <r>  -0.0772  1.0000</r>
       <r>  -0.0459  1.0000</r>
       <r>  -0.0459  1.0000</r>
       <r>  -0.0459  1.0000</r>
       <r>  -0.0459  1.0000</r>
       <r>   0.0067  1.0000</r>
       <r>   0.0067  1.0000</r>
       <r>   0.0067  1.0000</r>
       <r>   0.0067  1.0000</r>
       <r>   0.0969  1.0000</r>
       <r>   0.0969  1.0000</r>
       <r>   0.0969  1.0000</r>
       <r>   0.0969  1.0000</r>
       <r>   0.0988  1.0000</r>
       <r>   0.0989  1.0000</r>
       <r>   0.0989  1.0000</r>
       <r>   0.0989  1.0000</r>
       <r>   0.1304  1.0000</r>
       <r>   0.1304  1.0000</r>
       <r>   0.1304  1.0000</r>
       <r>   0.1304  1.0000</r>
       <r>   0.1446  1.0000</r>
       <r>   0.1446  1.0000</r>
       <r>   0.2255  1.0000</r>
       <r>   0.2255  1.0000</r>
       <r>   0.2255  1.0000</r>
       <r>   0.2255  1.0000</r>
       <r>   0.2393  1.0000</r>
       <r>   0.2393  1.0000</r>
       <r>   0.3980  1.0000</r>
       <r>   0.3980  1.0000</r>
       <r>   0.4549  1.0000</r>
       <r>   0.4549  1.0000</r>
       <r>   0.4550  1.0000</r>
       <r>   0.4550  1.0000</r>
       <r>   0.5180  1.0000</r>
       <r>   0.5851  1.0000</r>
       <r>   0.5851  1.0000</r>
       <r>   0.5851  1.0000</r>
       <r>   0.5851  1.0000</r>
       <r>   0.5918  1.0000</r>
       <r>   0.5918  1.0000</r>
       <r>   0.5918  1.0000</r>
       <r>   0.5918  1.0000</r>
       <r>   0.5959  1.0000</r>
       <r>   0.5959  1.0000</r>
       <r>   0.5959  1.0000</r>
       <r>   0.5959  1.0000</r>
       <r>   0.6068  1.0000</r>
       <r>   0.6266  1.0000</r>
       <r>   0.6266  1.0000</r>
       <r>   0.6266  1.0000</r>
[...]
       <r>   0.4919  1.0000</r>
       <r>   0.4919  1.0000</r>
       <r>   0.4922  1.0000</r>
       <r>   0.4922  1.0000</r>
       <r>   0.4922  1.0000</r>
       <r>   0.4922  1.0000</r>
       <r>   0.4925  1.0000</r>
       <r>   0.4925  1.0000</r>
       <r>   0.6742  1.0000</r>
       <r>   0.6745  1.0000</r>
       <r>   0.6745  1.0000</r>
       <r>   0.6746  1.0000</r>
       <r>   0.6826  1.0000</r>
       <r>   0.6826  1.0000</r>
       <r>   0.6830  1.0000</r>
       <r>   0.6830  1.0000</r>
       <r>   0.6830  1.0000</r>
       <r>   0.6832  1.0000</r>
       <r>   0.6834  1.0000</r>
       <r>   0.6834  1.0000</r>
       <r>   0.6863  1.0000</r>
       <r>   0.6863  1.0000</r>
       <r>   0.6863  1.0000</r>
       <r>   0.6865  1.0000</r>
       <r>   0.8029  1.0000</r>
       <r>   0.8030  1.0000</r>
       <r>   0.8030  1.0000</r>
       <r>   0.8030  1.0000</r>
       <r>   0.8108  1.0000</r>
       <r>   0.8108  1.0000</r>
       <r>   0.8108  1.0000</r>
       <r>   0.8108  1.0000</r>
       <r>   0.8944  1.0000</r>
       <r>   0.8944  1.0000</r>
       <r>   0.8944  1.0000</r>
       <r>   0.8944  1.0000</r>
       <r>   1.1782  1.0000</r>
       <r>   1.1782  1.0000</r>
       <r>   1.1783  1.0000</r>
       <r>   1.1783  1.0000</r>
       <r>   1.1783  1.0000</r>
       <r>   1.1783  1.0000</r>
       <r>   1.1785  1.0000</r>
       <r>   1.1785  1.0000</r>
       <r>   1.1854  1.0000</r>
       <r>   1.1854  1.0000</r>
       <r>   1.1855  1.0000</r>
       <r>   1.1855  1.0000</r>
       <r>   1.1947  1.0000</r>
       <r>   1.1947  1.0000</r>
       <r>   1.1948  1.0000</r>
       <r>   1.1949  1.0000</r>
       <r>   1.1949  1.0000</r>
       <r>   1.1949  1.0000</r>
       <r>   1.1950  1.0000</r>
       <r>   1.1950  1.0000</r>
       <r>   1.1952  1.0000</r>
       <r>   1.1953  1.0000</r>
       <r>   1.1953  1.0000</r>
       <r>   1.1953  1.0000</r>
       <r>   2.5318  1.0000</r>
       <r>   2.5318  1.0000</r>
       <r>   2.5318  1.0000</r>
       <r>   2.5318  1.0000</r>
       <r>   3.1847  0.0000</r>
       <r>   3.1847  0.0000</r>
       <r>   3.1851  0.0000</r>
       <r>   3.1851  0.0000</r>
       <r>   3.1851  0.0000</r>
       <r>   3.1851  0.0000</r>
       <r>   3.1854  0.0000</r>
       <r>   3.1854  0.0000</r>
       <r>   3.9788  0.0000</r>
       <r>   3.9788  0.0000</r>
       <r>   3.9797  0.0000</r>
       <r>   3.9797  0.0000</r>
       <r>   3.9797  0.0000</r>
       <r>   3.9797  0.0000</r>
       <r>   3.9805  0.0000</r>
       <r>   3.9805  0.0000</r>
       <r>   4.7327  0.0000</r>
       <r>   4.7327  0.0000</r>
       <r>   4.7327  0.0000</r>
       <r>   4.7328  0.0000</r>
       <r>   7.6513  0.0000</r>
       <r>   7.6513  0.0000</r>
       <r>   7.6520  0.0000</r>
       <r>   7.6520  0.0000</r>
       <r>   7.6520  0.0000</r>
       <r>   7.6520  0.0000</r>
       <r>   7.6526  0.0000</r>
       <r>   7.6526  0.0000</r>
       <r>   8.3537  0.0000</r>
       <r>   8.3537  0.0000</r>
       <r>   8.3537  0.0000</r>
       <r>   8.3537  0.0000</r>
       <r>   9.3360  0.0000</r>
       <r>   9.3360  0.0000</r>
       <r>   9.3360  0.0000</r>
       <r>   9.3360  0.0000</r>
       <r>  10.0646  0.0000</r>
       <r>  10.0646  0.0000</r>
       <r>  10.0649  0.0000</r>
       <r>  10.0649  0.0000</r>
       <r>  10.0649  0.0000</r>
       <r>  10.0649  0.0000</r>
       <r>  10.0653  0.0000</r>
       <r>  10.0653  0.0000</r>
      </set>
      <set comment="kpoint 195">
       <r>  -3.8954  1.0000</r>
       <r>  -3.8953  1.0000</r>
       <r>  -3.8953  1.0000</r>
       <r>  -3.8953  1.0000</r>
       <r>  -3.5053  1.0000</r>
       <r>  -3.5053  1.0000</r>
       <r>  -3.5053  1.0000</r>
       <r>  -3.5053  1.0000</r>
       <r>  -1.1958  1.0000</r>
       <r>  -1.1958  1.0000</r>
       <r>  -1.1958  1.0000</r>
       <r>  -1.1958  1.0000</r>
       <r>  -1.1329  1.0000</r>
       <r>  -1.1329  1.0000</r>
       <r>  -1.1326  1.0000</r>
       <r>  -1.1326  1.0000</r>
       <r>  -1.1326  1.0000</r>
       <r>  -1.1326  1.0000</r>
       <r>  -1.1323  1.0000</r>
       <r>  -1.1323  1.0000</r>
       <r>  -1.0787  1.0000</r>
       <r>  -1.0787  1.0000</r>
       <r>  -1.0782  1.0000</r>
       <r>  -1.0782  1.0000</r>
       <r>  -1.0782  1.0000</r>
       <r>  -1.0781  1.0000</r>
       <r>  -1.0776  1.0000</r>
       <r>  -1.0776  1.0000</r>
       <r>  -1.0432  1.0000</r>
       <r>  -1.0432  1.0000</r>
       <r>  -1.0432  1.0000</r>
       <r>  -1.0431  1.0000</r>
       <r>  -0.6631  1.0000</r>
       <r>  -0.6628  1.0000</r>
       <r>  -0.6627  1.0000</r>
       <r>  -0.6627  1.0000</r>
       <r>  -0.6606  1.0000</r>
       <r>  -0.6606  1.0000</r>
       <r>  -0.6602  1.0000</r>
       <r>  -0.6602  1.0000</r>
       <r>  -0.6602  1.0000</r>
       <r>  -0.6598  1.0000</r>
       <r>  -0.6598  1.0000</r>
       <r>  -0.6598  1.0000</r>
       <r>  -0.5525  1.0000</r>
       <r>  -0.5525  1.0000</r>
       <r>  -0.5523  1.0000</r>
       <r>  -0.5522  1.0000</r>
       <r>  -0.5522  1.0000</r>
       <r>  -0.5521  1.0000</r>
       <r>  -0.5518  1.0000</r>
       <r>  -0.5518  1.0000</r>
       <r>  -0.5471  1.0000</r>
       <r>  -0.5471  1.0000</r>
       <r>  -0.5470  1.0000</r>
       <r>  -0.5469  1.0000</r>
       <r>  -0.1527  1.0000</r>
       <r>  -0.1523  1.0000</r>
       <r>  -0.1523  1.0000</r>
       <r>  -0.1523  1.0000</r>
       <r>  -0.1443  1.0000</r>
       <r>  -0.1443  1.0000</r>
       <r>  -0.1443  1.0000</r>
       <r>  -0.1440  1.0000</r>
       <r>   0.0380  1.0000</r>
       <r>   0.0380  1.0000</r>
       <r>   0.0380  1.0000</r>
       <r>   0.0380  1.0000</r>
       <r>   0.0468  1.0000</r>
       <r>   0.0468  1.0000</r>
       <r>   0.0477  1.0000</r>
       <r>   0.0477  1.0000</r>
       <r>   0.0477  1.0000</r>
       <r>   0.0477  1.0000</r>
       <r>   0.0487  1.0000</r>
       <r>   0.0487  1.0000</r>
       <r>   0.1133  1.0000</r>
       <r>   0.1133  1.0000</r>
       <r>   0.1141  1.0000</r>
       <r>   0.1141  1.0000</r>
       <r>   0.1141  1.0000</r>
       <r>   0.1141  1.0000</r>
       <r>   0.1149  1.0000</r>
       <r>   0.1149  1.0000</r>
       <r>   0.1292  1.0000</r>
       <r>   0.1293  1.0000</r>
       <r>   0.1293  1.0000</r>
       <r>   0.1293  1.0000</r>
       <r>   0.1662  1.0000</r>
       <r>   0.1662  1.0000</r>
       <r>   0.1663  1.0000</r>
       <r>   0.1663  1.0000</r>
       <r>   0.1707  1.0000</r>
       <r>   0.1707  1.0000</r>
       <r>   0.1707  1.0000</r>
       <r>   0.1707  1.0000</r>
       <r>   0.1774  1.0000</r>
       <r>   0.1774  1.0000</r>
       <r>   0.1774  1.0000</r>
       <r>   0.1774  1.0000</r>
       <r>   0.1817  1.0000</r>
       <r>   0.1817  1.0000</r>
       <r>   0.1817  1.0000</r>
       <r>   0.1817  1.0000</r>
       <r>   0.5093  1.0000</r>
       <r>   0.5093  1.0000</r>
       <r>   0.5093  1.0000</r>
       <r>   0.5094  1.0000</r>
       <r>   0.5265  1.0000</r>
       <r>   0.5265  1.0000</r>
       <r>   0.5268  1.0000</r>
       <r>   0.5268  1.0000</r>
       <r>   0.5268  1.0000</r>
       <r>   0.5268  1.0000</r>
       <r>   0.5271  1.0000</r>
       <r>   0.5271  1.0000</r>
       <r>   0.6201  1.0000</r>
       <r>   0.6201  1.0000</r>
       <r>   0.6204  1.0000</r>
       <r>   0.6205  1.0000</r>
       <r>   0.6205  1.0000</r>
       <r>   0.6205  1.0000</r>
       <r>   0.6209  1.0000</r>
       <r>   0.6209  1.0000</r>
       <r>   0.6284  1.0000</r>
       <r>   0.6284  1.0000</r>
       <r>   0.6284  1.0000</r>
       <r>   0.6284  1.0000</r>
       <r>   0.7272  1.0000</r>
       <r>   0.7272  1.0000</r>
       <r>   0.7273  1.0000</r>
       <r>   0.7273  1.0000</r>
       <r>   0.7825  1.0000</r>
       <r>   0.7825  1.0000</r>
       <r>   0.7825  1.0000</r>
       <r>   0.7825  1.0000</r>
       <r>   0.7942  1.0000</r>
       <r>   0.7942  1.0000</r>
       <r>   0.7942  1.0000</r>
       <r>   0.7943  1.0000</r>
       <r>   0.8387  1.0000</r>
       <r>   0.8387  1.0000</r>
       <r>   0.8387  1.0000</r>
       <r>   0.8387  1.0000</r>
       <r>   1.1943  1.0000</r>
       <r>   1.1943  1.0000</r>
       <r>   1.1943  1.0000</r>
       <r>   1.1943  1.0000</r>
       <r>   1.1943  1.0000</r>
       <r>   1.1943  1.0000</r>
       <r>   1.1944  1.0000</r>
       <r>   1.1944  1.0000</r>
       <r>   1.1981  1.0000</r>
       <r>   1.1981  1.0000</r>
       <r>   1.1981  1.0000</r>
       <r>   1.1981  1.0000</r>
       <r>   1.2036  1.0000</r>
       <r>   1.2036  1.0000</r>
       <r>   1.2036  1.0000</r>
       <r>   1.2036  1.0000</r>
       <r>   1.2054  1.0000</r>
       <r>   1.2054  1.0000</r>
       <r>   1.2055  1.0000</r>
       <r>   1.2055  1.0000</r>
       <r>   1.2055  1.0000</r>
       <r>   1.2055  1.0000</r>
       <r>   1.2056  1.0000</r>
       <r>   1.2056  1.0000</r>
       <r>   3.0063  0.0000</r>
       <r>   3.0063  0.0000</r>
       <r>   3.0063  0.0000</r>
       <r>   3.0063  0.0000</r>
       <r>   3.3471  0.0000</r>
       <r>   3.3471  0.0000</r>
       <r>   3.3476  0.0000</r>
       <r>   3.3476  0.0000</r>
       <r>   3.3476  0.0000</r>
       <r>   3.3476  0.0000</r>
       <r>   3.3480  0.0000</r>
       <r>   3.3480  0.0000</r>
       <r>   3.7486  0.0000</r>
       <r>   3.7486  0.0000</r>
       <r>   3.7493  0.0000</r>
       <r>   3.7493  0.0000</r>
       <r>   3.7493  0.0000</r>
       <r>   3.7493  0.0000</r>
       <r>   3.7500  0.0000</r>
       <r>   3.7500  0.0000</r>
       <r>   4.1160  0.0000</r>
       <r>   4.1160  0.0000</r>
       <r>   4.1160  0.0000</r>
       <r>   4.1161  0.0000</r>
       <r>   8.1880  0.0000</r>
       <r>   8.1880  0.0000</r>
       <r>   8.1886  0.0000</r>
       <r>   8.1886  0.0000</r>
       <r>   8.1886  0.0000</r>
       <r>   8.1886  0.0000</r>
       <r>   8.1891  0.0000</r>
       <r>   8.1891  0.0000</r>
       <r>   8.5447  0.0000</r>
       <r>   8.5447  0.0000</r>
       <r>   8.5447  0.0000</r>
       <r>   8.5447  0.0000</r>
       <r>   9.0370  0.0000</r>
       <r>   9.0370  0.0000</r>
       <r>   9.0370  0.0000</r>
       <r>   9.0370  0.0000</r>
       <r>   9.3992  0.0000</r>
       <r>   9.3992  0.0000</r>
       <r>   9.3995  0.0000</r>
       <r>   9.3995  0.0000</r>
       <r>   9.3995  0.0000</r>
       <r>   9.3995  0.0000</r>
       <r>   9.3999  0.0000</r>
       <r>   9.3999  0.0000</r>
      </set>
      <set comment="kpoint 196">
       <r>  -3.7182  1.0000</r>
       <r>  -3.7148  1.0000</r>
       <r>  -3.7148  1.0000</r>
       <r>  -3.7143  1.0000</r>
       <r>  -3.7142  1.0000</r>
       <r>  -3.7137  1.0000</r>
       <r>  -3.7137  1.0000</r>
       <r>  -3.7103  1.0000</r>
       <r>  -1.1069  1.0000</r>
       <r>  -1.1059  1.0000</r>
       <r>  -1.1059  1.0000</r>
       <r>  -1.1055  1.0000</r>
       <r>  -1.1052  1.0000</r>
       <r>  -1.1050  1.0000</r>
       <r>  -1.1042  1.0000</r>
       <r>  -1.1042  1.0000</r>
       <r>  -1.1042  1.0000</r>
       <r>  -1.1041  1.0000</r>
       <r>  -1.1041  1.0000</r>
       <r>  -1.1041  1.0000</r>
       <r>  -1.1040  1.0000</r>
       <r>  -1.1040  1.0000</r>
       <r>  -1.1040  1.0000</r>
       <r>  -1.1039  1.0000</r>
       <r>  -1.1039  1.0000</r>
       <r>  -1.1039  1.0000</r>
       <r>  -1.1031  1.0000</r>
       <r>  -1.1029  1.0000</r>
       <r>  -1.1026  1.0000</r>
       <r>  -1.1022  1.0000</r>
       <r>  -1.1022  1.0000</r>
       <r>  -1.1013  1.0000</r>
       <r>  -0.6113  1.0000</r>
       <r>  -0.6107  1.0000</r>
       <r>  -0.6095  1.0000</r>
       <r>  -0.6095  1.0000</r>
       <r>  -0.6092  1.0000</r>
       <r>  -0.6088  1.0000</r>
       <r>  -0.6088  1.0000</r>
       <r>  -0.6088  1.0000</r>
       <r>  -0.6087  1.0000</r>
       <r>  -0.6086  1.0000</r>
       <r>  -0.6086  1.0000</r>
       <r>  -0.6086  1.0000</r>
       <r>  -0.6085  1.0000</r>
       <r>  -0.6085  1.0000</r>
       <r>  -0.6085  1.0000</r>
       <r>  -0.6084  1.0000</r>
       <r>  -0.6083  1.0000</r>
       <r>  -0.6083  1.0000</r>
       <r>  -0.6083  1.0000</r>
       <r>  -0.6079  1.0000</r>
       <r>  -0.6076  1.0000</r>
       <r>  -0.6076  1.0000</r>
       <r>  -0.6064  1.0000</r>
       <r>  -0.6058  1.0000</r>
       <r>  -0.1479  1.0000</r>
       <r>  -0.1462  1.0000</r>
       <r>  -0.1462  1.0000</r>
       <r>  -0.1462  1.0000</r>
       <r>  -0.1462  1.0000</r>
       <r>  -0.1462  1.0000</r>
       <r>  -0.1462  1.0000</r>
       <r>  -0.1445  1.0000</r>
       <r>   0.0784  1.0000</r>
       <r>   0.0784  1.0000</r>
       <r>   0.0790  1.0000</r>
       <r>   0.0791  1.0000</r>
       <r>   0.0798  1.0000</r>
       <r>   0.0806  1.0000</r>
       <r>   0.0806  1.0000</r>
       <r>   0.0806  1.0000</r>
       <r>   0.0807  1.0000</r>
       <r>   0.0807  1.0000</r>
       <r>   0.0807  1.0000</r>
       <r>   0.0807  1.0000</r>
       <r>   0.0808  1.0000</r>
       <r>   0.0808  1.0000</r>
       <r>   0.0808  1.0000</r>
       <r>   0.0808  1.0000</r>
       <r>   0.0809  1.0000</r>
       <r>   0.0809  1.0000</r>
       <r>   0.0809  1.0000</r>
       <r>   0.0816  1.0000</r>
       <r>   0.0823  1.0000</r>
       <r>   0.0825  1.0000</r>
       <r>   0.0831  1.0000</r>
       <r>   0.0831  1.0000</r>
       <r>   0.1722  1.0000</r>
       <r>   0.1722  1.0000</r>
       <r>   0.1725  1.0000</r>
       <r>   0.1727  1.0000</r>
       <r>   0.1730  1.0000</r>
       <r>   0.1730  1.0000</r>
       <r>   0.1731  1.0000</r>
       <r>   0.1731  1.0000</r>
       <r>   0.1733  1.0000</r>
       <r>   0.1733  1.0000</r>
       <r>   0.1734  1.0000</r>
       <r>   0.1734  1.0000</r>
       <r>   0.1737  1.0000</r>
       <r>   0.1738  1.0000</r>
       <r>   0.1741  1.0000</r>
       <r>   0.1741  1.0000</r>
       <r>   0.5663  1.0000</r>
       <r>   0.5670  1.0000</r>
       <r>   0.5670  1.0000</r>
       <r>   0.5683  1.0000</r>
       <r>   0.5684  1.0000</r>
       <r>   0.5684  1.0000</r>
       <r>   0.5684  1.0000</r>
       <r>   0.5686  1.0000</r>
       <r>   0.5687  1.0000</r>
       <r>   0.5687  1.0000</r>
       <r>   0.5687  1.0000</r>
       <r>   0.5687  1.0000</r>
       <r>   0.5688  1.0000</r>
       <r>   0.5688  1.0000</r>
       <r>   0.5688  1.0000</r>
       <r>   0.5689  1.0000</r>
       <r>   0.5689  1.0000</r>
       <r>   0.5691  1.0000</r>
       <r>   0.5691  1.0000</r>
       <r>   0.5691  1.0000</r>
       <r>   0.5692  1.0000</r>
       <r>   0.5705  1.0000</r>
       <r>   0.5705  1.0000</r>
       <r>   0.5712  1.0000</r>
       <r>   0.7808  1.0000</r>
       <r>   0.7818  1.0000</r>
       <r>   0.7818  1.0000</r>
       <r>   0.7818  1.0000</r>
       <r>   0.7822  1.0000</r>
       <r>   0.7822  1.0000</r>
       <r>   0.7824  1.0000</r>
       <r>   0.7824  1.0000</r>
       <r>   0.7826  1.0000</r>
       <r>   0.7826  1.0000</r>
       <r>   0.7828  1.0000</r>
       <r>   0.7828  1.0000</r>
       <r>   0.7833  1.0000</r>
       <r>   0.7833  1.0000</r>
       <r>   0.7833  1.0000</r>
       <r>   0.7843  1.0000</r>
       <r>   1.2040  1.0000</r>
       <r>   1.2040  1.0000</r>
       <r>   1.2041  1.0000</r>
       <r>   1.2041  1.0000</r>
       <r>   1.2042  1.0000</r>
       <r>   1.2042  1.0000</r>
       <r>   1.2042  1.0000</r>
       <r>   1.2042  1.0000</r>
       <r>   1.2043  1.0000</r>
       <r>   1.2043  1.0000</r>
       <r>   1.2043  1.0000</r>
       <r>   1.2044  1.0000</r>
       <r>   1.2045  1.0000</r>
       <r>   1.2045  1.0000</r>
       <r>   1.2045  1.0000</r>
       <r>   1.2046  1.0000</r>
       <r>   1.2046  1.0000</r>
       <r>   1.2047  1.0000</r>
       <r>   1.2047  1.0000</r>
       <r>   1.2047  1.0000</r>
       <r>   1.2047  1.0000</r>
       <r>   1.2048  1.0000</r>
       <r>   1.2049  1.0000</r>
       <r>   1.2049  1.0000</r>
       <r>   3.5316  0.0000</r>
       <r>   3.5337  0.0000</r>
       <r>   3.5337  0.0000</r>
       <r>   3.5362  0.0000</r>
       <r>   3.5366  0.0000</r>
       <r>   3.5367  0.0000</r>
       <r>   3.5367  0.0000</r>
       <r>   3.5368  0.0000</r>
       <r>   3.5368  0.0000</r>
       <r>   3.5368  0.0000</r>
       <r>   3.5369  0.0000</r>
       <r>   3.5369  0.0000</r>
       <r>   3.5370  0.0000</r>
       <r>   3.5370  0.0000</r>
       <r>   3.5371  0.0000</r>
       <r>   3.5371  0.0000</r>
       <r>   3.5371  0.0000</r>
       <r>   3.5372  0.0000</r>
       <r>   3.5372  0.0000</r>
       <r>   3.5373  0.0000</r>
       <r>   3.5377  0.0000</r>
       <r>   3.5402  0.0000</r>
       <r>   3.5402  0.0000</r>
       <r>   3.5423  0.0000</r>
       <r>   8.7669  0.0000</r>
       <r>   8.7669  0.0000</r>
       <r>   8.7691  0.0000</r>
       <r>   8.7721  0.0000</r>
       <r>   8.7722  0.0000</r>
       <r>   8.7723  0.0000</r>
       <r>   8.7723  0.0000</r>
       <r>   8.7727  0.0000</r>
       <r>   8.7727  0.0000</r>
       <r>   8.7727  0.0000</r>
       <r>   8.7727  0.0000</r>
       <r>   8.7728  0.0000</r>
       <r>   8.7728  0.0000</r>
       <r>   8.7729  0.0000</r>
       <r>   8.7729  0.0000</r>
       <r>   8.7729  0.0000</r>
       <r>   8.7729  0.0000</r>
       <r>   8.7733  0.0000</r>
       <r>   8.7733  0.0000</r>
       <r>   8.7734  0.0000</r>
       <r>   8.7735  0.0000</r>
       <r>   8.7765  0.0000</r>
       <r>   8.7787  0.0000</r>
       <r>   8.7787  0.0000</r>
      </set>
     </set>
    </set>
   </array>
  </eigenvalues>
 </calculation>
 <structure name="finalpos" >
  <crystal>
   <varray name="basis" >
    <v>       7.56374489      0.00000000      0.00000000</v>
    <v>       0.00000000      7.56374489      0.00000000</v>
    <v>       0.00000000      0.00000000      7.56374489</v>
   </varray>
   <i name="volume">    432.72363568</i>
   <varray name="rec_basis" >
    <v>       0.13220964      0.00000000      0.00000000</v>
    <v>       0.00000000      0.13220964      0.00000000</v>
    <v>       0.00000000      0.00000000      0.13220964</v>
   </varray>
  </crystal>
  <varray name="positions" >
   <v>       0.00132210      0.00000000      0.00000000</v>
   <v>       0.50000000      0.00000000      0.00000000</v>
   <v>       0.00000000      0.50000000      0.00000000</v>
   <v>       0.50000000      0.50000000      0.00000000</v>
   <v>       0.00000000      0.00000000      0.50000000</v>
   <v>       0.50000000      0.00000000      0.50000000</v>
   <v>       0.00000000      0.50000000      0.50000000</v>
   <v>       0.50000000      0.50000000      0.50000000</v>
   <v>       0.25000000      0.25000000      0.00000000</v>
   <v>       0.75000000      0.25000000      0.00000000</v>
   <v>       0.25000000      0.75000000      0.00000000</v>
   <v>       0.75000000      0.75000000      0.00000000</v>
   <v>       0.25000000      0.25000000      0.50000000</v>
   <v>       0.75000000      0.25000000      0.50000000</v>
   <v>       0.25000000      0.75000000      0.50000000</v>
   <v>       0.75000000      0.75000000      0.50000000</v>
   <v>       0.25000000      0.00000000      0.25000000</v>
   <v>       0.75000000      0.00000000      0.25000000</v>
   <v>       0.25000000      0.50000000      0.25000000</v>
   <v>       0.75000000      0.50000000      0.25000000</v>
   <v>       0.25000000      0.00000000      0.75000000</v>
   <v>       0.75000000      0.00000000      0.75000000</v>
   <v>       0.25000000      0.50000000      0.75000000</v>
   <v>       0.75000000      0.50000000      0.75000000</v>
   <v>       0.00000000      0.25000000      0.25000000</v>
   <v>       0.50000000      0.25000000      0.25000000</v>
   <v>       0.00000000      0.75000000      0.25000000</v>
   <v>       0.50000000      0.75000000      0.25000000</v>
   <v>       0.00000000      0.25000000      0.75000000</v>
   <v>       0.50000000      0.25000000      0.75000000</v>
   <v>       0.00000000      0.75000000      0.75000000</v>
   <v>       0.50000000      0.75000000      0.75000000</v>
  </varray>
 </structure>
</modeling>
