<?xml version="1.0" encoding="ISO-8859-1"?>
<modeling>
 <generator>
  <i name="program" type="string">vasp</i>
  <i name="version" type="string">4.6.28 </i>
  <i name="subversion" type="string">25Jul05 complex  parallel</i>
  <i name="platform" type="string">LinuxIFC</i>
  <i name="date" type="string">2016 10 12</i>
  <i name="time" type="string">17:18:16</i>
 </generator>
 <incar>
  <i type="string" name="PREC">accurate</i>
  <i type="int" name="IALGO">    38</i>
  <i name="EDIFF">      0.00000001</i>
  <i type="int" name="IBRION">    -1</i>
  <i name="ENCUT">    500.00000000</i>
  <i type="logical" name="LREAL"> F  </i>
  <i type="int" name="ISMEAR">     0</i>
  <i name="SIGMA">      0.01000000</i>
  <i type="logical" name="LWAVE"> F  </i>
  <i type="logical" name="LCHARG"> F  </i>
 </incar>
 <kpoints>
  <generation param="Auto">
   <i name="subdivisionlength">     50.00000000</i>
   <v type="int" name="divisions">       6       6       4</v>
   <v name="usershift">      0.00000000      0.00000000      0.00000000</v>
   <v name="genvec1">      0.16666667      0.00000000      0.00000000</v>
   <v name="genvec2">      0.00000000      0.16666667      0.00000000</v>
   <v name="genvec3">      0.00000000      0.00000000      0.25000000</v>
   <v name="shift">      0.00000000      0.00000000      0.00000000</v>
  </generation>
  <varray name="kpointlist" >
   <v>       0.00000000      0.00000000      0.00000000</v>
   <v>       0.16666667      0.00000000      0.00000000</v>
   <v>       0.33333333      0.00000000      0.00000000</v>
   <v>       0.50000000      0.00000000      0.00000000</v>
   <v>       0.00000000      0.16666667      0.00000000</v>
   <v>       0.16666667      0.16666667      0.00000000</v>
   <v>       0.33333333      0.16666667      0.00000000</v>
   <v>       0.50000000      0.16666667      0.00000000</v>
   <v>       0.00000000      0.33333333      0.00000000</v>
   <v>       0.16666667      0.33333333      0.00000000</v>
   <v>       0.33333333      0.33333333      0.00000000</v>
   <v>       0.50000000      0.33333333      0.00000000</v>
   <v>       0.00000000      0.50000000      0.00000000</v>
   <v>       0.16666667      0.50000000      0.00000000</v>
   <v>       0.33333333      0.50000000      0.00000000</v>
   <v>       0.50000000      0.50000000      0.00000000</v>
   <v>       0.00000000      0.00000000      0.25000000</v>
   <v>       0.16666667      0.00000000      0.25000000</v>
   <v>       0.33333333      0.00000000      0.25000000</v>
   <v>       0.50000000      0.00000000      0.25000000</v>
   <v>      -0.33333333      0.00000000      0.25000000</v>
   <v>      -0.16666667      0.00000000      0.25000000</v>
   <v>       0.00000000      0.16666667      0.25000000</v>
   <v>       0.16666667      0.16666667      0.25000000</v>
   <v>       0.33333333      0.16666667      0.25000000</v>
   <v>       0.50000000      0.16666667      0.25000000</v>
   <v>      -0.33333333      0.16666667      0.25000000</v>
   <v>      -0.16666667      0.16666667      0.25000000</v>
   <v>       0.00000000      0.33333333      0.25000000</v>
   <v>       0.16666667      0.33333333      0.25000000</v>
   <v>       0.33333333      0.33333333      0.25000000</v>
   <v>       0.50000000      0.33333333      0.25000000</v>
   <v>      -0.33333333      0.33333333      0.25000000</v>
   <v>      -0.16666667      0.33333333      0.25000000</v>
   <v>       0.00000000      0.50000000      0.25000000</v>
   <v>       0.16666667      0.50000000      0.25000000</v>
   <v>       0.33333333      0.50000000      0.25000000</v>
   <v>       0.50000000      0.50000000      0.25000000</v>
   <v>      -0.33333333      0.50000000      0.25000000</v>
   <v>      -0.16666667      0.50000000      0.25000000</v>
   <v>       0.00000000      0.00000000      0.50000000</v>
   <v>       0.16666667      0.00000000      0.50000000</v>
   <v>       0.33333333      0.00000000      0.50000000</v>
   <v>       0.50000000      0.00000000      0.50000000</v>
   <v>       0.00000000      0.16666667      0.50000000</v>
   <v>       0.16666667      0.16666667      0.50000000</v>
   <v>       0.33333333      0.16666667      0.50000000</v>
   <v>       0.50000000      0.16666667      0.50000000</v>
   <v>       0.00000000      0.33333333      0.50000000</v>
   <v>       0.16666667      0.33333333      0.50000000</v>
   <v>       0.33333333      0.33333333      0.50000000</v>
   <v>       0.50000000      0.33333333      0.50000000</v>
   <v>       0.00000000      0.50000000      0.50000000</v>
   <v>       0.16666667      0.50000000      0.50000000</v>
   <v>       0.33333333      0.50000000      0.50000000</v>
   <v>       0.50000000      0.50000000      0.50000000</v>
  </varray>
  <varray name="weights" >
   <v>       0.00694444</v>
   <v>       0.01388889</v>
   <v>       0.01388889</v>
   <v>       0.00694444</v>
   <v>       0.01388889</v>
   <v>       0.02777778</v>
   <v>       0.02777778</v>
   <v>       0.01388889</v>
   <v>       0.01388889</v>
   <v>       0.02777778</v>
   <v>       0.02777778</v>
   <v>       0.01388889</v>
   <v>       0.00694444</v>
   <v>       0.01388889</v>
   <v>       0.01388889</v>
   <v>       0.00694444</v>
   <v>       0.01388889</v>
   <v>       0.01388889</v>
   <v>       0.01388889</v>
   <v>       0.01388889</v>
   <v>       0.01388889</v>
   <v>       0.01388889</v>
   <v>       0.02777778</v>
   <v>       0.02777778</v>
   <v>       0.02777778</v>
   <v>       0.02777778</v>
   <v>       0.02777778</v>
   <v>       0.02777778</v>
   <v>       0.02777778</v>
   <v>       0.02777778</v>
   <v>       0.02777778</v>
   <v>       0.02777778</v>
   <v>       0.02777778</v>
   <v>       0.02777778</v>
   <v>       0.01388889</v>
   <v>       0.01388889</v>
   <v>       0.01388889</v>
   <v>       0.01388889</v>
   <v>       0.01388889</v>
   <v>       0.01388889</v>
   <v>       0.00694444</v>
   <v>       0.01388889</v>
   <v>       0.01388889</v>
   <v>       0.00694444</v>
   <v>       0.01388889</v>
   <v>       0.02777778</v>
   <v>       0.02777778</v>
   <v>       0.01388889</v>
   <v>       0.01388889</v>
   <v>       0.02777778</v>
   <v>       0.02777778</v>
   <v>       0.01388889</v>
   <v>       0.00694444</v>
   <v>       0.01388889</v>
   <v>       0.01388889</v>
   <v>       0.00694444</v>
  </varray>
</kpoints>
 <parameters>
  <separator name="general" >
   <i type="string" name="SYSTEM">unknown system</i>
   <i type="logical" name="LCOMPAT"> F  </i>
  </separator>
  <separator name="electronic" >
   <i type="string" name="PREC">accura</i>
   <i name="ENMAX">    500.00000000</i>
   <i name="ENAUG">    291.05200000</i>
   <i name="EDIFF">      0.00000001</i>
   <i type="int" name="IALGO">    38</i>
   <i type="int" name="IWAVPR">    10</i>
   <i type="int" name="NBANDS">    97</i>
   <i name="NELECT">    144.00000000</i>
   <separator name="electronic smearing" >
    <i type="int" name="ISMEAR">     0</i>
    <i name="SIGMA">      0.01000000</i>
   </separator>
   <separator name="electronic projectors" >
    <i type="logical" name="LREAL"> F  </i>
    <v name="ROPT">      0.00000000</v>
    <i type="int" name="LMAXPAW">  -100</i>
    <i type="int" name="LMAXMIX">     2</i>
   </separator>
   <separator name="electronic startup" >
    <i type="int" name="ISTART">     0</i>
    <i type="int" name="ICHARG">     2</i>
    <i type="int" name="INIWAV">     1</i>
   </separator>
   <separator name="electronic spin" >
    <i type="int" name="ISPIN">     1</i>
    <i type="logical" name="LNONCOLLINEAR"> F  </i>
    <v name="MAGMOM">      1.00000000      1.00000000      1.00000000      1.00000000      1.00000000      1.00000000      1.00000000      1.00000000      1.00000000      1.00000000      1.00000000      1.00000000      1.00000000      1.00000000      1.00000000      1.00000000      1.00000000      1.00000000      1.00000000      1.00000000
      1.00000000      1.00000000      1.00000000      1.00000000      1.00000000      1.00000000      1.00000000      1.00000000      1.00000000      1.00000000      1.00000000      1.00000000      1.00000000      1.00000000      1.00000000      1.00000000      1.00000000      1.00000000      1.00000000      1.00000000
      1.00000000      1.00000000      1.00000000      1.00000000      1.00000000      1.00000000      1.00000000      1.00000000</v>
    <i name="NUPDOWN">     -1.00000000</i>
    <i type="logical" name="LSORBIT"> F  </i>
    <v name="SAXIS">      0.00000000      0.00000000      1.00000000</v>
    <i type="logical" name="LSPIRAL"> F  </i>
    <v name="QSPIRAL">      0.00000000      0.00000000      0.00000000</v>
    <i type="logical" name="LZEROZ"> F  </i>
   </separator>
   <separator name="electronic exchange-correlation" >
    <i type="string" name="GGA">--</i>
    <i type="int" name="VOSKOWN">     0</i>
    <i type="logical" name="LASPH"> F  </i>
    <i type="logical" name="LMETAGGA"> F  </i>
    <i type="string" name="GGA2">--</i>
   </separator>
   <separator name="electronic convergence" >
    <i type="int" name="NELM">    60</i>
    <i type="int" name="NELMDL">    -5</i>
    <i type="int" name="NELMIN">     2</i>
    <i name="ENINI">    500.00000000</i>
    <separator name="electronic convergence detail" >
     <i type="logical" name="LDIAG"> T  </i>
     <i name="WEIMIN">      0.00000000</i>
     <i name="EBREAK">      0.00000000</i>
     <i name="DEPER">      0.30000000</i>
     <i type="int" name="NRMM">     4</i>
     <i name="TIME">      0.10000000</i>
    </separator>
   </separator>
   <separator name="electronic mixer" >
    <i name="AMIX">      0.40000000</i>
    <i name="BMIX">      1.00000000</i>
    <i name="AMIN">      0.10000000</i>
    <i name="AMIX_MAG">      1.60000000</i>
    <i name="BMIX_MAG">      1.00000000</i>
    <separator name="electronic mixer details" >
     <i type="int" name="IMIX">     4</i>
     <i type="int" name="MAXMIX">   -45</i>
     <i name="WC">    100.00000000</i>
     <i type="int" name="INIMIX">     1</i>
     <i type="int" name="MIXPRE">     1</i>
     <i type="int" name="MREMOVE">     5</i>
    </separator>
   </separator>
   <separator name="electronic dipolcorrection" >
    <i type="int" name="IDIPOL">     0</i>
    <i type="logical" name="LDIPOL"> F  </i>
    <v name="DIPOL">   -100.00000000</v>
    <i name="EFIELD">      0.00000000</i>
   </separator>
  </separator>
  <separator name="grids" >
   <i type="int" name="NGX">    60</i>
   <i type="int" name="NGY">    60</i>
   <i type="int" name="NGZ">    90</i>
   <i type="int" name="NGXF">   120</i>
   <i type="int" name="NGYF">   120</i>
   <i type="int" name="NGZF">   180</i>
   <i type="logical" name="ADDGRID"> F  </i>
  </separator>
  <separator name="ionic" >
   <i type="int" name="NSW">     0</i>
   <i type="int" name="IBRION">    -1</i>
   <i type="int" name="ISIF">     2</i>
   <i name="PSTRESS">      0.00000000</i>
   <i name="EDIFFG">      0.00000010</i>
   <i type="int" name="NFREE">     0</i>
   <i name="POTIM">      0.50000000</i>
   <i name="SMASS">     -3.00000000</i>
  </separator>
  <separator name="ionic md" >
   <i name="TEBEG">      0.00010000</i>
   <i name="TEEND">      0.00010000</i>
   <i type="int" name="NBLOCK">     1</i>
   <i type="int" name="KBLOCK">     1</i>
   <i type="int" name="NPACO">   256</i>
   <i name="APACO">     16.00000000</i>
  </separator>
  <separator name="symmetry" >
   <i type="int" name="ISYM">     2</i>
   <i name="SYMPREC">      0.00001000</i>
  </separator>
  <separator name="dos" >
   <i type="logical" name="LORBIT"> F  </i>
   <v name="RWIGS">     -1.00000000</v>
   <i type="int" name="NEDOS">   301</i>
   <i name="EMIN">     10.00000000</i>
   <i name="EMAX">    -10.00000000</i>
  </separator>
  <separator name="writing" >
   <i type="int" name="NWRITE">     2</i>
   <i type="logical" name="LWAVE"> F  </i>
   <i type="logical" name="LCHARG"> F  </i>
   <i type="logical" name="LPARD"> F  </i>
   <i type="logical" name="LVTOT"> F  </i>
   <i type="logical" name="LELF"> F  </i>
   <i type="logical" name="LOPTICS"> F  </i>
   <i name="STM">      0.00000000</i>
  </separator>
  <separator name="performance" >
   <i type="int" name="NPAR">     8</i>
   <i type="int" name="NSIM">     4</i>
   <i type="int" name="NBLK">   256</i>
   <i type="logical" name="LPLANE"> T  </i>
   <i type="logical" name="LCRITICAL_MEM"> F  </i>
   <i type="logical" name="LSCALAPACK"> F  </i>
   <i type="logical" name="LSCALU"> F  </i>
   <i type="logical" name="LASYNC"> F  </i>
  </separator>
  <separator name="miscellaneous" >
   <i type="int" name="IDIOT">     3</i>
   <i type="logical" name="LMUSIC"> F  </i>
   <v name="POMASS">     26.98200000</v>
   <i type="logical" name="LCORR"> T  </i>
  </separator>
  <i type="logical" name="LREAL_COMPAT"> F  </i>
  <i type="logical" name="GGA_COMPAT"> T  </i>
  <i type="logical" name="LBERRY"> F  </i>
  <i type="int" name="ICORELEVEL">     0</i>
  <i type="logical" name="LDAU"> F  </i>
  <i type="int" name="I_CONSTRAINED_M">     0</i>
</parameters>
 <atominfo>
  <atoms>      48</atoms>
  <types>       1</types>
  <array name="atoms" >
   <dimension dim="1">ion</dimension>
   <field type="string">element</field>
   <field type="int">atomtype</field>
   <set>
    <rc><c>Al</c><c>   1</c></rc>
    <rc><c>Al</c><c>   1</c></rc>
    <rc><c>Al</c><c>   1</c></rc>
    <rc><c>Al</c><c>   1</c></rc>
    <rc><c>Al</c><c>   1</c></rc>
    <rc><c>Al</c><c>   1</c></rc>
    <rc><c>Al</c><c>   1</c></rc>
    <rc><c>Al</c><c>   1</c></rc>
    <rc><c>Al</c><c>   1</c></rc>
    <rc><c>Al</c><c>   1</c></rc>
    <rc><c>Al</c><c>   1</c></rc>
    <rc><c>Al</c><c>   1</c></rc>
    <rc><c>Al</c><c>   1</c></rc>
    <rc><c>Al</c><c>   1</c></rc>
    <rc><c>Al</c><c>   1</c></rc>
    <rc><c>Al</c><c>   1</c></rc>
    <rc><c>Al</c><c>   1</c></rc>
    <rc><c>Al</c><c>   1</c></rc>
    <rc><c>Al</c><c>   1</c></rc>
    <rc><c>Al</c><c>   1</c></rc>
    <rc><c>Al</c><c>   1</c></rc>
    <rc><c>Al</c><c>   1</c></rc>
    <rc><c>Al</c><c>   1</c></rc>
    <rc><c>Al</c><c>   1</c></rc>
    <rc><c>Al</c><c>   1</c></rc>
    <rc><c>Al</c><c>   1</c></rc>
    <rc><c>Al</c><c>   1</c></rc>
    <rc><c>Al</c><c>   1</c></rc>
    <rc><c>Al</c><c>   1</c></rc>
    <rc><c>Al</c><c>   1</c></rc>
    <rc><c>Al</c><c>   1</c></rc>
    <rc><c>Al</c><c>   1</c></rc>
    <rc><c>Al</c><c>   1</c></rc>
    <rc><c>Al</c><c>   1</c></rc>
    <rc><c>Al</c><c>   1</c></rc>
    <rc><c>Al</c><c>   1</c></rc>
    <rc><c>Al</c><c>   1</c></rc>
    <rc><c>Al</c><c>   1</c></rc>
    <rc><c>Al</c><c>   1</c></rc>
    <rc><c>Al</c><c>   1</c></rc>
    <rc><c>Al</c><c>   1</c></rc>
    <rc><c>Al</c><c>   1</c></rc>
    <rc><c>Al</c><c>   1</c></rc>
    <rc><c>Al</c><c>   1</c></rc>
    <rc><c>Al</c><c>   1</c></rc>
    <rc><c>Al</c><c>   1</c></rc>
    <rc><c>Al</c><c>   1</c></rc>
    <rc><c>Al</c><c>   1</c></rc>
   </set>
  </array>
  <array name="atomtypes" >
   <dimension dim="1">type</dimension>
   <field type="int">atomspertype</field>
   <field type="string">element</field>
   <field>mass</field>
   <field>valence</field>
   <field type="string">pseudopotential</field>
   <set>
    <rc><c>  48</c><c>Al</c><c>     26.98200000</c><c>      3.00000000</c><c> PAW_PBE Al 04Jan2001                   </c></rc>
   </set>
  </array>
 </atominfo>
 <structure name="initialpos" >
  <crystal>
   <varray name="basis" >
    <v>       8.07661819      0.00000000      0.00000000</v>
    <v>       0.00000000      8.07661819      0.00000000</v>
    <v>       0.00000000      0.00000000     12.11492729</v>
   </varray>
   <i name="volume">    790.27804723</i>
   <varray name="rec_basis" >
    <v>       0.12381420      0.00000000      0.00000000</v>
    <v>       0.00000000      0.12381420      0.00000000</v>
    <v>       0.00000000      0.00000000      0.08254280</v>
   </varray>
  </crystal>
  <varray name="positions" >
   <v>       0.25068680      0.25000000      0.00068680</v>
   <v>       0.75000000      0.25000000      0.00000000</v>
   <v>       0.25000000      0.75000000      0.00000000</v>
   <v>       0.75000000      0.75000000      0.00000000</v>
   <v>       0.25000000      0.25000000      0.33333333</v>
   <v>       0.75000000      0.25000000      0.33333333</v>
   <v>       0.25000000      0.75000000      0.33333333</v>
   <v>       0.75000000      0.75000000      0.33333333</v>
   <v>       0.25000000      0.25000000      0.66666667</v>
   <v>       0.75000000      0.25000000      0.66666667</v>
   <v>       0.25000000      0.75000000      0.66666667</v>
   <v>       0.75000000      0.75000000      0.66666667</v>
   <v>       0.25000000      0.00000000      0.16666667</v>
   <v>       0.75000000      0.00000000      0.16666667</v>
   <v>       0.25000000      0.50000000      0.16666667</v>
   <v>       0.75000000      0.50000000      0.16666667</v>
   <v>       0.25000000      0.00000000      0.50000000</v>
   <v>       0.75000000      0.00000000      0.50000000</v>
   <v>       0.25000000      0.50000000      0.50000000</v>
   <v>       0.75000000      0.50000000      0.50000000</v>
   <v>       0.25000000      0.00000000      0.83333333</v>
   <v>       0.75000000      0.00000000      0.83333333</v>
   <v>       0.25000000      0.50000000      0.83333333</v>
   <v>       0.75000000      0.50000000      0.83333333</v>
   <v>       0.00000000      0.25000000      0.16666667</v>
   <v>       0.50000000      0.25000000      0.16666667</v>
   <v>       0.00000000      0.75000000      0.16666667</v>
   <v>       0.50000000      0.75000000      0.16666667</v>
   <v>       0.00000000      0.25000000      0.50000000</v>
   <v>       0.50000000      0.25000000      0.50000000</v>
   <v>       0.00000000      0.75000000      0.50000000</v>
   <v>       0.50000000      0.75000000      0.50000000</v>
   <v>       0.00000000      0.25000000      0.83333333</v>
   <v>       0.50000000      0.25000000      0.83333333</v>
   <v>       0.00000000      0.75000000      0.83333333</v>
   <v>       0.50000000      0.75000000      0.83333333</v>
   <v>       0.00000000      0.00000000      0.00000000</v>
   <v>       0.50000000      0.00000000      0.00000000</v>
   <v>       0.00000000      0.50000000      0.00000000</v>
   <v>       0.50000000      0.50000000      0.00000000</v>
   <v>       0.00000000      0.00000000      0.33333333</v>
   <v>       0.50000000      0.00000000      0.33333333</v>
   <v>       0.00000000      0.50000000      0.33333333</v>
   <v>       0.50000000      0.50000000      0.33333333</v>
   <v>       0.00000000      0.00000000      0.66666667</v>
   <v>       0.50000000      0.00000000      0.66666667</v>
   <v>       0.00000000      0.50000000      0.66666667</v>
   <v>       0.50000000      0.50000000      0.66666667</v>
  </varray>
 </structure>
 <calculation>
  <scstep>
   <time name="dav">   67.65   67.69</time>
   <time name="total">   67.89   67.93</time>
   <energy>
    <i name="alphaZ">     -9.79237988</i>
    <i name="ewald">  -3531.31450039</i>
    <i name="hartreedc">     -4.82913587</i>
    <i name="XCdc">  -1259.31949918</i>
    <i name="pawpsdc">   1706.60423584</i>
    <i name="pawaedc">   -172.75118601</i>
    <i name="eentropy">     -0.00048831</i>
    <i name="bandstr">    891.55374061</i>
    <i name="atom">   2569.84369830</i>
    <i name="e_fr_energy">    189.99448511</i>
    <i name="e_wo_entrp">    189.99497342</i>
    <i name="e_0_energy">    189.99472927</i>
   </energy>
  </scstep>
  <scstep>
   <time name="dav">   75.83   75.84</time>
   <time name="total">   75.84   75.85</time>
   <energy>
    <i name="e_fr_energy">   -159.51019126</i>
    <i name="e_wo_entrp">   -159.50924421</i>
    <i name="e_0_energy">   -159.50971774</i>
   </energy>
  </scstep>
  <scstep>
   <time name="dav">   78.91   78.89</time>
   <time name="total">   78.91   78.90</time>
   <energy>
    <i name="e_fr_energy">   -180.29660646</i>
    <i name="e_wo_entrp">   -180.29572491</i>
    <i name="e_0_energy">   -180.29616569</i>
   </energy>
  </scstep>
  <scstep>
   <time name="dav">   75.79   75.77</time>
   <time name="total">   75.80   75.78</time>
   <energy>
    <i name="e_fr_energy">   -180.73364137</i>
    <i name="e_wo_entrp">   -180.73307803</i>
    <i name="e_0_energy">   -180.73335970</i>
   </energy>
  </scstep>
  <scstep>
   <time name="dav">   75.95   75.95</time>
   <time name="total">   78.61   78.62</time>
   <energy>
    <i name="e_fr_energy">   -180.73953288</i>
    <i name="e_wo_entrp">   -180.73897073</i>
    <i name="e_0_energy">   -180.73925180</i>
   </energy>
  </scstep>
  <scstep>
   <time name="dav">   74.25   74.23</time>
   <time name="total">   77.14   77.13</time>
   <energy>
    <i name="e_fr_energy">   -180.10383937</i>
    <i name="e_wo_entrp">   -180.10325852</i>
    <i name="e_0_energy">   -180.10354895</i>
   </energy>
  </scstep>
  <scstep>
   <time name="dav">   73.29   73.32</time>
   <time name="total">   76.14   76.16</time>
   <energy>
    <i name="e_fr_energy">   -179.64045666</i>
    <i name="e_wo_entrp">   -179.63955799</i>
    <i name="e_0_energy">   -179.64000733</i>
   </energy>
  </scstep>
  <scstep>
   <time name="dav">   78.16   78.15</time>
   <time name="total">   81.03   81.02</time>
   <energy>
    <i name="e_fr_energy">   -179.64057851</i>
    <i name="e_wo_entrp">   -179.63966030</i>
    <i name="e_0_energy">   -179.64011941</i>
   </energy>
  </scstep>
  <scstep>
   <time name="dav">   78.56   78.55</time>
   <time name="total">   81.41   81.40</time>
   <energy>
    <i name="e_fr_energy">   -179.64057910</i>
    <i name="e_wo_entrp">   -179.63964575</i>
    <i name="e_0_energy">   -179.64011242</i>
   </energy>
  </scstep>
  <scstep>
   <time name="dav">   76.66   76.65</time>
   <time name="total">   79.56   79.55</time>
   <energy>
    <i name="e_fr_energy">   -179.64059377</i>
    <i name="e_wo_entrp">   -179.63965472</i>
    <i name="e_0_energy">   -179.64012425</i>
   </energy>
  </scstep>
  <scstep>
   <time name="dav">   77.39   77.38</time>
   <time name="total">   80.26   80.24</time>
   <energy>
    <i name="e_fr_energy">   -179.64058987</i>
    <i name="e_wo_entrp">   -179.63965066</i>
    <i name="e_0_energy">   -179.64012027</i>
   </energy>
  </scstep>
  <scstep>
   <time name="dav">   75.46   75.44</time>
   <time name="total">   78.31   78.30</time>
   <energy>
    <i name="e_fr_energy">   -179.64058773</i>
    <i name="e_wo_entrp">   -179.63964836</i>
    <i name="e_0_energy">   -179.64011805</i>
   </energy>
  </scstep>
  <scstep>
   <time name="dav">   51.32   51.31</time>
   <time name="total">   54.18   54.17</time>
   <energy>
    <i name="e_fr_energy">   -179.64058705</i>
    <i name="e_wo_entrp">   -179.63964761</i>
    <i name="e_0_energy">   -179.64011733</i>
   </energy>
  </scstep>
  <scstep>
   <time name="dav">   50.29   50.29</time>
   <time name="total">   53.13   53.13</time>
   <energy>
    <i name="e_fr_energy">   -179.64058701</i>
    <i name="e_wo_entrp">   -179.63964758</i>
    <i name="e_0_energy">   -179.64011729</i>
   </energy>
  </scstep>
  <scstep>
   <time name="dav">   50.73   50.72</time>
   <time name="total">   53.65   53.64</time>
   <energy>
    <i name="e_fr_energy">   -179.64058703</i>
    <i name="e_wo_entrp">   -179.63964760</i>
    <i name="e_0_energy">   -179.64011732</i>
   </energy>
  </scstep>
  <scstep>
   <time name="dav">   50.61   50.61</time>
   <time name="total">   53.50   53.49</time>
   <energy>
    <i name="e_fr_energy">   -179.64058705</i>
    <i name="e_wo_entrp">   -179.63964762</i>
    <i name="e_0_energy">   -179.64011734</i>
   </energy>
  </scstep>
  <scstep>
   <time name="dav">   50.54   50.53</time>
   <time name="total">   53.35   53.35</time>
   <energy>
    <i name="e_fr_energy">   -179.64058706</i>
    <i name="e_wo_entrp">   -179.63964764</i>
    <i name="e_0_energy">   -179.64011735</i>
   </energy>
  </scstep>
  <scstep>
   <time name="dav">   49.89   49.88</time>
   <time name="total">   50.11   50.11</time>
   <energy>
    <i name="alphaZ">     -9.79237988</i>
    <i name="ewald">  -3531.31450039</i>
    <i name="hartreedc">     -4.98968237</i>
    <i name="XCdc">  -1254.03659824</i>
    <i name="pawpsdc">   1711.95559246</i>
    <i name="pawaedc">   -178.70782570</i>
    <i name="eentropy">     -0.00093942</i>
    <i name="bandstr">    517.40204818</i>
    <i name="atom">   2569.84369830</i>
    <i name="e_fr_energy">   -179.64058706</i>
    <i name="e_wo_entrp">   -179.63964764</i>
    <i name="e_0_energy">   -179.64011735</i>
   </energy>
  </scstep>
  <structure>
   <crystal>
    <varray name="basis" >
     <v>       8.07661819      0.00000000      0.00000000</v>
     <v>       0.00000000      8.07661819      0.00000000</v>
     <v>       0.00000000      0.00000000     12.11492729</v>
    </varray>
    <i name="volume">    790.27804723</i>
    <varray name="rec_basis" >
     <v>       0.12381420      0.00000000      0.00000000</v>
     <v>       0.00000000      0.12381420      0.00000000</v>
     <v>       0.00000000      0.00000000      0.08254280</v>
    </varray>
   </crystal>
   <varray name="positions" >
    <v>       0.25068680      0.25000000      0.00068680</v>
    <v>       0.75000000      0.25000000      0.00000000</v>
    <v>       0.25000000      0.75000000      0.00000000</v>
    <v>       0.75000000      0.75000000      0.00000000</v>
    <v>       0.25000000      0.25000000      0.33333333</v>
    <v>       0.75000000      0.25000000      0.33333333</v>
    <v>       0.25000000      0.75000000      0.33333333</v>
    <v>       0.75000000      0.75000000      0.33333333</v>
    <v>       0.25000000      0.25000000      0.66666667</v>
    <v>       0.75000000      0.25000000      0.66666667</v>
    <v>       0.25000000      0.75000000      0.66666667</v>
    <v>       0.75000000      0.75000000      0.66666667</v>
    <v>       0.25000000      0.00000000      0.16666667</v>
    <v>       0.75000000      0.00000000      0.16666667</v>
    <v>       0.25000000      0.50000000      0.16666667</v>
    <v>       0.75000000      0.50000000      0.16666667</v>
    <v>       0.25000000      0.00000000      0.50000000</v>
    <v>       0.75000000      0.00000000      0.50000000</v>
    <v>       0.25000000      0.50000000      0.50000000</v>
    <v>       0.75000000      0.50000000      0.50000000</v>
    <v>       0.25000000      0.00000000      0.83333333</v>
    <v>       0.75000000      0.00000000      0.83333333</v>
    <v>       0.25000000      0.50000000      0.83333333</v>
    <v>       0.75000000      0.50000000      0.83333333</v>
    <v>       0.00000000      0.25000000      0.16666667</v>
    <v>       0.50000000      0.25000000      0.16666667</v>
    <v>       0.00000000      0.75000000      0.16666667</v>
    <v>       0.50000000      0.75000000      0.16666667</v>
    <v>       0.00000000      0.25000000      0.50000000</v>
    <v>       0.50000000      0.25000000      0.50000000</v>
    <v>       0.00000000      0.75000000      0.50000000</v>
    <v>       0.50000000      0.75000000      0.50000000</v>
    <v>       0.00000000      0.25000000      0.83333333</v>
    <v>       0.50000000      0.25000000      0.83333333</v>
    <v>       0.00000000      0.75000000      0.83333333</v>
    <v>       0.50000000      0.75000000      0.83333333</v>
    <v>       0.00000000      0.00000000      0.00000000</v>
    <v>       0.50000000      0.00000000      0.00000000</v>
    <v>       0.00000000      0.50000000      0.00000000</v>
    <v>       0.50000000      0.50000000      0.00000000</v>
    <v>       0.00000000      0.00000000      0.33333333</v>
    <v>       0.50000000      0.00000000      0.33333333</v>
    <v>       0.00000000      0.50000000      0.33333333</v>
    <v>       0.50000000      0.50000000      0.33333333</v>
    <v>       0.00000000      0.00000000      0.66666667</v>
    <v>       0.50000000      0.00000000      0.66666667</v>
    <v>       0.00000000      0.50000000      0.66666667</v>
    <v>       0.50000000      0.50000000      0.66666667</v>
   </varray>
  </structure>
  <varray name="forces" >
   <v>      -0.02446186      0.00000000     -0.03698789</v>
   <v>       0.00151848      0.00000000      0.00005555</v>
   <v>       0.00020810      0.00000000      0.00005799</v>
   <v>      -0.00038267      0.00000000     -0.00138019</v>
   <v>      -0.00003100      0.00000000      0.00148191</v>
   <v>       0.00002055      0.00000000     -0.00019141</v>
   <v>      -0.00032817      0.00000000     -0.00018834</v>
   <v>      -0.00052469      0.00000000     -0.00050147</v>
   <v>      -0.00001300      0.00000000      0.00147846</v>
   <v>       0.00005503      0.00000000     -0.00020485</v>
   <v>      -0.00035080      0.00000000     -0.00020659</v>
   <v>      -0.00049770      0.00000000     -0.00059706</v>
   <v>      -0.00080312     -0.00536290      0.00501047</v>
   <v>      -0.00029969      0.00056568      0.00038778</v>
   <v>      -0.00080312      0.00536290      0.00501047</v>
   <v>      -0.00029969     -0.00056568      0.00038778</v>
   <v>      -0.00042170     -0.00000739     -0.00017657</v>
   <v>       0.00016268      0.00000119      0.00058425</v>
   <v>      -0.00042170      0.00000739     -0.00017657</v>
   <v>       0.00016268     -0.00000119      0.00058425</v>
   <v>      -0.00076238      0.00520977      0.00488498</v>
   <v>      -0.00032546     -0.00048861      0.00043986</v>
   <v>      -0.00076238     -0.00520977      0.00488498</v>
   <v>      -0.00032546      0.00048861      0.00043986</v>
   <v>      -0.00201088      0.00000000      0.00138817</v>
   <v>       0.00879008      0.00000000      0.00868590</v>
   <v>       0.00084106      0.00000000      0.00073641</v>
   <v>      -0.00027447      0.00000000      0.00006915</v>
   <v>      -0.00006269      0.00000000     -0.00017770</v>
   <v>      -0.00006352      0.00000000     -0.00017377</v>
   <v>       0.00037390      0.00000000      0.00058858</v>
   <v>       0.00035497      0.00000000      0.00057885</v>
   <v>       0.00832907      0.00000000      0.00826365</v>
   <v>      -0.00201729      0.00000000      0.00145969</v>
   <v>      -0.00020584      0.00000000      0.00005316</v>
   <v>       0.00079065      0.00000000      0.00079401</v>
   <v>       0.00337786      0.00361007     -0.00122037</v>
   <v>       0.00342061     -0.00364208     -0.00128601</v>
   <v>       0.00337786     -0.00361007     -0.00122037</v>
   <v>       0.00342061      0.00364208     -0.00128601</v>
   <v>       0.00047933      0.00024291     -0.00009877</v>
   <v>      -0.00015755      0.00037336     -0.00049942</v>
   <v>       0.00047933     -0.00024291     -0.00009877</v>
   <v>      -0.00015755     -0.00037336     -0.00049942</v>
   <v>      -0.00013596     -0.00037190     -0.00048623</v>
   <v>       0.00043672     -0.00021997     -0.00008107</v>
   <v>      -0.00013596      0.00037190     -0.00048623</v>
   <v>       0.00043672      0.00021997     -0.00008107</v>
  </varray>
  <varray name="stress" >
   <v>      -0.58033667      0.00000000     -0.00010814</v>
   <v>       0.00000000     -0.58244084      0.00000000</v>
   <v>      -0.00010813      0.00000000     -0.58050969</v>
  </varray>
  <energy>
   <i name="e_fr_energy">   -179.64058706</i>
   <i name="e_wo_entrp">   -179.64011735</i>
   <i name="e_0_energy">     -0.00093942</i>
  </energy>
  <eigenvalues>
   <array>
    <dimension dim="1">band</dimension>
    <dimension dim="2">kpoint</dimension>
    <dimension dim="3">spin</dimension>
    <field>eigene</field>
    <field>occ</field>
    <set>
     <set comment="spin 1">
      <set comment="kpoint 1">
       <r>  -3.1269  1.0000</r>
       <r>  -2.1227  1.0000</r>
       <r>  -2.1209  1.0000</r>
       <r>  -0.8766  1.0000</r>
       <r>  -0.8755  1.0000</r>
       <r>  -0.8755  1.0000</r>
       <r>  -0.8745  1.0000</r>
       <r>   0.1106  1.0000</r>
       <r>   0.1132  1.0000</r>
       <r>   0.1134  1.0000</r>
       <r>   0.1137  1.0000</r>
       <r>   0.1138  1.0000</r>
       <r>   0.1141  1.0000</r>
       <r>   0.1143  1.0000</r>
       <r>   0.1169  1.0000</r>
       <r>   0.8485  1.0000</r>
       <r>   0.8497  1.0000</r>
       <r>   1.3399  1.0000</r>
       <r>   1.3402  1.0000</r>
       <r>   1.3411  1.0000</r>
       <r>   1.3415  1.0000</r>
       <r>   2.3122  1.0000</r>
       <r>   2.3134  1.0000</r>
       <r>   2.3141  1.0000</r>
       <r>   2.3144  1.0000</r>
       <r>   2.3147  1.0000</r>
       <r>   2.3150  1.0000</r>
       <r>   2.3157  1.0000</r>
       <r>   2.3168  1.0000</r>
       <r>   3.0360  1.0000</r>
       <r>   3.0374  1.0000</r>
       <r>   3.0376  1.0000</r>
       <r>   3.0378  1.0000</r>
       <r>   3.0381  1.0000</r>
       <r>   3.0383  1.0000</r>
       <r>   3.0385  1.0000</r>
       <r>   3.0399  1.0000</r>
       <r>   5.0933  1.0000</r>
       <r>   5.0933  1.0000</r>
       <r>   5.0933  1.0000</r>
       <r>   5.2110  1.0000</r>
       <r>   5.2115  1.0000</r>
       <r>   5.2123  1.0000</r>
       <r>   5.2124  1.0000</r>
       <r>   5.2125  1.0000</r>
       <r>   5.2126  1.0000</r>
       <r>   5.2135  1.0000</r>
       <r>   5.2140  1.0000</r>
       <r>   6.0159  1.0000</r>
       <r>   6.0159  1.0000</r>
       <r>   6.0179  1.0000</r>
       <r>   6.0179  1.0000</r>
       <r>   6.4215  1.0000</r>
       <r>   6.4216  1.0000</r>
       <r>   6.4216  1.0000</r>
       <r>   7.1718  1.0000</r>
       <r>   7.1720  1.0000</r>
       <r>   7.1736  1.0000</r>
       <r>   7.1736  1.0000</r>
       <r>   7.1736  1.0000</r>
       <r>   7.1736  1.0000</r>
       <r>   7.1752  1.0000</r>
       <r>   7.1753  1.0000</r>
       <r>   7.3708  1.0000</r>
       <r>   7.3714  1.0000</r>
       <r>   7.3725  1.0000</r>
       <r>   7.3731  1.0000</r>
       <r>   8.0979  0.0000</r>
       <r>   8.0989  0.0000</r>
       <r>   8.1000  0.0000</r>
       <r>   8.1004  0.0000</r>
       <r>   8.1005  0.0000</r>
       <r>   8.1008  0.0000</r>
       <r>   8.1020  0.0000</r>
       <r>   8.1029  0.0000</r>
       <r>   8.1879  0.0000</r>
       <r>   8.1889  0.0000</r>
       <r>   8.1890  0.0000</r>
       <r>   8.1900  0.0000</r>
       <r>   8.7956  0.0000</r>
       <r>   8.7956  0.0000</r>
       <r>   8.7973  0.0000</r>
       <r>   8.7973  0.0000</r>
       <r>   9.1408  0.0000</r>
       <r>   9.1411  0.0000</r>
       <r>   9.1411  0.0000</r>
       <r>   9.1414  0.0000</r>
       <r>   9.2592  0.0000</r>
       <r>   9.2599  0.0000</r>
       <r>   9.2607  0.0000</r>
       <r>   9.2614  0.0000</r>
       <r>   9.6018  0.0000</r>
       <r>   9.6023  0.0000</r>
       <r>   9.6029  0.0000</r>
       <r>   9.6035  0.0000</r>
       <r>   9.6037  0.0000</r>
       <r>   9.6044  0.0000</r>
       <r>   9.6050  0.0000</r>
       <r>   9.6054  0.0000</r>
       <r>  10.3857  0.0000</r>
       <r>  10.3864  0.0000</r>
       <r>  10.3865  0.0000</r>
       <r>  10.3871  0.0000</r>
       <r>  10.7829  0.0000</r>
      </set>
      <set comment="kpoint 2">
       <r>  -3.0639  1.0000</r>
       <r>  -2.0601  1.0000</r>
       <r>  -2.0583  1.0000</r>
       <r>  -1.5596  1.0000</r>
       <r>  -0.8135  1.0000</r>
       <r>  -0.8135  1.0000</r>
       <r>  -0.5664  1.0000</r>
       <r>  -0.5646  1.0000</r>
       <r>  -0.0718  1.0000</r>
       <r>   0.1741  1.0000</r>
       <r>   0.1748  1.0000</r>
       <r>   0.1759  1.0000</r>
       <r>   0.1766  1.0000</r>
       <r>   0.6672  1.0000</r>
       <r>   0.6673  1.0000</r>
       <r>   0.9093  1.0000</r>
       <r>   0.9106  1.0000</r>
       <r>   0.9115  1.0000</r>
       <r>   0.9133  1.0000</r>
       <r>   1.6449  1.0000</r>
       <r>   1.6456  1.0000</r>
       <r>   1.6467  1.0000</r>
       <r>   1.6475  1.0000</r>
       <r>   2.1319  1.0000</r>
       <r>   2.1319  1.0000</r>
       <r>   2.3724  1.0000</r>
       <r>   2.3735  1.0000</r>
       <r>   3.0950  1.0000</r>
       <r>   3.0962  1.0000</r>
       <r>   3.0973  1.0000</r>
       <r>   3.0974  1.0000</r>
       <r>   3.0979  1.0000</r>
       <r>   3.0980  1.0000</r>
       <r>   3.0990  1.0000</r>
       <r>   3.0999  1.0000</r>
       <r>   3.8183  1.0000</r>
       <r>   3.8194  1.0000</r>
       <r>   4.2250  1.0000</r>
       <r>   4.5582  1.0000</r>
       <r>   4.5584  1.0000</r>
       <r>   4.5594  1.0000</r>
       <r>   4.5596  1.0000</r>
       <r>   5.1510  1.0000</r>
       <r>   5.1510  1.0000</r>
       <r>   5.1693  1.0000</r>
       <r>   5.1712  1.0000</r>
       <r>   5.9846  1.0000</r>
       <r>   5.9847  1.0000</r>
       <r>   5.9858  1.0000</r>
       <r>   5.9859  1.0000</r>
       <r>   6.0736  1.0000</r>
       <r>   6.0757  1.0000</r>
       <r>   6.3390  1.0000</r>
       <r>   6.3390  1.0000</r>
       <r>   6.4825  1.0000</r>
       <r>   6.4825  1.0000</r>
       <r>   6.5371  1.0000</r>
       <r>   6.5371  1.0000</r>
       <r>   7.2315  1.0000</r>
       <r>   7.2315  1.0000</r>
       <r>   7.3004  1.0000</r>
       <r>   7.3012  1.0000</r>
       <r>   7.3024  1.0000</r>
       <r>   7.3032  1.0000</r>
       <r>   7.3786  1.0000</r>
       <r>   7.3801  1.0000</r>
       <r>   7.3990  1.0000</r>
       <r>   7.4620  1.0000</r>
       <r>   7.4641  1.0000</r>
       <r>   7.8567  1.0000</r>
       <r>   7.8567  1.0000</r>
       <r>   7.9266  1.0000</r>
       <r>   7.9266  1.0000</r>
       <r>   8.0889  0.0000</r>
       <r>   8.0901  0.0000</r>
       <r>   8.3124  0.0000</r>
       <r>   8.3142  0.0000</r>
       <r>   8.5805  0.0000</r>
       <r>   8.5806  0.0000</r>
       <r>   8.6222  0.0000</r>
       <r>   8.6222  0.0000</r>
       <r>   8.8523  0.0000</r>
       <r>   8.8544  0.0000</r>
       <r>   8.8545  0.0000</r>
       <r>   8.8566  0.0000</r>
       <r>   8.9546  0.0000</r>
       <r>   8.9563  0.0000</r>
       <r>   9.5814  0.0000</r>
       <r>   9.5814  0.0000</r>
       <r>   9.7512  0.0000</r>
       <r>   9.7512  0.0000</r>
       <r>  10.0148  0.0000</r>
       <r>  10.0149  0.0000</r>
       <r>  10.1034  0.0000</r>
       <r>  10.1037  0.0000</r>
       <r>  10.1048  0.0000</r>
       <r>  10.1052  0.0000</r>
       <r>  10.1387  0.0000</r>
       <r>  10.1387  0.0000</r>
       <r>  10.2466  0.0000</r>
       <r>  10.2483  0.0000</r>
       <r>  10.3549  0.0000</r>
       <r>  10.3567  0.0000</r>
       <r>  10.4630  0.0000</r>
      </set>
      <set comment="kpoint 3">
       <r>  -2.8750  1.0000</r>
       <r>  -2.1218  1.0000</r>
       <r>  -1.8726  1.0000</r>
       <r>  -1.8707  1.0000</r>
       <r>  -1.1247  1.0000</r>
       <r>  -1.1229  1.0000</r>
       <r>  -0.6276  1.0000</r>
       <r>  -0.6276  1.0000</r>
       <r>   0.1137  1.0000</r>
       <r>   0.1138  1.0000</r>
       <r>   0.3588  1.0000</r>
       <r>   0.3595  1.0000</r>
       <r>   0.3606  1.0000</r>
       <r>   0.3613  1.0000</r>
       <r>   0.8491  1.0000</r>
       <r>   1.0929  1.0000</r>
       <r>   1.0943  1.0000</r>
       <r>   1.0957  1.0000</r>
       <r>   1.0959  1.0000</r>
       <r>   1.0970  1.0000</r>
       <r>   1.0981  1.0000</r>
       <r>   1.8248  1.0000</r>
       <r>   1.8261  1.0000</r>
       <r>   1.8265  1.0000</r>
       <r>   1.8277  1.0000</r>
       <r>   3.0197  1.0000</r>
       <r>   3.0379  1.0000</r>
       <r>   3.0379  1.0000</r>
       <r>   3.2776  1.0000</r>
       <r>   3.2777  1.0000</r>
       <r>   3.2788  1.0000</r>
       <r>   3.2789  1.0000</r>
       <r>   3.8866  1.0000</r>
       <r>   3.8871  1.0000</r>
       <r>   3.8874  1.0000</r>
       <r>   3.8879  1.0000</r>
       <r>   3.9783  1.0000</r>
       <r>   3.9802  1.0000</r>
       <r>   4.1298  1.0000</r>
       <r>   4.1300  1.0000</r>
       <r>   4.1300  1.0000</r>
       <r>   4.1302  1.0000</r>
       <r>   4.7109  1.0000</r>
       <r>   4.7121  1.0000</r>
       <r>   5.1675  1.0000</r>
       <r>   5.1675  1.0000</r>
       <r>   5.3241  1.0000</r>
       <r>   5.3241  1.0000</r>
       <r>   6.0169  1.0000</r>
       <r>   6.0169  1.0000</r>
       <r>   6.1364  1.0000</r>
       <r>   6.1370  1.0000</r>
       <r>   6.1382  1.0000</r>
       <r>   6.1390  1.0000</r>
       <r>   6.2470  1.0000</r>
       <r>   6.2490  1.0000</r>
       <r>   6.6643  1.0000</r>
       <r>   6.6643  1.0000</r>
       <r>   6.7662  1.0000</r>
       <r>   6.7671  1.0000</r>
       <r>   6.8712  1.0000</r>
       <r>   6.8714  1.0000</r>
       <r>   6.8724  1.0000</r>
       <r>   6.8726  1.0000</r>
       <r>   6.9410  1.0000</r>
       <r>   6.9430  1.0000</r>
       <r>   7.3719  1.0000</r>
       <r>   7.3720  1.0000</r>
       <r>   7.4052  1.0000</r>
       <r>   7.4052  1.0000</r>
       <r>   7.7403  1.0000</r>
       <r>   7.7417  1.0000</r>
       <r>   8.1004  0.0000</r>
       <r>   8.1004  0.0000</r>
       <r>   8.4193  0.0000</r>
       <r>   8.4210  0.0000</r>
       <r>   8.7964  0.0000</r>
       <r>   8.7965  0.0000</r>
       <r>   8.8576  0.0000</r>
       <r>   8.8576  0.0000</r>
       <r>   8.9314  0.0000</r>
       <r>   8.9585  0.0000</r>
       <r>   8.9587  0.0000</r>
       <r>   8.9598  0.0000</r>
       <r>   8.9601  0.0000</r>
       <r>   9.0278  0.0000</r>
       <r>   9.0294  0.0000</r>
       <r>   9.6036  0.0000</r>
       <r>   9.6036  0.0000</r>
       <r>   9.7231  0.0000</r>
       <r>   9.7249  0.0000</r>
       <r>   9.7253  0.0000</r>
       <r>   9.7270  0.0000</r>
       <r>   9.7370  0.0000</r>
       <r>   9.7386  0.0000</r>
       <r>  10.3864  0.0000</r>
       <r>  10.3864  0.0000</r>
       <r>  10.7258  0.0000</r>
       <r>  10.7263  0.0000</r>
       <r>  10.8856  0.0000</r>
       <r>  10.8858  0.0000</r>
       <r>  10.8865  0.0000</r>
       <r>  10.8867  0.0000</r>
       <r>  11.1466  0.0000</r>
      </set>
      <set comment="kpoint 4">
       <r>  -2.5612  1.0000</r>
       <r>  -2.5602  1.0000</r>
       <r>  -1.5615  1.0000</r>
       <r>  -1.5597  1.0000</r>
       <r>  -1.5595  1.0000</r>
       <r>  -1.5577  1.0000</r>
       <r>  -0.3190  1.0000</r>
       <r>  -0.3185  1.0000</r>
       <r>  -0.3179  1.0000</r>
       <r>  -0.3175  1.0000</r>
       <r>   0.6647  1.0000</r>
       <r>   0.6662  1.0000</r>
       <r>   0.6673  1.0000</r>
       <r>   0.6673  1.0000</r>
       <r>   0.6674  1.0000</r>
       <r>   0.6675  1.0000</r>
       <r>   0.6685  1.0000</r>
       <r>   0.6700  1.0000</r>
       <r>   1.3983  1.0000</r>
       <r>   1.3995  1.0000</r>
       <r>   1.3997  1.0000</r>
       <r>   1.4008  1.0000</r>
       <r>   1.8824  1.0000</r>
       <r>   1.8829  1.0000</r>
       <r>   2.8508  1.0000</r>
       <r>   2.8513  1.0000</r>
       <r>   2.8527  1.0000</r>
       <r>   2.8532  1.0000</r>
       <r>   3.5740  1.0000</r>
       <r>   3.5744  1.0000</r>
       <r>   3.5752  1.0000</r>
       <r>   3.5755  1.0000</r>
       <r>   3.5755  1.0000</r>
       <r>   3.5757  1.0000</r>
       <r>   3.5766  1.0000</r>
       <r>   3.5769  1.0000</r>
       <r>   4.0533  1.0000</r>
       <r>   4.0534  1.0000</r>
       <r>   4.0538  1.0000</r>
       <r>   4.0539  1.0000</r>
       <r>   5.0302  1.0000</r>
       <r>   5.0309  1.0000</r>
       <r>   5.0311  1.0000</r>
       <r>   5.0315  1.0000</r>
       <r>   5.0322  1.0000</r>
       <r>   5.0327  1.0000</r>
       <r>   5.0328  1.0000</r>
       <r>   5.0335  1.0000</r>
       <r>   5.6121  1.0000</r>
       <r>   5.6121  1.0000</r>
       <r>   5.6132  1.0000</r>
       <r>   5.6132  1.0000</r>
       <r>   5.7058  1.0000</r>
       <r>   5.7066  1.0000</r>
       <r>   5.7070  1.0000</r>
       <r>   5.7078  1.0000</r>
       <r>   6.5350  1.0000</r>
       <r>   6.5370  1.0000</r>
       <r>   6.5372  1.0000</r>
       <r>   6.5392  1.0000</r>
       <r>   6.9630  1.0000</r>
       <r>   6.9634  1.0000</r>
       <r>   6.9640  1.0000</r>
       <r>   6.9644  1.0000</r>
       <r>   7.6939  1.0000</r>
       <r>   7.6945  1.0000</r>
       <r>   7.6951  1.0000</r>
       <r>   7.6957  1.0000</r>
       <r>   7.8657  1.0000</r>
       <r>   7.8663  1.0000</r>
       <r>   7.8669  1.0000</r>
       <r>   7.8669  1.0000</r>
       <r>   7.8673  1.0000</r>
       <r>   7.8674  1.0000</r>
       <r>   7.8680  1.0000</r>
       <r>   7.8686  1.0000</r>
       <r>   8.0043  0.0669</r>
       <r>   8.0057  0.0439</r>
       <r>   8.0060  0.0411</r>
       <r>   8.0075  0.0256</r>
       <r>   9.1783  0.0000</r>
       <r>   9.1785  0.0000</r>
       <r>   9.1794  0.0000</r>
       <r>   9.1795  0.0000</r>
       <r>   9.3170  0.0000</r>
       <r>   9.3187  0.0000</r>
       <r>   9.3188  0.0000</r>
       <r>   9.3205  0.0000</r>
       <r>   9.7828  0.0000</r>
       <r>   9.7828  0.0000</r>
       <r>   9.7836  0.0000</r>
       <r>   9.7836  0.0000</r>
       <r>  10.6128  0.0000</r>
       <r>  10.6133  0.0000</r>
       <r>  10.7002  0.0000</r>
       <r>  10.7004  0.0000</r>
       <r>  10.7014  0.0000</r>
       <r>  10.7017  0.0000</r>
       <r>  10.7111  0.0000</r>
       <r>  10.7120  0.0000</r>
       <r>  10.7132  0.0000</r>
       <r>  10.7142  0.0000</r>
       <r>  11.3133  0.0000</r>
       <r>  11.3136  0.0000</r>
      </set>
      <set comment="kpoint 5">
       <r>  -3.0639  1.0000</r>
       <r>  -2.0601  1.0000</r>
       <r>  -2.0583  1.0000</r>
       <r>  -1.5596  1.0000</r>
       <r>  -0.8141  1.0000</r>
       <r>  -0.8129  1.0000</r>
       <r>  -0.5664  1.0000</r>
       <r>  -0.5646  1.0000</r>
       <r>  -0.0718  1.0000</r>
       <r>   0.1737  1.0000</r>
       <r>   0.1751  1.0000</r>
       <r>   0.1757  1.0000</r>
       <r>   0.1771  1.0000</r>
       <r>   0.6666  1.0000</r>
       <r>   0.6679  1.0000</r>
       <r>   0.9094  1.0000</r>
       <r>   0.9106  1.0000</r>
       <r>   0.9115  1.0000</r>
       <r>   0.9132  1.0000</r>
       <r>   1.6445  1.0000</r>
       <r>   1.6459  1.0000</r>
       <r>   1.6465  1.0000</r>
       <r>   1.6479  1.0000</r>
       <r>   2.1313  1.0000</r>
       <r>   2.1325  1.0000</r>
       <r>   2.3724  1.0000</r>
       <r>   2.3735  1.0000</r>
       <r>   3.0946  1.0000</r>
       <r>   3.0967  1.0000</r>
       <r>   3.0972  1.0000</r>
       <r>   3.0976  1.0000</r>
       <r>   3.0977  1.0000</r>
       <r>   3.0982  1.0000</r>
       <r>   3.0984  1.0000</r>
       <r>   3.1004  1.0000</r>
       <r>   3.8183  1.0000</r>
       <r>   3.8194  1.0000</r>
       <r>   4.2250  1.0000</r>
       <r>   4.5577  1.0000</r>
       <r>   4.5589  1.0000</r>
       <r>   4.5589  1.0000</r>
       <r>   4.5601  1.0000</r>
       <r>   5.1510  1.0000</r>
       <r>   5.1510  1.0000</r>
       <r>   5.1693  1.0000</r>
       <r>   5.1712  1.0000</r>
       <r>   5.9840  1.0000</r>
       <r>   5.9852  1.0000</r>
       <r>   5.9853  1.0000</r>
       <r>   5.9865  1.0000</r>
       <r>   6.0736  1.0000</r>
       <r>   6.0757  1.0000</r>
       <r>   6.3384  1.0000</r>
       <r>   6.3397  1.0000</r>
       <r>   6.4825  1.0000</r>
       <r>   6.4825  1.0000</r>
       <r>   6.5371  1.0000</r>
       <r>   6.5371  1.0000</r>
       <r>   7.2308  1.0000</r>
       <r>   7.2322  1.0000</r>
       <r>   7.2999  1.0000</r>
       <r>   7.3015  1.0000</r>
       <r>   7.3021  1.0000</r>
       <r>   7.3037  1.0000</r>
       <r>   7.3786  1.0000</r>
       <r>   7.3801  1.0000</r>
       <r>   7.3990  1.0000</r>
       <r>   7.4620  1.0000</r>
       <r>   7.4641  1.0000</r>
       <r>   7.8567  1.0000</r>
       <r>   7.8567  1.0000</r>
       <r>   7.9266  1.0000</r>
       <r>   7.9267  1.0000</r>
       <r>   8.0889  0.0000</r>
       <r>   8.0901  0.0000</r>
       <r>   8.3124  0.0000</r>
       <r>   8.3142  0.0000</r>
       <r>   8.5802  0.0000</r>
       <r>   8.5809  0.0000</r>
       <r>   8.6215  0.0000</r>
       <r>   8.6229  0.0000</r>
       <r>   8.8524  0.0000</r>
       <r>   8.8543  0.0000</r>
       <r>   8.8546  0.0000</r>
       <r>   8.8564  0.0000</r>
       <r>   8.9546  0.0000</r>
       <r>   8.9563  0.0000</r>
       <r>   9.5814  0.0000</r>
       <r>   9.5814  0.0000</r>
       <r>   9.7507  0.0000</r>
       <r>   9.7516  0.0000</r>
       <r>  10.0141  0.0000</r>
       <r>  10.0156  0.0000</r>
       <r>  10.1028  0.0000</r>
       <r>  10.1043  0.0000</r>
       <r>  10.1043  0.0000</r>
       <r>  10.1057  0.0000</r>
       <r>  10.1382  0.0000</r>
       <r>  10.1393  0.0000</r>
       <r>  10.2466  0.0000</r>
       <r>  10.2483  0.0000</r>
       <r>  10.3549  0.0000</r>
       <r>  10.3567  0.0000</r>
       <r>  10.4597  0.0000</r>
      </set>
      <set comment="kpoint 6">
       <r>  -3.0009  1.0000</r>
       <r>  -1.9976  1.0000</r>
       <r>  -1.9958  1.0000</r>
       <r>  -1.4977  1.0000</r>
       <r>  -1.4968  1.0000</r>
       <r>  -0.5053  1.0000</r>
       <r>  -0.5038  1.0000</r>
       <r>  -0.5034  1.0000</r>
       <r>  -0.5019  1.0000</r>
       <r>  -0.0106  1.0000</r>
       <r>  -0.0098  1.0000</r>
       <r>  -0.0091  1.0000</r>
       <r>   0.9697  1.0000</r>
       <r>   0.9716  1.0000</r>
       <r>   0.9725  1.0000</r>
       <r>   0.9730  1.0000</r>
       <r>   0.9735  1.0000</r>
       <r>   0.9736  1.0000</r>
       <r>   0.9745  1.0000</r>
       <r>   0.9762  1.0000</r>
       <r>   1.4621  1.0000</r>
       <r>   1.4625  1.0000</r>
       <r>   2.4317  1.0000</r>
       <r>   2.4331  1.0000</r>
       <r>   2.4335  1.0000</r>
       <r>   2.4340  1.0000</r>
       <r>   2.4347  1.0000</r>
       <r>   2.4348  1.0000</r>
       <r>   2.4361  1.0000</r>
       <r>   2.4370  1.0000</r>
       <r>   2.9185  1.0000</r>
       <r>   3.7705  1.0000</r>
       <r>   3.7710  1.0000</r>
       <r>   3.8771  1.0000</r>
       <r>   3.8781  1.0000</r>
       <r>   3.8782  1.0000</r>
       <r>   3.8793  1.0000</r>
       <r>   4.0079  1.0000</r>
       <r>   4.0081  1.0000</r>
       <r>   4.2841  1.0000</r>
       <r>   4.2844  1.0000</r>
       <r>   5.2087  1.0000</r>
       <r>   5.2274  1.0000</r>
       <r>   5.2278  1.0000</r>
       <r>   5.2293  1.0000</r>
       <r>   5.2297  1.0000</r>
       <r>   5.3303  1.0000</r>
       <r>   5.3308  1.0000</r>
       <r>   5.3316  1.0000</r>
       <r>   5.3320  1.0000</r>
       <r>   5.6983  1.0000</r>
       <r>   5.6992  1.0000</r>
       <r>   6.5430  1.0000</r>
       <r>   6.5944  1.0000</r>
       <r>   6.5954  1.0000</r>
       <r>   6.6556  1.0000</r>
       <r>   6.6571  1.0000</r>
       <r>   6.6577  1.0000</r>
       <r>   6.6592  1.0000</r>
       <r>   6.7550  1.0000</r>
       <r>   6.7563  1.0000</r>
       <r>   7.0689  1.0000</r>
       <r>   7.0696  1.0000</r>
       <r>   7.4579  1.0000</r>
       <r>   7.4582  1.0000</r>
       <r>   7.9759  0.9940</r>
       <r>   7.9764  0.9926</r>
       <r>   7.9766  0.9921</r>
       <r>   7.9772  0.9900</r>
       <r>   7.9838  0.9182</r>
       <r>   7.9846  0.9009</r>
       <r>   7.9855  0.8771</r>
       <r>   8.0449  0.0000</r>
       <r>   8.0454  0.0000</r>
       <r>   8.0609  0.0000</r>
       <r>   8.0615  0.0000</r>
       <r>   8.0629  0.0000</r>
       <r>   8.0635  0.0000</r>
       <r>   8.4999  0.0000</r>
       <r>   8.5003  0.0000</r>
       <r>   8.5010  0.0000</r>
       <r>   8.5014  0.0000</r>
       <r>   8.7200  0.0000</r>
       <r>   8.7209  0.0000</r>
       <r>   9.3761  0.0000</r>
       <r>   9.3768  0.0000</r>
       <r>   9.4614  0.0000</r>
       <r>   9.4626  0.0000</r>
       <r>   9.4628  0.0000</r>
       <r>   9.4640  0.0000</r>
       <r>   9.4916  0.0000</r>
       <r>   9.7233  0.0000</r>
       <r>   9.7236  0.0000</r>
       <r>   9.8676  0.0000</r>
       <r>   9.8683  0.0000</r>
       <r>   9.8695  0.0000</r>
       <r>   9.8701  0.0000</r>
       <r>  10.4157  0.0000</r>
       <r>  10.4165  0.0000</r>
       <r>  10.7695  0.0000</r>
       <r>  10.8592  0.0000</r>
       <r>  10.8599  0.0000</r>
       <r>  10.8621  0.0000</r>
       <r>  10.8693  0.0000</r>
      </set>
      <set comment="kpoint 7">
       <r>  -2.8121  1.0000</r>
       <r>  -2.0592  1.0000</r>
       <r>  -1.8101  1.0000</r>
       <r>  -1.8083  1.0000</r>
       <r>  -1.3104  1.0000</r>
       <r>  -1.0626  1.0000</r>
       <r>  -1.0607  1.0000</r>
       <r>  -0.5655  1.0000</r>
       <r>  -0.3190  1.0000</r>
       <r>  -0.3171  1.0000</r>
       <r>   0.1748  1.0000</r>
       <r>   0.4209  1.0000</r>
       <r>   0.4228  1.0000</r>
       <r>   0.9102  1.0000</r>
       <r>   0.9121  1.0000</r>
       <r>   1.1542  1.0000</r>
       <r>   1.1554  1.0000</r>
       <r>   1.1564  1.0000</r>
       <r>   1.1581  1.0000</r>
       <r>   1.8854  1.0000</r>
       <r>   1.8869  1.0000</r>
       <r>   1.8873  1.0000</r>
       <r>   1.8880  1.0000</r>
       <r>   1.8887  1.0000</r>
       <r>   1.8905  1.0000</r>
       <r>   2.3729  1.0000</r>
       <r>   2.6145  1.0000</r>
       <r>   2.6157  1.0000</r>
       <r>   3.0798  1.0000</r>
       <r>   3.3342  1.0000</r>
       <r>   3.3354  1.0000</r>
       <r>   3.3358  1.0000</r>
       <r>   3.3371  1.0000</r>
       <r>   3.8188  1.0000</r>
       <r>   4.0379  1.0000</r>
       <r>   4.0398  1.0000</r>
       <r>   4.0531  1.0000</r>
       <r>   4.0543  1.0000</r>
       <r>   4.4619  1.0000</r>
       <r>   4.5158  1.0000</r>
       <r>   4.7665  1.0000</r>
       <r>   4.7676  1.0000</r>
       <r>   4.7966  1.0000</r>
       <r>   4.7979  1.0000</r>
       <r>   4.7982  1.0000</r>
       <r>   4.7995  1.0000</r>
       <r>   5.1703  1.0000</r>
       <r>   5.3818  1.0000</r>
       <r>   5.4003  1.0000</r>
       <r>   5.4022  1.0000</r>
       <r>   5.4899  1.0000</r>
       <r>   5.4917  1.0000</r>
       <r>   5.9283  1.0000</r>
       <r>   6.0747  1.0000</r>
       <r>   6.1323  1.0000</r>
       <r>   6.1342  1.0000</r>
       <r>   6.2195  1.0000</r>
       <r>   6.2207  1.0000</r>
       <r>   6.7233  1.0000</r>
       <r>   6.7685  1.0000</r>
       <r>   6.8835  1.0000</r>
       <r>   6.8847  1.0000</r>
       <r>   6.9030  1.0000</r>
       <r>   6.9049  1.0000</r>
       <r>   7.3793  1.0000</r>
       <r>   7.4631  1.0000</r>
       <r>   7.6340  1.0000</r>
       <r>   7.6386  1.0000</r>
       <r>   7.6398  1.0000</r>
       <r>   8.0895  0.0000</r>
       <r>   8.1585  0.0000</r>
       <r>   8.2213  0.0000</r>
       <r>   8.2226  0.0000</r>
       <r>   8.2315  0.0000</r>
       <r>   8.3131  0.0000</r>
       <r>   8.3134  0.0000</r>
       <r>   8.3146  0.0000</r>
       <r>   8.6356  0.0000</r>
       <r>   8.6373  0.0000</r>
       <r>   8.8538  0.0000</r>
       <r>   8.8550  0.0000</r>
       <r>   8.9341  0.0000</r>
       <r>   8.9356  0.0000</r>
       <r>   8.9360  0.0000</r>
       <r>   8.9375  0.0000</r>
       <r>   8.9555  0.0000</r>
       <r>   8.9886  0.0000</r>
       <r>   9.3399  0.0000</r>
       <r>   9.3417  0.0000</r>
       <r>   9.5300  0.0000</r>
       <r>   9.7179  0.0000</r>
       <r>   9.7193  0.0000</r>
       <r>   9.9211  0.0000</r>
       <r>   9.9228  0.0000</r>
       <r>  10.0993  0.0000</r>
       <r>  10.2475  0.0000</r>
       <r>  10.3558  0.0000</r>
       <r>  10.4589  0.0000</r>
       <r>  10.5979  0.0000</r>
       <r>  10.9446  0.0000</r>
       <r>  10.9993  0.0000</r>
       <r>  11.0013  0.0000</r>
       <r>  11.2483  0.0000</r>
       <r>  11.3592  0.0000</r>
      </set>
      <set comment="kpoint 8">
       <r>  -2.4984  1.0000</r>
       <r>  -2.4974  1.0000</r>
       <r>  -1.4991  1.0000</r>
       <r>  -1.4973  1.0000</r>
       <r>  -1.4972  1.0000</r>
       <r>  -1.4954  1.0000</r>
       <r>  -1.0001  1.0000</r>
       <r>  -0.9991  1.0000</r>
       <r>  -0.0112  1.0000</r>
       <r>  -0.0094  1.0000</r>
       <r>  -0.0092  1.0000</r>
       <r>  -0.0074  1.0000</r>
       <r>   0.4819  1.0000</r>
       <r>   0.4830  1.0000</r>
       <r>   1.4583  1.0000</r>
       <r>   1.4604  1.0000</r>
       <r>   1.4606  1.0000</r>
       <r>   1.4611  1.0000</r>
       <r>   1.4618  1.0000</r>
       <r>   1.4624  1.0000</r>
       <r>   1.4626  1.0000</r>
       <r>   1.4651  1.0000</r>
       <r>   1.9432  1.0000</r>
       <r>   1.9437  1.0000</r>
       <r>   2.9109  1.0000</r>
       <r>   2.9116  1.0000</r>
       <r>   2.9129  1.0000</r>
       <r>   2.9133  1.0000</r>
       <r>   2.9159  1.0000</r>
       <r>   2.9168  1.0000</r>
       <r>   2.9170  1.0000</r>
       <r>   2.9184  1.0000</r>
       <r>   3.3940  1.0000</r>
       <r>   3.3945  1.0000</r>
       <r>   4.2359  1.0000</r>
       <r>   4.2362  1.0000</r>
       <r>   4.2365  1.0000</r>
       <r>   4.2368  1.0000</r>
       <r>   4.4927  1.0000</r>
       <r>   4.4932  1.0000</r>
       <r>   4.4937  1.0000</r>
       <r>   4.4941  1.0000</r>
       <r>   4.7569  1.0000</r>
       <r>   4.7580  1.0000</r>
       <r>   4.8266  1.0000</r>
       <r>   4.8271  1.0000</r>
       <r>   5.6109  1.0000</r>
       <r>   5.6121  1.0000</r>
       <r>   5.6124  1.0000</r>
       <r>   5.6137  1.0000</r>
       <r>   5.6698  1.0000</r>
       <r>   5.6709  1.0000</r>
       <r>   5.7992  1.0000</r>
       <r>   5.7998  1.0000</r>
       <r>   5.8011  1.0000</r>
       <r>   5.8017  1.0000</r>
       <r>   5.8761  1.0000</r>
       <r>   5.8764  1.0000</r>
       <r>   5.8768  1.0000</r>
       <r>   5.8771  1.0000</r>
       <r>   7.0165  1.0000</r>
       <r>   7.0175  1.0000</r>
       <r>   7.0572  1.0000</r>
       <r>   7.0584  1.0000</r>
       <r>   7.2172  1.0000</r>
       <r>   7.2180  1.0000</r>
       <r>   7.2185  1.0000</r>
       <r>   7.2193  1.0000</r>
       <r>   7.9232  1.0000</r>
       <r>   7.9242  1.0000</r>
       <r>   8.4478  0.0000</r>
       <r>   8.4489  0.0000</r>
       <r>   8.5220  0.0000</r>
       <r>   8.5234  0.0000</r>
       <r>   8.5235  0.0000</r>
       <r>   8.5249  0.0000</r>
       <r>   8.5342  0.0000</r>
       <r>   8.5351  0.0000</r>
       <r>   8.6295  0.0000</r>
       <r>   8.6303  0.0000</r>
       <r>   8.6309  0.0000</r>
       <r>   8.6316  0.0000</r>
       <r>   8.9265  0.0000</r>
       <r>   8.9281  0.0000</r>
       <r>   8.9283  0.0000</r>
       <r>   8.9300  0.0000</r>
       <r>   9.0197  0.0000</r>
       <r>   9.0203  0.0000</r>
       <r>   9.8409  0.0000</r>
       <r>   9.8417  0.0000</r>
       <r>   9.9172  0.0000</r>
       <r>   9.9179  0.0000</r>
       <r>   9.9193  0.0000</r>
       <r>   9.9198  0.0000</r>
       <r>   9.9203  0.0000</r>
       <r>   9.9214  0.0000</r>
       <r>  10.6668  0.0000</r>
       <r>  10.6673  0.0000</r>
       <r>  11.2347  0.0000</r>
       <r>  11.2356  0.0000</r>
       <r>  11.3751  0.0000</r>
       <r>  11.3792  0.0000</r>
       <r>  11.3869  0.0000</r>
       <r>  11.3877  0.0000</r>
      </set>
      <set comment="kpoint 9">
       <r>  -2.8750  1.0000</r>
       <r>  -2.1218  1.0000</r>
       <r>  -1.8726  1.0000</r>
       <r>  -1.8707  1.0000</r>
       <r>  -1.1247  1.0000</r>
       <r>  -1.1229  1.0000</r>
       <r>  -0.6282  1.0000</r>
       <r>  -0.6270  1.0000</r>
       <r>   0.1131  1.0000</r>
       <r>   0.1144  1.0000</r>
       <r>   0.3584  1.0000</r>
       <r>   0.3598  1.0000</r>
       <r>   0.3604  1.0000</r>
       <r>   0.3618  1.0000</r>
       <r>   0.8491  1.0000</r>
       <r>   1.0928  1.0000</r>
       <r>   1.0942  1.0000</r>
       <r>   1.0954  1.0000</r>
       <r>   1.0962  1.0000</r>
       <r>   1.0968  1.0000</r>
       <r>   1.0985  1.0000</r>
       <r>   1.8252  1.0000</r>
       <r>   1.8258  1.0000</r>
       <r>   1.8267  1.0000</r>
       <r>   1.8274  1.0000</r>
       <r>   3.0197  1.0000</r>
       <r>   3.0373  1.0000</r>
       <r>   3.0386  1.0000</r>
       <r>   3.2770  1.0000</r>
       <r>   3.2782  1.0000</r>
       <r>   3.2783  1.0000</r>
       <r>   3.2794  1.0000</r>
       <r>   3.8866  1.0000</r>
       <r>   3.8872  1.0000</r>
       <r>   3.8873  1.0000</r>
       <r>   3.8879  1.0000</r>
       <r>   3.9783  1.0000</r>
       <r>   3.9802  1.0000</r>
       <r>   4.1297  1.0000</r>
       <r>   4.1299  1.0000</r>
       <r>   4.1302  1.0000</r>
       <r>   4.1303  1.0000</r>
       <r>   4.7109  1.0000</r>
       <r>   4.7121  1.0000</r>
       <r>   5.1668  1.0000</r>
       <r>   5.1681  1.0000</r>
       <r>   5.3241  1.0000</r>
       <r>   5.3241  1.0000</r>
       <r>   6.0168  1.0000</r>
       <r>   6.0169  1.0000</r>
       <r>   6.1359  1.0000</r>
       <r>   6.1373  1.0000</r>
       <r>   6.1379  1.0000</r>
       <r>   6.1394  1.0000</r>
       <r>   6.2470  1.0000</r>
       <r>   6.2490  1.0000</r>
       <r>   6.6643  1.0000</r>
       <r>   6.6643  1.0000</r>
       <r>   6.7662  1.0000</r>
       <r>   6.7671  1.0000</r>
       <r>   6.8706  1.0000</r>
       <r>   6.8719  1.0000</r>
       <r>   6.8719  1.0000</r>
       <r>   6.8732  1.0000</r>
       <r>   6.9410  1.0000</r>
       <r>   6.9430  1.0000</r>
       <r>   7.3719  1.0000</r>
       <r>   7.3720  1.0000</r>
       <r>   7.4045  1.0000</r>
       <r>   7.4059  1.0000</r>
       <r>   7.7403  1.0000</r>
       <r>   7.7417  1.0000</r>
       <r>   8.0997  0.0000</r>
       <r>   8.1012  0.0000</r>
       <r>   8.4192  0.0000</r>
       <r>   8.4209  0.0000</r>
       <r>   8.7964  0.0000</r>
       <r>   8.7965  0.0000</r>
       <r>   8.8571  0.0000</r>
       <r>   8.8581  0.0000</r>
       <r>   8.9315  0.0000</r>
       <r>   8.9580  0.0000</r>
       <r>   8.9593  0.0000</r>
       <r>   8.9593  0.0000</r>
       <r>   8.9606  0.0000</r>
       <r>   9.0278  0.0000</r>
       <r>   9.0294  0.0000</r>
       <r>   9.6031  0.0000</r>
       <r>   9.6041  0.0000</r>
       <r>   9.7235  0.0000</r>
       <r>   9.7246  0.0000</r>
       <r>   9.7255  0.0000</r>
       <r>   9.7266  0.0000</r>
       <r>   9.7371  0.0000</r>
       <r>   9.7387  0.0000</r>
       <r>  10.3864  0.0000</r>
       <r>  10.3864  0.0000</r>
       <r>  10.7258  0.0000</r>
       <r>  10.7263  0.0000</r>
       <r>  10.8851  0.0000</r>
       <r>  10.8864  0.0000</r>
       <r>  10.8865  0.0000</r>
       <r>  10.8868  0.0000</r>
       <r>  11.1603  0.0000</r>
      </set>
      <set comment="kpoint 10">
       <r>  -2.8121  1.0000</r>
       <r>  -2.0592  1.0000</r>
       <r>  -1.8101  1.0000</r>
       <r>  -1.8083  1.0000</r>
       <r>  -1.3104  1.0000</r>
       <r>  -1.0626  1.0000</r>
       <r>  -1.0607  1.0000</r>
       <r>  -0.5655  1.0000</r>
       <r>  -0.3190  1.0000</r>
       <r>  -0.3171  1.0000</r>
       <r>   0.1748  1.0000</r>
       <r>   0.4209  1.0000</r>
       <r>   0.4228  1.0000</r>
       <r>   0.9103  1.0000</r>
       <r>   0.9120  1.0000</r>
       <r>   1.1541  1.0000</r>
       <r>   1.1554  1.0000</r>
       <r>   1.1564  1.0000</r>
       <r>   1.1582  1.0000</r>
       <r>   1.8857  1.0000</r>
       <r>   1.8865  1.0000</r>
       <r>   1.8874  1.0000</r>
       <r>   1.8880  1.0000</r>
       <r>   1.8886  1.0000</r>
       <r>   1.8905  1.0000</r>
       <r>   2.3729  1.0000</r>
       <r>   2.6145  1.0000</r>
       <r>   2.6157  1.0000</r>
       <r>   3.0798  1.0000</r>
       <r>   3.3345  1.0000</r>
       <r>   3.3352  1.0000</r>
       <r>   3.3361  1.0000</r>
       <r>   3.3367  1.0000</r>
       <r>   3.8188  1.0000</r>
       <r>   4.0379  1.0000</r>
       <r>   4.0398  1.0000</r>
       <r>   4.0531  1.0000</r>
       <r>   4.0543  1.0000</r>
       <r>   4.4619  1.0000</r>
       <r>   4.5158  1.0000</r>
       <r>   4.7665  1.0000</r>
       <r>   4.7676  1.0000</r>
       <r>   4.7970  1.0000</r>
       <r>   4.7976  1.0000</r>
       <r>   4.7985  1.0000</r>
       <r>   4.7992  1.0000</r>
       <r>   5.1703  1.0000</r>
       <r>   5.3818  1.0000</r>
       <r>   5.4003  1.0000</r>
       <r>   5.4023  1.0000</r>
       <r>   5.4899  1.0000</r>
       <r>   5.4917  1.0000</r>
       <r>   5.9283  1.0000</r>
       <r>   6.0746  1.0000</r>
       <r>   6.1323  1.0000</r>
       <r>   6.1342  1.0000</r>
       <r>   6.2195  1.0000</r>
       <r>   6.2207  1.0000</r>
       <r>   6.7233  1.0000</r>
       <r>   6.7685  1.0000</r>
       <r>   6.8835  1.0000</r>
       <r>   6.8847  1.0000</r>
       <r>   6.9030  1.0000</r>
       <r>   6.9049  1.0000</r>
       <r>   7.3793  1.0000</r>
       <r>   7.4631  1.0000</r>
       <r>   7.6340  1.0000</r>
       <r>   7.6386  1.0000</r>
       <r>   7.6398  1.0000</r>
       <r>   8.0895  0.0000</r>
       <r>   8.1585  0.0000</r>
       <r>   8.2213  0.0000</r>
       <r>   8.2226  0.0000</r>
       <r>   8.2315  0.0000</r>
       <r>   8.3131  0.0000</r>
       <r>   8.3134  0.0000</r>
       <r>   8.3146  0.0000</r>
       <r>   8.6356  0.0000</r>
       <r>   8.6373  0.0000</r>
       <r>   8.8541  0.0000</r>
       <r>   8.8547  0.0000</r>
       <r>   8.9345  0.0000</r>
       <r>   8.9353  0.0000</r>
       <r>   8.9363  0.0000</r>
       <r>   8.9371  0.0000</r>
       <r>   8.9555  0.0000</r>
       <r>   8.9886  0.0000</r>
       <r>   9.3399  0.0000</r>
       <r>   9.3417  0.0000</r>
       <r>   9.5300  0.0000</r>
       <r>   9.7179  0.0000</r>
       <r>   9.7193  0.0000</r>
       <r>   9.9211  0.0000</r>
       <r>   9.9228  0.0000</r>
       <r>  10.0993  0.0000</r>
       <r>  10.2475  0.0000</r>
       <r>  10.3558  0.0000</r>
       <r>  10.4589  0.0000</r>
       <r>  10.5979  0.0000</r>
       <r>  10.9446  0.0000</r>
       <r>  10.9993  0.0000</r>
       <r>  11.0013  0.0000</r>
       <r>  11.2483  0.0000</r>
       <r>  11.3598  0.0000</r>
      </set>
      <set comment="kpoint 11">
       <r>  -2.6235  1.0000</r>
       <r>  -1.8721  1.0000</r>
       <r>  -1.8712  1.0000</r>
       <r>  -1.6229  1.0000</r>
       <r>  -1.6210  1.0000</r>
       <r>  -1.1238  1.0000</r>
       <r>  -0.8771  1.0000</r>
       <r>  -0.8756  1.0000</r>
       <r>  -0.8752  1.0000</r>
       <r>  -0.8737  1.0000</r>
       <r>  -0.1336  1.0000</r>
       <r>  -0.1318  1.0000</r>
       <r>   1.0936  1.0000</r>
       <r>   1.0944  1.0000</r>
       <r>   1.3379  1.0000</r>
       <r>   1.3391  1.0000</r>
       <r>   1.8261  1.0000</r>
       <r>   1.8265  1.0000</r>
       <r>   2.0668  1.0000</r>
       <r>   2.0689  1.0000</r>
       <r>   2.0693  1.0000</r>
       <r>   2.0695  1.0000</r>
       <r>   2.0696  1.0000</r>
       <r>   2.0698  1.0000</r>
       <r>   2.0702  1.0000</r>
       <r>   2.0723  1.0000</r>
       <r>   2.7945  1.0000</r>
       <r>   2.7953  1.0000</r>
       <r>   2.7959  1.0000</r>
       <r>   2.7963  1.0000</r>
       <r>   2.7969  1.0000</r>
       <r>   2.7977  1.0000</r>
       <r>   3.2600  1.0000</r>
       <r>   3.2604  1.0000</r>
       <r>   3.9788  1.0000</r>
       <r>   3.9797  1.0000</r>
       <r>   4.2158  1.0000</r>
       <r>   4.2162  1.0000</r>
       <r>   4.2177  1.0000</r>
       <r>   4.2181  1.0000</r>
       <r>   4.7115  1.0000</r>
       <r>   4.8151  1.0000</r>
       <r>   4.8157  1.0000</r>
       <r>   4.8161  1.0000</r>
       <r>   4.8167  1.0000</r>
       <r>   5.0869  1.0000</r>
       <r>   5.0874  1.0000</r>
       <r>   5.0878  1.0000</r>
       <r>   5.0884  1.0000</r>
       <r>   5.5549  1.0000</r>
       <r>   5.6843  1.0000</r>
       <r>   5.6853  1.0000</r>
       <r>   5.6858  1.0000</r>
       <r>   5.6860  1.0000</r>
       <r>   5.6865  1.0000</r>
       <r>   5.6875  1.0000</r>
       <r>   6.2475  1.0000</r>
       <r>   6.2485  1.0000</r>
       <r>   6.7663  1.0000</r>
       <r>   6.7670  1.0000</r>
       <r>   6.8959  1.0000</r>
       <r>   6.9420  1.0000</r>
       <r>   7.0713  1.0000</r>
       <r>   7.0717  1.0000</r>
       <r>   7.0726  1.0000</r>
       <r>   7.0730  1.0000</r>
       <r>   7.7407  1.0000</r>
       <r>   7.7412  1.0000</r>
       <r>   7.7819  1.0000</r>
       <r>   7.7827  1.0000</r>
       <r>   7.7833  1.0000</r>
       <r>   7.7838  1.0000</r>
       <r>   7.7838  1.0000</r>
       <r>   7.7844  1.0000</r>
       <r>   7.7850  1.0000</r>
       <r>   7.7857  1.0000</r>
       <r>   8.4201  0.0000</r>
       <r>   8.5181  0.0000</r>
       <r>   8.5194  0.0000</r>
       <r>   8.9659  0.0000</r>
       <r>   9.0281  0.0000</r>
       <r>   9.0291  0.0000</r>
       <r>   9.1578  0.0000</r>
       <r>   9.1583  0.0000</r>
       <r>   9.7246  0.0000</r>
       <r>   9.7253  0.0000</r>
       <r>   9.7375  0.0000</r>
       <r>   9.7383  0.0000</r>
       <r>   9.8564  0.0000</r>
       <r>   9.8584  0.0000</r>
       <r>  10.1281  0.0000</r>
       <r>  10.1286  0.0000</r>
       <r>  10.1300  0.0000</r>
       <r>  10.1305  0.0000</r>
       <r>  10.5883  0.0000</r>
       <r>  10.5890  0.0000</r>
       <r>  10.5897  0.0000</r>
       <r>  10.5904  0.0000</r>
       <r>  10.7259  0.0000</r>
       <r>  10.7262  0.0000</r>
       <r>  10.8380  0.0000</r>
       <r>  10.8387  0.0000</r>
       <r>  10.8399  0.0000</r>
       <r>  10.8407  0.0000</r>
      </set>
      <set comment="kpoint 12">
       <r>  -2.3103  1.0000</r>
       <r>  -2.3092  1.0000</r>
       <r>  -1.5601  1.0000</r>
       <r>  -1.5591  1.0000</r>
       <r>  -1.3123  1.0000</r>
       <r>  -1.3105  1.0000</r>
       <r>  -1.3103  1.0000</r>
       <r>  -1.3085  1.0000</r>
       <r>  -0.5674  1.0000</r>
       <r>  -0.5655  1.0000</r>
       <r>  -0.5654  1.0000</r>
       <r>  -0.5636  1.0000</r>
       <r>   1.3990  1.0000</r>
       <r>   1.4001  1.0000</r>
       <r>   1.6423  1.0000</r>
       <r>   1.6435  1.0000</r>
       <r>   1.6437  1.0000</r>
       <r>   1.6448  1.0000</r>
       <r>   2.1254  1.0000</r>
       <r>   2.1259  1.0000</r>
       <r>   2.3706  1.0000</r>
       <r>   2.3719  1.0000</r>
       <r>   2.3728  1.0000</r>
       <r>   2.3729  1.0000</r>
       <r>   2.3730  1.0000</r>
       <r>   2.3730  1.0000</r>
       <r>   2.3739  1.0000</r>
       <r>   2.3752  1.0000</r>
       <r>   2.8518  1.0000</r>
       <r>   2.8523  1.0000</r>
       <r>   3.0919  1.0000</r>
       <r>   3.0924  1.0000</r>
       <r>   3.0938  1.0000</r>
       <r>   3.0943  1.0000</r>
       <r>   3.5597  1.0000</r>
       <r>   3.5608  1.0000</r>
       <r>   3.8086  1.0000</r>
       <r>   3.8090  1.0000</r>
       <r>   3.8104  1.0000</r>
       <r>   3.8109  1.0000</r>
       <r>   4.5084  1.0000</r>
       <r>   4.5103  1.0000</r>
       <r>   4.5105  1.0000</r>
       <r>   4.5124  1.0000</r>
       <r>   5.2724  1.0000</r>
       <r>   5.2737  1.0000</r>
       <r>   5.2739  1.0000</r>
       <r>   5.2751  1.0000</r>
       <r>   5.7065  1.0000</r>
       <r>   5.7070  1.0000</r>
       <r>   5.8430  1.0000</r>
       <r>   5.8441  1.0000</r>
       <r>   5.9774  1.0000</r>
       <r>   5.9782  1.0000</r>
       <r>   5.9787  1.0000</r>
       <r>   5.9794  1.0000</r>
       <r>   6.5365  1.0000</r>
       <r>   6.5376  1.0000</r>
       <r>   6.6841  1.0000</r>
       <r>   6.6848  1.0000</r>
       <r>   6.6853  1.0000</r>
       <r>   6.6856  1.0000</r>
       <r>   6.6860  1.0000</r>
       <r>   6.6863  1.0000</r>
       <r>   6.6868  1.0000</r>
       <r>   6.6875  1.0000</r>
       <r>   7.1370  1.0000</r>
       <r>   7.1379  1.0000</r>
       <r>   7.3687  1.0000</r>
       <r>   7.3699  1.0000</r>
       <r>   7.3701  1.0000</r>
       <r>   7.3714  1.0000</r>
       <r>   7.9392  1.0000</r>
       <r>   7.9397  1.0000</r>
       <r>   8.0054  0.0491</r>
       <r>   8.0063  0.0367</r>
       <r>   8.7708  0.0000</r>
       <r>   8.7713  0.0000</r>
       <r>   8.7727  0.0000</r>
       <r>   8.7733  0.0000</r>
       <r>   9.3182  0.0000</r>
       <r>   9.3193  0.0000</r>
       <r>   9.4292  0.0000</r>
       <r>   9.4303  0.0000</r>
       <r>   9.5048  0.0000</r>
       <r>   9.5056  0.0000</r>
       <r>   9.5062  0.0000</r>
       <r>   9.5070  0.0000</r>
       <r>  10.0152  0.0000</r>
       <r>  10.0160  0.0000</r>
       <r>  10.4274  0.0000</r>
       <r>  10.4292  0.0000</r>
       <r>  10.4294  0.0000</r>
       <r>  10.4312  0.0000</r>
       <r>  10.7003  0.0000</r>
       <r>  10.7014  0.0000</r>
       <r>  10.7122  0.0000</r>
       <r>  10.7131  0.0000</r>
       <r>  10.8224  0.0000</r>
       <r>  10.8228  0.0000</r>
       <r>  11.4094  0.0000</r>
       <r>  11.4106  0.0000</r>
       <r>  11.5658  0.0000</r>
       <r>  11.5675  0.0000</r>
      </set>
      <set comment="kpoint 13">
       <r>  -2.5607  1.0000</r>
       <r>  -2.5607  1.0000</r>
       <r>  -1.5612  1.0000</r>
       <r>  -1.5597  1.0000</r>
       <r>  -1.5594  1.0000</r>
       <r>  -1.5579  1.0000</r>
       <r>  -0.3193  1.0000</r>
       <r>  -0.3184  1.0000</r>
       <r>  -0.3181  1.0000</r>
       <r>  -0.3172  1.0000</r>
       <r>   0.6643  1.0000</r>
       <r>   0.6668  1.0000</r>
       <r>   0.6670  1.0000</r>
       <r>   0.6674  1.0000</r>
       <r>   0.6674  1.0000</r>
       <r>   0.6677  1.0000</r>
       <r>   0.6679  1.0000</r>
       <r>   0.6704  1.0000</r>
       <r>   1.3986  1.0000</r>
       <r>   1.3994  1.0000</r>
       <r>   1.3997  1.0000</r>
       <r>   1.4006  1.0000</r>
       <r>   1.8826  1.0000</r>
       <r>   1.8826  1.0000</r>
       <r>   2.8511  1.0000</r>
       <r>   2.8511  1.0000</r>
       <r>   2.8529  1.0000</r>
       <r>   2.8530  1.0000</r>
       <r>   3.5734  1.0000</r>
       <r>   3.5751  1.0000</r>
       <r>   3.5753  1.0000</r>
       <r>   3.5754  1.0000</r>
       <r>   3.5755  1.0000</r>
       <r>   3.5756  1.0000</r>
       <r>   3.5758  1.0000</r>
       <r>   3.5775  1.0000</r>
       <r>   4.0529  1.0000</r>
       <r>   4.0531  1.0000</r>
       <r>   4.0541  1.0000</r>
       <r>   4.0543  1.0000</r>
       <r>   5.0298  1.0000</r>
       <r>   5.0305  1.0000</r>
       <r>   5.0315  1.0000</r>
       <r>   5.0316  1.0000</r>
       <r>   5.0321  1.0000</r>
       <r>   5.0322  1.0000</r>
       <r>   5.0332  1.0000</r>
       <r>   5.0339  1.0000</r>
       <r>   5.6126  1.0000</r>
       <r>   5.6126  1.0000</r>
       <r>   5.6126  1.0000</r>
       <r>   5.6126  1.0000</r>
       <r>   5.7059  1.0000</r>
       <r>   5.7066  1.0000</r>
       <r>   5.7070  1.0000</r>
       <r>   5.7077  1.0000</r>
       <r>   6.5352  1.0000</r>
       <r>   6.5369  1.0000</r>
       <r>   6.5372  1.0000</r>
       <r>   6.5389  1.0000</r>
       <r>   6.9637  1.0000</r>
       <r>   6.9637  1.0000</r>
       <r>   6.9637  1.0000</r>
       <r>   6.9637  1.0000</r>
       <r>   7.6935  1.0000</r>
       <r>   7.6947  1.0000</r>
       <r>   7.6949  1.0000</r>
       <r>   7.6961  1.0000</r>
       <r>   7.8653  1.0000</r>
       <r>   7.8662  1.0000</r>
       <r>   7.8669  1.0000</r>
       <r>   7.8670  1.0000</r>
       <r>   7.8672  1.0000</r>
       <r>   7.8673  1.0000</r>
       <r>   7.8681  1.0000</r>
       <r>   7.8689  1.0000</r>
       <r>   8.0045  0.0633</r>
       <r>   8.0056  0.0459</r>
       <r>   8.0061  0.0393</r>
       <r>   8.0073  0.0274</r>
       <r>   9.1781  0.0000</r>
       <r>   9.1788  0.0000</r>
       <r>   9.1791  0.0000</r>
       <r>   9.1798  0.0000</r>
       <r>   9.3173  0.0000</r>
       <r>   9.3186  0.0000</r>
       <r>   9.3189  0.0000</r>
       <r>   9.3203  0.0000</r>
       <r>   9.7832  0.0000</r>
       <r>   9.7832  0.0000</r>
       <r>   9.7832  0.0000</r>
       <r>   9.7832  0.0000</r>
       <r>  10.6130  0.0000</r>
       <r>  10.6130  0.0000</r>
       <r>  10.7005  0.0000</r>
       <r>  10.7008  0.0000</r>
       <r>  10.7011  0.0000</r>
       <r>  10.7012  0.0000</r>
       <r>  10.7115  0.0000</r>
       <r>  10.7118  0.0000</r>
       <r>  10.7135  0.0000</r>
       <r>  10.7139  0.0000</r>
       <r>  11.3133  0.0000</r>
       <r>  11.3133  0.0000</r>
      </set>
      <set comment="kpoint 14">
       <r>  -2.4979  1.0000</r>
       <r>  -2.4979  1.0000</r>
       <r>  -1.4989  1.0000</r>
       <r>  -1.4974  1.0000</r>
       <r>  -1.4971  1.0000</r>
       <r>  -1.4956  1.0000</r>
       <r>  -0.9996  1.0000</r>
       <r>  -0.9996  1.0000</r>
       <r>  -0.0110  1.0000</r>
       <r>  -0.0095  1.0000</r>
       <r>  -0.0091  1.0000</r>
       <r>  -0.0077  1.0000</r>
       <r>   0.4824  1.0000</r>
       <r>   0.4824  1.0000</r>
       <r>   1.4583  1.0000</r>
       <r>   1.4604  1.0000</r>
       <r>   1.4608  1.0000</r>
       <r>   1.4609  1.0000</r>
       <r>   1.4619  1.0000</r>
       <r>   1.4623  1.0000</r>
       <r>   1.4627  1.0000</r>
       <r>   1.4651  1.0000</r>
       <r>   1.9434  1.0000</r>
       <r>   1.9434  1.0000</r>
       <r>   2.9112  1.0000</r>
       <r>   2.9113  1.0000</r>
       <r>   2.9130  1.0000</r>
       <r>   2.9133  1.0000</r>
       <r>   2.9161  1.0000</r>
       <r>   2.9167  1.0000</r>
       <r>   2.9170  1.0000</r>
       <r>   2.9181  1.0000</r>
       <r>   3.3943  1.0000</r>
       <r>   3.3943  1.0000</r>
       <r>   4.2361  1.0000</r>
       <r>   4.2361  1.0000</r>
       <r>   4.2366  1.0000</r>
       <r>   4.2366  1.0000</r>
       <r>   4.4928  1.0000</r>
       <r>   4.4930  1.0000</r>
       <r>   4.4938  1.0000</r>
       <r>   4.4940  1.0000</r>
       <r>   4.7575  1.0000</r>
       <r>   4.7575  1.0000</r>
       <r>   4.8268  1.0000</r>
       <r>   4.8268  1.0000</r>
       <r>   5.6111  1.0000</r>
       <r>   5.6120  1.0000</r>
       <r>   5.6126  1.0000</r>
       <r>   5.6135  1.0000</r>
       <r>   5.6703  1.0000</r>
       <r>   5.6703  1.0000</r>
       <r>   5.7994  1.0000</r>
       <r>   5.7996  1.0000</r>
       <r>   5.8013  1.0000</r>
       <r>   5.8015  1.0000</r>
       <r>   5.8762  1.0000</r>
       <r>   5.8763  1.0000</r>
       <r>   5.8769  1.0000</r>
       <r>   5.8770  1.0000</r>
       <r>   7.0170  1.0000</r>
       <r>   7.0170  1.0000</r>
       <r>   7.0578  1.0000</r>
       <r>   7.0578  1.0000</r>
       <r>   7.2173  1.0000</r>
       <r>   7.2179  1.0000</r>
       <r>   7.2186  1.0000</r>
       <r>   7.2192  1.0000</r>
       <r>   7.9237  1.0000</r>
       <r>   7.9237  1.0000</r>
       <r>   8.4484  0.0000</r>
       <r>   8.4484  0.0000</r>
       <r>   8.5222  0.0000</r>
       <r>   8.5233  0.0000</r>
       <r>   8.5236  0.0000</r>
       <r>   8.5246  0.0000</r>
       <r>   8.5346  0.0000</r>
       <r>   8.5347  0.0000</r>
       <r>   8.6297  0.0000</r>
       <r>   8.6302  0.0000</r>
       <r>   8.6310  0.0000</r>
       <r>   8.6315  0.0000</r>
       <r>   8.9267  0.0000</r>
       <r>   8.9280  0.0000</r>
       <r>   8.9284  0.0000</r>
       <r>   8.9298  0.0000</r>
       <r>   9.0200  0.0000</r>
       <r>   9.0200  0.0000</r>
       <r>   9.8413  0.0000</r>
       <r>   9.8413  0.0000</r>
       <r>   9.9175  0.0000</r>
       <r>   9.9177  0.0000</r>
       <r>   9.9195  0.0000</r>
       <r>   9.9196  0.0000</r>
       <r>   9.9207  0.0000</r>
       <r>   9.9209  0.0000</r>
       <r>  10.6671  0.0000</r>
       <r>  10.6671  0.0000</r>
       <r>  11.2351  0.0000</r>
       <r>  11.2351  0.0000</r>
       <r>  11.3750  0.0000</r>
       <r>  11.3799  0.0000</r>
       <r>  11.3871  0.0000</r>
       <r>  11.3876  0.0000</r>
      </set>
      <set comment="kpoint 15">
       <r>  -2.3097  1.0000</r>
       <r>  -2.3097  1.0000</r>
       <r>  -1.5596  1.0000</r>
       <r>  -1.5596  1.0000</r>
       <r>  -1.3121  1.0000</r>
       <r>  -1.3106  1.0000</r>
       <r>  -1.3102  1.0000</r>
       <r>  -1.3088  1.0000</r>
       <r>  -0.5671  1.0000</r>
       <r>  -0.5656  1.0000</r>
       <r>  -0.5653  1.0000</r>
       <r>  -0.5638  1.0000</r>
       <r>   1.3995  1.0000</r>
       <r>   1.3996  1.0000</r>
       <r>   1.6426  1.0000</r>
       <r>   1.6434  1.0000</r>
       <r>   1.6437  1.0000</r>
       <r>   1.6446  1.0000</r>
       <r>   2.1256  1.0000</r>
       <r>   2.1256  1.0000</r>
       <r>   2.3704  1.0000</r>
       <r>   2.3726  1.0000</r>
       <r>   2.3726  1.0000</r>
       <r>   2.3729  1.0000</r>
       <r>   2.3730  1.0000</r>
       <r>   2.3732  1.0000</r>
       <r>   2.3733  1.0000</r>
       <r>   2.3755  1.0000</r>
       <r>   2.8520  1.0000</r>
       <r>   2.8520  1.0000</r>
       <r>   3.0921  1.0000</r>
       <r>   3.0922  1.0000</r>
       <r>   3.0940  1.0000</r>
       <r>   3.0941  1.0000</r>
[...]
       <r>   0.6656  1.0000</r>
       <r>   0.6673  1.0000</r>
       <r>   0.6675  1.0000</r>
       <r>   0.6692  1.0000</r>
       <r>   1.6421  1.0000</r>
       <r>   1.6435  1.0000</r>
       <r>   1.6436  1.0000</r>
       <r>   1.6450  1.0000</r>
       <r>   2.3673  1.0000</r>
       <r>   2.3678  1.0000</r>
       <r>   2.3685  1.0000</r>
       <r>   2.3690  1.0000</r>
       <r>   3.0923  1.0000</r>
       <r>   3.0927  1.0000</r>
       <r>   3.0935  1.0000</r>
       <r>   3.0940  1.0000</r>
       <r>   3.5736  1.0000</r>
       <r>   3.5754  1.0000</r>
       <r>   3.5755  1.0000</r>
       <r>   3.5773  1.0000</r>
       <r>   3.7977  1.0000</r>
       <r>   3.7990  1.0000</r>
       <r>   3.7993  1.0000</r>
       <r>   3.7995  1.0000</r>
       <r>   3.7996  1.0000</r>
       <r>   3.7999  1.0000</r>
       <r>   3.8001  1.0000</r>
       <r>   3.8015  1.0000</r>
       <r>   4.2863  1.0000</r>
       <r>   4.2869  1.0000</r>
       <r>   4.2882  1.0000</r>
       <r>   4.2888  1.0000</r>
       <r>   4.5097  1.0000</r>
       <r>   4.5100  1.0000</r>
       <r>   4.5108  1.0000</r>
       <r>   4.5111  1.0000</r>
       <r>   5.0306  1.0000</r>
       <r>   5.0312  1.0000</r>
       <r>   5.0325  1.0000</r>
       <r>   5.0331  1.0000</r>
       <r>   5.7260  1.0000</r>
       <r>   5.7278  1.0000</r>
       <r>   5.7279  1.0000</r>
       <r>   5.7297  1.0000</r>
       <r>   5.9775  1.0000</r>
       <r>   5.9781  1.0000</r>
       <r>   5.9788  1.0000</r>
       <r>   5.9793  1.0000</r>
       <r>   7.3693  1.0000</r>
       <r>   7.3697  1.0000</r>
       <r>   7.3704  1.0000</r>
       <r>   7.3708  1.0000</r>
       <r>   7.8658  1.0000</r>
       <r>   7.8665  1.0000</r>
       <r>   7.8678  1.0000</r>
       <r>   7.8684  1.0000</r>
       <r>   8.0498  0.0000</r>
       <r>   8.0504  0.0000</r>
       <r>   8.0510  0.0000</r>
       <r>   8.0512  0.0000</r>
       <r>   8.0513  0.0000</r>
       <r>   8.0516  0.0000</r>
       <r>   8.0521  0.0000</r>
       <r>   8.0528  0.0000</r>
       <r>   8.7712  0.0000</r>
       <r>   8.7719  0.0000</r>
       <r>   8.7722  0.0000</r>
       <r>   8.7728  0.0000</r>
       <r>   9.4366  0.0000</r>
       <r>   9.4370  0.0000</r>
       <r>   9.4378  0.0000</r>
       <r>   9.4382  0.0000</r>
       <r>   9.7360  0.0000</r>
       <r>   9.7366  0.0000</r>
       <r>   9.7373  0.0000</r>
       <r>   9.7375  0.0000</r>
       <r>   9.7377  0.0000</r>
       <r>   9.7379  0.0000</r>
       <r>   9.7386  0.0000</r>
       <r>   9.7391  0.0000</r>
       <r>   9.9427  0.0000</r>
       <r>   9.9433  0.0000</r>
       <r>   9.9447  0.0000</r>
       <r>   9.9454  0.0000</r>
       <r>  10.4281  0.0000</r>
       <r>  10.4291  0.0000</r>
       <r>  10.4295  0.0000</r>
       <r>  10.4305  0.0000</r>
       <r>  11.1129  0.0000</r>
       <r>  11.1136  0.0000</r>
       <r>  11.1143  0.0000</r>
       <r>  11.1149  0.0000</r>
      </set>
      <set comment="kpoint 53">
       <r>  -2.3108  1.0000</r>
       <r>  -2.3099  1.0000</r>
       <r>  -2.3096  1.0000</r>
       <r>  -2.3087  1.0000</r>
       <r>  -0.3199  1.0000</r>
       <r>  -0.3185  1.0000</r>
       <r>  -0.3180  1.0000</r>
       <r>  -0.3167  1.0000</r>
       <r>  -0.0737  1.0000</r>
       <r>  -0.0715  1.0000</r>
       <r>  -0.0715  1.0000</r>
       <r>  -0.0712  1.0000</r>
       <r>  -0.0712  1.0000</r>
       <r>  -0.0710  1.0000</r>
       <r>  -0.0709  1.0000</r>
       <r>  -0.0686  1.0000</r>
       <r>   1.8867  1.0000</r>
       <r>   1.8891  1.0000</r>
       <r>   1.8891  1.0000</r>
       <r>   1.8895  1.0000</r>
       <r>   1.8896  1.0000</r>
       <r>   1.8899  1.0000</r>
       <r>   1.8900  1.0000</r>
       <r>   1.8923  1.0000</r>
       <r>   2.1250  1.0000</r>
       <r>   2.1251  1.0000</r>
       <r>   2.1262  1.0000</r>
       <r>   2.1262  1.0000</r>
       <r>   3.5601  1.0000</r>
       <r>   3.5602  1.0000</r>
       <r>   3.5604  1.0000</r>
       <r>   3.5605  1.0000</r>
       <r>   4.0525  1.0000</r>
       <r>   4.0528  1.0000</r>
       <r>   4.0544  1.0000</r>
       <r>   4.0547  1.0000</r>
       <r>   4.2860  1.0000</r>
       <r>   4.2862  1.0000</r>
       <r>   4.2874  1.0000</r>
       <r>   4.2875  1.0000</r>
       <r>   4.2876  1.0000</r>
       <r>   4.2877  1.0000</r>
       <r>   4.2890  1.0000</r>
       <r>   4.2892  1.0000</r>
       <r>   5.7262  1.0000</r>
       <r>   5.7272  1.0000</r>
       <r>   5.7276  1.0000</r>
       <r>   5.7277  1.0000</r>
       <r>   5.7279  1.0000</r>
       <r>   5.7280  1.0000</r>
       <r>   5.7285  1.0000</r>
       <r>   5.7294  1.0000</r>
       <r>   5.8425  1.0000</r>
       <r>   5.8435  1.0000</r>
       <r>   5.8437  1.0000</r>
       <r>   5.8447  1.0000</r>
       <r>   6.2141  1.0000</r>
       <r>   6.2149  1.0000</r>
       <r>   6.2160  1.0000</r>
       <r>   6.2160  1.0000</r>
       <r>   6.2165  1.0000</r>
       <r>   6.2165  1.0000</r>
       <r>   6.2176  1.0000</r>
       <r>   6.2184  1.0000</r>
       <r>   7.1363  1.0000</r>
       <r>   7.1373  1.0000</r>
       <r>   7.1376  1.0000</r>
       <r>   7.1386  1.0000</r>
       <r>   7.6928  1.0000</r>
       <r>   7.6946  1.0000</r>
       <r>   7.6950  1.0000</r>
       <r>   7.6968  1.0000</r>
       <r>   7.9392  1.0000</r>
       <r>   7.9394  1.0000</r>
       <r>   7.9395  1.0000</r>
       <r>   7.9397  1.0000</r>
       <r>   9.1777  0.0000</r>
       <r>   9.1787  0.0000</r>
       <r>   9.1792  0.0000</r>
       <r>   9.1802  0.0000</r>
       <r>   9.4291  0.0000</r>
       <r>   9.4297  0.0000</r>
       <r>   9.4299  0.0000</r>
       <r>   9.4305  0.0000</r>
       <r>   9.9426  0.0000</r>
       <r>   9.9428  0.0000</r>
       <r>   9.9437  0.0000</r>
       <r>   9.9438  0.0000</r>
       <r>   9.9442  0.0000</r>
       <r>   9.9444  0.0000</r>
       <r>   9.9452  0.0000</r>
       <r>   9.9453  0.0000</r>
       <r>  10.0149  0.0000</r>
       <r>  10.0151  0.0000</r>
       <r>  10.0161  0.0000</r>
       <r>  10.0164  0.0000</r>
       <r>  10.8220  0.0000</r>
       <r>  10.8220  0.0000</r>
       <r>  10.8232  0.0000</r>
       <r>  10.8232  0.0000</r>
       <r>  11.4093  0.0000</r>
       <r>  11.4099  0.0000</r>
       <r>  11.4102  0.0000</r>
       <r>  11.4110  0.0000</r>
      </set>
      <set comment="kpoint 54">
       <r>  -2.2481  1.0000</r>
       <r>  -2.2472  1.0000</r>
       <r>  -2.2470  1.0000</r>
       <r>  -2.2461  1.0000</r>
       <r>  -0.7524  1.0000</r>
       <r>  -0.7515  1.0000</r>
       <r>  -0.7513  1.0000</r>
       <r>  -0.7504  1.0000</r>
       <r>  -0.2580  1.0000</r>
       <r>  -0.2567  1.0000</r>
       <r>  -0.2562  1.0000</r>
       <r>  -0.2548  1.0000</r>
       <r>   0.7270  1.0000</r>
       <r>   0.7280  1.0000</r>
       <r>   0.7282  1.0000</r>
       <r>   0.7291  1.0000</r>
       <r>   1.2172  1.0000</r>
       <r>   1.2185  1.0000</r>
       <r>   1.2190  1.0000</r>
       <r>   1.2204  1.0000</r>
       <r>   2.1857  1.0000</r>
       <r>   2.1857  1.0000</r>
       <r>   2.1869  1.0000</r>
       <r>   2.1869  1.0000</r>
       <r>   2.6754  1.0000</r>
       <r>   2.6768  1.0000</r>
       <r>   2.6773  1.0000</r>
       <r>   2.6786  1.0000</r>
       <r>   3.6198  1.0000</r>
       <r>   3.6200  1.0000</r>
       <r>   3.6203  1.0000</r>
       <r>   3.6203  1.0000</r>
       <r>   3.6331  1.0000</r>
       <r>   3.6331  1.0000</r>
       <r>   3.6342  1.0000</r>
       <r>   3.6343  1.0000</r>
       <r>   4.1116  1.0000</r>
       <r>   4.1119  1.0000</r>
       <r>   4.1135  1.0000</r>
       <r>   4.1138  1.0000</r>
       <r>   4.9314  1.0000</r>
       <r>   4.9319  1.0000</r>
       <r>   4.9319  1.0000</r>
       <r>   4.9324  1.0000</r>
       <r>   4.9915  1.0000</r>
       <r>   4.9925  1.0000</r>
       <r>   4.9927  1.0000</r>
       <r>   4.9937  1.0000</r>
       <r>   5.2049  1.0000</r>
       <r>   5.2053  1.0000</r>
       <r>   5.2056  1.0000</r>
       <r>   5.2059  1.0000</r>
       <r>   5.5624  1.0000</r>
       <r>   5.5628  1.0000</r>
       <r>   5.5643  1.0000</r>
       <r>   5.5647  1.0000</r>
       <r>   6.4904  1.0000</r>
       <r>   6.4906  1.0000</r>
       <r>   6.4907  1.0000</r>
       <r>   6.4909  1.0000</r>
       <r>   6.8895  1.0000</r>
       <r>   6.8911  1.0000</r>
       <r>   6.8915  1.0000</r>
       <r>   6.8931  1.0000</r>
       <r>   6.9840  1.0000</r>
       <r>   6.9844  1.0000</r>
       <r>   6.9860  1.0000</r>
       <r>   6.9863  1.0000</r>
       <r>   7.7767  1.0000</r>
       <r>   7.7768  1.0000</r>
       <r>   7.7780  1.0000</r>
       <r>   7.7781  1.0000</r>
       <r>   8.3172  0.0000</r>
       <r>   8.3174  0.0000</r>
       <r>   8.3179  0.0000</r>
       <r>   8.3181  0.0000</r>
       <r>   9.1387  0.0000</r>
       <r>   9.1388  0.0000</r>
       <r>   9.1398  0.0000</r>
       <r>   9.1398  0.0000</r>
       <r>   9.3003  0.0000</r>
       <r>   9.3007  0.0000</r>
       <r>   9.3011  0.0000</r>
       <r>   9.3015  0.0000</r>
       <r>   9.6085  0.0000</r>
       <r>   9.6091  0.0000</r>
       <r>   9.6092  0.0000</r>
       <r>   9.6098  0.0000</r>
       <r>  10.0847  0.0000</r>
       <r>  10.0859  0.0000</r>
       <r>  10.0864  0.0000</r>
       <r>  10.0876  0.0000</r>
       <r>  10.5314  0.0000</r>
       <r>  10.5315  0.0000</r>
       <r>  10.5318  0.0000</r>
       <r>  10.5319  0.0000</r>
       <r>  10.6996  0.0000</r>
       <r>  10.7000  0.0000</r>
       <r>  10.7004  0.0000</r>
       <r>  10.7008  0.0000</r>
       <r>  10.9447  0.0000</r>
       <r>  10.9457  0.0000</r>
       <r>  10.9513  0.0000</r>
       <r>  10.9717  0.0000</r>
      </set>
      <set comment="kpoint 55">
       <r>  -2.0603  1.0000</r>
       <r>  -2.0594  1.0000</r>
       <r>  -2.0591  1.0000</r>
       <r>  -2.0582  1.0000</r>
       <r>  -1.3114  1.0000</r>
       <r>  -1.3105  1.0000</r>
       <r>  -1.3103  1.0000</r>
       <r>  -1.3094  1.0000</r>
       <r>  -0.0728  1.0000</r>
       <r>  -0.0715  1.0000</r>
       <r>  -0.0710  1.0000</r>
       <r>  -0.0696  1.0000</r>
       <r>   0.6658  1.0000</r>
       <r>   0.6671  1.0000</r>
       <r>   0.6676  1.0000</r>
       <r>   0.6690  1.0000</r>
       <r>   1.6425  1.0000</r>
       <r>   1.6435  1.0000</r>
       <r>   1.6437  1.0000</r>
       <r>   1.6446  1.0000</r>
       <r>   2.3676  1.0000</r>
       <r>   2.3676  1.0000</r>
       <r>   2.3687  1.0000</r>
       <r>   2.3687  1.0000</r>
       <r>   3.0925  1.0000</r>
       <r>   3.0925  1.0000</r>
       <r>   3.0937  1.0000</r>
       <r>   3.0937  1.0000</r>
       <r>   3.5738  1.0000</r>
       <r>   3.5752  1.0000</r>
       <r>   3.5757  1.0000</r>
       <r>   3.5771  1.0000</r>
       <r>   3.7977  1.0000</r>
       <r>   3.7993  1.0000</r>
       <r>   3.7996  1.0000</r>
       <r>   3.7996  1.0000</r>
       <r>   3.7996  1.0000</r>
       <r>   3.7996  1.0000</r>
       <r>   3.7999  1.0000</r>
       <r>   3.8014  1.0000</r>
       <r>   4.2865  1.0000</r>
       <r>   4.2868  1.0000</r>
       <r>   4.2883  1.0000</r>
       <r>   4.2886  1.0000</r>
       <r>   4.5103  1.0000</r>
       <r>   4.5103  1.0000</r>
       <r>   4.5106  1.0000</r>
       <r>   4.5106  1.0000</r>
       <r>   5.0308  1.0000</r>
       <r>   5.0311  1.0000</r>
       <r>   5.0326  1.0000</r>
       <r>   5.0330  1.0000</r>
       <r>   5.7262  1.0000</r>
       <r>   5.7276  1.0000</r>
       <r>   5.7280  1.0000</r>
       <r>   5.7295  1.0000</r>
       <r>   5.9778  1.0000</r>
       <r>   5.9779  1.0000</r>
       <r>   5.9789  1.0000</r>
       <r>   5.9791  1.0000</r>
       <r>   7.3698  1.0000</r>
       <r>   7.3699  1.0000</r>
       <r>   7.3701  1.0000</r>
       <r>   7.3703  1.0000</r>
       <r>   7.8660  1.0000</r>
       <r>   7.8663  1.0000</r>
       <r>   7.8680  1.0000</r>
       <r>   7.8683  1.0000</r>
       <r>   8.0496  0.0000</r>
       <r>   8.0504  0.0000</r>
       <r>   8.0510  0.0000</r>
       <r>   8.0512  0.0000</r>
       <r>   8.0514  0.0000</r>
       <r>   8.0516  0.0000</r>
       <r>   8.0521  0.0000</r>
       <r>   8.0529  0.0000</r>
       <r>   8.7715  0.0000</r>
       <r>   8.7718  0.0000</r>
       <r>   8.7722  0.0000</r>
       <r>   8.7726  0.0000</r>
       <r>   9.4371  0.0000</r>
       <r>   9.4374  0.0000</r>
       <r>   9.4375  0.0000</r>
       <r>   9.4377  0.0000</r>
       <r>   9.7363  0.0000</r>
       <r>   9.7370  0.0000</r>
       <r>   9.7373  0.0000</r>
       <r>   9.7376  0.0000</r>
       <r>   9.7376  0.0000</r>
       <r>   9.7379  0.0000</r>
       <r>   9.7382  0.0000</r>
       <r>   9.7389  0.0000</r>
       <r>   9.9429  0.0000</r>
       <r>   9.9431  0.0000</r>
       <r>   9.9449  0.0000</r>
       <r>   9.9452  0.0000</r>
       <r>  10.4284  0.0000</r>
       <r>  10.4293  0.0000</r>
       <r>  10.4293  0.0000</r>
       <r>  10.4302  0.0000</r>
       <r>  11.1133  0.0000</r>
       <r>  11.1134  0.0000</r>
       <r>  11.1144  0.0000</r>
       <r>  11.1146  0.0000</r>
      </set>
      <set comment="kpoint 56">
       <r>  -1.7494  1.0000</r>
       <r>  -1.7470  1.0000</r>
       <r>  -1.7468  1.0000</r>
       <r>  -1.7468  1.0000</r>
       <r>  -1.7467  1.0000</r>
       <r>  -1.7467  1.0000</r>
       <r>  -1.7465  1.0000</r>
       <r>  -1.7441  1.0000</r>
       <r>   0.2338  1.0000</r>
       <r>   0.2366  1.0000</r>
       <r>   0.2369  1.0000</r>
       <r>   0.2369  1.0000</r>
       <r>   0.2371  1.0000</r>
       <r>   0.2371  1.0000</r>
       <r>   0.2374  1.0000</r>
       <r>   0.2402  1.0000</r>
       <r>   2.6673  1.0000</r>
       <r>   2.6689  1.0000</r>
       <r>   2.6697  1.0000</r>
       <r>   2.6706  1.0000</r>
       <r>   2.6706  1.0000</r>
       <r>   2.6707  1.0000</r>
       <r>   2.6707  1.0000</r>
       <r>   2.6707  1.0000</r>
       <r>   2.6707  1.0000</r>
       <r>   2.6708  1.0000</r>
       <r>   2.6708  1.0000</r>
       <r>   2.6709  1.0000</r>
       <r>   2.6709  1.0000</r>
       <r>   2.6717  1.0000</r>
       <r>   2.6726  1.0000</r>
       <r>   2.6741  1.0000</r>
       <r>   4.0963  1.0000</r>
       <r>   4.0968  1.0000</r>
       <r>   4.0973  1.0000</r>
       <r>   4.0975  1.0000</r>
       <r>   4.0976  1.0000</r>
       <r>   4.0978  1.0000</r>
       <r>   4.0983  1.0000</r>
       <r>   4.0988  1.0000</r>
       <r>   4.4675  1.0000</r>
       <r>   4.4680  1.0000</r>
       <r>   4.4685  1.0000</r>
       <r>   4.4688  1.0000</r>
       <r>   4.4688  1.0000</r>
       <r>   4.4692  1.0000</r>
       <r>   4.4697  1.0000</r>
       <r>   4.4702  1.0000</r>
       <r>   4.7323  1.0000</r>
       <r>   4.7323  1.0000</r>
       <r>   4.7333  1.0000</r>
       <r>   4.7335  1.0000</r>
       <r>   4.7335  1.0000</r>
       <r>   4.7337  1.0000</r>
       <r>   4.7347  1.0000</r>
       <r>   4.7347  1.0000</r>
       <r>   6.9661  1.0000</r>
       <r>   6.9666  1.0000</r>
       <r>   6.9671  1.0000</r>
       <r>   6.9671  1.0000</r>
       <r>   6.9676  1.0000</r>
       <r>   6.9677  1.0000</r>
       <r>   6.9682  1.0000</r>
       <r>   6.9687  1.0000</r>
       <r>   8.3545  0.0000</r>
       <r>   8.3557  0.0000</r>
       <r>   8.3560  0.0000</r>
       <r>   8.3570  0.0000</r>
       <r>   8.3570  0.0000</r>
       <r>   8.3572  0.0000</r>
       <r>   8.3572  0.0000</r>
       <r>   8.3572  0.0000</r>
       <r>   8.3573  0.0000</r>
       <r>   8.3573  0.0000</r>
       <r>   8.3573  0.0000</r>
       <r>   8.3575  0.0000</r>
       <r>   8.3575  0.0000</r>
       <r>   8.3585  0.0000</r>
       <r>   8.3588  0.0000</r>
       <r>   8.3601  0.0000</r>
       <r>   8.8555  0.0000</r>
       <r>   8.8558  0.0000</r>
       <r>   8.8565  0.0000</r>
       <r>   8.8567  0.0000</r>
       <r>   8.8576  0.0000</r>
       <r>   8.8578  0.0000</r>
       <r>   8.8584  0.0000</r>
       <r>   8.8588  0.0000</r>
       <r>  10.0222  0.0000</r>
       <r>  10.0241  0.0000</r>
       <r>  10.0242  0.0000</r>
       <r>  10.0243  0.0000</r>
       <r>  10.0245  0.0000</r>
       <r>  10.0246  0.0000</r>
       <r>  10.0248  0.0000</r>
       <r>  10.0266  0.0000</r>
       <r>  11.3906  0.0000</r>
       <r>  11.3914  0.0000</r>
       <r>  11.3916  0.0000</r>
       <r>  11.3918  0.0000</r>
       <r>  11.3921  0.0000</r>
       <r>  11.3923  0.0000</r>
       <r>  11.3931  0.0000</r>
       <r>  11.3936  0.0000</r>
      </set>
    </set>
  </set>
</array>
</eigenvalues>
</calculation>
 <structure name="finalpos" >
  <crystal>
   <varray name="basis" >
    <v>       8.07661819      0.00000000      0.00000000</v>
    <v>       0.00000000      8.07661819      0.00000000</v>
    <v>       0.00000000      0.00000000     12.11492729</v>
   </varray>
   <i name="volume">    790.27804723</i>
   <varray name="rec_basis" >
    <v>       0.12381420      0.00000000      0.00000000</v>
    <v>       0.00000000      0.12381420      0.00000000</v>
    <v>       0.00000000      0.00000000      0.08254280</v>
   </varray>
  </crystal>
  <varray name="positions" >
   <v>       0.25068680      0.25000000      0.00068680</v>
   <v>       0.75000000      0.25000000      0.00000000</v>
   <v>       0.25000000      0.75000000      0.00000000</v>
   <v>       0.75000000      0.75000000      0.00000000</v>
   <v>       0.25000000      0.25000000      0.33333333</v>
   <v>       0.75000000      0.25000000      0.33333333</v>
   <v>       0.25000000      0.75000000      0.33333333</v>
   <v>       0.75000000      0.75000000      0.33333333</v>
   <v>       0.25000000      0.25000000      0.66666667</v>
   <v>       0.75000000      0.25000000      0.66666667</v>
   <v>       0.25000000      0.75000000      0.66666667</v>
   <v>       0.75000000      0.75000000      0.66666667</v>
   <v>       0.25000000      0.00000000      0.16666667</v>
   <v>       0.75000000      0.00000000      0.16666667</v>
   <v>       0.25000000      0.50000000      0.16666667</v>
   <v>       0.75000000      0.50000000      0.16666667</v>
   <v>       0.25000000      0.00000000      0.50000000</v>
   <v>       0.75000000      0.00000000      0.50000000</v>
   <v>       0.25000000      0.50000000      0.50000000</v>
   <v>       0.75000000      0.50000000      0.50000000</v>
   <v>       0.25000000      0.00000000      0.83333333</v>
   <v>       0.75000000      0.00000000      0.83333333</v>
   <v>       0.25000000      0.50000000      0.83333333</v>
   <v>       0.75000000      0.50000000      0.83333333</v>
   <v>       0.00000000      0.25000000      0.16666667</v>
   <v>       0.50000000      0.25000000      0.16666667</v>
   <v>       0.00000000      0.75000000      0.16666667</v>
   <v>       0.50000000      0.75000000      0.16666667</v>
   <v>       0.00000000      0.25000000      0.50000000</v>
   <v>       0.50000000      0.25000000      0.50000000</v>
   <v>       0.00000000      0.75000000      0.50000000</v>
   <v>       0.50000000      0.75000000      0.50000000</v>
   <v>       0.00000000      0.25000000      0.83333333</v>
   <v>       0.50000000      0.25000000      0.83333333</v>
   <v>       0.00000000      0.75000000      0.83333333</v>
   <v>       0.50000000      0.75000000      0.83333333</v>
   <v>       0.00000000      0.00000000      0.00000000</v>
   <v>       0.50000000      0.00000000      0.00000000</v>
   <v>       0.00000000      0.50000000      0.00000000</v>
   <v>       0.50000000      0.50000000      0.00000000</v>
   <v>       0.00000000      0.00000000      0.33333333</v>
   <v>       0.50000000      0.00000000      0.33333333</v>
   <v>       0.00000000      0.50000000      0.33333333</v>
   <v>       0.50000000      0.50000000      0.33333333</v>
   <v>       0.00000000      0.00000000      0.66666667</v>
   <v>       0.50000000      0.00000000      0.66666667</v>
   <v>       0.00000000      0.50000000      0.66666667</v>
   <v>       0.50000000      0.50000000      0.66666667</v>
  </varray>
 </structure>
</modeling>
