  32  32   0   0
  0.1745747E+02  0.8235888E-09  0.8235888E-09  0.8235888E-09  0.5000000E-15
  1.000000000000000E-004
  CAR 
 unknown system                          
     11.91601216     -4.05251210  301      7.43411522      1.00000000
     -4.053  0.0000E+00  0.0000E+00
     -3.999  0.0000E+00  0.0000E+00
     -3.946  0.0000E+00  0.0000E+00
     -3.893  0.0000E+00  0.0000E+00
     -3.840  0.0000E+00  0.0000E+00
     -3.786  0.0000E+00  0.0000E+00
     -3.733  0.0000E+00  0.0000E+00
     -3.680  0.0000E+00  0.0000E+00
     -3.627  0.0000E+00  0.0000E+00
     -3.573  0.0000E+00  0.0000E+00
     -3.520  0.0000E+00  0.0000E+00
     -3.467  0.0000E+00  0.0000E+00
     -3.414  0.0000E+00  0.0000E+00
     -3.361  0.1448E-06  0.7709E-08
     -3.307  0.1734E+00  0.9231E-02
     -3.254  0.9969E+00  0.6229E-01
     -3.201  0.1595E+01  0.1472E+00
     -3.148  0.1024E+01  0.2017E+00
     -3.094  0.9877E+00  0.2543E+00
     -3.041  0.9928E+00  0.3071E+00
     -2.988  0.4147E+01  0.5278E+00
     -2.935  0.4174E+01  0.7500E+00
     -2.881  0.3304E-07  0.7500E+00
     -2.828  0.2039E+01  0.8586E+00
     -2.775  0.4408E+01  0.1093E+01
     -2.722  0.2882E+01  0.1247E+01
     -2.669  0.2773E+01  0.1394E+01
     -2.615  0.3581E+01  0.1585E+01
     -2.562  0.1369E+01  0.1658E+01
     -2.509  0.4170E+01  0.1880E+01
     -2.456  0.8347E+01  0.2324E+01
     -2.402  0.2360E-02  0.2324E+01
     -2.349  0.9704E+00  0.2376E+01
     -2.296  0.5807E+01  0.2685E+01
     -2.243  0.4555E+01  0.2927E+01
     -2.190  0.4630E+01  0.3174E+01
     -2.136  0.3899E+01  0.3381E+01
     -2.083  0.4147E+01  0.3602E+01
     -2.030  0.8347E+01  0.4046E+01
     -1.977  0.4170E+01  0.4268E+01
     -1.923  0.4684E-02  0.4269E+01
     -1.870  0.3663E+01  0.4464E+01
     -1.817  0.3562E+01  0.4653E+01
     -1.764  0.5048E+01  0.4922E+01
     -1.710  0.9914E+01  0.5450E+01
     -1.657  0.5297E+01  0.5731E+01
     -1.604  0.2467E-02  0.5732E+01
     -1.551  0.1252E+02  0.6398E+01
     -1.498  0.8337E+01  0.6842E+01
     -1.444  0.1299E-01  0.6843E+01
     -1.391  0.1803E+01  0.6939E+01
     -1.338  0.4994E+01  0.7204E+01
     -1.285  0.5511E+01  0.7498E+01
     -1.231  0.6883E+01  0.7864E+01
     -1.178  0.7972E+01  0.8288E+01
     -1.125  0.5193E+01  0.8565E+01
     -1.072  0.4174E+01  0.8787E+01
     -1.018  0.1251E+02  0.9453E+01
     -0.965  0.1473E-01  0.9454E+01
     -0.912  0.3704E+01  0.9651E+01
     -0.859  0.1093E+02  0.1023E+02
     -0.806  0.8585E+01  0.1069E+02
     -0.752  0.6306E+01  0.1103E+02
     -0.699  0.3909E+01  0.1123E+02
     -0.646  0.4145E+01  0.1145E+02
     -0.593  0.1252E+02  0.1212E+02
     -0.539  0.8346E+01  0.1256E+02
     -0.486  0.4055E-02  0.1256E+02
     -0.433  0.1312E+01  0.1263E+02
     -0.380  0.7209E+01  0.1302E+02
     -0.327  0.8619E+01  0.1348E+02
     -0.273  0.9600E+01  0.1399E+02
     -0.220  0.7134E+01  0.1437E+02
     -0.167  0.4089E+01  0.1459E+02
     -0.114  0.1249E+02  0.1525E+02
     -0.060  0.1670E+02  0.1614E+02
     -0.007  0.6824E-03  0.1614E+02
      0.046  0.8201E+01  0.1658E+02
      0.099  0.7695E+01  0.1699E+02
      0.153  0.3681E+01  0.1718E+02
      0.206  0.5762E+01  0.1749E+02
      0.259  0.8060E+01  0.1792E+02
      0.312  0.2437E+00  0.1793E+02
      0.365  0.1231E+02  0.1859E+02
      0.419  0.1667E+02  0.1947E+02
      0.472  0.6429E-05  0.1947E+02
      0.525  0.1043E+01  0.1953E+02
      0.578  0.1640E+02  0.2040E+02
      0.632  0.1540E+02  0.2122E+02
      0.685  0.4451E+01  0.2146E+02
      0.738  0.4616E+01  0.2170E+02
      0.791  0.7614E+01  0.2211E+02
      0.845  0.1433E+02  0.2287E+02
      0.898  0.8160E+01  0.2331E+02
      0.951  0.2579E-02  0.2331E+02
      1.004  0.6259E+01  0.2364E+02
      1.057  0.8343E+01  0.2408E+02
      1.111  0.2070E+02  0.2518E+02
      1.164  0.9239E+01  0.2568E+02
      1.217  0.3809E+01  0.2588E+02
      1.270  0.9431E+01  0.2638E+02
      1.324  0.9984E+01  0.2691E+02
      1.377  0.6686E+01  0.2727E+02
      1.430  0.5977E-01  0.2727E+02
      1.483  0.4146E+01  0.2749E+02
      1.536  0.1772E+02  0.2844E+02
      1.590  0.8346E+01  0.2888E+02
      1.643  0.1250E+02  0.2954E+02
      1.696  0.8255E+01  0.2998E+02
      1.749  0.7936E+01  0.3041E+02
      1.803  0.1644E+02  0.3128E+02
      1.856  0.4971E+01  0.3155E+02
      1.909  0.5473E+00  0.3158E+02
      1.962  0.5451E+01  0.3187E+02
      2.016  0.2356E+02  0.3312E+02
      2.069  0.2061E+02  0.3422E+02
      2.122  0.8279E+01  0.3466E+02
      2.175  0.2637E-04  0.3466E+02
      2.228  0.8337E+01  0.3510E+02
      2.282  0.1648E+02  0.3598E+02
      2.335  0.2334E+00  0.3599E+02
      2.388  0.3227E+01  0.3616E+02
      2.441  0.5669E+01  0.3646E+02
      2.495  0.1017E+02  0.3701E+02
      2.548  0.1374E+02  0.3774E+02
      2.601  0.1171E+02  0.3836E+02
      2.654  0.5973E+01  0.3868E+02
      2.707  0.2826E+02  0.4018E+02
      2.761  0.7880E+01  0.4060E+02
      2.814  0.2056E-01  0.4060E+02
      2.867  0.1246E+02  0.4127E+02
      2.920  0.1647E+02  0.4214E+02
      2.974  0.1234E+02  0.4280E+02
      3.027  0.1034E+02  0.4335E+02
      3.080  0.7457E+01  0.4375E+02
      3.133  0.6307E+01  0.4408E+02
      3.187  0.1937E+02  0.4511E+02
      3.240  0.1124E+02  0.4571E+02
      3.293  0.1413E+01  0.4579E+02
      3.346  0.1145E+01  0.4585E+02
      3.399  0.1920E+02  0.4687E+02
      3.453  0.8882E+01  0.4734E+02
      3.506  0.1509E+02  0.4815E+02
      3.559  0.5783E+01  0.4845E+02
      3.612  0.2422E+02  0.4974E+02
      3.666  0.1250E+02  0.5041E+02
      3.719  0.8481E+00  0.5045E+02
      3.772  0.8644E+01  0.5091E+02
      3.825  0.4688E+01  0.5116E+02
      3.879  0.2175E+02  0.5232E+02
      3.932  0.3782E+01  0.5252E+02
      3.985  0.1234E+02  0.5318E+02
      4.038  0.5610E+01  0.5348E+02
      4.091  0.3213E+02  0.5519E+02
      4.145  0.8119E+01  0.5562E+02
      4.198  0.4160E+01  0.5584E+02
      4.251  0.6233E+01  0.5617E+02
      4.304  0.2181E+02  0.5733E+02
      4.358  0.1516E+02  0.5814E+02
      4.411  0.1275E+02  0.5882E+02
      4.464  0.4602E+01  0.5906E+02
      4.517  0.1299E+02  0.5976E+02
      4.570  0.1624E+02  0.6062E+02
      4.624  0.4295E+01  0.6085E+02
      4.677  0.1060E+02  0.6141E+02
      4.730  0.1469E+02  0.6219E+02
      4.783  0.2108E+02  0.6332E+02
      4.837  0.1286E+02  0.6400E+02
      4.890  0.1414E+02  0.6475E+02
      4.943  0.1261E+02  0.6543E+02
      4.996  0.1247E+02  0.6609E+02
      5.050  0.5993E+01  0.6641E+02
      5.103  0.4494E+01  0.6665E+02
      5.156  0.4204E+01  0.6687E+02
      5.209  0.2771E+02  0.6835E+02
      5.262  0.1072E+02  0.6892E+02
      5.316  0.1658E+02  0.6980E+02
      5.369  0.6222E+01  0.7013E+02
      5.422  0.1121E+02  0.7073E+02
      5.475  0.1879E+02  0.7173E+02
      5.529  0.9286E+01  0.7222E+02
      5.582  0.6406E+01  0.7256E+02
      5.635  0.1588E+02  0.7341E+02
      5.688  0.1765E+02  0.7435E+02
      5.742  0.1703E+02  0.7525E+02
      5.795  0.1050E+02  0.7581E+02
      5.848  0.1134E+02  0.7642E+02
      5.901  0.2056E+01  0.7653E+02
      5.954  0.1307E+02  0.7722E+02
      6.008  0.1574E+01  0.7731E+02
      6.061  0.1169E+02  0.7793E+02
      6.114  0.1558E+02  0.7876E+02
      6.167  0.2483E+02  0.8008E+02
      6.221  0.4377E+01  0.8031E+02
      6.274  0.1229E+02  0.8097E+02
      6.327  0.7110E+01  0.8134E+02
      6.380  0.2641E+02  0.8275E+02
      6.433  0.1828E+02  0.8372E+02
      6.487  0.5148E+00  0.8375E+02
      6.540  0.1151E+02  0.8436E+02
      6.593  0.9356E+01  0.8486E+02
      6.646  0.1769E+02  0.8580E+02
      6.700  0.9244E+01  0.8629E+02
      6.753  0.1613E+02  0.8715E+02
      6.806  0.2121E+02  0.8828E+02
      6.859  0.1135E+02  0.8889E+02
      6.913  0.1100E+02  0.8947E+02
      6.966  0.8371E+01  0.8992E+02
      7.019  0.4260E+00  0.8994E+02
      7.072  0.1384E+02  0.9068E+02
      7.125  0.1913E+02  0.9169E+02
      7.179  0.8382E+01  0.9214E+02
      7.232  0.8391E+01  0.9259E+02
      7.285  0.3387E+02  0.9439E+02
      7.338  0.9873E+01  0.9492E+02
      7.392  0.1455E+02  0.9569E+02
      7.445  0.1430E+02  0.9645E+02
      7.498  0.2944E+02  0.9802E+02
      7.551  0.6333E+01  0.9836E+02
      7.605  0.8805E+01  0.9882E+02
      7.658  0.1840E+02  0.9980E+02
      7.711  0.9720E+01  0.1003E+03
      7.764  0.1337E+02  0.1010E+03
      7.817  0.5611E+01  0.1013E+03
      7.871  0.1388E+02  0.1021E+03
      7.924  0.1166E+02  0.1027E+03
      7.977  0.1751E+02  0.1036E+03
      8.030  0.1631E+02  0.1045E+03
      8.084  0.4171E+01  0.1047E+03
      8.137  0.8949E-01  0.1047E+03
      8.190  0.1657E+02  0.1056E+03
      8.243  0.1455E+02  0.1064E+03
      8.296  0.2596E+02  0.1078E+03
      8.350  0.2349E+02  0.1090E+03
      8.403  0.1207E+02  0.1096E+03
      8.456  0.1348E+02  0.1104E+03
      8.509  0.1855E+02  0.1114E+03
      8.563  0.1124E+02  0.1120E+03
      8.616  0.1571E+02  0.1128E+03
      8.669  0.1307E+02  0.1135E+03
      8.722  0.4096E+01  0.1137E+03
      8.776  0.2035E+02  0.1148E+03
      8.829  0.1939E+02  0.1158E+03
      8.882  0.2613E+02  0.1172E+03
      8.935  0.1351E+02  0.1179E+03
      8.988  0.6400E+01  0.1183E+03
      9.042  0.4588E+01  0.1185E+03
      9.095  0.1997E+02  0.1196E+03
      9.148  0.1287E+02  0.1203E+03
      9.201  0.1443E+02  0.1210E+03
      9.255  0.1478E+02  0.1218E+03
      9.308  0.1907E+02  0.1228E+03
      9.361  0.8268E+01  0.1233E+03
      9.414  0.1985E+02  0.1243E+03
      9.468  0.2080E+02  0.1254E+03
      9.521  0.8373E+01  0.1259E+03
      9.574  0.1748E+01  0.1260E+03
      9.627  0.1570E+02  0.1268E+03
      9.680  0.2460E+02  0.1281E+03
      9.734  0.2261E+02  0.1293E+03
      9.787  0.1855E+02  0.1303E+03
      9.840  0.8512E+01  0.1308E+03
      9.893  0.3508E+01  0.1309E+03
      9.947  0.2061E+02  0.1320E+03
     10.000  0.1361E+02  0.1328E+03
     10.053  0.1619E+02  0.1336E+03
     10.106  0.1382E+02  0.1344E+03
     10.159  0.1334E+02  0.1351E+03
     10.213  0.1029E+02  0.1356E+03
     10.266  0.2096E+02  0.1367E+03
     10.319  0.7233E+01  0.1371E+03
     10.372  0.1422E+02  0.1379E+03
     10.426  0.2519E+02  0.1392E+03
     10.479  0.1512E+02  0.1400E+03
     10.532  0.1719E+02  0.1409E+03
     10.585  0.3503E+01  0.1411E+03
     10.639  0.8561E+01  0.1416E+03
     10.692  0.1153E+02  0.1422E+03
     10.745  0.1035E+02  0.1427E+03
     10.798  0.8525E+01  0.1432E+03
     10.851  0.5501E+01  0.1435E+03
     10.905  0.2849E+01  0.1436E+03
     10.958  0.1391E+01  0.1437E+03
     11.011  0.2487E-03  0.1437E+03
     11.064  0.2906E+00  0.1437E+03
     11.118  0.3883E+01  0.1439E+03
     11.171  0.5290E-02  0.1439E+03
     11.224  0.1040E+01  0.1440E+03
     11.277  0.0000E+00  0.1440E+03
     11.330  0.0000E+00  0.1440E+03
     11.384  0.0000E+00  0.1440E+03
     11.437  0.0000E+00  0.1440E+03
     11.490  0.0000E+00  0.1440E+03
     11.543  0.0000E+00  0.1440E+03
     11.597  0.0000E+00  0.1440E+03
     11.650  0.0000E+00  0.1440E+03
     11.703  0.0000E+00  0.1440E+03
     11.756  0.0000E+00  0.1440E+03
     11.810  0.0000E+00  0.1440E+03
     11.863  0.0000E+00  0.1440E+03
     11.916  0.0000E+00  0.1440E+03
