   32   32    1    1
  0.1745747E+02  0.8235888E-09  0.8235888E-09  0.8235888E-09  0.5000000E-15
  1.000000000000000E-004
  CAR 
 unknown system                          
   96   40   72
 
  0.0000000E+00  0.0000000E+00  0.0000000E+00  0.4629630E-02
   1       -3.3267
   2       -1.1631
   3       -1.1596
   4       -1.1596
   5       -1.1596
   6       -1.1596
   7       -1.1562
   8        0.9706
   9        0.9750
  10        0.9750
  11        0.9765
  12        0.9767
  13        0.9767
  14        0.9767
  15        0.9767
  16        0.9768
  17        0.9783
  18        0.9783
  19        0.9827
  20        3.0538
  21        3.0538
  22        3.0538
  23        3.0539
  24        3.1177
  25        3.1177
  26        3.1177
  27        3.1178
  28        4.6362
  29        4.6362
  30        4.6362
  31        5.8267
  32        5.8268
  33        5.8268
  34        6.6449
  35        6.6449
  36        6.6491
  37        6.6491
  38        6.6492
  39        6.6492
  40        6.6492
  41        6.6492
  42        6.6492
  43        6.6492
  44        6.6533
  45        6.6533
  46        7.6867
  47        7.6906
  48        7.6906
  49        7.6906
  50        7.6906
  51        7.6944
  52        8.2234
  53        8.2242
  54        8.2242
  55        8.2242
  56        8.2242
  57        8.2250
  58        8.6621
  59        8.6621
  60        8.6638
  61        8.6659
  62        8.6660
  63        8.6660
  64        8.6660
  65        8.6661
  66        8.6662
  67        8.6683
  68        8.6700
  69        8.6700
  70       10.0026
  71       10.0051
  72       10.0058
 
  0.1666667E+00  0.0000000E+00  0.0000000E+00  0.9259259E-02
   1       -3.2660
   2       -1.8184
   3       -1.0999
   4       -1.0999
   5       -1.0999
   6       -1.0999
   7       -0.3851
   8        0.3271
   9        0.3271
  10        0.3271
  11        0.3271
  12        1.0356
  13        1.0356
  14        1.0356
  15        1.0356
  16        1.7404
  17        1.7404
  18        1.7404
  19        1.7404
  20        2.4436
  21        2.4436
  22        2.4436
  23        2.4436
  24        3.7711
  25        3.8410
  26        3.8410
  27        3.8410
  28        3.8410
  29        4.6920
  30        4.6920
  31        5.8238
  32        5.8239
  33        5.8239
  34        5.8239
  35        5.8861
  36        5.8862
  37        6.0334
  38        6.0334
  39        6.7051
  40        6.7051
  41        6.7051
  42        6.7051
  43        6.7977
  44        7.2686
  45        7.2687
  46        7.3776
  47        7.3776
  48        7.8726
  49        7.8727
  50        7.8727
  51        7.8727
  52        7.9655
  53        7.9655
  54        7.9655
  55        7.9655
  56        8.0494
  57        8.0494
  58        8.0495
  59        8.0495
  60        8.7510
  61        8.7510
  62        8.9358
  63        8.9358
  64        8.9358
  65        8.9358
  66        9.3853
  67        9.3854
  68        9.3856
  69        9.3896
  70        9.3950
  71        9.3951
  72        9.3953
 
  0.3333333E+00  0.0000000E+00  0.0000000E+00  0.9259259E-02
   1       -3.0843
   2       -2.3596
   3       -0.9208
   4       -0.9208
   5       -0.9208
   6       -0.9208
   7       -0.2065
   8       -0.2065
   9       -0.2065
  10       -0.2065
  11        0.5028
  12        1.2123
  13        1.2123
  14        1.2123
  15        1.2123
  16        1.9171
  17        1.9171
  18        1.9171
  19        1.9172
  20        2.5998
  21        2.6158
  22        2.6158
  23        2.6158
  24        2.6159
  25        4.6796
  26        4.6796
  27        4.6797
  28        4.6797
  29        4.7057
  30        4.7057
  31        4.7057
  32        4.7057
  33        4.8595
  34        4.8595
  35        5.5300
  36        5.5300
  37        6.0636
  38        6.0636
  39        6.7449
  40        6.7450
  41        6.7450
  42        6.7451
  43        6.7640
  44        6.7643
  45        6.8731
  46        6.8731
  47        6.8731
  48        6.8731
  49        7.5451
  50        7.5451
  51        7.5451
  52        7.5452
  53        8.1729
  54        8.1729
  55        8.1729
  56        8.1729
  57        8.2188
  58        8.2188
  59        8.2865
  60        8.8721
  61        8.8721
  62        8.8721
  63        8.8721
  64        9.5670
  65        9.5670
  66       10.2359
  67       10.2359
  68       10.2363
  69       10.2363
  70       10.2407
  71       10.2409
  72       10.3545
 
  0.5000000E+00  0.0000000E+00  0.0000000E+00  0.4629630E-02
   1       -2.7833
   2       -2.7805
   3       -0.6267
   4       -0.6236
   5       -0.6236
   6       -0.6228
   7       -0.6228
   8       -0.6219
   9       -0.6219
  10       -0.6189
  11        1.4981
  12        1.5006
  13        1.5049
  14        1.5051
  15        1.5051
  16        1.5059
  17        1.5068
  18        1.5076
  19        1.5076
  20        1.5100
  21        3.5976
  22        3.5979
  23        3.5979
  24        3.5986
  25        3.5988
  26        3.5995
  27        3.5995
  28        3.5998
  29        5.1373
  30        5.1373
  31        5.1403
  32        5.1403
  33        5.6759
  34        5.6759
  35        5.6765
  36        5.6767
  37        5.6772
  38        5.6775
  39        5.6781
  40        5.6781
  41        6.3559
  42        6.3568
  43        6.3586
  44        6.3595
  45        7.1508
  46        7.1508
  47        7.1517
  48        7.1530
  49        7.1532
  50        7.1544
  51        7.1553
  52        7.1553
  53        8.4659
  54        8.4669
  55        8.4669
  56        8.4671
  57        8.4691
  58        8.4692
  59        8.4692
  60        8.4703
  61        9.1719
  62        9.1719
  63        9.1742
  64        9.1742
  65        9.9135
  66        9.9150
  67       10.4774
  68       10.4780
  69       10.4792
  70       10.4797
  71       11.1889
  72       11.1899
 
  0.0000000E+00  0.1666667E+00  0.0000000E+00  0.1851852E-01
   1       -3.2660
   2       -1.8184
   3       -1.1026
   4       -1.0999
   5       -1.0999
   6       -1.0972
   7       -0.3851
   8        0.3244
   9        0.3271
  10        0.3271
  11        0.3298
  12        1.0335
  13        1.0345
  14        1.0367
  15        1.0377
  16        1.7377
  17        1.7404
  18        1.7404
  19        1.7431
  20        2.4414
  21        2.4424
  22        2.4447
  23        2.4457
  24        3.7711
  25        3.8388
  26        3.8399
  27        3.8421
  28        3.8432
  29        4.6920
  30        4.6920
  31        5.8210
  32        5.8239
  33        5.8239
  34        5.8268
  35        5.8861
  36        5.8861
  37        6.0334
  38        6.0334
  39        6.7025
  40        6.7051
  41        6.7051
  42        6.7077
  43        6.7977
  44        7.2686
  45        7.2687
  46        7.3776
  47        7.3776
  48        7.8702
  49        7.8716
  50        7.8738
  51        7.8751
  52        7.9632
  53        7.9655
  54        7.9655
  55        7.9677
  56        8.0468
  57        8.0494
  58        8.0495
  59        8.0521
  60        8.7510
  61        8.7510
  62        8.9338
  63        8.9358
  64        8.9358
  65        8.9379
  66        9.3842
  67        9.3856
  68        9.3859
  69        9.3883
  70        9.3937
  71        9.3950
  72        9.3956
 
  0.1666667E+00  0.1666667E+00  0.0000000E+00  0.3703704E-01
   1       -3.2054
   2       -1.7595
   3       -1.7573
   4       -1.0402
   5       -1.0402
   6       -0.3273
   7       -0.3255
   8       -0.3238
   9        0.3848
  10        0.3857
  11        0.3869
  12        0.3878
  13        1.0936
  14        1.0946
  15        1.7970
  16        1.7982
  17        1.7994
  18        1.7995
  19        1.8007
  20        1.8018
  21        2.5003
  22        3.1664
  23        3.1664
  24        3.2368
  25        3.2368
  26        3.8280
  27        3.8289
  28        4.5917
  29        4.5917
  30        4.7478
  31        5.1988
  32        5.2010
  33        5.8226
  34        5.8226
  35        5.9447
  36        5.9462
  37        5.9468
  38        6.0881
  39        6.0905
  40        6.5484
  41        6.5499
  42        6.8549
  43        6.8559
  44        7.2488
  45        7.2498
  46        7.2511
  47        7.2520
  48        7.3738
  49        7.3753
  50        7.4312
  51        7.4334
  52        7.4355
  53        8.1631
  54        8.1651
  55        8.6046
  56        8.6057
  57        8.6058
  58        8.6069
  59        8.7432
  60        8.7433
  61        8.7608
  62        8.7775
  63        8.7794
  64        8.8504
  65        8.8512
  66        9.1354
  67        9.1354
  68        9.6323
  69        9.6344
  70       10.1128
  71       10.1129
  72       10.1237
 
  0.3333333E+00  0.1666667E+00  0.0000000E+00  0.3703704E-01
   1       -3.0238
   2       -2.2994
   3       -1.5785
   4       -0.8625
   5       -0.8612
   6       -0.8598
   7       -0.1487
   8       -0.1471
   9       -0.1459
  10        0.5606
  11        0.5632
  12        0.5637
  13        0.5649
  14        1.2714
  15        1.2714
  16        1.9731
  17        1.9749
  18        1.9751
  19        2.6579
  20        2.6733
  21        2.6738
  22        2.6764
  23        2.6771
  24        3.3712
  25        4.0004
  26        4.0474
  27        4.0710
  28        4.0710
  29        4.6869
  30        4.7361
  31        4.7361
  32        4.9153
  33        5.4217
  34        5.4529
  35        5.4529
  36        5.5859
  37        6.0597
  38        6.0598
  39        6.1177
  40        6.1178
  41        6.1225
  42        6.2572
  43        6.7402
  44        6.7402
  45        6.8056
  46        6.9289
  47        7.0280
  48        7.4473
  49        7.4834
  50        7.4834
  51        7.5481
  52        7.6016
  53        7.7070
  54        8.2440
  55        8.2728
  56        8.2760
  57        8.3430
  58        8.8795
  59        9.0838
  60        9.0838
  61        9.4352
  62        9.4479
  63        9.4480
  64        9.6029
  65        9.6199
  66        9.6288
  67        9.7718
  68        9.7792
  69        9.7792
  70       10.2964
  71       10.4171
  72       10.4268
 
  0.5000000E+00  0.1666667E+00  0.0000000E+00  0.1851852E-01
   1       -2.7229
   2       -2.7201
   3       -1.2806
   4       -1.2778
   5       -0.5652
   6       -0.5641
   7       -0.5624
   8       -0.5613
   9        0.1476
  10        0.1504
  11        0.8570
  12        0.8581
  13        0.8598
  14        0.8609
  15        1.5584
  16        1.5598
  17        2.2656
  18        2.2667
  19        2.2684
  20        2.2695
  21        2.9600
  22        2.9614
  23        3.6557
  24        3.6559
  25        3.6571
  26        3.6573
  27        4.2853
  28        4.2882
  29        4.3478
  30        4.3492
  31        5.0448
  32        5.0449
  33        5.0462
  34        5.0463
  35        5.1932
  36        5.1961
  37        6.3409
  38        6.3421
  39        6.3438
  40        6.3450
  41        6.4128
  42        6.4155
  43        6.4192
  44        6.4196
  45        6.4208
  46        6.4210
  47        6.5355
  48        6.5385
  49        7.3123
  50        7.3151
  51        7.8376
  52        7.8402
  53        7.8802
  54        7.8833
  55        8.3827
  56        8.3845
  57        9.1968
  58        9.1997
  59        9.2280
  60        9.2302
  61        9.3783
  62        9.3791
  63        9.3812
  64        9.3819
  65        9.9684
  66        9.9699
  67       10.3948
  68       10.3950
  69       10.3967
  70       10.3969
  71       10.5360
  72       10.5402
 
  0.0000000E+00  0.3333333E+00  0.0000000E+00  0.1851852E-01
   1       -3.0843
   2       -2.3596
   3       -0.9235
   4       -0.9208
   5       -0.9208
   6       -0.9181
   7       -0.2092
   8       -0.2065
   9       -0.2065
  10       -0.2038
  11        0.5028
  12        1.2102
  13        1.2112
  14        1.2134
  15        1.2144
  16        1.9150
  17        1.9160
  18        1.9183
  19        1.9193
  20        2.5998
  21        2.6131
  22        2.6158
  23        2.6158
  24        2.6185
  25        4.6768
  26        4.6797
  27        4.6797
  28        4.6825
  29        4.7035
  30        4.7045
  31        4.7068
  32        4.7078
  33        4.8595
  34        4.8595
  35        5.5300
  36        5.5300
  37        6.0636
  38        6.0637
  39        6.7427
  40        6.7439
  41        6.7462
  42        6.7473
  43        6.7640
  44        6.7642
  45        6.8705
  46        6.8731
  47        6.8731
  48        6.8757
  49        7.5425
  50        7.5451
  51        7.5452
  52        7.5478
  53        8.1708
  54        8.1729
  55        8.1729
  56        8.1749
  57        8.2188
  58        8.2188
  59        8.2866
  60        8.8701
  61        8.8721
  62        8.8721
  63        8.8742
  64        9.5670
  65        9.5670
  66       10.2336
  67       10.2363
  68       10.2363
  69       10.2389
  70       10.2403
  71       10.2406
  72       10.3547
 
  0.1666667E+00  0.3333333E+00  0.0000000E+00  0.3703704E-01
   1       -3.0238
   2       -2.2994
   3       -1.5785
   4       -0.8625
   5       -0.8612
   6       -0.8598
   7       -0.1487
   8       -0.1471
   9       -0.1459
  10        0.5608
  11        0.5627
  12        0.5637
  13        0.5653
  14        1.2714
  15        1.2714
  16        1.9725
  17        1.9749
  18        1.9757
  19        2.6579
  20        2.6739
  21        2.6741
  22        2.6762
  23        2.6765
  24        3.3712
  25        4.0004
  26        4.0474
  27        4.0710
  28        4.0710
  29        4.6868
  30        4.7361
  31        4.7362
  32        4.9153
  33        5.4217
  34        5.4529
  35        5.4529
  36        5.5859
  37        6.0597
  38        6.0598
  39        6.1178
  40        6.1178
  41        6.1224
  42        6.2572
  43        6.7402
  44        6.7402
  45        6.8056
  46        6.9289
  47        7.0280
  48        7.4473
  49        7.4834
  50        7.4834
  51        7.5481
  52        7.6016
  53        7.7070
  54        8.2440
  55        8.2735
  56        8.2753
  57        8.3430
  58        8.8795
  59        9.0838
  60        9.0839
  61        9.4353
  62        9.4479
  63        9.4479
  64        9.6030
  65        9.6200
  66        9.6288
  67        9.7718
  68        9.7792
  69        9.7792
  70       10.2964
  71       10.4171
  72       10.4236
 
  0.3333333E+00  0.3333333E+00  0.0000000E+00  0.3703704E-01
   1       -2.8424
   2       -2.1199
   3       -2.1178
   4       -1.3989
   5       -0.6824
   6       -0.6823
   7        0.0294
   8        0.0303
   9        0.0315
  10        0.0324
  11        0.7375
  12        0.7395
  13        0.7410
  14        0.7419
  15        1.4450
  16        1.4460
  17        2.8317
  18        2.8327
  19        2.8474
  20        2.8483
  21        2.8495
  22        2.8505
  23        3.5038
  24        3.5039
  25        3.5267
  26        3.5289
  27        3.5924
  28        3.5925
  29        4.2366
  30        4.8452
  31        4.8452
  32        4.9802
  33        4.9803
  34        5.0829
  35        5.6016
  36        5.6026
  37        5.6039
  38        5.6048
  39        5.7524
  40        5.7549
  41        6.2584
  42        6.2600
  43        6.2967
  44        6.3099
  45        6.3099
  46        6.4250
  47        7.0425
  48        7.0439
  49        7.7250
  50        8.3186
  51        8.3295
  52        8.3306
  53        8.3306
  54        8.3317
  55        8.4417
  56        8.4442
  57        8.5109
  58        8.5120
  59        9.1146
  60        9.1165
  61        9.1371
  62        9.1391
  63        9.8402
  64        9.8411
  65       10.3305
  66       10.3305
  67       10.3963
  68       10.3964
  69       10.4259
  70       10.4261
  71       10.4636
  72       10.4656
 
  0.5000000E+00  0.3333333E+00  0.0000000E+00  0.1851852E-01
   1       -2.5419
   2       -2.5391
   3       -1.8198
   4       -1.8171
   5       -0.3867
   6       -0.3856
   7       -0.3839
   8       -0.3828
   9        0.3252
  10        0.3263
  11        0.3280
  12        0.3291
  13        1.0324
  14        1.0352
  15        1.7343
  16        1.7357
  17        2.4358
  18        2.4372
  19        3.1210
  20        3.1239
  21        3.1374
  22        3.1386
  23        3.1403
  24        3.1414
  25        3.8285
  26        3.8288
  27        3.8299
  28        3.8301
  29        4.5273
  30        4.5273
  31        4.5287
  32        4.5288
  33        5.2012
  34        5.2023
  35        5.2041
  36        5.2051
  37        5.2056
  38        5.2070
  39        5.3608
  40        5.3638
  41        6.0318
  42        6.0348
  43        6.5702
  44        6.5729
  45        7.2715
  46        7.2716
  47        7.2730
  48        7.2731
  49        7.2805
  50        7.2820
  51        7.3189
  52        7.3215
  53        8.7217
  54        8.7247
  55        8.7863
  56        8.7892
  57        9.2817
  58        9.2817
  59        9.2834
  60        9.2834
  61        9.3962
  62        9.3985
  63       10.0013
  64       10.0044
  65       10.0687
  66       10.0710
  67       10.1305
  68       10.1318
  69       10.7090
  70       10.7092
  71       10.7446
  72       10.7614
 
  0.0000000E+00  0.5000000E+00  0.0000000E+00  0.9259259E-02
   1       -2.7819
   2       -2.7819
   3       -0.6278
   4       -0.6233
   5       -0.6228
   6       -0.6228
   7       -0.6228
   8       -0.6228
   9       -0.6223
  10       -0.6178
  11        1.4990
  12        1.5002
  13        1.5037
  14        1.5044
  15        1.5059
  16        1.5061
  17        1.5066
  18        1.5070
  19        1.5083
  20        1.5105
  21        3.5957
  22        3.5961
  23        3.5987
  24        3.5987
  25        3.5987
  26        3.5987
  27        3.6012
  28        3.6016
  29        5.1388
  30        5.1388
  31        5.1388
  32        5.1388
  33        5.6741
  34        5.6754
  35        5.6756
  36        5.6760
  37        5.6779
  38        5.6783
  39        5.6785
  40        5.6798
  41        6.3576
  42        6.3577
  43        6.3577
  44        6.3577
  45        7.1483
  46        7.1526
  47        7.1531
  48        7.1531
  49        7.1531
  50        7.1531
  51        7.1535
  52        7.1579
  53        8.4643
  54        8.4676
  55        8.4681
  56        8.4681
  57        8.4681
  58        8.4681
  59        8.4686
  60        8.4718
  61        9.1730
  62        9.1730
  63        9.1730
  64        9.1731
  65        9.9143
  66        9.9143
  67       10.4785
  68       10.4786
  69       10.4786
  70       10.4786
  71       11.1896
  72       11.1902
 
  0.1666667E+00  0.5000000E+00  0.0000000E+00  0.1851852E-01
   1       -2.7215
   2       -2.7215
   3       -1.2792
   4       -1.2792
   5       -0.5633
   6       -0.5632
   7       -0.5632
   8       -0.5632
   9        0.1490
  10        0.1490
  11        0.8589
  12        0.8589
  13        0.8589
  14        0.8589
  15        1.5591
  16        1.5591
  17        2.2675
  18        2.2675
  19        2.2675
  20        2.2675
  21        2.9607
  22        2.9607
  23        3.6565
  24        3.6565
  25        3.6565
  26        3.6565
  27        4.2868
  28        4.2868
  29        4.3485
  30        4.3485
  31        5.0455
  32        5.0456
  33        5.0456
  34        5.0456
  35        5.1947
  36        5.1947
  37        6.3429
  38        6.3429
  39        6.3429
  40        6.3429
  41        6.4142
  42        6.4143
  43        6.4200
  44        6.4200
  45        6.4201
  46        6.4203
  47        6.5370
  48        6.5370
  49        7.3137
  50        7.3137
  51        7.8389
  52        7.8389
  53        7.8818
  54        7.8818
  55        8.3836
  56        8.3836
  57        9.1982
  58        9.1983
  59        9.2291
  60        9.2291
  61        9.3801
  62        9.3801
  63        9.3801
  64        9.3801
  65        9.9692
  66        9.9692
  67       10.3958
  68       10.3959
  69       10.3959
  70       10.3959
  71       10.5375
  72       10.5669
 
  0.3333333E+00  0.5000000E+00  0.0000000E+00  0.1851852E-01
   1       -2.5405
   2       -2.5405
   3       -1.8184
   4       -1.8184
   5       -0.3848
   6       -0.3848
   7       -0.3848
   8       -0.3848
   9        0.3271
  10        0.3272
  11        0.3272
  12        0.3272
  13        1.0338
  14        1.0338
  15        1.7349
  16        1.7350
  17        2.4365
  18        2.4365
  19        3.1224
  20        3.1224
  21        3.1394
  22        3.1395
  23        3.1395
  24        3.1395
  25        3.8293
  26        3.8293
  27        3.8293
  28        3.8293
  29        4.5280
  30        4.5280
  31        4.5280
  32        4.5280
  33        5.2031
  34        5.2032
  35        5.2032
  36        5.2032
  37        5.2062
  38        5.2063
  39        5.3623
  40        5.3623
  41        6.0333
  42        6.0333
  43        6.5716
  44        6.5716
  45        7.2721
  46        7.2723
  47        7.2723
  48        7.2723
  49        7.2812
  50        7.2814
  51        7.3202
  52        7.3202
  53        8.7232
  54        8.7232
  55        8.7878
  56        8.7878
  57        9.2825
  58        9.2825
  59        9.2825
  60        9.2826
  61        9.3973
  62        9.3973
  63       10.0028
  64       10.0028
  65       10.0699
  66       10.0699
  67       10.1311
  68       10.1311
  69       10.7089
  70       10.7102
  71       10.7452
  72       10.7541
 
  0.5000000E+00  0.5000000E+00  0.0000000E+00  0.9259259E-02
   1       -2.2417
   2       -2.2395
   3       -2.2389
   4       -2.2368
   5       -0.0912
   6       -0.0892
   7       -0.0881
   8       -0.0880
   9       -0.0875
  10       -0.0873
  11       -0.0863
  12       -0.0843
  13        2.0239
  14        2.0257
  15        2.0273
  16        2.0276
  17        2.0277
  18        2.0280
  19        2.0296
  20        2.0315
  21        4.0622
  22        4.0637
  23        4.0644
  24        4.0649
  25        4.0649
  26        4.0654
  27        4.0661
  28        4.0675
  29        4.1767
  30        4.1767
  31        4.1777
  32        4.1785
  33        4.1785
  34        4.1794
  35        4.1804
  36        4.1804
  37        5.6391
  38        5.6415
  39        5.6421
  40        5.6445
  41        6.1536
  42        6.1548
  43        6.1552
  44        6.1563
  45        6.9270
  46        6.9283
  47        6.9294
  48        6.9307
  49        8.2278
  50        8.2288
  51        8.2288
  52        8.2293
  53        8.2300
  54        8.2304
  55        8.2305
  56        8.2314
  57        9.6722
  58        9.6759
  59        9.6773
  60        9.6775
  61        9.6776
  62        9.6779
  63        9.6792
  64        9.6830
  65       10.3671
  66       10.3684
  67       10.3697
  68       10.3701
  69       10.3704
  70       10.3707
  71       10.3720
  72       10.3733
 
  0.0000000E+00  0.1666667E+00  0.1666667E+00  0.1851852E-01
   1       -3.2054
   2       -1.7584
   3       -1.7584
   4       -1.0418
   5       -1.0386
   6       -0.3257
   7       -0.3257
   8       -0.3252
   9        0.3837
  10        0.3857
  11        0.3869
  12        0.3889
  13        1.0941
  14        1.0941
  15        1.7963
  16        1.7984
  17        1.7986
  18        1.7997
  19        1.8012
  20        1.8022
  21        2.5003
  22        3.1664
  23        3.1664
  24        3.2368
  25        3.2369
  26        3.8285
  27        3.8285
  28        4.5901
  29        4.5934
  30        4.7478
  31        5.1999
  32        5.1999
  33        5.8225
  34        5.8225
  35        5.9453
  36        5.9462
  37        5.9462
  38        6.0893
  39        6.0894
  40        6.5492
  41        6.5492
  42        6.8554
  43        6.8554
  44        7.2476
  45        7.2497
  46        7.2512
  47        7.2532
  48        7.3744
  49        7.3745
  50        7.4330
  51        7.4336
  52        7.4336
  53        8.1641
  54        8.1641
  55        8.6036
  56        8.6044
  57        8.6072
  58        8.6079
  59        8.7431
  60        8.7432
  61        8.7608
  62        8.7785
  63        8.7785
  64        8.8508
  65        8.8508
  66        9.1354
  67        9.1354
  68        9.6333
  69        9.6334
  70       10.1127
  71       10.1129
  72       10.1239
 
  0.1666667E+00  0.1666667E+00  0.1666667E+00  0.3703704E-01
   1       -3.1449
   2       -1.6999
   3       -1.6984
   4       -1.6969
   5       -0.2693
   6       -0.2665
   7       -0.2663
   8       -0.2657
   9       -0.2655
  10       -0.2628
  11        1.1499
  12        1.1520
  13        1.1527
  14        1.1530
  15        1.1538
  16        1.1540
  17        1.1564
  18        2.5565
  19        2.5582
  20        2.5590
  21        2.5598
  22        2.5602
  23        2.5616
  24        3.8851
  25        3.8858
  26        3.8864
  27        3.9557
  28        3.9564
  29        3.9572
  30        5.2533
  31        5.2547
  32        5.2560
  33        5.2560
  34        5.2572
  35        5.2587
  36        5.3396
  37        6.6203
  38        6.6206
  39        6.6221
  40        6.6222
  41        6.6231
  42        6.6237
  43        6.6259
  44        6.6274
  45        6.6289
  46        6.9122
  47        6.9129
  48        6.9136
  49        7.9832
  50        7.9840
  51        7.9850
  52        7.9850
  53        7.9861
  54        7.9869
  55        8.2872
  56        8.2877
  57        8.2888
  58        8.2888
  59        8.2899
  60        8.2904
  61        9.3361
  62        9.3369
  63        9.3378
  64        9.6688
  65        9.6695
  66        9.6703
  67        9.6948
  68        9.6963
  69        9.6970
  70        9.6970
  71        9.6978
  72        9.6992
 
  0.3333333E+00  0.1666667E+00  0.1666667E+00  0.3703704E-01
   1       -2.9633
   2       -2.2392
   3       -1.5186
   4       -1.5186
   5       -0.8015
   6       -0.8014
   7       -0.0882
   8       -0.0882
   9       -0.0876
  10        0.6196
  11        0.6223
  12        0.6228
  13        0.6239
  14        1.3295
  15        1.3295
  16        2.0310
  17        2.0316
  18        2.0341
  19        2.0347
  20        2.7161
  21        2.7337
  22        3.3914
  23        3.4291
  24        3.4292
  25        3.4742
  26        4.0577
  27        4.0577
  28        4.1049
  29        4.1049
  30        4.7438
  31        4.7438
  32        4.8204
  33        4.8204
  34        5.3859
  35        5.3859
  36        5.4889
  37        5.5282
  38        5.5282
  39        6.1160
  40        6.1160
  41        6.1972
  42        6.7948
  43        6.7949
  44        6.8582
  45        6.8583
  46        7.0847
  47        7.0847
  48        7.4385
  49        7.4385
  50        7.4759
  51        7.4760
  52        7.8164
  53        7.8164
  54        8.2193
  55        8.3989
  56        8.4731
  57        8.4731
  58        8.8290
  59        8.8290
  60        9.1604
  61        9.1605
  62        9.4923
  63        9.4923
  64        9.6251
  65        9.6251
  66        9.9906
  67        9.9906
  68       10.1767
  69       10.1767
  70       10.5004
  71       10.5060
  72       10.5108
 
  0.5000000E+00  0.1666667E+00  0.1666667E+00  0.1851852E-01
   1       -2.6626
   2       -2.6598
   3       -1.2218
   4       -1.2198
   5       -1.2190
   6       -1.2170
   7        0.2056
   8        0.2077
   9        0.2078
  10        0.2087
  11        0.2097
  12        0.2111
  13        1.6162
  14        1.6180
  15        1.6221
  16        1.6224
  17        1.6246
  18        1.6255
  19        3.0177
  20        3.0183
  21        3.0193
  22        3.0196
  23        3.0232
  24        3.0260
  25        4.3423
  26        4.3426
  27        4.3452
  28        4.3455
  29        4.4043
  30        4.4048
  31        4.4057
  32        4.4062
  33        4.4121
  34        4.4135
  35        5.7167
  36        5.7186
  37        5.7196
  38        5.7215
  39        5.7898
  40        5.7905
  41        5.7913
  42        5.7920
  43        7.0773
  44        7.0779
  45        7.0802
  46        7.0808
  47        7.1595
  48        7.1611
  49        7.3641
  50        7.3647
  51        7.3669
  52        7.3675
  53        8.4431
  54        8.4437
  55        8.4449
  56        8.4455
  57        8.7597
  58        8.7604
  59        8.7625
  60        8.7632
  61        9.7778
  62        9.7786
  63        9.7797
  64        9.7804
  65       10.0206
  66       10.0220
  67       10.0938
  68       10.0958
  69       10.0968
  70       10.0988
  71       11.0691
  72       11.0953
 
  0.0000000E+00  0.3333333E+00  0.1666667E+00  0.3703704E-01
   1       -3.0238
   2       -2.2994
   3       -1.5785
   4       -0.8633
   5       -0.8611
   6       -0.8590
   7       -0.1493
   8       -0.1473
   9       -0.1451
  10        0.5608
  11        0.5627
  12        0.5633
  13        0.5657
  14        1.2698
  15        1.2730
  16        1.9728
  17        1.9737
  18        1.9766
  19        2.6579
  20        2.6724
  21        2.6746
  22        2.6757
  23        2.6779
  24        3.3712
  25        4.0004
  26        4.0474
  27        4.0693
  28        4.0726
  29        4.6869
  30        4.7345
  31        4.7378
  32        4.9153
  33        5.4217
  34        5.4512
  35        5.4546
  36        5.5859
  37        6.0580
  38        6.0615
  39        6.1161
  40        6.1194
  41        6.1224
  42        6.2572
  43        6.7385
  44        6.7420
  45        6.8056
  46        6.9289
  47        7.0280
  48        7.4473
  49        7.4817
  50        7.4852
  51        7.5481
  52        7.6016
  53        7.7070
  54        8.2440
  55        8.2740
  56        8.2748
  57        8.3430
  58        8.8795
  59        9.0824