       N       E                     dE             d eps       ncg     rms          rms(c)
DAV:   1     0.112545494573E+03    0.11255E+03   -0.32209E+04  5760   0.103E+03
DAV:   2    -0.107297266401E+03   -0.21984E+03   -0.20389E+03  6800   0.134E+02
DAV:   3    -0.119826178584E+03   -0.12529E+02   -0.11943E+02  7232   0.255E+01
DAV:   4    -0.120060790249E+03   -0.23461E+00   -0.23264E+00  6720   0.377E+00
DAV:   5    -0.120063659337E+03   -0.28691E-02   -0.28676E-02  6784   0.491E-01    0.513E+00
DAV:   6    -0.119656445126E+03    0.40721E+00   -0.59753E-02  6616   0.749E-01    0.318E+00
DAV:   7    -0.119361751797E+03    0.29469E+00   -0.17613E-01  6320   0.120E+00    0.139E-01
DAV:   8    -0.119361744363E+03    0.74337E-05   -0.13686E-03  6856   0.134E-01    0.429E-02
DAV:   9    -0.119361765874E+03   -0.21511E-04   -0.48242E-05  6752   0.195E-02    0.347E-03
DAV:  10    -0.119361765197E+03    0.67742E-06   -0.20762E-06  6856   0.448E-03    0.195E-03
DAV:  11    -0.119361761630E+03    0.35669E-05   -0.18158E-07  6752   0.118E-03    0.695E-04
DAV:  12    -0.119361760604E+03    0.10260E-05   -0.20591E-08  4448   0.426E-04    0.144E-04
DAV:  13    -0.119361760366E+03    0.23816E-06   -0.33649E-09  3736   0.187E-04    0.283E-05
DAV:  14    -0.119361760367E+03   -0.16139E-08   -0.46400E-10  3672   0.740E-05
   1 F= -.11936176E+03 E0= -.11936073E+03  d E =-.205675E-02
