 vasp.4.6.28 25Jul05 complex 
 executed on             LinuxIFC date 2016.10.19  12:21:34
 running on    8 nodes
 distr:  one band on    1 nodes,    8 groups


--------------------------------------------------------------------------------------------------------


 INCAR:
 POTCAR:   PAW_PBE Al 04Jan2001                   
 POTCAR:   PAW_PBE Al 04Jan2001                   
   VRHFIN =Al: s2p1                                                             
   LEXCH  = PE                                                                  
   EATOM  =    53.5387 eV,    3.9350 Ry                                         
                                                                                
   TITEL  = PAW_PBE Al 04Jan2001                                                
   LULTRA =        F    use ultrasoft PP ?                                      
   IUNSCR =        1    unscreen: 0-lin 1-nonlin 2-no                           
   RPACOR =    1.500    partial core radius                                     
   POMASS =   26.982; ZVAL   =    3.000    mass and valenz                      
   RCORE  =    1.900    outmost cutoff radius                                   
   RWIGS  =    2.650; RWIGS  =    1.402    wigner-seitz radius (au A)           
   ENMAX  =  240.300; ENMIN  =  180.225 eV                                      
   ICORE  =        2    local potential                                         
   LCOR   =        T    correct aug charges                                     
   LPAW   =        T    paw PP                                                  
   EAUG   =  291.052                                                            
   DEXC   =    -.041                                                            
   RMAX   =    2.974    core radius for proj-oper                               
   RAUG   =    1.300    factor for augmentation sphere                          
   RDEP   =    1.966    radius for radial grids                                 
   QCUT   =   -4.203; QGAM   =    8.405    optimization parameters              
                                                                                
   Description                                                                  
     l     E      TYP  RCUT    TYP  RCUT                                        
     0   .000     23  1.900                                                     
     0   .000     23  1.900                                                     
     1   .000     23  1.900                                                     
     1  1.000     23  1.900                                                     
     2   .000      7  1.900                                                     
  local pseudopotential read in
  partial core-charges read in
  atomic valenz-charges read in
  non local Contribution for L=           0  read in
    real space projection operators read in
  non local Contribution for L=           0  read in
    real space projection operators read in
  non local Contribution for L=           1  read in
    real space projection operators read in
  non local Contribution for L=           1  read in
    real space projection operators read in
    PAW grid and wavefunctions read in
 
   number of l-projection  operators is LMAX  =           4
   number of lm-projection operators is LMMAX =           8
 

 ----------------------------------------------------------------------------- 
|                                                                             |
|  ADVICE TO THIS USER RUNNING 'VASP/VAMP'   (HEAR YOUR MASTER'S VOICE ...):  |
|                                                                             |
|      You have a (more or less) 'large supercell' and for larger cells       |
|      it might be more efficient to use real space projection operators      |
|      So try LREAL= Auto  in the INCAR   file.                               |
|      Mind: If you want to do an extremely accurate calculations keep the    |
|      reciprocal projection scheme          (i.e. LREAL=.FALSE.)             |
|                                                                             |
 ----------------------------------------------------------------------------- 

 PAW_PBE Al 04Jan2001                   :
 energy of atom  1       EATOM=  -53.5387
 kinetic energy error for atom=    0.0003 (will be added to EATOM!!)
 
 EXHCAR: internal setup
 exchange correlation table for  LEXCH =        8
   RHO(1)=    0.500       N(1)  =     2000
   RHO(2)=  100.500       N(2)  =     4000
 
 POSCAR: Al                                      
  positions in direct lattice
  No initial velocities read in
 


--------------------------------------------------------------------------------------------------------


 ion  position               nearest neighbor table
   1  0.251  0.250  0.000-  18 2.90  22 2.90  26 2.90  28 2.90   9 2.91  11 2.91  13 2.91  15 2.91
                            25 2.92  21 2.92  27 2.92  17 2.92
   2  0.750  0.250  0.000-  10 2.91  12 2.91  14 2.91  16 2.91  17 2.91  18 2.91  21 2.91  22 2.91
                            25 2.91  26 2.91  27 2.91  28 2.91
   3  0.250  0.750  0.000-   9 2.91  11 2.91  13 2.91  15 2.91  19 2.91  20 2.91  23 2.91  24 2.91
                            25 2.91  26 2.91  27 2.91  28 2.91
   4  0.750  0.750  0.000-  10 2.91  12 2.91  14 2.91  16 2.91  19 2.91  20 2.91  23 2.91  24 2.91
                            25 2.91  26 2.91  27 2.91  28 2.91
   5  0.250  0.250  0.500-   9 2.91  11 2.91  13 2.91  15 2.91  17 2.91  18 2.91  21 2.91  22 2.91
                            29 2.91  30 2.91  31 2.91  32 2.91
   6  0.750  0.250  0.500-  10 2.91  12 2.91  14 2.91  16 2.91  17 2.91  18 2.91  21 2.91  22 2.91
                            29 2.91  30 2.91  31 2.91  32 2.91
   7  0.250  0.750  0.500-   9 2.91  11 2.91  13 2.91  15 2.91  19 2.91  20 2.91  23 2.91  24 2.91
                            29 2.91  30 2.91  31 2.91  32 2.91
   8  0.750  0.750  0.500-  10 2.91  12 2.91  14 2.91  16 2.91  19 2.91  20 2.91  23 2.91  24 2.91
                            29 2.91  30 2.91  31 2.91  32 2.91
   9  0.250  0.000  0.250-   3 2.91   5 2.91   7 2.91  17 2.91  18 2.91  19 2.91  20 2.91  25 2.91
                            26 2.91  29 2.91  30 2.91   1 2.91
  10  0.750  0.000  0.250-   2 2.91   4 2.91   6 2.91   8 2.91  17 2.91  18 2.91  19 2.91  20 2.91
                            25 2.91  26 2.91  29 2.91  30 2.91
  11  0.250  0.500  0.250-   3 2.91   5 2.91   7 2.91  17 2.91  18 2.91  19 2.91  20 2.91  27 2.91
                            28 2.91  31 2.91  32 2.91   1 2.91
  12  0.750  0.500  0.250-   2 2.91   4 2.91   6 2.91   8 2.91  17 2.91  18 2.91  19 2.91  20 2.91
                            27 2.91  28 2.91  31 2.91  32 2.91
  13  0.250  0.000  0.750-   3 2.91   5 2.91   7 2.91  21 2.91  22 2.91  23 2.91  24 2.91  25 2.91
                            26 2.91  29 2.91  30 2.91   1 2.91
  14  0.750  0.000  0.750-   2 2.91   4 2.91   6 2.91   8 2.91  21 2.91  22 2.91  23 2.91  24 2.91
                            25 2.91  26 2.91  29 2.91  30 2.91
  15  0.250  0.500  0.750-   3 2.91   5 2.91   7 2.91  21 2.91  22 2.91  23 2.91  24 2.91  27 2.91
                            28 2.91  31 2.91  32 2.91   1 2.91
  16  0.750  0.500  0.750-   2 2.91   4 2.91   6 2.91   8 2.91  21 2.91  22 2.91  23 2.91  24 2.91
                            27 2.91  28 2.91  31 2.91  32 2.91
  17  0.000  0.250  0.250-   2 2.91   5 2.91   6 2.91   9 2.91  10 2.91  11 2.91  12 2.91  25 2.91
                            27 2.91  29 2.91  31 2.91   1 2.92
  18  0.500  0.250  0.250-   1 2.90   2 2.91   5 2.91   6 2.91   9 2.91  10 2.91  11 2.91  12 2.91
                            26 2.91  28 2.91  30 2.91  32 2.91
  19  0.000  0.750  0.250-   3 2.91   4 2.91   7 2.91   8 2.91   9 2.91  10 2.91  11 2.91  12 2.91
                            25 2.91  27 2.91  29 2.91  31 2.91
  20  0.500  0.750  0.250-   3 2.91   4 2.91   7 2.91   8 2.91   9 2.91  10 2.91  11 2.91  12 2.91
                            26 2.91  28 2.91  30 2.91  32 2.91
  21  0.000  0.250  0.750-   2 2.91   5 2.91   6 2.91  13 2.91  14 2.91  15 2.91  16 2.91  25 2.91
                            27 2.91  29 2.91  31 2.91   1 2.92
  22  0.500  0.250  0.750-   1 2.90   2 2.91   5 2.91   6 2.91  13 2.91  14 2.91  15 2.91  16 2.91
                            26 2.91  28 2.91  30 2.91  32 2.91
  23  0.000  0.750  0.750-   3 2.91   4 2.91   7 2.91   8 2.91  13 2.91  14 2.91  15 2.91  16 2.91
                            25 2.91  27 2.91  29 2.91  31 2.91
  24  0.500  0.750  0.750-   3 2.91   4 2.91   7 2.91   8 2.91  13 2.91  14 2.91  15 2.91  16 2.91
                            26 2.91  28 2.91  30 2.91  32 2.91
  25  0.000  0.000  0.000-   2 2.91   3 2.91   4 2.91   9 2.91  10 2.91  13 2.91  14 2.91  17 2.91
                            19 2.91  21 2.91  23 2.91   1 2.92
  26  0.500  0.000  0.000-   1 2.90   2 2.91   3 2.91   4 2.91   9 2.91  10 2.91  13 2.91  14 2.91
                            18 2.91  20 2.91  22 2.91  24 2.91
  27  0.000  0.500  0.000-   2 2.91   3 2.91   4 2.91  11 2.91  12 2.91  15 2.91  16 2.91  17 2.91
                            19 2.91  21 2.91  23 2.91   1 2.92
  28  0.500  0.500  0.000-   1 2.90   2 2.91   3 2.91   4 2.91  11 2.91  12 2.91  15 2.91  16 2.91
                            18 2.91  20 2.91  22 2.91  24 2.91
  29  0.000  0.000  0.500-   5 2.91   6 2.91   7 2.91   8 2.91   9 2.91  10 2.91  13 2.91  14 2.91
                            17 2.91  19 2.91  21 2.91  23 2.91
  30  0.500  0.000  0.500-   5 2.91   6 2.91   7 2.91   8 2.91   9 2.91  10 2.91  13 2.91  14 2.91
                            18 2.91  20 2.91  22 2.91  24 2.91
  31  0.000  0.500  0.500-   5 2.91   6 2.91   7 2.91   8 2.91  11 2.91  12 2.91  15 2.91  16 2.91
                            17 2.91  19 2.91  21 2.91  23 2.91
  32  0.500  0.500  0.500-   5 2.91   6 2.91   7 2.91   8 2.91  11 2.91  12 2.91  15 2.91  16 2.91
                            18 2.91  20 2.91  22 2.91  24 2.91
 
  LATTYP: Found a simple cubic cell.
 ALAT       =     8.2358877960
  
  Lattice vectors:
  
 A1 = (   8.2358877960,   0.0000000000,   0.0000000000)
 A2 = (   0.0000000000,   8.2358877960,   0.0000000000)
 A3 = (   0.0000000000,   0.0000000000,   8.2358877960)
 Subroutine PRICEL returns:
 Original cell was already a primitive cell.
 

Analysis of symmetry for initial positions (statically):

 Routine SETGRP: Setting up the symmetry group for a 
 simple cubic supercell.


 Subroutine GETGRP returns: Found  8 space group operations
 (whereof  2 operations were pure point group operations)
 out of a pool of 48 trial point group operations.


The static configuration has the point symmetry C_1h.
 The point group associated with its full space group is C_4v.

Analysis of symmetry for dynamics (positions and initial velocities):

 Subroutine DYNSYM returns: Found  8 space group operations
 (whereof  2 operations were pure point group operations)
 out of a pool of  8 trial space group operations
 (whereof  2 operations were pure point group operations)
 and found also     1 'primitive' translations


The dynamic configuration has the point symmetry C_1h.
 The point group associated with its full space group is C_4v.
 
 
 KPOINTS: Automatic mesh                          

Automatic generation of k-mesh.
 generate k-points for:   6   6   6
 
 Subroutine IBZKPT returns following result:
 ===========================================
 
 Found     40 irreducible k-points:
 
 Following reciprocal coordinates:
            Coordinates               Weight
  0.000000  0.000000  0.000000      1.000000
  0.166667  0.000000  0.000000      2.000000
  0.333333  0.000000  0.000000      2.000000
  0.500000  0.000000  0.000000      1.000000
  0.000000  0.166667  0.000000      4.000000
  0.166667  0.166667  0.000000      8.000000
  0.333333  0.166667  0.000000      8.000000
  0.500000  0.166667  0.000000      4.000000
  0.000000  0.333333  0.000000      4.000000
  0.166667  0.333333  0.000000      8.000000
  0.333333  0.333333  0.000000      8.000000
  0.500000  0.333333  0.000000      4.000000
  0.000000  0.500000  0.000000      2.000000
  0.166667  0.500000  0.000000      4.000000
  0.333333  0.500000  0.000000      4.000000
  0.500000  0.500000  0.000000      2.000000
  0.000000  0.166667  0.166667      4.000000
  0.166667  0.166667  0.166667      8.000000
  0.333333  0.166667  0.166667      8.000000
  0.500000  0.166667  0.166667      4.000000
  0.000000  0.333333  0.166667      8.000000
  0.166667  0.333333  0.166667     16.000000
  0.333333  0.333333  0.166667     16.000000
  0.500000  0.333333  0.166667      8.000000
  0.000000  0.500000  0.166667      4.000000
  0.166667  0.500000  0.166667      8.000000
  0.333333  0.500000  0.166667      8.000000
  0.500000  0.500000  0.166667      4.000000
  0.000000  0.333333  0.333333      4.000000
  0.166667  0.333333  0.333333      8.000000
  0.333333  0.333333  0.333333      8.000000
  0.500000  0.333333  0.333333      4.000000
  0.000000  0.500000  0.333333      4.000000
  0.166667  0.500000  0.333333      8.000000
  0.333333  0.500000  0.333333      8.000000
  0.500000  0.500000  0.333333      4.000000
  0.000000  0.500000  0.500000      1.000000
  0.166667  0.500000  0.500000      2.000000
  0.333333  0.500000  0.500000      2.000000
  0.500000  0.500000  0.500000      1.000000
 
 Following cartesian coordinates:
            Coordinates               Weight
  0.000000  0.000000  0.000000      1.000000
  0.020237  0.000000  0.000000      2.000000
  0.040473  0.000000  0.000000      2.000000
  0.060710  0.000000  0.000000      1.000000
  0.000000  0.020237  0.000000      4.000000
  0.020237  0.020237  0.000000      8.000000
  0.040473  0.020237  0.000000      8.000000
  0.060710  0.020237  0.000000      4.000000
  0.000000  0.040473  0.000000      4.000000
  0.020237  0.040473  0.000000      8.000000
  0.040473  0.040473  0.000000      8.000000
  0.060710  0.040473  0.000000      4.000000
  0.000000  0.060710  0.000000      2.000000
  0.020237  0.060710  0.000000      4.000000
  0.040473  0.060710  0.000000      4.000000
  0.060710  0.060710  0.000000      2.000000
  0.000000  0.020237  0.020237      4.000000
  0.020237  0.020237  0.020237      8.000000
  0.040473  0.020237  0.020237      8.000000
  0.060710  0.020237  0.020237      4.000000
  0.000000  0.040473  0.020237      8.000000
  0.020237  0.040473  0.020237     16.000000
  0.040473  0.040473  0.020237     16.000000
  0.060710  0.040473  0.020237      8.000000
  0.000000  0.060710  0.020237      4.000000
  0.020237  0.060710  0.020237      8.000000
  0.040473  0.060710  0.020237      8.000000
  0.060710  0.060710  0.020237      4.000000
  0.000000  0.040473  0.040473      4.000000
  0.020237  0.040473  0.040473      8.000000
  0.040473  0.040473  0.040473      8.000000
  0.060710  0.040473  0.040473      4.000000
  0.000000  0.060710  0.040473      4.000000
  0.020237  0.060710  0.040473      8.000000
  0.040473  0.060710  0.040473      8.000000
  0.060710  0.060710  0.040473      4.000000
  0.000000  0.060710  0.060710      1.000000
  0.020237  0.060710  0.060710      2.000000
  0.040473  0.060710  0.060710      2.000000
  0.060710  0.060710  0.060710      1.000000
 


--------------------------------------------------------------------------------------------------------




 Dimension of arrays:
   k-Points           NKPTS =     40   number of bands    NBANDS=     72
   number of dos      NEDOS =    301   number of ions     NIONS =     32
   non local maximal  LDIM  =      4   non local SUM 2l+1 LMDIM =      8
   total plane-waves  NPLWV = 216000
   max r-space proj   IRMAX =      1   max aug-charges    IRDMAX=  15246
   dimension x,y,z NGX =    60 NGY =   60 NGZ =   60
   dimension x,y,z NGXF=   120 NGYF=  120 NGZF=  120
   support grid    NGXF=   120 NGYF=  120 NGZF=  120
   ions per type =              32
 NGX,Y,Z   is equivalent  to a cutoff of  12.11, 12.11, 12.11 a.u.
 NGXF,Y,Z  is equivalent  to a cutoff of  24.22, 24.22, 24.22 a.u.


 I would recommend the setting:
   dimension x,y,z NGX =    60 NGY =   60 NGZ =   60
 SYSTEM =  unknown system                          
 POSCAR =  Al                                      

 Startparameter for this run:
   NWRITE =      2    write-flag & timer
   PREC   = accura    medium, high low
   ISTART =      0    job   : 0-new  1-cont  2-samecut
   ICHARG =      2    charge: 1-file 2-atom 10-const
   ISPIN  =      1    spin polarized calculation?
   LNONCOLLINEAR =      F non collinear calculations
   LSORBIT =      F    spin-orbit coupling
   INIWAV =      1    electr: 0-lowe 1-rand  2-diag
   LASPH  =      F    aspherical Exc in radial PAW
   METAGGA=      F    non-selfconsistent MetaGGA calc.

 Electronic Relaxation 1
   ENCUT  =  500.0 eV  36.75 Ry    6.06 a.u.  15.02 15.02 15.02*2*pi/ulx,y,z
   ENINI  =  500.0     initial cutoff
   ENAUG  =  291.1 eV  augmentation charge cutoff
   NELM   =     60;   NELMIN=  2; NELMDL= -5     # of ELM steps 
   EDIFF  = 0.1E-07   stopping-criterion for ELM
   LREAL  =      F    real-space projection
   LCOMPAT=      F    compatible to vasp.4.4
   LREAL_COMPAT= F    compatible to vasp.4.5.1-3
   GGA_COMPAT  = T    GGA compatible to vasp.4.4-vasp.4.6
   LMAXPAW     = -100 max onsite density
   LMAXMIX     =    2 max onsite mixed and CHGCAR
   VOSKOWN=      0    Vosko Wilk Nusair interpolation
   ROPT   =    0.00000
 Ionic relaxation
   EDIFFG = 0.1E-06   stopping-criterion for IOM
   NSW    =      0    number of steps for IOM
   NBLOCK =      1;   KBLOCK =      1    inner block; outer block 
   IBRION =     -1    ionic relax: 0-MD 1-quasi-New 2-CG
   NFREE  =      0    steps in history (QN), initial steepest desc. (CG)
   ISIF   =      2    stress and relaxation
   IWAVPR =     10    prediction:  0-non 1-charg 2-wave 3-comb
   ISYM   =      2    0-nonsym 1-usesym 2-fastsym
   LCORR  =      T    Harris-Foulkes like correction to forces

   POTIM  =   0.50    time-step for ionic-motion
   TEIN   =    0.0    initial temperature
   TEBEG  =    0.0;   TEEND  =   0.0 temperature during run
   SMASS  =  -3.00    Nose mass-parameter (am)
   estimated Nose-frequenzy (Omega)   =  0.10E-29 period in steps =****** mass=  -0.155E-26a.u.
   NPACO  =    256;   APACO  = 16.0  distance and # of slots for P.C.
   PSTRESS=    0.0 pullay stress

  Mass of Ions in am
   POMASS =  26.98
  Ionic Valenz
   ZVAL   =   3.00
  Atomic Wigner-Seitz radii
   RWIGS  =  -1.00
   NELECT =      96.0000    total number of electrons
   NUPDOWN=      -1.0000    fix difference up-down

 DOS related values:
   EMIN   =  10.00;   EMAX   =-10.00  energy-range for DOS
   ISMEAR =     0;   SIGMA  =   0.01  broadening in eV -4-tet -1-fermi 0-gaus

 Electronic relaxation 2 (details)
   IALGO  =     38    algorithm
   LDIAG  =      T    sub-space diagonalisation
   IMIX   =      4    mixing-type and parameters
     AMIX     =   0.40;   BMIX     =  1.00
     AMIX_MAG =   1.60;   BMIX_MAG =  1.00
     AMIN     =   0.10
     WC   =   100.;   INIMIX=   1;  MIXPRE=   1

 Intra band minimization:
   WEIMIN = 0.0000     energy-eigenvalue tresh-hold
   EBREAK =  0.38E-10  absolut break condition
   DEPER  =   0.30     relativ break condition  

   TIME   =   0.10     timestep for ELM

  volume/ion in A,a.u.               =      17.46       117.81
  Fermi-wavevector in a.u.,eV,Ry     =   0.910168 11.271141  0.828406

 Second variation
   LSECVAR=     F    do a second variation
 
 Write flags
   LWAVE  =      F    write WAVECAR
   LCHARG =      F    write CHGCAR
   LVTOT  =      F    write LOCPOT, local potential
   LELF   =      F    write electronic localiz. function (ELF)
   LORBIT =      0    0 simple, 1 ext, 2 COOP (PROOUT)


 Dipole corrections
   IDIPOL =      0    1-x, 2-y, 3-z
   LDIPOL =      F    correct potential



--------------------------------------------------------------------------------------------------------


 Static calculation
 charge density will be updated during run
 non-spin polarized calculation
 Variant of blocked Davidson
 Davidson routine will perform the subspace rotation
 performe sub-space diagonalisation
    after iterative eigenvector-optimisation
 modified Broyden-mixing scheme, WC =      100.0
 initial mixing is a Kerker type mixing with AMIX =  0.4000 and BMIX =      1.0000
 Hartree-type preconditioning will be used
 using additional bands           24
 reciprocal scheme for non local part
 use partial core corrections
 calculate Harris-corrections to forces 
   (improved forces if not selfconsistent)
 use gradient corrections 
 use of overlap-Matrix (Vanderbilt PP)
 Gauss-broadening in eV      SIGMA  =   0.01


--------------------------------------------------------------------------------------------------------


  energy-cutoff  :      500.00
  volume of cell :      558.64
      direct lattice vectors                 reciprocal lattice vectors
     8.235887796  0.000000000  0.000000000     0.121419818  0.000000000  0.000000000
     0.000000000  8.235887796  0.000000000     0.000000000  0.121419818  0.000000000
     0.000000000  0.000000000  8.235887796     0.000000000  0.000000000  0.121419818

  length of vectors
     8.235887796  8.235887796  8.235887796     0.121419818  0.121419818  0.121419818


 
 k-points in units of 2pi/SCALE and weight: Automatic mesh                          
   0.00000000  0.00000000  0.00000000       0.005
   0.02023664  0.00000000  0.00000000       0.009
   0.04047327  0.00000000  0.00000000       0.009
   0.06070991  0.00000000  0.00000000       0.005
   0.00000000  0.02023664  0.00000000       0.019
   0.02023664  0.02023664  0.00000000       0.037
   0.04047327  0.02023664  0.00000000       0.037
   0.06070991  0.02023664  0.00000000       0.019
   0.00000000  0.04047327  0.00000000       0.019
   0.02023664  0.04047327  0.00000000       0.037
   0.04047327  0.04047327  0.00000000       0.037
   0.06070991  0.04047327  0.00000000       0.019
   0.00000000  0.06070991  0.00000000       0.009
   0.02023664  0.06070991  0.00000000       0.019
   0.04047327  0.06070991  0.00000000       0.019
   0.06070991  0.06070991  0.00000000       0.009
   0.00000000  0.02023664  0.02023664       0.019
   0.02023664  0.02023664  0.02023664       0.037
   0.04047327  0.02023664  0.02023664       0.037
   0.06070991  0.02023664  0.02023664       0.019
   0.00000000  0.04047327  0.02023664       0.037
   0.02023664  0.04047327  0.02023664       0.074
   0.04047327  0.04047327  0.02023664       0.074
   0.06070991  0.04047327  0.02023664       0.037
   0.00000000  0.06070991  0.02023664       0.019
   0.02023664  0.06070991  0.02023664       0.037
   0.04047327  0.06070991  0.02023664       0.037
   0.06070991  0.06070991  0.02023664       0.019
   0.00000000  0.04047327  0.04047327       0.019
   0.02023664  0.04047327  0.04047327       0.037
   0.04047327  0.04047327  0.04047327       0.037
   0.06070991  0.04047327  0.04047327       0.019
   0.00000000  0.06070991  0.04047327       0.019
   0.02023664  0.06070991  0.04047327       0.037
   0.04047327  0.06070991  0.04047327       0.037
   0.06070991  0.06070991  0.04047327       0.019
   0.00000000  0.06070991  0.06070991       0.005
   0.02023664  0.06070991  0.06070991       0.009
   0.04047327  0.06070991  0.06070991       0.009
   0.06070991  0.06070991  0.06070991       0.005
 
 k-points in reciprocal lattice and weights: Automatic mesh                          
   0.00000000  0.00000000  0.00000000       0.005
   0.16666667  0.00000000  0.00000000       0.009
   0.33333333  0.00000000  0.00000000       0.009
   0.50000000  0.00000000  0.00000000       0.005
   0.00000000  0.16666667  0.00000000       0.019
   0.16666667  0.16666667  0.00000000       0.037
   0.33333333  0.16666667  0.00000000       0.037
   0.50000000  0.16666667  0.00000000       0.019
   0.00000000  0.33333333  0.00000000       0.019
   0.16666667  0.33333333  0.00000000       0.037
   0.33333333  0.33333333  0.00000000       0.037
   0.50000000  0.33333333  0.00000000       0.019
   0.00000000  0.50000000  0.00000000       0.009
   0.16666667  0.50000000  0.00000000       0.019
   0.33333333  0.50000000  0.00000000       0.019
   0.50000000  0.50000000  0.00000000       0.009
   0.00000000  0.16666667  0.16666667       0.019
   0.16666667  0.16666667  0.16666667       0.037
   0.33333333  0.16666667  0.16666667       0.037
   0.50000000  0.16666667  0.16666667       0.019
   0.00000000  0.33333333  0.16666667       0.037
   0.16666667  0.33333333  0.16666667       0.074
   0.33333333  0.33333333  0.16666667       0.074
   0.50000000  0.33333333  0.16666667       0.037
   0.00000000  0.50000000  0.16666667       0.019
   0.16666667  0.50000000  0.16666667       0.037
   0.33333333  0.50000000  0.16666667       0.037
   0.50000000  0.50000000  0.16666667       0.019
   0.00000000  0.33333333  0.33333333       0.019
   0.16666667  0.33333333  0.33333333       0.037
   0.33333333  0.33333333  0.33333333       0.037
   0.50000000  0.33333333  0.33333333       0.019
   0.00000000  0.50000000  0.33333333       0.019
   0.16666667  0.50000000  0.33333333       0.037
   0.33333333  0.50000000  0.33333333       0.037
   0.50000000  0.50000000  0.33333333       0.019
   0.00000000  0.50000000  0.50000000       0.005
   0.16666667  0.50000000  0.50000000       0.009
   0.33333333  0.50000000  0.50000000       0.009
   0.50000000  0.50000000  0.50000000       0.005
 
 position of ions in fractional coordinates (direct lattice) 
   0.25121420  0.25000000  0.00000000
   0.75000000  0.25000000  0.00000000
   0.25000000  0.75000000  0.00000000
   0.75000000  0.75000000  0.00000000
   0.25000000  0.25000000  0.50000000
   0.75000000  0.25000000  0.50000000
   0.25000000  0.75000000  0.50000000
   0.75000000  0.75000000  0.50000000
   0.25000000  0.00000000  0.25000000
   0.75000000  0.00000000  0.25000000
   0.25000000  0.50000000  0.25000000
   0.75000000  0.50000000  0.25000000
   0.25000000  0.00000000  0.75000000
   0.75000000  0.00000000  0.75000000
   0.25000000  0.50000000  0.75000000
   0.75000000  0.50000000  0.75000000
   0.00000000  0.25000000  0.25000000
   0.50000000  0.25000000  0.25000000
   0.00000000  0.75000000  0.25000000
   0.50000000  0.75000000  0.25000000
   0.00000000  0.25000000  0.75000000
   0.50000000  0.25000000  0.75000000
   0.00000000  0.75000000  0.75000000
   0.50000000  0.75000000  0.75000000
   0.00000000  0.00000000  0.00000000
   0.50000000  0.00000000  0.00000000
   0.00000000  0.50000000  0.00000000
   0.50000000  0.50000000  0.00000000
   0.00000000  0.00000000  0.50000000
   0.50000000  0.00000000  0.50000000
   0.00000000  0.50000000  0.50000000
   0.50000000  0.50000000  0.50000000
 
 position of ions in cartesian coordinates  (Angst):
   2.06897195  2.05897195  0.00000000
   6.17691585  2.05897195  0.00000000
   2.05897195  6.17691585  0.00000000
   6.17691585  6.17691585  0.00000000
   2.05897195  2.05897195  4.11794390
   6.17691585  2.05897195  4.11794390
   2.05897195  6.17691585  4.11794390
   6.17691585  6.17691585  4.11794390
   2.05897195  0.00000000  2.05897195
   6.17691585  0.00000000  2.05897195
   2.05897195  4.11794390  2.05897195
   6.17691585  4.11794390  2.05897195
   2.05897195  0.00000000  6.17691585
   6.17691585  0.00000000  6.17691585
   2.05897195  4.11794390  6.17691585
   6.17691585  4.11794390  6.17691585
   0.00000000  2.05897195  2.05897195
   4.11794390  2.05897195  2.05897195
   0.00000000  6.17691585  2.05897195
   4.11794390  6.17691585  2.05897195
   0.00000000  2.05897195  6.17691585
   4.11794390  2.05897195  6.17691585
   0.00000000  6.17691585  6.17691585
   4.11794390  6.17691585  6.17691585
   0.00000000  0.00000000  0.00000000
   4.11794390  0.00000000  0.00000000
   0.00000000  4.11794390  0.00000000
   4.11794390  4.11794390  0.00000000
   0.00000000  0.00000000  4.11794390
   4.11794390  0.00000000  4.11794390
   0.00000000  4.11794390  4.11794390
   4.11794390  4.11794390  4.11794390
 


--------------------------------------------------------------------------------------------------------


 k-point  1 :  0.00000.00000.0000  plane waves:  14147
 k-point  2 :  0.16670.00000.0000  plane waves:  14154
 k-point  3 :  0.33330.00000.0000  plane waves:  14226
 k-point  4 :  0.50000.00000.0000  plane waves:  14190
 k-point  5 :  0.00000.16670.0000  plane waves:  14154
 k-point  6 :  0.16670.16670.0000  plane waves:  14167
 k-point  7 :  0.33330.16670.0000  plane waves:  14179
 k-point  8 :  0.50000.16670.0000  plane waves:  14176
 k-point  9 :  0.00000.33330.0000  plane waves:  14226
 k-point 10 :  0.16670.33330.0000  plane waves:  14179
 k-point 11 :  0.33330.33330.0000  plane waves:  14163
 k-point 12 :  0.50000.33330.0000  plane waves:  14156
 k-point 13 :  0.00000.50000.0000  plane waves:  14190
 k-point 14 :  0.16670.50000.0000  plane waves:  14176
 k-point 15 :  0.33330.50000.0000  plane waves:  14156
 k-point 16 :  0.50000.50000.0000  plane waves:  14108
 k-point 17 :  0.00000.16670.1667  plane waves:  14167
 k-point 18 :  0.16670.16670.1667  plane waves:  14192
 k-point 19 :  0.33330.16670.1667  plane waves:  14175
 k-point 20 :  0.50000.16670.1667  plane waves:  14180
 k-point 21 :  0.00000.33330.1667  plane waves:  14179
 k-point 22 :  0.16670.33330.1667  plane waves:  14175
 k-point 23 :  0.33330.33330.1667  plane waves:  14203
 k-point 24 :  0.50000.33330.1667  plane waves:  14190
 k-point 25 :  0.00000.50000.1667  plane waves:  14176
 k-point 26 :  0.16670.50000.1667  plane waves:  14180
 k-point 27 :  0.33330.50000.1667  plane waves:  14190
 k-point 28 :  0.50000.50000.1667  plane waves:  14200
 k-point 29 :  0.00000.33330.3333  plane waves:  14163
 k-point 30 :  0.16670.33330.3333  plane waves:  14203
 k-point 31 :  0.33330.33330.3333  plane waves:  14205
 k-point 32 :  0.50000.33330.3333  plane waves:  14212
 k-point 33 :  0.00000.50000.3333  plane waves:  14156
 k-point 34 :  0.16670.50000.3333  plane waves:  14190
 k-point 35 :  0.33330.50000.3333  plane waves:  14212
 k-point 36 :  0.50000.50000.3333  plane waves:  14188
 k-point 37 :  0.00000.50000.5000  plane waves:  14108
 k-point 38 :  0.16670.50000.5000  plane waves:  14200
 k-point 39 :  0.33330.50000.5000  plane waves:  14188
 k-point 40 :  0.50000.50000.5000  plane waves:  14328

 maximum and minimum number of plane-waves per node :  14328 14108

 maximum number of plane-waves:  14328
 maximal index in each direction: 
   IXMAX= 15   IYMAX= 15   IZMAX= 15
   IXMIN=-15   IYMIN=-15   IZMIN=-15

 WARNING: wrap around error must be expected set NGX to  62
 WARNING: wrap around error must be expected set NGY to  62
 WARNING: wrap around error must be expected set NGZ to  62

 parallel 3dFFT wavefunction:
    minimum data exchange during FFTs selected (reduces bandwidth)
 parallel 3dFFT charge:
    minimum data exchange during FFTs selected (reduces bandwidth)

 For storing wavefunctions  653.54 MBYTES are necessary
 For predicting wavefunctions   36.30 MBYTES are necessary
Broyden mixing: mesh for mixing (old mesh)
   NGX = 31   NGY = 31   NGZ = 31
  (NGX  =120   NGY  =120   NGZ  =120)
 gives a total of  29791 points
 initial charge density was supplied:
 charge density of overlapping atoms calculated
 number of electron   96.0000000 magnetization 
 keeping initial charge density in first step


--------------------------------------------------------------------------------------------------------


 Maximum index for augmentation-charges         1900 (set IRDMAX)


--------------------------------------------------------------------------------------------------------


 First call to EWALD:  gamma=   0.215
 Maximum number of real-space cells 3x 3x 3
 Maximum number of reciprocal cells 3x 3x 3

    FEWALD:  VPU time    0.00: CPU time    0.00


----------------------------------------- Iteration    1(   1)  ---------------------------------------


    POTLOK:  VPU time    0.13: CPU time    0.13
    SETDIJ:  VPU time    0.01: CPU time    0.01
    EDDAV :  VPU time   20.12: CPU time   20.17
    DOS   :  VPU time    0.00: CPU time   -0.00
    ------------------------------------------
      LOOP:  VPU time   20.26: CPU time   20.31

 eigenvalue-minimisations  :  5760
 total energy-change (2. order) : 0.1125455E+03  (-0.3220863E+04)
 number of electron   96.0000000 magnetization 
 augmentation part    96.0000000 magnetization 

 Free energy of the ion-electron system (eV)
  ---------------------------------------------------
  alpha Z        PSCENC =        -6.15679069
  Ewald energy   TEWEN  =     -2308.68235103
  -1/2 Hartree   DENC   =        -4.02899106
  -V(xc)+E(xc)   XCENC  =      -842.88575012
  PAW double counting   =      1137.73615723     -115.16745734
  entropy T*S    EENTRO =        -0.00030456
  eigenvalues    EBANDS =       538.50184995
  atomic energy  EATOM  =      1713.22913220
  ---------------------------------------------------
  free energy    TOTEN  =       112.54549457 eV

  energy without entropy =      112.54579914  energy(sigma->0) =      112.54564685


--------------------------------------------------------------------------------------------------------




----------------------------------------- Iteration    1(   2)  ---------------------------------------


    EDDAV :  VPU time   22.64: CPU time   22.69
    DOS   :  VPU time    0.00: CPU time   -0.00
    ------------------------------------------
      LOOP:  VPU time   22.65: CPU time   22.70

 eigenvalue-minimisations  :  6800
 total energy-change (2. order) :-0.2198428E+03  (-0.2038891E+03)
 number of electron   96.0000000 magnetization 
 augmentation part    96.0000000 magnetization 

 Free energy of the ion-electron system (eV)
  ---------------------------------------------------
  alpha Z        PSCENC =        -6.15679069
  Ewald energy   TEWEN  =     -2308.68235103
  -1/2 Hartree   DENC   =        -4.02899106
  -V(xc)+E(xc)   XCENC  =      -842.88575012
  PAW double counting   =      1137.73615723     -115.16745734
  entropy T*S    EENTRO =        -0.00114574
  eigenvalues    EBANDS =       318.65993015
  atomic energy  EATOM  =      1713.22913220
  ---------------------------------------------------
  free energy    TOTEN  =      -107.29726640 eV

  energy without entropy =     -107.29612066  energy(sigma->0) =     -107.29669353


--------------------------------------------------------------------------------------------------------




----------------------------------------- Iteration    1(   3)  ---------------------------------------


    EDDAV :  VPU time   23.70: CPU time   23.76
    DOS   :  VPU time    0.00: CPU time   -0.00
    ------------------------------------------
      LOOP:  VPU time   23.70: CPU time   23.76

 eigenvalue-minimisations  :  7232
 total energy-change (2. order) :-0.1252891E+02  (-0.1194324E+02)
 number of electron   96.0000000 magnetization 
 augmentation part    96.0000000 magnetization 

 Free energy of the ion-electron system (eV)
  ---------------------------------------------------
  alpha Z        PSCENC =        -6.15679069
  Ewald energy   TEWEN  =     -2308.68235103
  -1/2 Hartree   DENC   =        -4.02899106
  -V(xc)+E(xc)   XCENC  =      -842.88575012
  PAW double counting   =      1137.73615723     -115.16745734
  entropy T*S    EENTRO =        -0.00155436
  eigenvalues    EBANDS =       306.13142658
  atomic energy  EATOM  =      1713.22913220
  ---------------------------------------------------
  free energy    TOTEN  =      -119.82617858 eV

  energy without entropy =     -119.82462423  energy(sigma->0) =     -119.82540141


--------------------------------------------------------------------------------------------------------




----------------------------------------- Iteration    1(   4)  ---------------------------------------


    EDDAV :  VPU time   22.47: CPU time   22.51
    DOS   :  VPU time    0.00: CPU time   -0.00
    ------------------------------------------
      LOOP:  VPU time   22.48: CPU time   22.51

 eigenvalue-minimisations  :  6720
 total energy-change (2. order) :-0.2346117E+00  (-0.2326368E+00)
 number of electron   96.0000000 magnetization 
 augmentation part    96.0000000 magnetization 

 Free energy of the ion-electron system (eV)
  ---------------------------------------------------
  alpha Z        PSCENC =        -6.15679069
  Ewald energy   TEWEN  =     -2308.68235103
  -1/2 Hartree   DENC   =        -4.02899106
  -V(xc)+E(xc)   XCENC  =      -842.88575012
  PAW double counting   =      1137.73615723     -115.16745734
  entropy T*S    EENTRO =        -0.00194144
  eigenvalues    EBANDS =       305.89720201
  atomic energy  EATOM  =      1713.22913220
  ---------------------------------------------------
  free energy    TOTEN  =      -120.06079025 eV

  energy without entropy =     -120.05884881  energy(sigma->0) =     -120.05981953


--------------------------------------------------------------------------------------------------------




----------------------------------------- Iteration    1(   5)  ---------------------------------------


    EDDAV :  VPU time   22.59: CPU time   22.63
    DOS   :  VPU time    0.00: CPU time   -0.00
    CHARGE:  VPU time    1.32: CPU time    1.32
    MIXING:  VPU time    0.00: CPU time    0.00
    ------------------------------------------
      LOOP:  VPU time   23.91: CPU time   23.95

 eigenvalue-minimisations  :  6784
 total energy-change (2. order) :-0.2869088E-02  (-0.2867605E-02)
 number of electron   95.9999996 magnetization 
 augmentation part    -1.2312746 magnetization 

 Broyden mixing:
  rms(total) = 0.51318E+00    rms(broyden)= 0.51318E+00
  rms(prec ) = 0.74644E+00
  weight for this iteration     100.00

 Free energy of the ion-electron system (eV)
  ---------------------------------------------------
  alpha Z        PSCENC =        -6.15679069
  Ewald energy   TEWEN  =     -2308.68235103
  -1/2 Hartree   DENC   =        -4.02899106
  -V(xc)+E(xc)   XCENC  =      -842.88575012
  PAW double counting   =      1137.73615723     -115.16745734
  entropy T*S    EENTRO =        -0.00194345
  eigenvalues    EBANDS =       305.89433493
  atomic energy  EATOM  =      1713.22913220
  ---------------------------------------------------
  free energy    TOTEN  =      -120.06365934 eV

  energy without entropy =     -120.06171589  energy(sigma->0) =     -120.06268761


--------------------------------------------------------------------------------------------------------




----------------------------------------- Iteration    1(   6)  ---------------------------------------


    POTLOK:  VPU time    0.13: CPU time    0.13
    SETDIJ:  VPU time    0.01: CPU time    0.01
    EDDAV :  VPU time   22.23: CPU time   22.27
    DOS   :  VPU time    0.00: CPU time   -0.00
    CHARGE:  VPU time    1.31: CPU time    1.31
    MIXING:  VPU time    0.00: CPU time    0.00
    ------------------------------------------
      LOOP:  VPU time   23.69: CPU time   23.74

 eigenvalue-minimisations  :  6616
 total energy-change (2. order) : 0.4072142E+00  (-0.5975329E-02)
 number of electron   95.9999996 magnetization 
 augmentation part    -1.2498252 magnetization 

 Broyden mixing:
  rms(total) = 0.31846E+00    rms(broyden)= 0.31846E+00
  rms(prec ) = 0.46482E+00
  weight for this iteration     100.00

 eigenvalues of (default mixing * dielectric matrix)
  average eigenvalue GAMMA=   2.6256
  2.6256

 Free energy of the ion-electron system (eV)
  ---------------------------------------------------
  alpha Z        PSCENC =        -6.15679069
  Ewald energy   TEWEN  =     -2308.68235103
  -1/2 Hartree   DENC   =        -3.13145748
  -V(xc)+E(xc)   XCENC  =      -841.91117495
  PAW double counting   =      1136.64405133     -114.06901268
  entropy T*S    EENTRO =        -0.00208752
  eigenvalues    EBANDS =       304.42324569
  atomic energy  EATOM  =      1713.22913220
  ---------------------------------------------------
  free energy    TOTEN  =      -119.65644513 eV

  energy without entropy =     -119.65435761  energy(sigma->0) =     -119.65540137


--------------------------------------------------------------------------------------------------------




----------------------------------------- Iteration    1(   7)  ---------------------------------------


    POTLOK:  VPU time    0.17: CPU time    0.17
    SETDIJ:  VPU time    0.01: CPU time    0.01
    EDDAV :  VPU time   21.48: CPU time   21.52
    DOS   :  VPU time   -0.00: CPU time   -0.00
    CHARGE:  VPU time    1.31: CPU time    1.32
    MIXING:  VPU time    0.00: CPU time    0.00
    ------------------------------------------
      LOOP:  VPU time   22.97: CPU time   23.02

 eigenvalue-minimisations  :  6320
 total energy-change (2. order) : 0.2946933E+00  (-0.1761290E-01)
 number of electron   95.9999996 magnetization 
 augmentation part    -1.2847608 magnetization 

 Broyden mixing:
  rms(total) = 0.13866E-01    rms(broyden)= 0.13866E-01
  rms(prec ) = 0.16863E-01
  weight for this iteration     100.00

 eigenvalues of (default mixing * dielectric matrix)
  average eigenvalue GAMMA=   2.4989
  2.4989  2.4989

 Free energy of the ion-electron system (eV)
  ---------------------------------------------------
  alpha Z        PSCENC =        -6.15679069
  Ewald energy   TEWEN  =     -2308.68235103
  -1/2 Hartree   DENC   =        -3.04026471
  -V(xc)+E(xc)   XCENC  =      -839.88330392
  PAW double counting   =      1134.96139465     -112.43250512
  entropy T*S    EENTRO =        -0.00204795
  eigenvalues    EBANDS =       302.64498478
  atomic energy  EATOM  =      1713.22913220
  ---------------------------------------------------
  free energy    TOTEN  =      -119.36175180 eV

  energy without entropy =     -119.35970384  energy(sigma->0) =     -119.36072782


--------------------------------------------------------------------------------------------------------




----------------------------------------- Iteration    1(   8)  ---------------------------------------


    POTLOK:  VPU time    0.13: CPU time    0.13
    SETDIJ:  VPU time    0.01: CPU time    0.01
    EDDAV :  VPU time   22.74: CPU time   22.80
    DOS   :  VPU time    0.00: CPU time   -0.00
    CHARGE:  VPU time    1.31: CPU time    1.31
    MIXING:  VPU time    0.00: CPU time    0.00
    ------------------------------------------
      LOOP:  VPU time   24.19: CPU time   24.25

 eigenvalue-minimisations  :  6856
 total energy-change (2. order) : 0.7433749E-05  (-0.1368627E-03)
 number of electron   95.9999996 magnetization 
 augmentation part    -1.2868148 magnetization 

 Broyden mixing:
  rms(total) = 0.42851E-02    rms(broyden)= 0.42851E-02
  rms(prec ) = 0.57599E-02
  weight for this iteration     100.00

 eigenvalues of (default mixing * dielectric matrix)
  average eigenvalue GAMMA=   2.0755
  0.9882  2.6883  2.5499

 Free energy of the ion-electron system (eV)
  ---------------------------------------------------
  alpha Z        PSCENC =        -6.15679069
  Ewald energy   TEWEN  =     -2308.68235103
  -1/2 Hartree   DENC   =        -3.09458633
  -V(xc)+E(xc)   XCENC  =      -839.83962927
  PAW double counting   =      1136.07762727     -113.62014738
  entropy T*S    EENTRO =        -0.00205258
  eigenvalues    EBANDS =       302.72705344
  atomic energy  EATOM  =      1713.22913220
  ---------------------------------------------------
  free energy    TOTEN  =      -119.36174436 eV

  energy without entropy =     -119.35969179  energy(sigma->0) =     -119.36071807


--------------------------------------------------------------------------------------------------------




----------------------------------------- Iteration    1(   9)  ---------------------------------------


    POTLOK:  VPU time    0.13: CPU time    0.13
    SETDIJ:  VPU time    0.01: CPU time    0.01
    EDDAV :  VPU time   22.48: CPU time   22.51
    DOS   :  VPU time    0.00: CPU time   -0.00
    CHARGE:  VPU time    1.28: CPU time    1.28
    MIXING:  VPU time    0.00: CPU time    0.00
    ------------------------------------------
      LOOP:  VPU time   23.90: CPU time   23.94

 eigenvalue-minimisations  :  6752
 total energy-change (2. order) :-0.2151109E-04  (-0.4824168E-05)
 number of electron   95.9999996 magnetization 
 augmentation part    -1.2876835 magnetization 

 Broyden mixing:
  rms(total) = 0.34733E-03    rms(broyden)= 0.34731E-03
  rms(prec ) = 0.52006E-03
  weight for this iteration     100.00

 eigenvalues of (default mixing * dielectric matrix)
  average eigenvalue GAMMA=   1.9227
  2.6759  2.5612  0.9935  1.4603

 Free energy of the ion-electron system (eV)
  ---------------------------------------------------
  alpha Z        PSCENC =        -6.15679069
  Ewald energy   TEWEN  =     -2308.68235103
  -1/2 Hartree   DENC   =        -3.12526559
  -V(xc)+E(xc)   XCENC  =      -839.80056723
  PAW double counting   =      1136.43913614     -114.00975936
  entropy T*S    EENTRO =        -0.00205608
  eigenvalues    EBANDS =       302.74675576
  atomic energy  EATOM  =      1713.22913220
  ---------------------------------------------------
  free energy    TOTEN  =      -119.36176587 eV

  energy without entropy =     -119.35970979  energy(sigma->0) =     -119.36073783


--------------------------------------------------------------------------------------------------------




----------------------------------------- Iteration    1(  10)  ---------------------------------------


    POTLOK:  VPU time    0.16: CPU time    0.16
    SETDIJ:  VPU time    0.01: CPU time    0.01
    EDDAV :  VPU time   22.78: CPU time   22.82
    DOS   :  VPU time    0.00: CPU time   -0.00
    CHARGE:  VPU time    1.33: CPU time    1.33
    MIXING:  VPU time    0.00: CPU time    0.00
    ------------------------------------------
      LOOP:  VPU time   24.29: CPU time   24.33

 eigenvalue-minimisations  :  6856
 total energy-change (2. order) : 0.6774178E-06  (-0.2076217E-06)
 number of electron   95.9999996 magnetization 
 augmentation part    -1.2877709 magnetization 

 Broyden mixing:
  rms(total) = 0.19536E-03    rms(broyden)= 0.19536E-03
  rms(prec ) = 0.26112E-03
  weight for this iteration     100.00

 eigenvalues of (default mixing * dielectric matrix)
  average eigenvalue GAMMA=   1.8925
  2.6376  2.6376  2.3024  1.0353  0.8495

 Free energy of the ion-electron system (eV)
  ---------------------------------------------------
  alpha Z        PSCENC =        -6.15679069
  Ewald energy   TEWEN  =     -2308.68235103
  -1/2 Hartree   DENC   =        -3.12667171
  -V(xc)+E(xc)   XCENC  =      -839.79906280
  PAW double counting   =      1136.39818434     -113.96808829
  entropy T*S    EENTRO =        -0.00205652
  eigenvalues    EBANDS =       302.74593930
  atomic energy  EATOM  =      1713.22913220
  ---------------------------------------------------
  free energy    TOTEN  =      -119.36176520 eV

  energy without entropy =     -119.35970868  energy(sigma->0) =     -119.36073694


--------------------------------------------------------------------------------------------------------




----------------------------------------- Iteration    1(  11)  ---------------------------------------


    POTLOK:  VPU time    0.13: CPU time    0.13
    SETDIJ:  VPU time    0.01: CPU time    0.01
    EDDAV :  VPU time   22.54: CPU time   22.58
    DOS   :  VPU time    0.00: CPU time   -0.00
    CHARGE:  VPU time    1.31: CPU time    1.31
    MIXING:  VPU time    0.00: CPU time    0.00
    ------------------------------------------
      LOOP:  VPU time   23.99: CPU time   24.03

 eigenvalue-minimisations  :  6752
 total energy-change (2. order) : 0.3566852E-05  (-0.1815790E-07)
 number of electron   95.9999996 magnetization 
 augmentation part    -1.2877859 magnetization 

 Broyden mixing:
  rms(total) = 0.69495E-04    rms(broyden)= 0.69495E-04
  rms(prec ) = 0.90471E-04
  weight for this iteration     100.00

 eigenvalues of (default mixing * dielectric matrix)
  average eigenvalue GAMMA=   1.8294
  2.6957  2.6957  2.4987  1.2567  1.0081  0.8213

 Free energy of the ion-electron system (eV)
  ---------------------------------------------------
  alpha Z        PSCENC =        -6.15679069
  Ewald energy   TEWEN  =     -2308.68235103
  -1/2 Hartree   DENC   =        -3.12680425
  -V(xc)+E(xc)   XCENC  =      -839.79955325
  PAW double counting   =      1136.34060431     -113.90867001
  entropy T*S    EENTRO =        -0.00205675
  eigenvalues    EBANDS =       302.74472783
  atomic energy  EATOM  =      1713.22913220
  ---------------------------------------------------
  free energy    TOTEN  =      -119.36176163 eV

  energy without entropy =     -119.35970488  energy(sigma->0) =     -119.36073326


--------------------------------------------------------------------------------------------------------




----------------------------------------- Iteration    1(  12)  ---------------------------------------


    POTLOK:  VPU time    0.13: CPU time    0.13
    SETDIJ:  VPU time    0.01: CPU time    0.01
    EDDAV :  VPU time   16.92: CPU time   16.96
    DOS   :  VPU time    0.00: CPU time   -0.00
    CHARGE:  VPU time    1.28: CPU time    1.28
    MIXING:  VPU time    0.00: CPU time    0.00
    ------------------------------------------
      LOOP:  VPU time   18.35: CPU time   18.40

 eigenvalue-minimisations  :  4448
 total energy-change (2. order) : 0.1026014E-05  (-0.2059098E-08)
 number of electron   95.9999996 magnetization 
 augmentation part    -1.2877933 magnetization 

 Broyden mixing:
  rms(total) = 0.14405E-04    rms(broyden)= 0.14405E-04
  rms(prec ) = 0.22349E-04
  weight for this iteration     100.00

 eigenvalues of (default mixing * dielectric matrix)
  average eigenvalue GAMMA=   1.7634
  2.6887  2.6887  2.4719  1.5945  1.0317  1.0657  0.8025

 Free energy of the ion-electron system (eV)
  ---------------------------------------------------
  alpha Z        PSCENC =        -6.15679069
  Ewald energy   TEWEN  =     -2308.68235103
  -1/2 Hartree   DENC   =        -3.12707532
  -V(xc)+E(xc)   XCENC  =      -839.79931297
  PAW double counting   =      1136.32159078     -113.88914390
  entropy T*S    EENTRO =        -0.00205677
  eigenvalues    EBANDS =       302.74424709
  atomic energy  EATOM  =      1713.22913220
  ---------------------------------------------------
  free energy    TOTEN  =      -119.36176060 eV

  energy without entropy =     -119.35970384  energy(sigma->0) =     -119.36073222


--------------------------------------------------------------------------------------------------------




----------------------------------------- Iteration    1(  13)  ---------------------------------------


    POTLOK:  VPU time    0.17: CPU time    0.17
    SETDIJ:  VPU time    0.01: CPU time    0.01
    EDDAV :  VPU time   15.22: CPU time   15.24
    DOS   :  VPU time    0.00: CPU time   -0.00
    CHARGE:  VPU time    1.31: CPU time    1.31
    MIXING:  VPU time    0.01: CPU time    0.00
    ------------------------------------------
      LOOP:  VPU time   16.71: CPU time   16.74

 eigenvalue-minimisations  :  3736
 total energy-change (2. order) : 0.2381582E-06  (-0.3364878E-09)
 number of electron   95.9999996 magnetization 
 augmentation part    -1.2877931 magnetization 

 Broyden mixing:
  rms(total) = 0.28342E-05    rms(broyden)= 0.28342E-05
  rms(prec ) = 0.46846E-05
  weight for this iteration     100.00

 eigenvalues of (default mixing * dielectric matrix)
  average eigenvalue GAMMA=   1.7147
  2.7092  2.7092  2.4975  1.6159  1.3843  1.0526  0.9451  0.8035

 Free energy of the ion-electron system (eV)
  ---------------------------------------------------
  alpha Z        PSCENC =        -6.15679069
  Ewald energy   TEWEN  =     -2308.68235103
  -1/2 Hartree   DENC   =        -3.12706358
  -V(xc)+E(xc)   XCENC  =      -839.79939287
  PAW double counting   =      1136.31851608     -113.88596310
  entropy T*S    EENTRO =        -0.00205675
  eigenvalues    EBANDS =       302.74420937
  atomic energy  EATOM  =      1713.22913220
  ---------------------------------------------------
  free energy    TOTEN  =      -119.36176037 eV

  energy without entropy =     -119.35970362  energy(sigma->0) =     -119.36073199


--------------------------------------------------------------------------------------------------------




----------------------------------------- Iteration    1(  14)  ---------------------------------------


    POTLOK:  VPU time    0.13: CPU time    0.13
    SETDIJ:  VPU time    0.01: CPU time    0.01
    EDDAV :  VPU time   15.07: CPU time   15.09
    DOS   :  VPU time    0.00: CPU time   -0.00
    ------------------------------------------
      LOOP:  VPU time   15.21: CPU time   15.23

 eigenvalue-minimisations  :  3672
 total energy-change (2. order) :-0.1613898E-08  (-0.4640016E-10)
 number of electron   95.9999996 magnetization 
 augmentation part    -1.2877931 magnetization 

 Free energy of the ion-electron system (eV)
  ---------------------------------------------------
  alpha Z        PSCENC =        -6.15679069
  Ewald energy   TEWEN  =     -2308.68235103
  -1/2 Hartree   DENC   =        -3.12707310
  -V(xc)+E(xc)   XCENC  =      -839.79938635
  PAW double counting   =      1136.31861584     -113.88606994
  entropy T*S    EENTRO =        -0.00205675
  eigenvalues    EBANDS =       302.74421944
  atomic energy  EATOM  =      1713.22913220
  ---------------------------------------------------
  free energy    TOTEN  =      -119.36176037 eV

  energy without entropy =     -119.35970362  energy(sigma->0) =     -119.36073199


--------------------------------------------------------------------------------------------------------




 average (electrostatic) potential at core
  the test charge radii are     1.0406
  (the norm of the test charge is              1.0000)
       1 -73.2827       2 -73.2827       3 -73.2827       4 -73.2827       5 -73.2827
       6 -73.2827       7 -73.2827       8 -73.2827       9 -73.2827      10 -73.2827
      11 -73.2827      12 -73.2827      13 -73.2827      14 -73.2827      15 -73.2827
      16 -73.2827      17 -73.2835      18 -73.2818      19 -73.2824      20 -73.2830
      21 -73.2835      22 -73.2818      23 -73.2824      24 -73.2830      25 -73.2835
      26 -73.2818      27 -73.2835      28 -73.2818      29 -73.2824      30 -73.2830
      31 -73.2824      32 -73.2830
 
 
 
 E-fermi :   7.4341     XC(G=0):  -9.9946     alpha+bet :-14.0604
   add alpha+bet to get absolut eigen values

 k-point   1 :       0.0000    0.0000    0.0000
  band No.  band energies     occupation 
      1      -3.3267      2.00000
      2      -1.1631      2.00000
      3      -1.1596      2.00000
      4      -1.1596      2.00000
      5      -1.1596      2.00000
      6      -1.1596      2.00000
      7      -1.1562      2.00000
      8       0.9706      2.00000
      9       0.9750      2.00000
     10       0.9750      2.00000
     11       0.9765      2.00000
     12       0.9767      2.00000
     13       0.9767      2.00000
     14       0.9767      2.00000
     15       0.9767      2.00000
     16       0.9768      2.00000
     17       0.9783      2.00000
     18       0.9783      2.00000
     19       0.9827      2.00000
     20       3.0538      2.00000
     21       3.0538      2.00000
     22       3.0538      2.00000
     23       3.0539      2.00000
     24       3.1177      2.00000
     25       3.1177      2.00000
     26       3.1177      2.00000
     27       3.1178      2.00000
     28       4.6362      2.00000
     29       4.6362      2.00000
     30       4.6362      2.00000
     31       5.8267      2.00000
     32       5.8268      2.00000
     33       5.8268      2.00000
     34       6.6449      2.00000
     35       6.6449      2.00000
     36       6.6491      2.00000
     37       6.6491      2.00000
     38       6.6492      2.00000
     39       6.6492      2.00000
     40       6.6492      2.00000
     41       6.6492      2.00000
     42       6.6492      2.00000
     43       6.6492      2.00000
     44       6.6533      2.00000
     45       6.6533      2.00000
     46       7.6867      0.00000
     47       7.6906      0.00000
     48       7.6906      0.00000
     49       7.6906      0.00000
     50       7.6906      0.00000
     51       7.6944      0.00000
     52       8.2234      0.00000
     53       8.2242      0.00000
     54       8.2242      0.00000
     55       8.2242      0.00000
     56       8.2242      0.00000
     57       8.2250      0.00000
     58       8.6621      0.00000
     59       8.6621      0.00000
     60       8.6638      0.00000
     61       8.6659      0.00000
     62       8.6660      0.00000
     63       8.6660      0.00000
     64       8.6660      0.00000
     65       8.6661      0.00000
     66       8.6662      0.00000
     67       8.6683      0.00000
     68       8.6700      0.00000
     69       8.6700      0.00000
     70      10.0026      0.00000
     71      10.0051      0.00000
     72      10.0058      0.00000

 k-point   2 :       0.1667    0.0000    0.0000
  band No.  band energies     occupation 
      1      -3.2660      2.00000
      2      -1.8184      2.00000
      3      -1.0999      2.00000
      4      -1.0999      2.00000
      5      -1.0999      2.00000
      6      -1.0999      2.00000
      7      -0.3851      2.00000
      8       0.3271      2.00000
      9       0.3271      2.00000
     10       0.3271      2.00000
     11       0.3271      2.00000
     12       1.0356      2.00000
     13       1.0356      2.00000
     14       1.0356      2.00000
     15       1.0356      2.00000
     16       1.7404      2.00000
     17       1.7404      2.00000
     18       1.7404      2.00000
     19       1.7404      2.00000
     20       2.4436      2.00000
     21       2.4436      2.00000
     22       2.4436      2.00000
     23       2.4436      2.00000
     24       3.7711      2.00000
     25       3.8410      2.00000
     26       3.8410      2.00000
     27       3.8410      2.00000
     28       3.8410      2.00000
     29       4.6920      2.00000
     30       4.6920      2.00000
     31       5.8238      2.00000
     32       5.8239      2.00000
     33       5.8239      2.00000
     34       5.8239      2.00000
     35       5.8861      2.00000
     36       5.8862      2.00000
     37       6.0334      2.00000
     38       6.0334      2.00000
     39       6.7051      2.00000
     40       6.7051      2.00000
     41       6.7051      2.00000
     42       6.7051      2.00000
     43       6.7977      2.00000
     44       7.2686      2.00000
     45       7.2687      2.00000
     46       7.3776      2.00000
     47       7.3776      2.00000
     48       7.8726      0.00000
     49       7.8727      0.00000
     50       7.8727      0.00000
     51       7.8727      0.00000
     52       7.9655      0.00000
     53       7.9655      0.00000
     54       7.9655      0.00000
     55       7.9655      0.00000
     56       8.0494      0.00000
     57       8.0494      0.00000
     58       8.0495      0.00000
     59       8.0495      0.00000
     60       8.7510      0.00000
     61       8.7510      0.00000
     62       8.9358      0.00000
     63       8.9358      0.00000
     64       8.9358      0.00000
     65       8.9358      0.00000
     66       9.3853      0.00000
     67       9.3854      0.00000
     68       9.3856      0.00000
     69       9.3896      0.00000
     70       9.3950      0.00000
     71       9.3951      0.00000
     72       9.3953      0.00000

 k-point   3 :       0.3333    0.0000    0.0000
  band No.  band energies     occupation 
      1      -3.0843      2.00000
      2      -2.3596      2.00000
      3      -0.9208      2.00000
      4      -0.9208      2.00000
      5      -0.9208      2.00000
      6      -0.9208      2.00000
      7      -0.2065      2.00000
      8      -0.2065      2.00000
      9      -0.2065      2.00000
     10      -0.2065      2.00000
     11       0.5028      2.00000
     12       1.2123      2.00000
     13       1.2123      2.00000
     14       1.2123      2.00000
     15       1.2123      2.00000
     16       1.9171      2.00000
     17       1.9171      2.00000
     18       1.9171      2.00000
     19       1.9172      2.00000
     20       2.5998      2.00000
     21       2.6158      2.00000
     22       2.6158      2.00000
     23       2.6158      2.00000
     24       2.6159      2.00000
     25       4.6796      2.00000
     26       4.6796      2.00000
     27       4.6797      2.00000
     28       4.6797      2.00000
     29       4.7057      2.00000
     30       4.7057      2.00000
     31       4.7057      2.00000
     32       4.7057      2.00000
     33       4.8595      2.00000
     34       4.8595      2.00000
     35       5.5300      2.00000
     36       5.5300      2.00000
     37       6.0636      2.00000
     38       6.0636      2.00000
     39       6.7449      2.00000
     40       6.7450      2.00000
     41       6.7450      2.00000
     42       6.7451      2.00000
     43       6.7640      2.00000
     44       6.7643      2.00000
     45       6.8731      2.00000
     46       6.8731      2.00000
     47       6.8731      2.00000
     48       6.8731      2.00000
     49       7.5451      0.00000
     50       7.5451      0.00000
     51       7.5451      0.00000
     52       7.5452      0.00000
     53       8.1729      0.00000
     54       8.1729      0.00000
     55       8.1729      0.00000
     56       8.1729      0.00000
     57       8.2188      0.00000
     58       8.2188      0.00000
     59       8.2865      0.00000
     60       8.8721      0.00000
     61       8.8721      0.00000
     62       8.8721      0.00000
     63       8.8721      0.00000
     64       9.5670      0.00000
     65       9.5670      0.00000
     66      10.2359      0.00000
     67      10.2359      0.00000
     68      10.2363      0.00000
     69      10.2363      0.00000
     70      10.2407      0.00000
     71      10.2409      0.00000
     72      10.3545      0.00000

 k-point   4 :       0.5000    0.0000    0.0000
  band No.  band energies     occupation 
      1      -2.7833      2.00000
      2      -2.7805      2.00000
      3      -0.6267      2.00000
      4      -0.6236      2.00000
      5      -0.6236      2.00000
      6      -0.6228      2.00000
      7      -0.6228      2.00000
      8      -0.6219      2.00000
      9      -0.6219      2.00000
     10      -0.6189      2.00000
     11       1.4981      2.00000
     12       1.5006      2.00000
     13       1.5049      2.00000
     14       1.5051      2.00000
     15       1.5051      2.00000
     16       1.5059      2.00000
     17       1.5068      2.00000
     18       1.5076      2.00000
     19       1.5076      2.00000
     20       1.5100      2.00000
     21       3.5976      2.00000
     22       3.5979      2.00000
     23       3.5979      2.00000
     24       3.5986      2.00000
     25       3.5988      2.00000
     26       3.5995      2.00000
     27       3.5995      2.00000
     28       3.5998      2.00000
     29       5.1373      2.00000
     30       5.1373      2.00000
     31       5.1403      2.00000
     32       5.1403      2.00000
     33       5.6759      2.00000
     34       5.6759      2.00000
     35       5.6765      2.00000
     36       5.6767      2.00000
     37       5.6772      2.00000
     38       5.6775      2.00000
     39       5.6781      2.00000
     40       5.6781      2.00000
     41       6.3559      2.00000
     42       6.3568      2.00000
     43       6.3586      2.00000
     44       6.3595      2.00000
     45       7.1508      2.00000
     46       7.1508      2.00000
     47       7.1517      2.00000
     48       7.1530      2.00000
     49       7.1532      2.00000
     50       7.1544      2.00000
     51       7.1553      2.00000
     52       7.1553      2.00000
     53       8.4659      0.00000
     54       8.4669      0.00000
     55       8.4669      0.00000
     56       8.4671      0.00000
     57       8.4691      0.00000
     58       8.4692      0.00000
     59       8.4692      0.00000
     60       8.4703      0.00000
     61       9.1719      0.00000
     62       9.1719      0.00000
     63       9.1742      0.00000
     64       9.1742      0.00000
     65       9.9135      0.00000
     66       9.9150      0.00000
     67      10.4774      0.00000
     68      10.4780      0.00000
     69      10.4792      0.00000
     70      10.4797      0.00000
     71      11.1889      0.00000
     72      11.1899      0.00000

 k-point   5 :       0.0000    0.1667    0.0000
  band No.  band energies     occupation 
      1      -3.2660      2.00000
      2      -1.8184      2.00000
      3      -1.1026      2.00000
      4      -1.0999      2.00000
      5      -1.0999      2.00000
      6      -1.0972      2.00000
      7      -0.3851      2.00000
      8       0.3244      2.00000
      9       0.3271      2.00000
     10       0.3271      2.00000
     11       0.3298      2.00000
     12       1.0335      2.00000
     13       1.0345      2.00000
     14       1.0367      2.00000
     15       1.0377      2.00000
     16       1.7377      2.00000
     17       1.7404      2.00000
     18       1.7404      2.00000
     19       1.7431      2.00000
     20       2.4414      2.00000
     21       2.4424      2.00000
     22       2.4447      2.00000
     23       2.4457      2.00000
     24       3.7711      2.00000
     25       3.8388      2.00000
     26       3.8399      2.00000
     27       3.8421      2.00000
     28       3.8432      2.00000
     29       4.6920      2.00000
     30       4.6920      2.00000
     31       5.8210      2.00000
     32       5.8239      2.00000
     33       5.8239      2.00000
     34       5.8268      2.00000
     35       5.8861      2.00000
     36       5.8861      2.00000
     37       6.0334      2.00000
     38       6.0334      2.00000
     39       6.7025      2.00000
     40       6.7051      2.00000
     41       6.7051      2.00000
     42       6.7077      2.00000
     43       6.7977      2.00000
     44       7.2686      2.00000
     45       7.2687      2.00000
     46       7.3776      2.00000
     47       7.3776      2.00000
     48       7.8702      0.00000
     49       7.8716      0.00000
     50       7.8738      0.00000
     51       7.8751      0.00000
     52       7.9632      0.00000
     53       7.9655      0.00000
     54       7.9655      0.00000
     55       7.9677      0.00000
     56       8.0468      0.00000
     57       8.0494      0.00000
     58       8.0495      0.00000
     59       8.0521      0.00000
     60       8.7510      0.00000
     61       8.7510      0.00000
     62       8.9338      0.00000
     63       8.9358      0.00000
     64       8.9358      0.00000
     65       8.9379      0.00000
     66       9.3842      0.00000
     67       9.3856      0.00000
     68       9.3859      0.00000
     69       9.3883      0.00000
     70       9.3937      0.00000
     71       9.3950      0.00000
     72       9.3956      0.00000

 k-point   6 :       0.1667    0.1667    0.0000
  band No.  band energies     occupation 
      1      -3.2054      2.00000
      2      -1.7595      2.00000
      3      -1.7573      2.00000
      4      -1.0402      2.00000
      5      -1.0402      2.00000
      6      -0.3273      2.00000
      7      -0.3255      2.00000
      8      -0.3238      2.00000
      9       0.3848      2.00000
     10       0.3857      2.00000
     11       0.3869      2.00000
     12       0.3878      2.00000
     13       1.0936      2.00000
     14       1.0946      2.00000
     15       1.7970      2.00000
     16       1.7982      2.00000
     17       1.7994      2.00000
     18       1.7995      2.00000
     19       1.8007      2.00000
     20       1.8018      2.00000
     21       2.5003      2.00000
     22       3.1664      2.00000
     23       3.1664      2.00000
     24       3.2368      2.00000
     25       3.2368      2.00000
     26       3.8280      2.00000
     27       3.8289      2.00000
     28       4.5917      2.00000
     29       4.5917      2.00000
     30       4.7478      2.00000
     31       5.1988      2.00000
     32       5.2010      2.00000
     33       5.8226      2.00000
     34       5.8226      2.00000
     35       5.9447      2.00000
     36       5.9462      2.00000
     37       5.9468      2.00000
     38       6.0881      2.00000
     39       6.0905      2.00000
     40       6.5484      2.00000
     41       6.5499      2.00000
     42       6.8549      2.00000
     43       6.8559      2.00000
     44       7.2488      2.00000
     45       7.2498      2.00000
     46       7.2511      2.00000
     47       7.2520      2.00000
     48       7.3738      2.00000
     49       7.3753      2.00000
     50       7.4312      1.31590
     51       7.4334      1.08362
     52       7.4355      0.84318
     53       8.1631      0.00000
     54       8.1651      0.00000
     55       8.6046      0.00000
     56       8.6057      0.00000
     57       8.6058      0.00000
     58       8.6069      0.00000
     59       8.7432      0.00000
     60       8.7433      0.00000
     61       8.7608      0.00000
     62       8.7775      0.00000
     63       8.7794      0.00000
     64       8.8504      0.00000
     65       8.8512      0.00000
     66       9.1354      0.00000
     67       9.1354      0.00000
     68       9.6323      0.00000
     69       9.6344      0.00000
     70      10.1128      0.00000
     71      10.1129      0.00000
     72      10.1237      0.00000

 k-point   7 :       0.3333    0.1667    0.0000
  band No.  band energies     occupation 
      1      -3.0238      2.00000
      2      -2.2994      2.00000
      3      -1.5785      2.00000
      4      -0.8625      2.00000
      5      -0.8612      2.00000
      6      -0.8598      2.00000
      7      -0.1487      2.00000
      8      -0.1471      2.00000
      9      -0.1459      2.00000
     10       0.5606      2.00000
     11       0.5632      2.00000
     12       0.5637      2.00000
     13       0.5649      2.00000
     14       1.2714      2.00000
     15       1.2714      2.00000
     16       1.9731      2.00000
     17       1.9749      2.00000
     18       1.9751      2.00000
     19       2.6579      2.00000
     20       2.6733      2.00000
     21       2.6738      2.00000
     22       2.6764      2.00000
     23       2.6771      2.00000
     24       3.3712      2.00000
     25       4.0004      2.00000
     26       4.0474      2.00000
     27       4.0710      2.00000
     28       4.0710      2.00000
     29       4.6869      2.00000
     30       4.7361      2.00000
     31       4.7361      2.00000
     32       4.9153      2.00000
     33       5.4217      2.00000
     34       5.4529      2.00000
     35       5.4529      2.00000
     36       5.5859      2.00000
     37       6.0597      2.00000
     38       6.0598      2.00000
     39       6.1177      2.00000
     40       6.1178      2.00000
     41       6.1225      2.00000
     42       6.2572      2.00000
     43       6.7402      2.00000
     44       6.7402      2.00000
     45       6.8056      2.00000
     46       6.9289      2.00000
     47       7.0280      2.00000
     48       7.4473      0.06240
     49       7.4834      0.00000
     50       7.4834      0.00000
     51       7.5481      0.00000
     52       7.6016      0.00000
     53       7.7070      0.00000
     54       8.2440      0.00000
     55       8.2728      0.00000
     56       8.2760      0.00000
     57       8.3430      0.00000
     58       8.8795      0.00000
     59       9.0838      0.00000
     60       9.0838      0.00000
     61       9.4352      0.00000
     62       9.4479      0.00000
     63       9.4480      0.00000
     64       9.6029      0.00000
     65       9.6199      0.00000
     66       9.6288      0.00000
     67       9.7718      0.00000
     68       9.7792      0.00000
     69       9.7792      0.00000
     70      10.2964      0.00000
     71      10.4171      0.00000
     72      10.4268      0.00000

 k-point   8 :       0.5000    0.1667    0.0000
  band No.  band energies     occupation 
      1      -2.7229      2.00000
      2      -2.7201      2.00000
      3      -1.2806      2.00000
      4      -1.2778      2.00000
      5      -0.5652      2.00000
      6      -0.5641      2.00000
      7      -0.5624      2.00000
      8      -0.5613      2.00000
      9       0.1476      2.00000
     10       0.1504      2.00000
     11       0.8570      2.00000
     12       0.8581      2.00000
     13       0.8598      2.00000
     14       0.8609      2.00000
     15       1.5584      2.00000
     16       1.5598      2.00000
     17       2.2656      2.00000
     18       2.2667      2.00000
     19       2.2684      2.00000
     20       2.2695      2.00000
     21       2.9600      2.00000
     22       2.9614      2.00000
     23       3.6557      2.00000
     24       3.6559      2.00000
     25       3.6571      2.00000
     26       3.6573      2.00000
     27       4.2853      2.00000
     28       4.2882      2.00000
     29       4.3478      2.00000
     30       4.3492      2.00000
     31       5.0448      2.00000
     32       5.0449      2.00000
     33       5.0462      2.00000
     34       5.0463      2.00000
     35       5.1932      2.00000
     36       5.1961      2.00000
     37       6.3409      2.00000
     38       6.3421      2.00000
     39       6.3438      2.00000
     40       6.3450      2.00000
     41       6.4128      2.00000
     42       6.4155      2.00000
     43       6.4192      2.00000
     44       6.4196      2.00000
     45       6.4208      2.00000
     46       6.4210      2.00000
     47       6.5355      2.00000
     48       6.5385      2.00000
     49       7.3123      2.00000
     50       7.3151      2.00000
     51       7.8376      0.00000
     52       7.8402      0.00000
     53       7.8802      0.00000
     54       7.8833      0.00000
     55       8.3827      0.00000
     56       8.3845      0.00000
     57       9.1968      0.00000
     58       9.1997      0.00000
     59       9.2280      0.00000
     60       9.2302      0.00000
     61       9.3783      0.00000
     62       9.3791      0.00000
     63       9.3812      0.00000
     64       9.3819      0.00000
     65       9.9684      0.00000
     66       9.9699      0.00000
     67      10.3948      0.00000
     68      10.3950      0.00000
     69      10.3967      0.00000
     70      10.3969      0.00000
     71      10.5360      0.00000
     72      10.5402      0.00000

 k-point   9 :       0.0000    0.3333    0.0000
  band No.  band energies     occupation 
      1      -3.0843      2.00000
      2      -2.3596      2.00000
      3      -0.9235      2.00000
      4      -0.9208      2.00000
      5      -0.9208      2.00000
      6      -0.9181      2.00000
      7      -0.2092      2.00000
      8      -0.2065      2.00000
      9      -0.2065      2.00000
     10      -0.2038      2.00000
     11       0.5028      2.00000
     12       1.2102      2.00000
     13       1.2112      2.00000
     14       1.2134      2.00000
     15       1.2144      2.00000
     16       1.9150      2.00000
     17       1.9160      2.00000
     18       1.9183      2.00000
     19       1.9193      2.00000
     20       2.5998      2.00000
     21       2.6131      2.00000
     22       2.6158      2.00000
     23       2.6158      2.00000
     24       2.6185      2.00000
     25       4.6768      2.00000
     26       4.6797      2.00000
     27       4.6797      2.00000
     28       4.6825      2.00000
     29       4.7035      2.00000
     30       4.7045      2.00000
     31       4.7068      2.00000
     32       4.7078      2.00000
     33       4.8595      2.00000
     34       4.8595      2.00000
     35       5.5300      2.00000
     36       5.5300      2.00000
     37       6.0636      2.00000
     38       6.0637      2.00000
     39       6.7427      2.00000
     40       6.7439      2.00000
     41       6.7462      2.00000
     42       6.7473      2.00000
     43       6.7640      2.00000
     44       6.7642      2.00000
     45       6.8705      2.00000
     46       6.8731      2.00000
     47       6.8731      2.00000
     48       6.8757      2.00000
     49       7.5425      0.00000
     50       7.5451      0.00000
     51       7.5452      0.00000
     52       7.5478      0.00000
     53       8.1708      0.00000
     54       8.1729      0.00000
     55       8.1729      0.00000
     56       8.1749      0.00000
     57       8.2188      0.00000
     58       8.2188      0.00000
     59       8.2866      0.00000
     60       8.8701      0.00000
     61       8.8721      0.00000
     62       8.8721      0.00000
     63       8.8742      0.00000
     64       9.5670      0.00000
     65       9.5670      0.00000
     66      10.2336      0.00000
     67      10.2363      0.00000
     68      10.2363      0.00000
     69      10.2389      0.00000
     70      10.2403      0.00000
     71      10.2406      0.00000
     72      10.3547      0.00000

 k-point  10 :       0.1667    0.3333    0.0000
  band No.  band energies     occupation 
      1      -3.0238      2.00000
      2      -2.2994      2.00000
      3      -1.5785      2.00000
      4      -0.8625      2.00000
      5      -0.8612      2.00000
      6      -0.8598      2.00000
      7      -0.1487      2.00000
      8      -0.1471      2.00000
      9      -0.1459      2.00000
     10       0.5608      2.00000
     11       0.5627      2.00000
     12       0.5637      2.00000
     13       0.5653      2.00000
     14       1.2714      2.00000
     15       1.2714      2.00000
     16       1.9725      2.00000
     17       1.9749      2.00000
     18       1.9757      2.00000
     19       2.6579      2.00000
     20       2.6739      2.00000
     21       2.6741      2.00000
     22       2.6762      2.00000
     23       2.6765      2.00000
     24       3.3712      2.00000
     25       4.0004      2.00000
     26       4.0474      2.00000
     27       4.0710      2.00000
     28       4.0710      2.00000
     29       4.6868      2.00000
     30       4.7361      2.00000
     31       4.7362      2.00000
     32       4.9153      2.00000
     33       5.4217      2.00000
     34       5.4529      2.00000
     35       5.4529      2.00000
     36       5.5859      2.00000
     37       6.0597      2.00000
     38       6.0598      2.00000
     39       6.1178      2.00000
     40       6.1178      2.00000
     41       6.1224      2.00000
     42       6.2572      2.00000
     43       6.7402      2.00000
     44       6.7402      2.00000
     45       6.8056      2.00000
     46       6.9289      2.00000
     47       7.0280      2.00000
     48       7.4473      0.06250
     49       7.4834      0.00000
     50       7.4834      0.00000
     51       7.5481      0.00000
     52       7.6016      0.00000
     53       7.7070      0.00000
     54       8.2440      0.00000
     55       8.2735      0.00000
     56       8.2753      0.00000
     57       8.3430      0.00000
     58       8.8795      0.00000
     59       9.0838      0.00000
     60       9.0839      0.00000
     61       9.4353      0.00000
     62       9.4479      0.00000
     63       9.4479      0.00000
     64       9.6030      0.00000
     65       9.6200      0.00000
     66       9.6288      0.00000
     67       9.7718      0.00000
     68       9.7792      0.00000
     69       9.7792      0.00000
     70      10.2964      0.00000
     71      10.4171      0.00000
     72      10.4236      0.00000

 k-point  11 :       0.3333    0.3333    0.0000
[...]
      6      -0.7419      2.00000
      7      -0.7419      2.00000
      8      -0.7419      2.00000
      9       0.6814      2.00000
     10       0.6814      2.00000
     11       0.6814      2.00000
     12       0.6814      2.00000
     13       2.0861      2.00000
     14       2.0861      2.00000
     15       2.0861      2.00000
     16       2.0861      2.00000
     17       2.0861      2.00000
     18       2.0861      2.00000
     19       2.0861      2.00000
     20       2.0861      2.00000
     21       3.4825      2.00000
     22       3.4825      2.00000
     23       3.4825      2.00000
     24       3.4825      2.00000
     25       3.4825      2.00000
     26       3.4825      2.00000
     27       3.4826      2.00000
     28       3.4826      2.00000
     29       4.7999      2.00000
     30       4.7999      2.00000
     31       4.7999      2.00000
     32       4.7999      2.00000
     33       4.8730      2.00000
     34       4.8730      2.00000
     35       4.8732      2.00000
     36       4.8732      2.00000
     37       4.8732      2.00000
     38       4.8732      2.00000
     39       4.8734      2.00000
     40       4.8734      2.00000
     41       6.2341      2.00000
     42       6.2341      2.00000
     43       6.2341      2.00000
     44       6.2341      2.00000
     45       7.6062      0.00000
     46       7.6062      0.00000
     47       7.6062      0.00000
     48       7.6062      0.00000
     49       7.8537      0.00000
     50       7.8538      0.00000
     51       7.8538      0.00000
     52       7.8538      0.00000
     53       8.8752      0.00000
     54       8.8752      0.00000
     55       8.8755      0.00000
     56       8.8755      0.00000
     57       8.8755      0.00000
     58       8.8755      0.00000
     59       8.8757      0.00000
     60       8.8757      0.00000
     61       8.9631      0.00000
     62       8.9631      0.00000
     63       8.9631      0.00000
     64       8.9631      0.00000
     65      10.4755      0.00000
     66      10.4755      0.00000
     67      10.4760      0.00000
     68      10.4760      0.00000
     69      10.4760      0.00000
     70      10.4760      0.00000
     71      10.4765      0.00000
     72      10.4765      0.00000

 k-point  39 :       0.3333    0.5000    0.5000
  band No.  band energies     occupation 
      1      -1.9987      2.00000
      2      -1.9986      2.00000
      3      -1.9986      2.00000
      4      -1.9986      2.00000
      5      -1.2792      2.00000
      6      -1.2792      2.00000
      7      -1.2792      2.00000
      8      -1.2792      2.00000
      9       1.5630      2.00000
     10       1.5630      2.00000
     11       1.5630      2.00000
     12       1.5630      2.00000
     13       2.2614      2.00000
     14       2.2614      2.00000
     15       2.2614      2.00000
     16       2.2614      2.00000
     17       2.2614      2.00000
     18       2.2614      2.00000
     19       2.2615      2.00000
     20       2.2615      2.00000
     21       2.9607      2.00000
     22       2.9607      2.00000
     23       2.9607      2.00000
     24       2.9607      2.00000
     25       2.9607      2.00000
     26       2.9607      2.00000
     27       2.9607      2.00000
     28       2.9607      2.00000
     29       3.6433      2.00000
     30       3.6433      2.00000
     31       3.6433      2.00000
     32       3.6433      2.00000
     33       5.7308      2.00000
     34       5.7308      2.00000
     35       5.7310      2.00000
     36       5.7310      2.00000
     37       5.7310      2.00000
     38       5.7310      2.00000
     39       5.7311      2.00000
     40       5.7311      2.00000
     41       6.4089      2.00000
     42       6.4089      2.00000
     43       6.4089      2.00000
     44       6.4089      2.00000
     45       7.0944      2.00000
     46       7.0944      2.00000
     47       7.0944      2.00000
     48       7.0944      2.00000
     49       7.7552      0.00000
     50       7.7552      0.00000
     51       7.7554      0.00000
     52       7.7554      0.00000
     53       7.7554      0.00000
     54       7.7554      0.00000
     55       7.7556      0.00000
     56       7.7556      0.00000
     57       9.3216      0.00000
     58       9.3216      0.00000
     59       9.3216      0.00000
     60       9.3216      0.00000
     61       9.8042      0.00000
     62       9.8042      0.00000
     63       9.8042      0.00000
     64       9.8042      0.00000
     65      10.6523      0.00000
     66      10.6523      0.00000
     67      10.6526      0.00000
     68      10.6526      0.00000
     69      10.6526      0.00000
     70      10.6526      0.00000
     71      10.6529      0.00000
     72      10.6529      0.00000

 k-point  40 :       0.5000    0.5000    0.5000
  band No.  band energies     occupation 
      1      -1.7030      2.00000
      2      -1.6989      2.00000
      3      -1.6989      2.00000
      4      -1.6987      2.00000
      5      -1.6983      2.00000
      6      -1.6981      2.00000
      7      -1.6981      2.00000
      8      -1.6940      2.00000
      9       2.5433      2.00000
     10       2.5494      2.00000
     11       2.5494      2.00000
     12       2.5524      2.00000
     13       2.5527      2.00000
     14       2.5528      2.00000
     15       2.5530      2.00000
     16       2.5530      2.00000
     17       2.5531      2.00000
     18       2.5531      2.00000
     19       2.5532      2.00000
     20       2.5532      2.00000
     21       2.5532      2.00000
     22       2.5533      2.00000
     23       2.5533      2.00000
     24       2.5533      2.00000
     25       2.5534      2.00000
     26       2.5534      2.00000
     27       2.5536      2.00000
     28       2.5537      2.00000
     29       2.5540      2.00000
     30       2.5570      2.00000
     31       2.5570      2.00000
     32       2.5631      2.00000
     33       6.6894      2.00000
     34       6.6894      2.00000
     35       6.6913      2.00000
     36       6.6931      2.00000
     37       6.6944      2.00000
     38       6.6948      2.00000
     39       6.6948      2.00000
     40       6.6948      2.00000
     41       6.6950      2.00000
     42       6.6951      2.00000
     43       6.6951      2.00000
     44       6.6951      2.00000
     45       6.6951      2.00000
     46       6.6952      2.00000
     47       6.6952      2.00000
     48       6.6952      2.00000
     49       6.6954      2.00000
     50       6.6954      2.00000
     51       6.6954      2.00000
     52       6.6958      2.00000
     53       6.6971      2.00000
     54       6.6989      2.00000
     55       6.7008      2.00000
     56       6.7008      2.00000
     57      10.7474      0.00000
     58      10.7474      0.00000
     59      10.7474      0.00000
     60      10.7480      0.00000
     61      10.7494      0.00000
     62      10.7501      0.00000
     63      10.7501      0.00000
     64      10.7502      0.00000
     65      10.9300      0.00000
     66      10.9309      0.00000
     67      10.9314      0.00000
     68      10.9329      0.00000
     69      10.9330      0.00000
     70      10.9334      0.00000
     71      10.9336      0.00000
     72      10.9341      0.00000


--------------------------------------------------------------------------------------------------------


 soft charge-density along one line, spin component           1
         0         1         2         3         4         5         6         7         8         9
 total charge-density along one line
 
 pseudopotential strength for first ion, spin component:           1
  8.462  -0.005  -0.000   0.000  -0.000  -0.000   0.000  -0.000
 -0.005   0.000  -0.000   0.000  -0.000   0.000  -0.000   0.000
 -0.000  -0.000   1.985  -0.000  -0.000  -0.025   0.000   0.000
  0.000   0.000  -0.000   1.985   0.000   0.000  -0.025  -0.000
 -0.000  -0.000  -0.000   0.000   1.985   0.000  -0.000  -0.025
 -0.000   0.000  -0.025   0.000   0.000  -0.012   0.000   0.000
  0.000  -0.000   0.000  -0.025  -0.000   0.000  -0.012  -0.000
 -0.000   0.000   0.000  -0.000  -0.025   0.000  -0.000  -0.012
 total augmentation occupancy for first ion, spin component:           1
  1.355  -0.412  -0.000   0.000   0.002   0.000  -0.000  -0.001
 -0.412   0.417  -0.000   0.000  -0.003   0.000  -0.000   0.001
 -0.000  -0.000   0.686   0.006   0.012  -0.135  -0.001  -0.002
  0.000   0.000   0.006   0.689   0.000  -0.001  -0.132  -0.001
  0.002  -0.003   0.012   0.000   0.688  -0.002  -0.001  -0.133
  0.000   0.000  -0.135  -0.001  -0.002   0.030   0.000   0.000
 -0.000  -0.000  -0.001  -0.132  -0.001   0.000   0.030   0.000
 -0.001   0.001  -0.002  -0.001  -0.133   0.000   0.000   0.030


------------------------ aborting loop because EDIFF is reached ----------------------------------------




--------------------------------------------------------------------------------------------------------


    CHARGE:  VPU time    1.30: CPU time    1.31
    FORLOC:  VPU time    0.02: CPU time    0.02
    FORNL :  VPU time    5.72: CPU time    5.72
    STRESS:  VPU time   12.77: CPU time   12.79
    FORCOR:  VPU time    0.14: CPU time    0.15
    FORHAR:  VPU time    0.05: CPU time    0.05
    MIXING:  VPU time    0.00: CPU time    0.00


--------------------------------------------------------------------------------------------------------



  FREE ENERGIE OF THE ION-ELECTRON SYSTEM (eV)
  ---------------------------------------------------
  free  energy   TOTEN  =      -119.361760 eV

  energy  without entropy=     -119.359704  energy(sigma->0) =     -119.360732
 

  FORCE on cell =-STRESS in cart. coord.  units (eV/reduce length):
  Direction    X        Y        Z        XY       YZ       ZX
  --------------------------------------------------------------------------------------
  Alpha Z     -6.16     -6.16     -6.16
  Ewald     -769.57   -769.56   -769.56     -0.00      0.00      0.00
  Hartree      1.04      1.04      1.04     -0.00     -0.00     -0.00
  E(xc)     -269.34   -269.34   -269.34      0.00     -0.00      0.00
  Local        3.04      3.03      3.03     -0.00      0.00      0.00
  n-local    598.49    599.23    597.75     -0.55     -0.14      0.28
  augment    -34.38    -34.38    -34.38      0.00      0.00      0.00
  Kinetic    463.43    457.28    469.58      8.64      3.47     -1.71
  -------------------------------------------------------------------------------------
  Total      -13.44    -13.44    -13.44     -0.00      0.00      0.00
  in kB      -38.54    -38.54    -38.54     -0.00      0.00      0.00
  external pressure =      -38.54 kB  Pullay stress =        0.00 kB


 VOLUME and BASIS-vectors are now :
 -----------------------------------------------------------------------------
  energy-cutoff  :      500.00
  volume of cell :      558.64
      direct lattice vectors                 reciprocal lattice vectors
     8.235887796  0.000000000  0.000000000     0.121419818  0.000000000  0.000000000
     0.000000000  8.235887796  0.000000000     0.000000000  0.121419818  0.000000000
     0.000000000  0.000000000  8.235887796     0.000000000  0.000000000  0.121419818

  length of vectors
     8.235887796  8.235887796  8.235887796     0.121419818  0.121419818  0.121419818


 FORCES acting on ions
    electron-ion (+dipol)            ewald-force                    non-local-force                 convergence-correction
 -----------------------------------------------------------------------------------------------
   0.369E+00 -.560E-13 -.160E-07   -.301E+00 -.799E-14 0.550E-14   -.100E+00 -.111E-19 0.173E-19   0.180E-05 0.446E-14 -.229E-13
   -.787E-01 0.184E-12 -.871E-13   0.795E-01 0.888E-15 -.270E-14   0.273E-02 0.293E-19 0.377E-19   0.188E-05 0.702E-14 -.304E-13
   0.278E-01 0.698E-13 -.200E-13   -.252E-01 0.133E-14 0.529E-14   -.148E-02 -.130E-19 0.188E-19   -.639E-06 -.506E-14 -.205E-13
   -.199E-01 -.327E-12 -.228E-13   0.198E-01 0.133E-14 -.181E-14   0.262E-03 -.533E-20 0.168E-19   0.167E-06 -.748E-14 -.258E-13
   0.278E-01 0.225E-13 -.720E-13   -.252E-01 0.178E-14 -.601E-15   -.148E-02 -.103E-19 -.307E-19   -.630E-06 0.194E-14 0.232E-13
   -.199E-01 -.426E-13 -.258E-13   0.198E-01 0.178E-14 0.295E-14   0.262E-03 -.727E-20 -.972E-20   0.162E-06 0.233E-14 0.306E-13
   0.814E-02 -.205E-13 -.418E-13   -.104E-01 0.178E-14 -.504E-14   -.114E-04 0.207E-19 0.241E-19   -.124E-05 -.254E-14 0.208E-13
   -.102E-01 0.141E-12 0.389E-12   0.972E-02 0.178E-14 0.206E-14   -.683E-03 -.602E-20 0.270E-19   0.129E-05 -.278E-14 0.261E-13
   0.438E-01 -.227E-03 0.227E-03   -.475E-01 0.181E-03 -.181E-03   0.105E-02 0.464E-04 -.464E-04   -.158E-05 -.151E-06 0.151E-06
   -.285E-01 0.996E-04 -.996E-04   0.267E-01 -.543E-04 0.543E-04   0.114E-02 -.238E-04 0.238E-04   0.147E-05 -.509E-07 0.509E-07
   0.438E-01 0.227E-03 0.227E-03   -.475E-01 -.181E-03 -.181E-03   0.105E-02 -.464E-04 -.464E-04   -.158E-05 0.151E-06 0.151E-06
   -.285E-01 -.996E-04 -.996E-04   0.267E-01 0.543E-04 0.543E-04   0.114E-02 0.238E-04 0.238E-04   0.147E-05 0.509E-07 0.509E-07
   0.438E-01 -.227E-03 -.227E-03   -.475E-01 0.181E-03 0.181E-03   0.105E-02 0.464E-04 0.464E-04   -.158E-05 -.151E-06 -.151E-06
   -.285E-01 0.996E-04 0.996E-04   0.267E-01 -.543E-04 -.543E-04   0.114E-02 -.238E-04 -.238E-04   0.147E-05 -.509E-07 -.509E-07
   0.438E-01 0.227E-03 -.227E-03   -.475E-01 -.181E-03 0.181E-03   0.105E-02 -.464E-04 0.464E-04   -.158E-05 0.151E-06 -.151E-06
   -.285E-01 -.996E-04 0.996E-04   0.267E-01 0.543E-04 -.543E-04   0.114E-02 0.238E-04 -.238E-04   0.147E-05 0.509E-07 -.509E-07
   -.463E-01 0.582E-14 0.794E-01   0.384E-01 0.355E-14 -.728E-01   0.121E-01 -.851E-19 -.117E-01   -.608E-06 0.338E-14 0.344E-06
   -.461E-01 -.301E-12 -.801E-01   0.382E-01 0.355E-14 0.734E-01   0.123E-01 -.442E-19 0.121E-01   -.608E-06 0.231E-14 -.562E-07
   0.526E-03 -.567E-14 0.736E-02   0.128E-02 0.178E-14 -.603E-02   -.714E-03 0.103E-19 -.266E-03   0.418E-06 -.392E-14 0.442E-06
   0.634E-03 -.343E-13 -.741E-02   0.116E-02 0.000E+00 0.603E-02   -.743E-03 0.679E-20 0.264E-03   0.207E-06 -.285E-14 -.401E-06
   -.463E-01 0.435E-14 -.794E-01   0.384E-01 0.311E-14 0.728E-01   0.121E-01 -.718E-19 0.117E-01   -.608E-06 0.505E-14 -.344E-06
   -.461E-01 0.101E-12 0.801E-01   0.382E-01 0.355E-14 -.734E-01   0.123E-01 0.845E-19 -.121E-01   -.608E-06 0.495E-14 0.562E-07
   0.526E-03 -.988E-14 -.736E-02   0.128E-02 0.444E-15 0.603E-02   -.714E-03 -.123E-19 0.266E-03   0.418E-06 -.556E-14 -.442E-06
   0.634E-03 0.148E-12 0.741E-02   0.116E-02 0.355E-14 -.603E-02   -.743E-03 0.407E-21 -.264E-03   0.207E-06 -.542E-14 0.401E-06
   -.463E-01 -.794E-01 0.578E-14   0.384E-01 0.728E-01 -.125E-14   0.121E-01 0.117E-01 -.287E-19   -.607E-06 -.348E-06 -.248E-13
   -.461E-01 0.801E-01 0.175E-13   0.382E-01 -.734E-01 -.169E-14   0.123E-01 -.121E-01 0.343E-19   -.607E-06 0.596E-07 -.228E-13
   -.463E-01 0.794E-01 -.460E-15   0.384E-01 -.728E-01 -.125E-14   0.121E-01 -.117E-01 -.725E-20   -.607E-06 0.348E-06 -.265E-13
   -.461E-01 -.801E-01 0.278E-13   0.382E-01 0.734E-01 -.169E-14   0.123E-01 0.121E-01 -.274E-19   -.607E-06 -.596E-07 -.254E-13
   0.526E-03 -.736E-02 -.737E-14   0.128E-02 0.603E-02 0.167E-14   -.714E-03 0.266E-03 0.162E-19   0.418E-06 -.446E-06 0.251E-13
   0.634E-03 0.741E-02 -.122E-12   0.116E-02 -.603E-02 0.167E-14   -.743E-03 -.264E-03 0.145E-19   0.207E-06 0.404E-06 0.231E-13
   0.526E-03 0.736E-02 -.343E-14   0.128E-02 -.603E-02 0.123E-14   -.714E-03 -.266E-03 -.187E-19   0.418E-06 0.446E-06 0.268E-13
   0.634E-03 -.741E-02 0.107E-12   0.116E-02 0.603E-02 -.188E-14   -.743E-03 0.264E-03 -.105E-19   0.207E-06 -.404E-06 0.257E-13
 -----------------------------------------------------------------------------------------------
   -.371E-05 0.462E-12 -.160E-07   0.536E-15 -.104E-13 0.202E-14   0.795E-05 0.184E-17 0.267E-19   0.783E-08 -.307E-16 -.116E-17
 
 
 POSITION                                       TOTAL-FORCE (eV/Angst)
 -----------------------------------------------------------------------------------
      2.06897      2.05897      0.00000        -0.032585     -0.000000     -0.000000
      6.17692      2.05897      0.00000         0.003567      0.000000      0.000000
      2.05897      6.17692      0.00000         0.001125     -0.000000      0.000000
      6.17692      6.17692      0.00000         0.000085      0.000000      0.000000
      2.05897      2.05897      4.11794         0.001125      0.000000      0.000000
      6.17692      2.05897      4.11794         0.000085     -0.000000      0.000000
      2.05897      6.17692      4.11794        -0.002262      0.000000      0.000000
      6.17692      6.17692      4.11794        -0.001192      0.000000      0.000000
      2.05897      0.00000      2.05897        -0.002620      0.000000     -0.000000
      6.17692      0.00000      2.05897        -0.000598      0.000021     -0.000021
      2.05897      4.11794      2.05897        -0.002620     -0.000000     -0.000000
      6.17692      4.11794      2.05897        -0.000598     -0.000021     -0.000021
      2.05897      0.00000      6.17692        -0.002620      0.000000      0.000000
      6.17692      0.00000      6.17692        -0.000598      0.000021      0.000021
      2.05897      4.11794      6.17692        -0.002620     -0.000000      0.000000
      6.17692      4.11794      6.17692        -0.000598     -0.000021      0.000021
      0.00000      2.05897      2.05897         0.004217     -0.000000     -0.005132
      4.11794      2.05897      2.05897         0.004367     -0.000000      0.005367
      0.00000      6.17692      2.05897         0.001093     -0.000000      0.001070
      4.11794      6.17692      2.05897         0.001055      0.000000     -0.001110
      0.00000      2.05897      6.17692         0.004217      0.000000      0.005132
      4.11794      2.05897      6.17692         0.004367      0.000000     -0.005367
      0.00000      6.17692      6.17692         0.001093     -0.000000     -0.001070
      4.11794      6.17692      6.17692         0.001055      0.000000      0.001110
      0.00000      0.00000      0.00000         0.004217      0.005132     -0.000000
      4.11794      0.00000      0.00000         0.004367     -0.005367      0.000000
      0.00000      4.11794      0.00000         0.004217     -0.005132      0.000000
      4.11794      4.11794      0.00000         0.004367      0.005367      0.000000
      0.00000      0.00000      4.11794         0.001093     -0.001070      0.000000
      4.11794      0.00000      4.11794         0.001055      0.001110      0.000000
      0.00000      4.11794      4.11794         0.001093      0.001070      0.000000
      4.11794      4.11794      4.11794         0.001055     -0.001110      0.000000
 -----------------------------------------------------------------------------------
    total drift:                                0.000004      0.000000     -0.000000


--------------------------------------------------------------------------------------------------------



 mean value of Nose-termostat <S>:     1.000 mean value of <T> :     0.000
 mean temperature <T/S>/<1/S>  :     0.000

     LOOP+:  VPU time  326.32: CPU time  326.98
  
  
 General timing and accounting informations for this job:
 ========================================================
  
                  Total CPU time used (sec):      332.086
                            User time (sec):      316.743
                          System time (sec):       15.343
                         Elapsed time (sec):      332.752
  
                   Maximum memory used (kb):     1000212.
                   Average memory used (kb):           0.
  
                          Minor page faults:       230770
                          Major page faults:            0
                 Voluntary context switches:          885
