32   
1    

1    
  0.0100000000000000   0.0000000000000000   0.0000000000000000
  -0.0325855000   -0.0000000000   -0.0000000000
   0.0035668800    0.0000000000    0.0000000000
   0.0011253900   -0.0000000000    0.0000000000
   0.0000851600    0.0000000000    0.0000000000
   0.0011253900    0.0000000000    0.0000000000
   0.0000851600   -0.0000000000    0.0000000000
  -0.0022622600    0.0000000000    0.0000000000
  -0.0011920100    0.0000000000    0.0000000000
  -0.0026203400    0.0000002900   -0.0000002900
  -0.0005984300    0.0000213500   -0.0000213500
  -0.0026203400   -0.0000002900   -0.0000002900
  -0.0005984300   -0.0000213500   -0.0000213500
  -0.0026203400    0.0000002900    0.0000002900
  -0.0005984300    0.0000213500    0.0000213500
  -0.0026203400   -0.0000002900    0.0000002900
  -0.0005984300   -0.0000213500    0.0000213500
   0.0042165000   -0.0000000000   -0.0051324600
   0.0043669100   -0.0000000000    0.0053668800
   0.0010933800   -0.0000000000    0.0010698500
   0.0010549300    0.0000000000   -0.0011098900
   0.0042165000    0.0000000000    0.0051324600
   0.0043669100    0.0000000000   -0.0053668800
   0.0010933800   -0.0000000000   -0.0010698500
   0.0010549300    0.0000000000    0.0011098900
   0.0042165000    0.0051324600   -0.0000000000
   0.0043669100   -0.0053668800    0.0000000000
   0.0042165000   -0.0051324600    0.0000000000
   0.0043669100    0.0053668800    0.0000000000
   0.0010933800   -0.0010698500    0.0000000000
   0.0010549300    0.0011098900    0.0000000000
   0.0010933800    0.0010698500    0.0000000000
   0.0010549300   -0.0011098900    0.0000000000
