<?xml version="1.0" encoding="ISO-8859-1"?>
<modeling>
 <generator>
  <i name="program" type="string">vasp</i>
  <i name="version" type="string">4.6.28 </i>
  <i name="subversion" type="string">25Jul05 complex  parallel</i>
  <i name="platform" type="string">LinuxIFC</i>
  <i name="date" type="string">2016 10 19</i>
  <i name="time" type="string">12:21:34</i>
 </generator>
 <incar>
  <i type="string" name="PREC">accurate</i>
  <i type="int" name="IALGO">    38</i>
  <i name="EDIFF">      0.00000001</i>
  <i type="int" name="IBRION">    -1</i>
  <i name="ENCUT">    500.00000000</i>
  <i type="logical" name="LREAL"> F  </i>
  <i type="int" name="ISMEAR">     0</i>
  <i name="SIGMA">      0.01000000</i>
  <i type="logical" name="LWAVE"> F  </i>
  <i type="logical" name="LCHARG"> F  </i>
 </incar>
 <kpoints>
  <generation param="Auto">
   <i name="subdivisionlength">     50.00000000</i>
   <v type="int" name="divisions">       6       6       6</v>
   <v name="usershift">      0.00000000      0.00000000      0.00000000</v>
   <v name="genvec1">      0.16666667      0.00000000      0.00000000</v>
   <v name="genvec2">      0.00000000      0.16666667      0.00000000</v>
   <v name="genvec3">      0.00000000      0.00000000      0.16666667</v>
   <v name="shift">      0.00000000      0.00000000      0.00000000</v>
  </generation>
  <varray name="kpointlist" >
   <v>       0.00000000      0.00000000      0.00000000</v>
   <v>       0.16666667      0.00000000      0.00000000</v>
   <v>       0.33333333      0.00000000      0.00000000</v>
   <v>       0.50000000      0.00000000      0.00000000</v>
   <v>       0.00000000      0.16666667      0.00000000</v>
   <v>       0.16666667      0.16666667      0.00000000</v>
   <v>       0.33333333      0.16666667      0.00000000</v>
   <v>       0.50000000      0.16666667      0.00000000</v>
   <v>       0.00000000      0.33333333      0.00000000</v>
   <v>       0.16666667      0.33333333      0.00000000</v>
   <v>       0.33333333      0.33333333      0.00000000</v>
   <v>       0.50000000      0.33333333      0.00000000</v>
   <v>       0.00000000      0.50000000      0.00000000</v>
   <v>       0.16666667      0.50000000      0.00000000</v>
   <v>       0.33333333      0.50000000      0.00000000</v>
   <v>       0.50000000      0.50000000      0.00000000</v>
   <v>       0.00000000      0.16666667      0.16666667</v>
   <v>       0.16666667      0.16666667      0.16666667</v>
   <v>       0.33333333      0.16666667      0.16666667</v>
   <v>       0.50000000      0.16666667      0.16666667</v>
   <v>       0.00000000      0.33333333      0.16666667</v>
   <v>       0.16666667      0.33333333      0.16666667</v>
   <v>       0.33333333      0.33333333      0.16666667</v>
   <v>       0.50000000      0.33333333      0.16666667</v>
   <v>       0.00000000      0.50000000      0.16666667</v>
   <v>       0.16666667      0.50000000      0.16666667</v>
   <v>       0.33333333      0.50000000      0.16666667</v>
   <v>       0.50000000      0.50000000      0.16666667</v>
   <v>       0.00000000      0.33333333      0.33333333</v>
   <v>       0.16666667      0.33333333      0.33333333</v>
   <v>       0.33333333      0.33333333      0.33333333</v>
   <v>       0.50000000      0.33333333      0.33333333</v>
   <v>       0.00000000      0.50000000      0.33333333</v>
   <v>       0.16666667      0.50000000      0.33333333</v>
   <v>       0.33333333      0.50000000      0.33333333</v>
   <v>       0.50000000      0.50000000      0.33333333</v>
   <v>       0.00000000      0.50000000      0.50000000</v>
   <v>       0.16666667      0.50000000      0.50000000</v>
   <v>       0.33333333      0.50000000      0.50000000</v>
   <v>       0.50000000      0.50000000      0.50000000</v>
  </varray>
  <varray name="weights" >
   <v>       0.00462963</v>
   <v>       0.00925926</v>
   <v>       0.00925926</v>
   <v>       0.00462963</v>
   <v>       0.01851852</v>
   <v>       0.03703704</v>
   <v>       0.03703704</v>
   <v>       0.01851852</v>
   <v>       0.01851852</v>
   <v>       0.03703704</v>
   <v>       0.03703704</v>
   <v>       0.01851852</v>
   <v>       0.00925926</v>
   <v>       0.01851852</v>
   <v>       0.01851852</v>
   <v>       0.00925926</v>
   <v>       0.01851852</v>
   <v>       0.03703704</v>
   <v>       0.03703704</v>
   <v>       0.01851852</v>
   <v>       0.03703704</v>
   <v>       0.07407407</v>
   <v>       0.07407407</v>
   <v>       0.03703704</v>
   <v>       0.01851852</v>
   <v>       0.03703704</v>
   <v>       0.03703704</v>
   <v>       0.01851852</v>
   <v>       0.01851852</v>
   <v>       0.03703704</v>
   <v>       0.03703704</v>
   <v>       0.01851852</v>
   <v>       0.01851852</v>
   <v>       0.03703704</v>
   <v>       0.03703704</v>
   <v>       0.01851852</v>
   <v>       0.00462963</v>
   <v>       0.00925926</v>
   <v>       0.00925926</v>
   <v>       0.00462963</v>
  </varray>
 </kpoints>
 <parameters>
  <separator name="general" >
   <i type="string" name="SYSTEM">unknown system</i>
   <i type="logical" name="LCOMPAT"> F  </i>
  </separator>
  <separator name="electronic" >
   <i type="string" name="PREC">accura</i>
   <i name="ENMAX">    500.00000000</i>
   <i name="ENAUG">    291.05200000</i>
   <i name="EDIFF">      0.00000001</i>
   <i type="int" name="IALGO">    38</i>
   <i type="int" name="IWAVPR">    10</i>
   <i type="int" name="NBANDS">    65</i>
   <i name="NELECT">     96.00000000</i>
   <separator name="electronic smearing" >
    <i type="int" name="ISMEAR">     0</i>
    <i name="SIGMA">      0.01000000</i>
   </separator>
   <separator name="electronic projectors" >
    <i type="logical" name="LREAL"> F  </i>
    <v name="ROPT">      0.00000000</v>
    <i type="int" name="LMAXPAW">  -100</i>
    <i type="int" name="LMAXMIX">     2</i>
   </separator>
   <separator name="electronic startup" >
    <i type="int" name="ISTART">     0</i>
    <i type="int" name="ICHARG">     2</i>
    <i type="int" name="INIWAV">     1</i>
   </separator>
   <separator name="electronic spin" >
    <i type="int" name="ISPIN">     1</i>
    <i type="logical" name="LNONCOLLINEAR"> F  </i>
    <v name="MAGMOM">      1.00000000      1.00000000      1.00000000      1.00000000      1.00000000      1.00000000      1.00000000      1.00000000      1.00000000      1.00000000      1.00000000      1.00000000      1.00000000      1.00000000      1.00000000      1.00000000      1.00000000      1.00000000      1.00000000      1.00000000
      1.00000000      1.00000000      1.00000000      1.00000000      1.00000000      1.00000000      1.00000000      1.00000000      1.00000000      1.00000000      1.00000000      1.00000000</v>
    <i name="NUPDOWN">     -1.00000000</i>
    <i type="logical" name="LSORBIT"> F  </i>
    <v name="SAXIS">      0.00000000      0.00000000      1.00000000</v>
    <i type="logical" name="LSPIRAL"> F  </i>
    <v name="QSPIRAL">      0.00000000      0.00000000      0.00000000</v>
    <i type="logical" name="LZEROZ"> F  </i>
   </separator>
   <separator name="electronic exchange-correlation" >
    <i type="string" name="GGA">--</i>
    <i type="int" name="VOSKOWN">     0</i>
    <i type="logical" name="LASPH"> F  </i>
    <i type="logical" name="LMETAGGA"> F  </i>
    <i type="string" name="GGA2">--</i>
   </separator>
   <separator name="electronic convergence" >
    <i type="int" name="NELM">    60</i>
    <i type="int" name="NELMDL">    -5</i>
    <i type="int" name="NELMIN">     2</i>
    <i name="ENINI">    500.00000000</i>
    <separator name="electronic convergence detail" >
     <i type="logical" name="LDIAG"> T  </i>
     <i name="WEIMIN">      0.00000000</i>
     <i name="EBREAK">      0.00000000</i>
     <i name="DEPER">      0.30000000</i>
     <i type="int" name="NRMM">     4</i>
     <i name="TIME">      0.10000000</i>
    </separator>
   </separator>
   <separator name="electronic mixer" >
    <i name="AMIX">      0.40000000</i>
    <i name="BMIX">      1.00000000</i>
    <i name="AMIN">      0.10000000</i>
    <i name="AMIX_MAG">      1.60000000</i>
    <i name="BMIX_MAG">      1.00000000</i>
    <separator name="electronic mixer details" >
     <i type="int" name="IMIX">     4</i>
     <i type="int" name="MAXMIX">   -45</i>
     <i name="WC">    100.00000000</i>
     <i type="int" name="INIMIX">     1</i>
     <i type="int" name="MIXPRE">     1</i>
     <i type="int" name="MREMOVE">     5</i>
    </separator>
   </separator>
   <separator name="electronic dipolcorrection" >
    <i type="int" name="IDIPOL">     0</i>
    <i type="logical" name="LDIPOL"> F  </i>
    <v name="DIPOL">   -100.00000000</v>
    <i name="EFIELD">      0.00000000</i>
   </separator>
  </separator>
  <separator name="grids" >
   <i type="int" name="NGX">    60</i>
   <i type="int" name="NGY">    60</i>
   <i type="int" name="NGZ">    60</i>
   <i type="int" name="NGXF">   120</i>
   <i type="int" name="NGYF">   120</i>
   <i type="int" name="NGZF">   120</i>
   <i type="logical" name="ADDGRID"> F  </i>
  </separator>
  <separator name="ionic" >
   <i type="int" name="NSW">     0</i>
   <i type="int" name="IBRION">    -1</i>
   <i type="int" name="ISIF">     2</i>
   <i name="PSTRESS">      0.00000000</i>
   <i name="EDIFFG">      0.00000010</i>
   <i type="int" name="NFREE">     0</i>
   <i name="POTIM">      0.50000000</i>
   <i name="SMASS">     -3.00000000</i>
  </separator>
  <separator name="ionic md" >
   <i name="TEBEG">      0.00010000</i>
   <i name="TEEND">      0.00010000</i>
   <i type="int" name="NBLOCK">     1</i>
   <i type="int" name="KBLOCK">     1</i>
   <i type="int" name="NPACO">   256</i>
   <i name="APACO">     16.00000000</i>
  </separator>
  <separator name="symmetry" >
   <i type="int" name="ISYM">     2</i>
   <i name="SYMPREC">      0.00001000</i>
  </separator>
  <separator name="dos" >
   <i type="logical" name="LORBIT"> F  </i>
   <v name="RWIGS">     -1.00000000</v>
   <i type="int" name="NEDOS">   301</i>
   <i name="EMIN">     10.00000000</i>
   <i name="EMAX">    -10.00000000</i>
  </separator>
  <separator name="writing" >
   <i type="int" name="NWRITE">     2</i>
   <i type="logical" name="LWAVE"> F  </i>
   <i type="logical" name="LCHARG"> F  </i>
   <i type="logical" name="LPARD"> F  </i>
   <i type="logical" name="LVTOT"> F  </i>
   <i type="logical" name="LELF"> F  </i>
   <i type="logical" name="LOPTICS"> F  </i>
   <i name="STM">      0.00000000</i>
  </separator>
  <separator name="performance" >
   <i type="int" name="NPAR">     8</i>
   <i type="int" name="NSIM">     4</i>
   <i type="int" name="NBLK">   256</i>
   <i type="logical" name="LPLANE"> T  </i>
   <i type="logical" name="LCRITICAL_MEM"> F  </i>
   <i type="logical" name="LSCALAPACK"> F  </i>
   <i type="logical" name="LSCALU"> F  </i>
   <i type="logical" name="LASYNC"> F  </i>
  </separator>
  <separator name="miscellaneous" >
   <i type="int" name="IDIOT">     3</i>
   <i type="logical" name="LMUSIC"> F  </i>
   <v name="POMASS">     26.98200000</v>
   <i type="logical" name="LCORR"> T  </i>
  </separator>
  <i type="logical" name="LREAL_COMPAT"> F  </i>
  <i type="logical" name="GGA_COMPAT"> T  </i>
  <i type="logical" name="LBERRY"> F  </i>
  <i type="int" name="ICORELEVEL">     0</i>
  <i type="logical" name="LDAU"> F  </i>
  <i type="int" name="I_CONSTRAINED_M">     0</i>
 </parameters>
 <atominfo>
  <atoms>      32</atoms>
  <types>       1</types>
  <array name="atoms" >
   <dimension dim="1">ion</dimension>
   <field type="string">element</field>
   <field type="int">atomtype</field>
   <set>
    <rc><c>Al</c><c>   1</c></rc>
    <rc><c>Al</c><c>   1</c></rc>
    <rc><c>Al</c><c>   1</c></rc>
    <rc><c>Al</c><c>   1</c></rc>
    <rc><c>Al</c><c>   1</c></rc>
    <rc><c>Al</c><c>   1</c></rc>
    <rc><c>Al</c><c>   1</c></rc>
    <rc><c>Al</c><c>   1</c></rc>
    <rc><c>Al</c><c>   1</c></rc>
    <rc><c>Al</c><c>   1</c></rc>
    <rc><c>Al</c><c>   1</c></rc>
    <rc><c>Al</c><c>   1</c></rc>
    <rc><c>Al</c><c>   1</c></rc>
    <rc><c>Al</c><c>   1</c></rc>
    <rc><c>Al</c><c>   1</c></rc>
    <rc><c>Al</c><c>   1</c></rc>
    <rc><c>Al</c><c>   1</c></rc>
    <rc><c>Al</c><c>   1</c></rc>
    <rc><c>Al</c><c>   1</c></rc>
    <rc><c>Al</c><c>   1</c></rc>
    <rc><c>Al</c><c>   1</c></rc>
    <rc><c>Al</c><c>   1</c></rc>
    <rc><c>Al</c><c>   1</c></rc>
    <rc><c>Al</c><c>   1</c></rc>
    <rc><c>Al</c><c>   1</c></rc>
    <rc><c>Al</c><c>   1</c></rc>
    <rc><c>Al</c><c>   1</c></rc>
    <rc><c>Al</c><c>   1</c></rc>
    <rc><c>Al</c><c>   1</c></rc>
    <rc><c>Al</c><c>   1</c></rc>
    <rc><c>Al</c><c>   1</c></rc>
    <rc><c>Al</c><c>   1</c></rc>
   </set>
  </array>
  <array name="atomtypes" >
   <dimension dim="1">type</dimension>
   <field type="int">atomspertype</field>
   <field type="string">element</field>
   <field>mass</field>
   <field>valence</field>
   <field type="string">pseudopotential</field>
   <set>
    <rc><c>  32</c><c>Al</c><c>     26.98200000</c><c>      3.00000000</c><c> PAW_PBE Al 04Jan2001                   </c></rc>
   </set>
  </array>
 </atominfo>
 <structure name="initialpos" >
  <crystal>
   <varray name="basis" >
    <v>       8.23588780      0.00000000      0.00000000</v>
    <v>       0.00000000      8.23588780      0.00000000</v>
    <v>       0.00000000      0.00000000      8.23588780</v>
   </varray>
   <i name="volume">    558.63901560</i>
   <varray name="rec_basis" >
    <v>       0.12141982      0.00000000      0.00000000</v>
    <v>       0.00000000      0.12141982      0.00000000</v>
    <v>       0.00000000      0.00000000      0.12141982</v>
   </varray>
  </crystal>
  <varray name="positions" >
   <v>       0.25121420      0.25000000      0.00000000</v>
   <v>       0.75000000      0.25000000      0.00000000</v>
   <v>       0.25000000      0.75000000      0.00000000</v>
   <v>       0.75000000      0.75000000      0.00000000</v>
   <v>       0.25000000      0.25000000      0.50000000</v>
   <v>       0.75000000      0.25000000      0.50000000</v>
   <v>       0.25000000      0.75000000      0.50000000</v>
   <v>       0.75000000      0.75000000      0.50000000</v>
   <v>       0.25000000      0.00000000      0.25000000</v>
   <v>       0.75000000      0.00000000      0.25000000</v>
   <v>       0.25000000      0.50000000      0.25000000</v>
   <v>       0.75000000      0.50000000      0.25000000</v>
   <v>       0.25000000      0.00000000      0.75000000</v>
   <v>       0.75000000      0.00000000      0.75000000</v>
   <v>       0.25000000      0.50000000      0.75000000</v>
   <v>       0.75000000      0.50000000      0.75000000</v>
   <v>       0.00000000      0.25000000      0.25000000</v>
   <v>       0.50000000      0.25000000      0.25000000</v>
   <v>       0.00000000      0.75000000      0.25000000</v>
   <v>       0.50000000      0.75000000      0.25000000</v>
   <v>       0.00000000      0.25000000      0.75000000</v>
   <v>       0.50000000      0.25000000      0.75000000</v>
   <v>       0.00000000      0.75000000      0.75000000</v>
   <v>       0.50000000      0.75000000      0.75000000</v>
   <v>       0.00000000      0.00000000      0.00000000</v>
   <v>       0.50000000      0.00000000      0.00000000</v>
   <v>       0.00000000      0.50000000      0.00000000</v>
   <v>       0.50000000      0.50000000      0.00000000</v>
   <v>       0.00000000      0.00000000      0.50000000</v>
   <v>       0.50000000      0.00000000      0.50000000</v>
   <v>       0.00000000      0.50000000      0.50000000</v>
   <v>       0.50000000      0.50000000      0.50000000</v>
  </varray>
 </structure>
 <calculation>
  <scstep>
   <time name="dav">   20.12   20.17</time>
   <time name="total">   20.26   20.31</time>
   <energy>
    <i name="alphaZ">     -6.15679069</i>
    <i name="ewald">  -2308.68235103</i>
    <i name="hartreedc">     -4.02899106</i>
    <i name="XCdc">   -842.88575012</i>
    <i name="pawpsdc">   1137.73615723</i>
    <i name="pawaedc">   -115.16745734</i>
    <i name="eentropy">     -0.00030456</i>
    <i name="bandstr">    538.50184995</i>
    <i name="atom">   1713.22913220</i>
    <i name="e_fr_energy">    112.54549457</i>
    <i name="e_wo_entrp">    112.54579914</i>
    <i name="e_0_energy">    112.54564685</i>
   </energy>
  </scstep>
  <scstep>
   <time name="dav">   22.64   22.69</time>
   <time name="total">   22.65   22.70</time>
   <energy>
    <i name="e_fr_energy">   -107.29726640</i>
    <i name="e_wo_entrp">   -107.29612066</i>
    <i name="e_0_energy">   -107.29669353</i>
   </energy>
  </scstep>
  <scstep>
   <time name="dav">   23.70   23.76</time>
   <time name="total">   23.70   23.76</time>
   <energy>
    <i name="e_fr_energy">   -119.82617858</i>
    <i name="e_wo_entrp">   -119.82462423</i>
    <i name="e_0_energy">   -119.82540141</i>
   </energy>
  </scstep>
  <scstep>
   <time name="dav">   22.47   22.51</time>
   <time name="total">   22.48   22.51</time>
   <energy>
    <i name="e_fr_energy">   -120.06079025</i>
    <i name="e_wo_entrp">   -120.05884881</i>
    <i name="e_0_energy">   -120.05981953</i>
   </energy>
  </scstep>
  <scstep>
   <time name="dav">   22.59   22.63</time>
   <time name="total">   23.91   23.95</time>
   <energy>
    <i name="e_fr_energy">   -120.06365934</i>
    <i name="e_wo_entrp">   -120.06171589</i>
    <i name="e_0_energy">   -120.06268761</i>
   </energy>
  </scstep>
  <scstep>
   <time name="dav">   22.23   22.27</time>
   <time name="total">   23.69   23.74</time>
   <energy>
    <i name="e_fr_energy">   -119.65644513</i>
    <i name="e_wo_entrp">   -119.65435761</i>
    <i name="e_0_energy">   -119.65540137</i>
   </energy>
  </scstep>
  <scstep>
   <time name="dav">   21.48   21.52</time>
   <time name="total">   22.97   23.02</time>
   <energy>
    <i name="e_fr_energy">   -119.36175180</i>
    <i name="e_wo_entrp">   -119.35970384</i>
    <i name="e_0_energy">   -119.36072782</i>
   </energy>
  </scstep>
  <scstep>
   <time name="dav">   22.74   22.80</time>
   <time name="total">   24.19   24.25</time>
   <energy>
    <i name="e_fr_energy">   -119.36174436</i>
    <i name="e_wo_entrp">   -119.35969179</i>
    <i name="e_0_energy">   -119.36071807</i>
   </energy>
  </scstep>
  <scstep>
   <time name="dav">   22.48   22.51</time>
   <time name="total">   23.90   23.94</time>
   <energy>
    <i name="e_fr_energy">   -119.36176587</i>
    <i name="e_wo_entrp">   -119.35970979</i>
    <i name="e_0_energy">   -119.36073783</i>
   </energy>
  </scstep>
  <scstep>
   <time name="dav">   22.78   22.82</time>
   <time name="total">   24.29   24.33</time>
   <energy>
    <i name="e_fr_energy">   -119.36176520</i>
    <i name="e_wo_entrp">   -119.35970868</i>
    <i name="e_0_energy">   -119.36073694</i>
   </energy>
  </scstep>
  <scstep>
   <time name="dav">   22.54   22.58</time>
   <time name="total">   23.99   24.03</time>
   <energy>
    <i name="e_fr_energy">   -119.36176163</i>
    <i name="e_wo_entrp">   -119.35970488</i>
    <i name="e_0_energy">   -119.36073326</i>
   </energy>
  </scstep>
  <scstep>
   <time name="dav">   16.92   16.96</time>
   <time name="total">   18.35   18.40</time>
   <energy>
    <i name="e_fr_energy">   -119.36176060</i>
    <i name="e_wo_entrp">   -119.35970384</i>
    <i name="e_0_energy">   -119.36073222</i>
   </energy>
  </scstep>
  <scstep>
   <time name="dav">   15.22   15.24</time>
   <time name="total">   16.71   16.74</time>
   <energy>
    <i name="e_fr_energy">   -119.36176037</i>
    <i name="e_wo_entrp">   -119.35970362</i>
    <i name="e_0_energy">   -119.36073199</i>
   </energy>
  </scstep>
  <scstep>
   <time name="dav">   15.07   15.09</time>
   <time name="total">   15.21   15.23</time>
   <energy>
    <i name="alphaZ">     -6.15679069</i>
    <i name="ewald">  -2308.68235103</i>
    <i name="hartreedc">     -3.12707310</i>
    <i name="XCdc">   -839.79938635</i>
    <i name="pawpsdc">   1136.31861584</i>
    <i name="pawaedc">   -113.88606994</i>
    <i name="eentropy">     -0.00205675</i>
    <i name="bandstr">    302.74421944</i>
    <i name="atom">   1713.22913220</i>
    <i name="e_fr_energy">   -119.36176037</i>
    <i name="e_wo_entrp">   -119.35970362</i>
    <i name="e_0_energy">   -119.36073199</i>
   </energy>
  </scstep>
  <structure>
   <crystal>
    <varray name="basis" >
     <v>       8.23588780      0.00000000      0.00000000</v>
     <v>       0.00000000      8.23588780      0.00000000</v>
     <v>       0.00000000      0.00000000      8.23588780</v>
    </varray>
    <i name="volume">    558.63901560</i>
    <varray name="rec_basis" >
     <v>       0.12141982      0.00000000      0.00000000</v>
     <v>       0.00000000      0.12141982      0.00000000</v>
     <v>       0.00000000      0.00000000      0.12141982</v>
    </varray>
   </crystal>
   <varray name="positions" >
    <v>       0.25121420      0.25000000      0.00000000</v>
    <v>       0.75000000      0.25000000      0.00000000</v>
    <v>       0.25000000      0.75000000      0.00000000</v>
    <v>       0.75000000      0.75000000      0.00000000</v>
    <v>       0.25000000      0.25000000      0.50000000</v>
    <v>       0.75000000      0.25000000      0.50000000</v>
    <v>       0.25000000      0.75000000      0.50000000</v>
    <v>       0.75000000      0.75000000      0.50000000</v>
    <v>       0.25000000      0.00000000      0.25000000</v>
    <v>       0.75000000      0.00000000      0.25000000</v>
    <v>       0.25000000      0.50000000      0.25000000</v>
    <v>       0.75000000      0.50000000      0.25000000</v>
    <v>       0.25000000      0.00000000      0.75000000</v>
    <v>       0.75000000      0.00000000      0.75000000</v>
    <v>       0.25000000      0.50000000      0.75000000</v>
    <v>       0.75000000      0.50000000      0.75000000</v>
    <v>       0.00000000      0.25000000      0.25000000</v>
    <v>       0.50000000      0.25000000      0.25000000</v>
    <v>       0.00000000      0.75000000      0.25000000</v>
    <v>       0.50000000      0.75000000      0.25000000</v>
    <v>       0.00000000      0.25000000      0.75000000</v>
    <v>       0.50000000      0.25000000      0.75000000</v>
    <v>       0.00000000      0.75000000      0.75000000</v>
    <v>       0.50000000      0.75000000      0.75000000</v>
    <v>       0.00000000      0.00000000      0.00000000</v>
    <v>       0.50000000      0.00000000      0.00000000</v>
    <v>       0.00000000      0.50000000      0.00000000</v>
    <v>       0.50000000      0.50000000      0.00000000</v>
    <v>       0.00000000      0.00000000      0.50000000</v>
    <v>       0.50000000      0.00000000      0.50000000</v>
    <v>       0.00000000      0.50000000      0.50000000</v>
    <v>       0.50000000      0.50000000      0.50000000</v>
   </varray>
  </structure>
  <varray name="forces" >
   <v>      -0.03258550     -0.00000000     -0.00000000</v>
   <v>       0.00356688      0.00000000      0.00000000</v>
   <v>       0.00112539     -0.00000000      0.00000000</v>
   <v>       0.00008516      0.00000000      0.00000000</v>
   <v>       0.00112539      0.00000000      0.00000000</v>
   <v>       0.00008516     -0.00000000      0.00000000</v>
   <v>      -0.00226226      0.00000000      0.00000000</v>
   <v>      -0.00119201      0.00000000      0.00000000</v>
   <v>      -0.00262034      0.00000029     -0.00000029</v>
   <v>      -0.00059843      0.00002135     -0.00002135</v>
   <v>      -0.00262034     -0.00000029     -0.00000029</v>
   <v>      -0.00059843     -0.00002135     -0.00002135</v>
   <v>      -0.00262034      0.00000029      0.00000029</v>
   <v>      -0.00059843      0.00002135      0.00002135</v>
   <v>      -0.00262034     -0.00000029      0.00000029</v>
   <v>      -0.00059843     -0.00002135      0.00002135</v>
   <v>       0.00421650     -0.00000000     -0.00513246</v>
   <v>       0.00436691     -0.00000000      0.00536688</v>
   <v>       0.00109338     -0.00000000      0.00106985</v>
   <v>       0.00105493      0.00000000     -0.00110989</v>
   <v>       0.00421650      0.00000000      0.00513246</v>
   <v>       0.00436691      0.00000000     -0.00536688</v>
   <v>       0.00109338     -0.00000000     -0.00106985</v>
   <v>       0.00105493      0.00000000      0.00110989</v>
   <v>       0.00421650      0.00513246     -0.00000000</v>
   <v>       0.00436691     -0.00536688      0.00000000</v>
   <v>       0.00421650     -0.00513246      0.00000000</v>
   <v>       0.00436691      0.00536688      0.00000000</v>
   <v>       0.00109338     -0.00106985      0.00000000</v>
   <v>       0.00105493      0.00110989      0.00000000</v>
   <v>       0.00109338      0.00106985      0.00000000</v>
   <v>       0.00105493     -0.00110989      0.00000000</v>
  </varray>
  <varray name="stress" >
   <v>     -38.54050553     -0.00000000      0.00000000</v>
   <v>      -0.00000000    -38.53555108      0.00000000</v>
   <v>       0.00000000      0.00000000    -38.53555108</v>
  </varray>
  <energy>
   <i name="e_fr_energy">   -119.36176037</i>
   <i name="e_wo_entrp">   -119.36073199</i>
   <i name="e_0_energy">     -0.00205675</i>
  </energy>
  <eigenvalues>
   <array>
    <dimension dim="1">band</dimension>
    <dimension dim="2">kpoint</dimension>
    <dimension dim="3">spin</dimension>
    <field>eigene</field>
    <field>occ</field>
    <set>
     <set comment="spin 1">
      <set comment="kpoint 1">
       <r>  -3.3267  1.0000</r>
       <r>  -1.1631  1.0000</r>
       <r>  -1.1596  1.0000</r>
       <r>  -1.1596  1.0000</r>
       <r>  -1.1596  1.0000</r>
       <r>  -1.1596  1.0000</r>
       <r>  -1.1562  1.0000</r>
       <r>   0.9706  1.0000</r>
       <r>   0.9750  1.0000</r>
       <r>   0.9750  1.0000</r>
       <r>   0.9765  1.0000</r>
       <r>   0.9767  1.0000</r>
       <r>   0.9767  1.0000</r>
       <r>   0.9767  1.0000</r>
       <r>   0.9767  1.0000</r>
       <r>   0.9768  1.0000</r>
       <r>   0.9783  1.0000</r>
       <r>   0.9783  1.0000</r>
       <r>   0.9827  1.0000</r>
       <r>   3.0538  1.0000</r>
       <r>   3.0538  1.0000</r>
       <r>   3.0538  1.0000</r>
       <r>   3.0539  1.0000</r>
       <r>   3.1177  1.0000</r>
       <r>   3.1177  1.0000</r>
       <r>   3.1177  1.0000</r>
       <r>   3.1178  1.0000</r>
       <r>   4.6362  1.0000</r>
       <r>   4.6362  1.0000</r>
       <r>   4.6362  1.0000</r>
       <r>   5.8267  1.0000</r>
       <r>   5.8268  1.0000</r>
       <r>   5.8268  1.0000</r>
       <r>   6.6449  1.0000</r>
       <r>   6.6449  1.0000</r>
       <r>   6.6491  1.0000</r>
       <r>   6.6491  1.0000</r>
       <r>   6.6492  1.0000</r>
       <r>   6.6492  1.0000</r>
       <r>   6.6492  1.0000</r>
       <r>   6.6492  1.0000</r>
       <r>   6.6492  1.0000</r>
       <r>   6.6492  1.0000</r>
       <r>   6.6533  1.0000</r>
       <r>   6.6533  1.0000</r>
       <r>   7.6867  0.0000</r>
       <r>   7.6906  0.0000</r>
       <r>   7.6906  0.0000</r>
       <r>   7.6906  0.0000</r>
       <r>   7.6906  0.0000</r>
       <r>   7.6944  0.0000</r>
       <r>   8.2234  0.0000</r>
       <r>   8.2242  0.0000</r>
       <r>   8.2242  0.0000</r>
       <r>   8.2242  0.0000</r>
       <r>   8.2242  0.0000</r>
       <r>   8.2250  0.0000</r>
       <r>   8.6621  0.0000</r>
       <r>   8.6621  0.0000</r>
       <r>   8.6638  0.0000</r>
       <r>   8.6659  0.0000</r>
       <r>   8.6660  0.0000</r>
       <r>   8.6660  0.0000</r>
       <r>   8.6660  0.0000</r>
       <r>   8.6661  0.0000</r>
       <r>   8.6662  0.0000</r>
       <r>   8.6683  0.0000</r>
       <r>   8.6700  0.0000</r>
       <r>   8.6700  0.0000</r>
       <r>  10.0026  0.0000</r>
       <r>  10.0051  0.0000</r>
       <r>  10.0058  0.0000</r>
      </set>
      <set comment="kpoint 2">
       <r>  -3.2660  1.0000</r>
       <r>  -1.8184  1.0000</r>
       <r>  -1.0999  1.0000</r>
       <r>  -1.0999  1.0000</r>
       <r>  -1.0999  1.0000</r>
       <r>  -1.0999  1.0000</r>
       <r>  -0.3851  1.0000</r>
       <r>   0.3271  1.0000</r>
       <r>   0.3271  1.0000</r>
       <r>   0.3271  1.0000</r>
       <r>   0.3271  1.0000</r>
       <r>   1.0356  1.0000</r>
       <r>   1.0356  1.0000</r>
       <r>   1.0356  1.0000</r>
       <r>   1.0356  1.0000</r>
       <r>   1.7404  1.0000</r>
       <r>   1.7404  1.0000</r>
       <r>   1.7404  1.0000</r>
       <r>   1.7404  1.0000</r>
       <r>   2.4436  1.0000</r>
       <r>   2.4436  1.0000</r>
       <r>   2.4436  1.0000</r>
       <r>   2.4436  1.0000</r>
       <r>   3.7711  1.0000</r>
       <r>   3.8410  1.0000</r>
       <r>   3.8410  1.0000</r>
       <r>   3.8410  1.0000</r>
       <r>   3.8410  1.0000</r>
       <r>   4.6920  1.0000</r>
       <r>   4.6920  1.0000</r>
       <r>   5.8238  1.0000</r>
       <r>   5.8239  1.0000</r>
       <r>   5.8239  1.0000</r>
       <r>   5.8239  1.0000</r>
       <r>   5.8861  1.0000</r>
       <r>   5.8862  1.0000</r>
       <r>   6.0334  1.0000</r>
       <r>   6.0334  1.0000</r>
       <r>   6.7051  1.0000</r>
       <r>   6.7051  1.0000</r>
       <r>   6.7051  1.0000</r>
       <r>   6.7051  1.0000</r>
       <r>   6.7977  1.0000</r>
       <r>   7.2686  1.0000</r>
       <r>   7.2687  1.0000</r>
       <r>   7.3776  1.0000</r>
       <r>   7.3776  1.0000</r>
       <r>   7.8726  0.0000</r>
       <r>   7.8727  0.0000</r>
       <r>   7.8727  0.0000</r>
       <r>   7.8727  0.0000</r>
       <r>   7.9655  0.0000</r>
       <r>   7.9655  0.0000</r>
       <r>   7.9655  0.0000</r>
       <r>   7.9655  0.0000</r>
       <r>   8.0494  0.0000</r>
       <r>   8.0494  0.0000</r>
       <r>   8.0495  0.0000</r>
       <r>   8.0495  0.0000</r>
       <r>   8.7510  0.0000</r>
       <r>   8.7510  0.0000</r>
       <r>   8.9358  0.0000</r>
       <r>   8.9358  0.0000</r>
       <r>   8.9358  0.0000</r>
       <r>   8.9358  0.0000</r>
       <r>   9.3853  0.0000</r>
       <r>   9.3854  0.0000</r>
       <r>   9.3856  0.0000</r>
       <r>   9.3896  0.0000</r>
       <r>   9.3950  0.0000</r>
       <r>   9.3951  0.0000</r>
       <r>   9.3953  0.0000</r>
      </set>
      <set comment="kpoint 3">
       <r>  -3.0843  1.0000</r>
       <r>  -2.3596  1.0000</r>
       <r>  -0.9208  1.0000</r>
       <r>  -0.9208  1.0000</r>
       <r>  -0.9208  1.0000</r>
       <r>  -0.9208  1.0000</r>
       <r>  -0.2065  1.0000</r>
       <r>  -0.2065  1.0000</r>
       <r>  -0.2065  1.0000</r>
       <r>  -0.2065  1.0000</r>
       <r>   0.5028  1.0000</r>
       <r>   1.2123  1.0000</r>
       <r>   1.2123  1.0000</r>
       <r>   1.2123  1.0000</r>
       <r>   1.2123  1.0000</r>
       <r>   1.9171  1.0000</r>
       <r>   1.9171  1.0000</r>
       <r>   1.9171  1.0000</r>
       <r>   1.9172  1.0000</r>
       <r>   2.5998  1.0000</r>
       <r>   2.6158  1.0000</r>
       <r>   2.6158  1.0000</r>
       <r>   2.6158  1.0000</r>
       <r>   2.6159  1.0000</r>
       <r>   4.6796  1.0000</r>
       <r>   4.6796  1.0000</r>
       <r>   4.6797  1.0000</r>
       <r>   4.6797  1.0000</r>
       <r>   4.7057  1.0000</r>
       <r>   4.7057  1.0000</r>
       <r>   4.7057  1.0000</r>
       <r>   4.7057  1.0000</r>
       <r>   4.8595  1.0000</r>
       <r>   4.8595  1.0000</r>
       <r>   5.5300  1.0000</r>
       <r>   5.5300  1.0000</r>
       <r>   6.0636  1.0000</r>
       <r>   6.0636  1.0000</r>
       <r>   6.7449  1.0000</r>
       <r>   6.7450  1.0000</r>
       <r>   6.7450  1.0000</r>
       <r>   6.7451  1.0000</r>
       <r>   6.7640  1.0000</r>
       <r>   6.7643  1.0000</r>
       <r>   6.8731  1.0000</r>
       <r>   6.8731  1.0000</r>
       <r>   6.8731  1.0000</r>
       <r>   6.8731  1.0000</r>
       <r>   7.5451  0.0000</r>
       <r>   7.5451  0.0000</r>
       <r>   7.5451  0.0000</r>
       <r>   7.5452  0.0000</r>
       <r>   8.1729  0.0000</r>
       <r>   8.1729  0.0000</r>
       <r>   8.1729  0.0000</r>
       <r>   8.1729  0.0000</r>
       <r>   8.2188  0.0000</r>
       <r>   8.2188  0.0000</r>
       <r>   8.2865  0.0000</r>
       <r>   8.8721  0.0000</r>
       <r>   8.8721  0.0000</r>
       <r>   8.8721  0.0000</r>
       <r>   8.8721  0.0000</r>
       <r>   9.5670  0.0000</r>
       <r>   9.5670  0.0000</r>
       <r>  10.2359  0.0000</r>
       <r>  10.2359  0.0000</r>
       <r>  10.2363  0.0000</r>
       <r>  10.2363  0.0000</r>
       <r>  10.2407  0.0000</r>
       <r>  10.2409  0.0000</r>
       <r>  10.3545  0.0000</r>
      </set>
      <set comment="kpoint 4">
       <r>  -2.7833  1.0000</r>
       <r>  -2.7805  1.0000</r>
       <r>  -0.6267  1.0000</r>
       <r>  -0.6236  1.0000</r>
       <r>  -0.6236  1.0000</r>
       <r>  -0.6228  1.0000</r>
       <r>  -0.6228  1.0000</r>
       <r>  -0.6219  1.0000</r>
       <r>  -0.6219  1.0000</r>
       <r>  -0.6189  1.0000</r>
       <r>   1.4981  1.0000</r>
       <r>   1.5006  1.0000</r>
       <r>   1.5049  1.0000</r>
       <r>   1.5051  1.0000</r>
       <r>   1.5051  1.0000</r>
       <r>   1.5059  1.0000</r>
       <r>   1.5068  1.0000</r>
       <r>   1.5076  1.0000</r>
       <r>   1.5076  1.0000</r>
       <r>   1.5100  1.0000</r>
       <r>   3.5976  1.0000</r>
       <r>   3.5979  1.0000</r>
       <r>   3.5979  1.0000</r>
       <r>   3.5986  1.0000</r>
       <r>   3.5988  1.0000</r>
       <r>   3.5995  1.0000</r>
       <r>   3.5995  1.0000</r>
       <r>   3.5998  1.0000</r>
       <r>   5.1373  1.0000</r>
       <r>   5.1373  1.0000</r>
       <r>   5.1403  1.0000</r>
       <r>   5.1403  1.0000</r>
       <r>   5.6759  1.0000</r>
       <r>   5.6759  1.0000</r>
       <r>   5.6765  1.0000</r>
       <r>   5.6767  1.0000</r>
       <r>   5.6772  1.0000</r>
       <r>   5.6775  1.0000</r>
       <r>   5.6781  1.0000</r>
       <r>   5.6781  1.0000</r>
       <r>   6.3559  1.0000</r>
       <r>   6.3568  1.0000</r>
       <r>   6.3586  1.0000</r>
       <r>   6.3595  1.0000</r>
       <r>   7.1508  1.0000</r>
       <r>   7.1508  1.0000</r>
       <r>   7.1517  1.0000</r>
       <r>   7.1530  1.0000</r>
       <r>   7.1532  1.0000</r>
       <r>   7.1544  1.0000</r>
       <r>   7.1553  1.0000</r>
       <r>   7.1553  1.0000</r>
       <r>   8.4659  0.0000</r>
       <r>   8.4669  0.0000</r>
       <r>   8.4669  0.0000</r>
       <r>   8.4671  0.0000</r>
       <r>   8.4691  0.0000</r>
       <r>   8.4692  0.0000</r>
       <r>   8.4692  0.0000</r>
       <r>   8.4703  0.0000</r>
       <r>   9.1719  0.0000</r>
       <r>   9.1719  0.0000</r>
       <r>   9.1742  0.0000</r>
       <r>   9.1742  0.0000</r>
       <r>   9.9135  0.0000</r>
       <r>   9.9150  0.0000</r>
       <r>  10.4774  0.0000</r>
       <r>  10.4780  0.0000</r>
       <r>  10.4792  0.0000</r>
       <r>  10.4797  0.0000</r>
       <r>  11.1889  0.0000</r>
       <r>  11.1899  0.0000</r>
      </set>
      <set comment="kpoint 5">
       <r>  -3.2660  1.0000</r>
       <r>  -1.8184  1.0000</r>
       <r>  -1.1026  1.0000</r>
       <r>  -1.0999  1.0000</r>
       <r>  -1.0999  1.0000</r>
       <r>  -1.0972  1.0000</r>
       <r>  -0.3851  1.0000</r>
       <r>   0.3244  1.0000</r>
       <r>   0.3271  1.0000</r>
       <r>   0.3271  1.0000</r>
       <r>   0.3298  1.0000</r>
       <r>   1.0335  1.0000</r>
       <r>   1.0345  1.0000</r>
       <r>   1.0367  1.0000</r>
       <r>   1.0377  1.0000</r>
       <r>   1.7377  1.0000</r>
       <r>   1.7404  1.0000</r>
       <r>   1.7404  1.0000</r>
       <r>   1.7431  1.0000</r>
       <r>   2.4414  1.0000</r>
       <r>   2.4424  1.0000</r>
       <r>   2.4447  1.0000</r>
       <r>   2.4457  1.0000</r>
       <r>   3.7711  1.0000</r>
       <r>   3.8388  1.0000</r>
       <r>   3.8399  1.0000</r>
       <r>   3.8421  1.0000</r>
       <r>   3.8432  1.0000</r>
       <r>   4.6920  1.0000</r>
       <r>   4.6920  1.0000</r>
       <r>   5.8210  1.0000</r>
       <r>   5.8239  1.0000</r>
       <r>   5.8239  1.0000</r>
       <r>   5.8268  1.0000</r>
       <r>   5.8861  1.0000</r>
       <r>   5.8861  1.0000</r>
       <r>   6.0334  1.0000</r>
       <r>   6.0334  1.0000</r>
       <r>   6.7025  1.0000</r>
       <r>   6.7051  1.0000</r>
       <r>   6.7051  1.0000</r>
       <r>   6.7077  1.0000</r>
       <r>   6.7977  1.0000</r>
       <r>   7.2686  1.0000</r>
       <r>   7.2687  1.0000</r>
       <r>   7.3776  1.0000</r>
       <r>   7.3776  1.0000</r>
       <r>   7.8702  0.0000</r>
       <r>   7.8716  0.0000</r>
       <r>   7.8738  0.0000</r>
       <r>   7.8751  0.0000</r>
       <r>   7.9632  0.0000</r>
       <r>   7.9655  0.0000</r>
       <r>   7.9655  0.0000</r>
       <r>   7.9677  0.0000</r>
       <r>   8.0468  0.0000</r>
       <r>   8.0494  0.0000</r>
       <r>   8.0495  0.0000</r>
       <r>   8.0521  0.0000</r>
       <r>   8.7510  0.0000</r>
       <r>   8.7510  0.0000</r>
       <r>   8.9338  0.0000</r>
       <r>   8.9358  0.0000</r>
       <r>   8.9358  0.0000</r>
       <r>   8.9379  0.0000</r>
       <r>   9.3842  0.0000</r>
       <r>   9.3856  0.0000</r>
       <r>   9.3859  0.0000</r>
       <r>   9.3883  0.0000</r>
       <r>   9.3937  0.0000</r>
       <r>   9.3950  0.0000</r>
       <r>   9.3956  0.0000</r>
      </set>
      <set comment="kpoint 6">
       <r>  -3.2054  1.0000</r>
       <r>  -1.7595  1.0000</r>
       <r>  -1.7573  1.0000</r>
       <r>  -1.0402  1.0000</r>
       <r>  -1.0402  1.0000</r>
       <r>  -0.3273  1.0000</r>
       <r>  -0.3255  1.0000</r>
       <r>  -0.3238  1.0000</r>
       <r>   0.3848  1.0000</r>
       <r>   0.3857  1.0000</r>
       <r>   0.3869  1.0000</r>
       <r>   0.3878  1.0000</r>
       <r>   1.0936  1.0000</r>
       <r>   1.0946  1.0000</r>
       <r>   1.7970  1.0000</r>
       <r>   1.7982  1.0000</r>
       <r>   1.7994  1.0000</r>
       <r>   1.7995  1.0000</r>
       <r>   1.8007  1.0000</r>
       <r>   1.8018  1.0000</r>
       <r>   2.5003  1.0000</r>
       <r>   3.1664  1.0000</r>
       <r>   3.1664  1.0000</r>
       <r>   3.2368  1.0000</r>
       <r>   3.2368  1.0000</r>
       <r>   3.8280  1.0000</r>
       <r>   3.8289  1.0000</r>
       <r>   4.5917  1.0000</r>
       <r>   4.5917  1.0000</r>
       <r>   4.7478  1.0000</r>
       <r>   5.1988  1.0000</r>
       <r>   5.2010  1.0000</r>
       <r>   5.8226  1.0000</r>
       <r>   5.8226  1.0000</r>
       <r>   5.9447  1.0000</r>
       <r>   5.9462  1.0000</r>
       <r>   5.9468  1.0000</r>
       <r>   6.0881  1.0000</r>
       <r>   6.0905  1.0000</r>
       <r>   6.5484  1.0000</r>
       <r>   6.5499  1.0000</r>
       <r>   6.8549  1.0000</r>
       <r>   6.8559  1.0000</r>
       <r>   7.2488  1.0000</r>
       <r>   7.2498  1.0000</r>
       <r>   7.2511  1.0000</r>
       <r>   7.2520  1.0000</r>
       <r>   7.3738  1.0000</r>
       <r>   7.3753  1.0000</r>
       <r>   7.4312  0.6580</r>
       <r>   7.4334  0.5418</r>
       <r>   7.4355  0.4216</r>
       <r>   8.1631  0.0000</r>
       <r>   8.1651  0.0000</r>
       <r>   8.6046  0.0000</r>
       <r>   8.6057  0.0000</r>
       <r>   8.6058  0.0000</r>
       <r>   8.6069  0.0000</r>
       <r>   8.7432  0.0000</r>
       <r>   8.7433  0.0000</r>
       <r>   8.7608  0.0000</r>
       <r>   8.7775  0.0000</r>
       <r>   8.7794  0.0000</r>
       <r>   8.8504  0.0000</r>
       <r>   8.8512  0.0000</r>
       <r>   9.1354  0.0000</r>
       <r>   9.1354  0.0000</r>
       <r>   9.6323  0.0000</r>
       <r>   9.6344  0.0000</r>
       <r>  10.1128  0.0000</r>
       <r>  10.1129  0.0000</r>
       <r>  10.1237  0.0000</r>
      </set>
      <set comment="kpoint 7">
       <r>  -3.0238  1.0000</r>
       <r>  -2.2994  1.0000</r>
       <r>  -1.5785  1.0000</r>
       <r>  -0.8625  1.0000</r>
       <r>  -0.8612  1.0000</r>
       <r>  -0.8598  1.0000</r>
       <r>  -0.1487  1.0000</r>
       <r>  -0.1471  1.0000</r>
       <r>  -0.1459  1.0000</r>
       <r>   0.5606  1.0000</r>
       <r>   0.5632  1.0000</r>
       <r>   0.5637  1.0000</r>
       <r>   0.5649  1.0000</r>
       <r>   1.2714  1.0000</r>
       <r>   1.2714  1.0000</r>
       <r>   1.9731  1.0000</r>
       <r>   1.9749  1.0000</r>
       <r>   1.9751  1.0000</r>
       <r>   2.6579  1.0000</r>
       <r>   2.6733  1.0000</r>
       <r>   2.6738  1.0000</r>
       <r>   2.6764  1.0000</r>
       <r>   2.6771  1.0000</r>
       <r>   3.3712  1.0000</r>
       <r>   4.0004  1.0000</r>
       <r>   4.0474  1.0000</r>
       <r>   4.0710  1.0000</r>
       <r>   4.0710  1.0000</r>
       <r>   4.6869  1.0000</r>
       <r>   4.7361  1.0000</r>
       <r>   4.7361  1.0000</r>
       <r>   4.9153  1.0000</r>
       <r>   5.4217  1.0000</r>
       <r>   5.4529  1.0000</r>
       <r>   5.4529  1.0000</r>
       <r>   5.5859  1.0000</r>
       <r>   6.0597  1.0000</r>
       <r>   6.0598  1.0000</r>
       <r>   6.1177  1.0000</r>
       <r>   6.1178  1.0000</r>
       <r>   6.1225  1.0000</r>
       <r>   6.2572  1.0000</r>
       <r>   6.7402  1.0000</r>
       <r>   6.7402  1.0000</r>
       <r>   6.8056  1.0000</r>
       <r>   6.9289  1.0000</r>
       <r>   7.0280  1.0000</r>
       <r>   7.4473  0.0312</r>
       <r>   7.4834  0.0000</r>
       <r>   7.4834  0.0000</r>
       <r>   7.5481  0.0000</r>
       <r>   7.6016  0.0000</r>
       <r>   7.7070  0.0000</r>
       <r>   8.2440  0.0000</r>
       <r>   8.2728  0.0000</r>
       <r>   8.2760  0.0000</r>
       <r>   8.3430  0.0000</r>
       <r>   8.8795  0.0000</r>
       <r>   9.0838  0.0000</r>
       <r>   9.0838  0.0000</r>
       <r>   9.4352  0.0000</r>
       <r>   9.4479  0.0000</r>
       <r>   9.4480  0.0000</r>
       <r>   9.6029  0.0000</r>
       <r>   9.6199  0.0000</r>
       <r>   9.6288  0.0000</r>
       <r>   9.7718  0.0000</r>
       <r>   9.7792  0.0000</r>
       <r>   9.7792  0.0000</r>
       <r>  10.2964  0.0000</r>
       <r>  10.4171  0.0000</r>
       <r>  10.4268  0.0000</r>
      </set>
      <set comment="kpoint 8">
       <r>  -2.7229  1.0000</r>
       <r>  -2.7201  1.0000</r>
       <r>  -1.2806  1.0000</r>
       <r>  -1.2778  1.0000</r>
       <r>  -0.5652  1.0000</r>
       <r>  -0.5641  1.0000</r>
       <r>  -0.5624  1.0000</r>
       <r>  -0.5613  1.0000</r>
       <r>   0.1476  1.0000</r>
       <r>   0.1504  1.0000</r>
       <r>   0.8570  1.0000</r>
       <r>   0.8581  1.0000</r>
       <r>   0.8598  1.0000</r>
       <r>   0.8609  1.0000</r>
       <r>   1.5584  1.0000</r>
       <r>   1.5598  1.0000</r>
       <r>   2.2656  1.0000</r>
       <r>   2.2667  1.0000</r>
       <r>   2.2684  1.0000</r>
       <r>   2.2695  1.0000</r>
       <r>   2.9600  1.0000</r>
       <r>   2.9614  1.0000</r>
       <r>   3.6557  1.0000</r>
       <r>   3.6559  1.0000</r>
       <r>   3.6571  1.0000</r>
       <r>   3.6573  1.0000</r>
       <r>   4.2853  1.0000</r>
       <r>   4.2882  1.0000</r>
       <r>   4.3478  1.0000</r>
       <r>   4.3492  1.0000</r>
       <r>   5.0448  1.0000</r>
       <r>   5.0449  1.0000</r>
       <r>   5.0462  1.0000</r>
       <r>   5.0463  1.0000</r>
       <r>   5.1932  1.0000</r>
       <r>   5.1961  1.0000</r>
       <r>   6.3409  1.0000</r>
       <r>   6.3421  1.0000</r>
       <r>   6.3438  1.0000</r>
       <r>   6.3450  1.0000</r>
       <r>   6.4128  1.0000</r>
       <r>   6.4155  1.0000</r>
       <r>   6.4192  1.0000</r>
       <r>   6.4196  1.0000</r>
       <r>   6.4208  1.0000</r>
       <r>   6.4210  1.0000</r>
       <r>   6.5355  1.0000</r>
       <r>   6.5385  1.0000</r>
       <r>   7.3123  1.0000</r>
       <r>   7.3151  1.0000</r>
       <r>   7.8376  0.0000</r>
       <r>   7.8402  0.0000</r>
       <r>   7.8802  0.0000</r>
       <r>   7.8833  0.0000</r>
       <r>   8.3827  0.0000</r>
       <r>   8.3845  0.0000</r>
       <r>   9.1968  0.0000</r>
       <r>   9.1997  0.0000</r>
       <r>   9.2280  0.0000</r>
       <r>   9.2302  0.0000</r>
       <r>   9.3783  0.0000</r>
       <r>   9.3791  0.0000</r>
       <r>   9.3812  0.0000</r>
       <r>   9.3819  0.0000</r>
       <r>   9.9684  0.0000</r>
       <r>   9.9699  0.0000</r>
       <r>  10.3948  0.0000</r>
       <r>  10.3950  0.0000</r>
       <r>  10.3967  0.0000</r>
       <r>  10.3969  0.0000</r>
       <r>  10.5360  0.0000</r>
       <r>  10.5402  0.0000</r>
      </set>
      <set comment="kpoint 9">
       <r>  -3.0843  1.0000</r>
       <r>  -2.3596  1.0000</r>
       <r>  -0.9235  1.0000</r>
       <r>  -0.9208  1.0000</r>
       <r>  -0.9208  1.0000</r>
       <r>  -0.9181  1.0000</r>
       <r>  -0.2092  1.0000</r>
       <r>  -0.2065  1.0000</r>
       <r>  -0.2065  1.0000</r>
       <r>  -0.2038  1.0000</r>
       <r>   0.5028  1.0000</r>
       <r>   1.2102  1.0000</r>
       <r>   1.2112  1.0000</r>
       <r>   1.2134  1.0000</r>
       <r>   1.2144  1.0000</r>
       <r>   1.9150  1.0000</r>
       <r>   1.9160  1.0000</r>
       <r>   1.9183  1.0000</r>
       <r>   1.9193  1.0000</r>
       <r>   2.5998  1.0000</r>
       <r>   2.6131  1.0000</r>
       <r>   2.6158  1.0000</r>
       <r>   2.6158  1.0000</r>
       <r>   2.6185  1.0000</r>
       <r>   4.6768  1.0000</r>
       <r>   4.6797  1.0000</r>
       <r>   4.6797  1.0000</r>
       <r>   4.6825  1.0000</r>
       <r>   4.7035  1.0000</r>
       <r>   4.7045  1.0000</r>
       <r>   4.7068  1.0000</r>
       <r>   4.7078  1.0000</r>
       <r>   4.8595  1.0000</r>
       <r>   4.8595  1.0000</r>
       <r>   5.5300  1.0000</r>
       <r>   5.5300  1.0000</r>
       <r>   6.0636  1.0000</r>
       <r>   6.0637  1.0000</r>
       <r>   6.7427  1.0000</r>
       <r>   6.7439  1.0000</r>
       <r>   6.7462  1.0000</r>
       <r>   6.7473  1.0000</r>
       <r>   6.7640  1.0000</r>
       <r>   6.7642  1.0000</r>
       <r>   6.8705  1.0000</r>
       <r>   6.8731  1.0000</r>
       <r>   6.8731  1.0000</r>
       <r>   6.8757  1.0000</r>
       <r>   7.5425  0.0000</r>
       <r>   7.5451  0.0000</r>
       <r>   7.5452  0.0000</r>
       <r>   7.5478  0.0000</r>
       <r>   8.1708  0.0000</r>
       <r>   8.1729  0.0000</r>
       <r>   8.1729  0.0000</r>
       <r>   8.1749  0.0000</r>
       <r>   8.2188  0.0000</r>
       <r>   8.2188  0.0000</r>
       <r>   8.2866  0.0000</r>
       <r>   8.8701  0.0000</r>
       <r>   8.8721  0.0000</r>
       <r>   8.8721  0.0000</r>
       <r>   8.8742  0.0000</r>
       <r>   9.5670  0.0000</r>
       <r>   9.5670  0.0000</r>
       <r>  10.2336  0.0000</r>
       <r>  10.2363  0.0000</r>
       <r>  10.2363  0.0000</r>
       <r>  10.2389  0.0000</r>
       <r>  10.2403  0.0000</r>
       <r>  10.2406  0.0000</r>
       <r>  10.3547  0.0000</r>
      </set>
      <set comment="kpoint 10">
       <r>  -3.0238  1.0000</r>
       <r>  -2.2994  1.0000</r>
       <r>  -1.5785  1.0000</r>
       <r>  -0.8625  1.0000</r>
       <r>  -0.8612  1.0000</r>
       <r>  -0.8598  1.0000</r>
       <r>  -0.1487  1.0000</r>
       <r>  -0.1471  1.0000</r>
       <r>  -0.1459  1.0000</r>
       <r>   0.5608  1.0000</r>
       <r>   0.5627  1.0000</r>
       <r>   0.5637  1.0000</r>
       <r>   0.5653  1.0000</r>
       <r>   1.2714  1.0000</r>
       <r>   1.2714  1.0000</r>
       <r>   1.9725  1.0000</r>
       <r>   1.9749  1.0000</r>
       <r>   1.9757  1.0000</r>
       <r>   2.6579  1.0000</r>
       <r>   2.6739  1.0000</r>
       <r>   2.6741  1.0000</r>
       <r>   2.6762  1.0000</r>
       <r>   2.6765  1.0000</r>
       <r>   3.3712  1.0000</r>
       <r>   4.0004  1.0000</r>
       <r>   4.0474  1.0000</r>
       <r>   4.0710  1.0000</r>
       <r>   4.0710  1.0000</r>
       <r>   4.6868  1.0000</r>
       <r>   4.7361  1.0000</r>
       <r>   4.7362  1.0000</r>
       <r>   4.9153  1.0000</r>
       <r>   5.4217  1.0000</r>
       <r>   5.4529  1.0000</r>
       <r>   5.4529  1.0000</r>
       <r>   5.5859  1.0000</r>
       <r>   6.0597  1.0000</r>
       <r>   6.0598  1.0000</r>
       <r>   6.1178  1.0000</r>
       <r>   6.1178  1.0000</r>
       <r>   6.1224  1.0000</r>
       <r>   6.2572  1.0000</r>
       <r>   6.7402  1.0000</r>
       <r>   6.7402  1.0000</r>
       <r>   6.8056  1.0000</r>
       <r>   6.9289  1.0000</r>
       <r>   7.0280  1.0000</r>
       <r>   7.4473  0.0312</r>
       <r>   7.4834  0.0000</r>
       <r>   7.4834  0.0000</r>
       <r>   7.5481  0.0000</r>
       <r>   7.6016  0.0000</r>
       <r>   7.7070  0.0000</r>
       <r>   8.2440  0.0000</r>
       <r>   8.2735  0.0000</r>
       <r>   8.2753  0.0000</r>
       <r>   8.3430  0.0000</r>
       <r>   8.8795  0.0000</r>
       <r>   9.0838  0.0000</r>
       <r>   9.0839  0.0000</r>
       <r>   9.4353  0.0000</r>
       <r>   9.4479  0.0000</r>
       <r>   9.4479  0.0000</r>
       <r>   9.6030  0.0000</r>
       <r>   9.6200  0.0000</r>
       <r>   9.6288  0.0000</r>
       <r>   9.7718  0.0000</r>
       <r>   9.7792  0.0000</r>
       <r>   9.7792  0.0000</r>
       <r>  10.2964  0.0000</r>
       <r>  10.4171  0.0000</r>
       <r>  10.4236  0.0000</r>
      </set>
      <set comment="kpoint 11">
       <r>  -2.8424  1.0000</r>
       <r>  -2.1199  1.0000</r>
       <r>  -2.1178  1.0000</r>
       <r>  -1.3989  1.0000</r>
       <r>  -0.6824  1.0000</r>
       <r>  -0.6823  1.0000</r>
       <r>   0.0294  1.0000</r>
       <r>   0.0303  1.0000</r>
       <r>   0.0315  1.0000</r>
       <r>   0.0324  1.0000</r>
       <r>   0.7375  1.0000</r>
       <r>   0.7395  1.0000</r>
       <r>   0.7410  1.0000</r>
       <r>   0.7419  1.0000</r>
       <r>   1.4450  1.0000</r>
       <r>   1.4460  1.0000</r>
       <r>   2.8317  1.0000</r>
       <r>   2.8327  1.0000</r>
       <r>   2.8474  1.0000</r>
       <r>   2.8483  1.0000</r>
       <r>   2.8495  1.0000</r>
       <r>   2.8505  1.0000</r>
       <r>   3.5038  1.0000</r>
       <r>   3.5039  1.0000</r>
       <r>   3.5267  1.0000</r>
       <r>   3.5289  1.0000</r>
       <r>   3.5924  1.0000</r>
       <r>   3.5925  1.0000</r>
       <r>   4.2366  1.0000</r>
       <r>   4.8452  1.0000</r>
       <r>   4.8452  1.0000</r>
       <r>   4.9802  1.0000</r>
       <r>   4.9803  1.0000</r>
       <r>   5.0829  1.0000</r>
       <r>   5.6016  1.0000</r>
       <r>   5.6026  1.0000</r>
       <r>   5.6039  1.0000</r>
       <r>   5.6048  1.0000</r>
       <r>   5.7524  1.0000</r>
       <r>   5.7549  1.0000</r>
       <r>   6.2584  1.0000</r>
       <r>   6.2600  1.0000</r>
       <r>   6.2967  1.0000</r>
       <r>   6.3099  1.0000</r>
       <r>   6.3099  1.0000</r>
       <r>   6.4250  1.0000</r>
       <r>   7.0425  1.0000</r>
       <r>   7.0439  1.0000</r>
       <r>   7.7250  0.0000</r>
       <r>   8.3186  0.0000</r>
       <r>   8.3295  0.0000</r>
       <r>   8.3306  0.0000</r>
       <r>   8.3306  0.0000</r>
       <r>   8.3317  0.0000</r>
       <r>   8.4417  0.0000</r>
       <r>   8.4442  0.0000</r>
       <r>   8.5109  0.0000</r>
       <r>   8.5120  0.0000</r>
       <r>   9.1146  0.0000</r>
       <r>   9.1165  0.0000</r>
       <r>   9.1371  0.0000</r>
       <r>   9.1391  0.0000</r>
       <r>   9.8402  0.0000</r>
       <r>   9.8411  0.0000</r>
       <r>  10.3305  0.0000</r>
       <r>  10.3305  0.0000</r>
       <r>  10.3963  0.0000</r>
       <r>  10.3964  0.0000</r>
       <r>  10.4259  0.0000</r>
       <r>  10.4261  0.0000</r>
       <r>  10.4636  0.0000</r>
       <r>  10.4656  0.0000</r>
      </set>
      <set comment="kpoint 12">
       <r>  -2.5419  1.0000</r>
       <r>  -2.5391  1.0000</r>
       <r>  -1.8198  1.0000</r>
       <r>  -1.8171  1.0000</r>
       <r>  -0.3867  1.0000</r>
       <r>  -0.3856  1.0000</r>
       <r>  -0.3839  1.0000</r>
       <r>  -0.3828  1.0000</r>
       <r>   0.3252  1.0000</r>
       <r>   0.3263  1.0000</r>
       <r>   0.3280  1.0000</r>
       <r>   0.3291  1.0000</r>
       <r>   1.0324  1.0000</r>
       <r>   1.0352  1.0000</r>
       <r>   1.7343  1.0000</r>
       <r>   1.7357  1.0000</r>
       <r>   2.4358  1.0000</r>
       <r>   2.4372  1.0000</r>
       <r>   3.1210  1.0000</r>
       <r>   3.1239  1.0000</r>
       <r>   3.1374  1.0000</r>
       <r>   3.1386  1.0000</r>
       <r>   3.1403  1.0000</r>
       <r>   3.1414  1.0000</r>
       <r>   3.8285  1.0000</r>
       <r>   3.8288  1.0000</r>
       <r>   3.8299  1.0000</r>
       <r>   3.8301  1.0000</r>
       <r>   4.5273  1.0000</r>
       <r>   4.5273  1.0000</r>
       <r>   4.5287  1.0000</r>
       <r>   4.5288  1.0000</r>
       <r>   5.2012  1.0000</r>
       <r>   5.2023  1.0000</r>
       <r>   5.2041  1.0000</r>
       <r>   5.2051  1.0000</r>
       <r>   5.2056  1.0000</r>
       <r>   5.2070  1.0000</r>
       <r>   5.3608  1.0000</r>
       <r>   5.3638  1.0000</r>
       <r>   6.0318  1.0000</r>
       <r>   6.0348  1.0000</r>
       <r>   6.5702  1.0000</r>
       <r>   6.5729  1.0000</r>
       <r>   7.2715  1.0000</r>
       <r>   7.2716  1.0000</r>
       <r>   7.2730  1.0000</r>
       <r>   7.2731  1.0000</r>
       <r>   7.2805  1.0000</r>
       <r>   7.2820  1.0000</r>
       <r>   7.3189  1.0000</r>
       <r>   7.3215  1.0000</r>
       <r>   8.7217  0.0000</r>
       <r>   8.7247  0.0000</r>
       <r>   8.7863  0.0000</r>
       <r>   8.7892  0.0000</r>
       <r>   9.2817  0.0000</r>
       <r>   9.2817  0.0000</r>
       <r>   9.2834  0.0000</r>
       <r>   9.2834  0.0000</r>
       <r>   9.3962  0.0000</r>
       <r>   9.3985  0.0000</r>
       <r>  10.0013  0.0000</r>
       <r>  10.0044  0.0000</r>
       <r>  10.0687  0.0000</r>
       <r>  10.0710  0.0000</r>
       <r>  10.1305  0.0000</r>
       <r>  10.1318  0.0000</r>
       <r>  10.7090  0.0000</r>
       <r>  10.7092  0.0000</r>
       <r>  10.7446  0.0000</r>
       <r>  10.7614  0.0000</r>
      </set>
      <set comment="kpoint 13">
       <r>  -2.7819  1.0000</r>
       <r>  -2.7819  1.0000</r>
       <r>  -0.6278  1.0000</r>
       <r>  -0.6233  1.0000</r>
       <r>  -0.6228  1.0000</r>
       <r>  -0.6228  1.0000</r>
       <r>  -0.6228  1.0000</r>
       <r>  -0.6228  1.0000</r>
       <r>  -0.6223  1.0000</r>
       <r>  -0.6178  1.0000</r>
       <r>   1.4990  1.0000</r>
       <r>   1.5002  1.0000</r>
       <r>   1.5037  1.0000</r>
       <r>   1.5044  1.0000</r>
       <r>   1.5059  1.0000</r>
       <r>   1.5061  1.0000</r>
       <r>   1.5066  1.0000</r>
       <r>   1.5070  1.0000</r>
       <r>   1.5083  1.0000</r>
       <r>   1.5105  1.0000</r>
       <r>   3.5957  1.0000</r>
       <r>   3.5961  1.0000</r>
       <r>   3.5987  1.0000</r>
       <r>   3.5987  1.0000</r>
       <r>   3.5987  1.0000</r>
       <r>   3.5987  1.0000</r>
       <r>   3.6012  1.0000</r>
       <r>   3.6016  1.0000</r>
       <r>   5.1388  1.0000</r>
       <r>   5.1388  1.0000</r>
       <r>   5.1388  1.0000</r>
       <r>   5.1388  1.0000</r>
       <r>   5.6741  1.0000</r>
       <r>   5.6754  1.0000</r>
       <r>   5.6756  1.0000</r>
       <r>   5.6760  1.0000</r>
       <r>   5.6779  1.0000</r>
       <r>   5.6783  1.0000</r>
       <r>   5.6785  1.0000</r>
       <r>   5.6798  1.0000</r>
       <r>   6.3576  1.0000</r>
       <r>   6.3577  1.0000</r>
       <r>   6.3577  1.0000</r>
       <r>   6.3577  1.0000</r>
       <r>   7.1483  1.0000</r>
       <r>   7.1526  1.0000</r>
       <r>   7.1531  1.0000</r>
       <r>   7.1531  1.0000</r>
       <r>   7.1531  1.0000</r>
       <r>   7.1531  1.0000</r>
       <r>   7.1535  1.0000</r>
       <r>   7.1579  1.0000</r>
       <r>   8.4643  0.0000</r>
       <r>   8.4676  0.0000</r>
       <r>   8.4681  0.0000</r>
       <r>   8.4681  0.0000</r>
       <r>   8.4681  0.0000</r>
       <r>   8.4681  0.0000</r>
       <r>   8.4686  0.0000</r>
       <r>   8.4718  0.0000</r>
       <r>   9.1730  0.0000</r>
       <r>   9.1730  0.0000</r>
       <r>   9.1730  0.0000</r>
       <r>   9.1731  0.0000</r>
       <r>   9.9143  0.0000</r>
       <r>   9.9143  0.0000</r>
       <r>  10.4785  0.0000</r>
       <r>  10.4786  0.0000</r>
       <r>  10.4786  0.0000</r>
       <r>  10.4786  0.0000</r>
       <r>  11.1896  0.0000</r>
       <r>  11.1902  0.0000</r>
      </set>
      <set comment="kpoint 14">
       <r>  -2.7215  1.0000</r>
       <r>  -2.7215  1.0000</r>
       <r>  -1.2792  1.0000</r>
       <r>  -1.2792  1.0000</r>
       <r>  -0.5633  1.0000</r>
       <r>  -0.5632  1.0000</r>
       <r>  -0.5632  1.0000</r>
       <r>  -0.5632  1.0000</r>
       <r>   0.1490  1.0000</r>
       <r>   0.1490  1.0000</r>
       <r>   0.8589  1.0000</r>
       <r>   0.8589  1.0000</r>
       <r>   0.8589  1.0000</r>
       <r>   0.8589  1.0000</r>
       <r>   1.5591  1.0000</r>
       <r>   1.5591  1.0000</r>
       <r>   2.2675  1.0000</r>
       <r>   2.2675  1.0000</r>
       <r>   2.2675  1.0000</r>
       <r>   2.2675  1.0000</r>
       <r>   2.9607  1.0000</r>
       <r>   2.9607  1.0000</r>
       <r>   3.6565  1.0000</r>
       <r>   3.6565  1.0000</r>
       <r>   3.6565  1.0000</r>
       <r>   3.6565  1.0000</r>
       <r>   4.2868  1.0000</r>
       <r>   4.2868  1.0000</r>
       <r>   4.3485  1.0000</r>
       <r>   4.3485  1.0000</r>
       <r>   5.0455  1.0000</r>
       <r>   5.0456  1.0000</r>
       <r>   5.0456  1.0000</r>
       <r>   5.0456  1.0000</r>
       <r>   5.1947  1.0000</r>
       <r>   5.1947  1.0000</r>
       <r>   6.3429  1.0000</r>
       <r>   6.3429  1.0000</r>
       <r>   6.3429  1.0000</r>
       <r>   6.3429  1.0000</r>
       <r>   6.4142  1.0000</r>
       <r>   6.4143  1.0000</r>
       <r>   6.4200  1.0000</r>
       <r>   6.4200  1.0000</r>
       <r>   6.4201  1.0000</r>
       <r>   6.4203  1.0000</r>
       <r>   6.5370  1.0000</r>
       <r>   6.5370  1.0000</r>
       <r>   7.3137  1.0000</r>
       <r>   7.3137  1.0000</r>
       <r>   7.8389  0.0000</r>
       <r>   7.8389  0.0000</r>
       <r>   7.8818  0.0000</r>
       <r>   7.8818  0.0000</r>
       <r>   8.3836  0.0000</r>
       <r>   8.3836  0.0000</r>
       <r>   9.1982  0.0000</r>
       <r>   9.1983  0.0000</r>
       <r>   9.2291  0.0000</r>
       <r>   9.2291  0.0000</r>
       <r>   9.3801  0.0000</r>
       <r>   9.3801  0.0000</r>
       <r>   9.3801  0.0000</r>
       <r>   9.3801  0.0000</r>
       <r>   9.9692  0.0000</r>
       <r>   9.9692  0.0000</r>
       <r>  10.3958  0.0000</r>
       <r>  10.3959  0.0000</r>
       <r>  10.3959  0.0000</r>
       <r>  10.3959  0.0000</r>
       <r>  10.5375  0.0000</r>
       <r>  10.5669  0.0000</r>
      </set>
      <set comment="kpoint 15">
       <r>  -2.5405  1.0000</r>
       <r>  -2.5405  1.0000</r>
       <r>  -1.8184  1.0000</r>
       <r>  -1.8184  1.0000</r>
       <r>  -0.3848  1.0000</r>
       <r>  -0.3848  1.0000</r>
       <r>  -0.3848  1.0000</r>
       <r>  -0.3848  1.0000</r>
       <r>   0.3271  1.0000</r>
       <r>   0.3272  1.0000</r>
       <r>   0.3272  1.0000</r>
       <r>   0.3272  1.0000</r>
       <r>   1.0338  1.0000</r>
       <r>   1.0338  1.0000</r>
       <r>   1.7349  1.0000</r>
       <r>   1.7350  1.0000</r>
       <r>   2.4365  1.0000</r>
       <r>   2.4365  1.0000</r>
       <r>   3.1224  1.0000</r>
       <r>   3.1224  1.0000</r>
       <r>   3.1394  1.0000</r>
       <r>   3.1395  1.0000</r>
       <r>   3.1395  1.0000</r>
       <r>   3.1395  1.0000</r>
       <r>   3.8293  1.0000</r>
       <r>   3.8293  1.0000</r>
       <r>   3.8293  1.0000</r>
       <r>   3.8293  1.0000</r>
       <r>   4.5280  1.0000</r>
       <r>   4.5280  1.0000</r>
       <r>   4.5280  1.0000</r>
       <r>   4.5280  1.0000</r>
       <r>   5.2031  1.0000</r>
       <r>   5.2032  1.0000</r>
       <r>   5.2032  1.0000</r>
       <r>   5.2032  1.0000</r>
       <r>   5.2062  1.0000</r>
       <r>   5.2063  1.0000</r>
       <r>   5.3623  1.0000</r>
       <r>   5.3623  1.0000</r>
       <r>   6.0333  1.0000</r>
       <r>   6.0333  1.0000</r>
       <r>   6.5716  1.0000</r>
       <r>   6.5716  1.0000</r>
       <r>   7.2721  1.0000</r>
       <r>   7.2723  1.0000</r>
       <r>   7.2723  1.0000</r>
       <r>   7.2723  1.0000</r>
       <r>   7.2812  1.0000</r>
       <r>   7.2814  1.0000</r>
       <r>   7.3202  1.0000</r>
       <r>   7.3202  1.0000</r>
       <r>   8.7232  0.0000</r>
       <r>   8.7232  0.0000</r>
       <r>   8.7878  0.0000</r>
       <r>   8.7878  0.0000</r>
       <r>   9.2825  0.0000</r>
       <r>   9.2825  0.0000</r>
       <r>   9.2825  0.0000</r>
       <r>   9.2826  0.0000</r>
       <r>   9.3973  0.0000</r>
       <r>   9.3973  0.0000</r>
       <r>  10.0028  0.0000</r>
       <r>  10.0028  0.0000</r>
       <r>  10.0699  0.0000</r>
       <r>  10.0699  0.0000</r>
       <r>  10.1311  0.0000</r>
       <r>  10.1311  0.0000</r>
       <r>  10.7089  0.0000</r>
       <r>  10.7102  0.0000</r>
       <r>  10.7452  0.0000</r>
       <r>  10.7541  0.0000</r>
      </set>
      <set comment="kpoint 16">
       <r>  -2.2417  1.0000</r>
       <r>  -2.2395  1.0000</r>
       <r>  -2.2389  1.0000</r>
       <r>  -2.2368  1.0000</r>
       <r>  -0.0912  1.0000</r>
       <r>  -0.0892  1.0000</r>
       <r>  -0.0881  1.0000</r>
       <r>  -0.0880  1.0000</r>
       <r>  -0.0875  1.0000</r>
       <r>  -0.0873  1.0000</r>
       <r>  -0.0863  1.0000</r>
       <r>  -0.0843  1.0000</r>
       <r>   2.0239  1.0000</r>
       <r>   2.0257  1.0000</r>
       <r>   2.0273  1.0000</r>
       <r>   2.0276  1.0000</r>
       <r>   2.0277  1.0000</r>
       <r>   2.0280  1.0000</r>
       <r>   2.0296  1.0000</r>
       <r>   2.0315  1.0000</r>
       <r>   4.0622  1.0000</r>
       <r>   4.0637  1.0000</r>
       <r>   4.0644  1.0000</r>
       <r>   4.0649  1.0000</r>
       <r>   4.0649  1.0000</r>
       <r>   4.0654  1.0000</r>
       <r>   4.0661  1.0000</r>
       <r>   4.0675  1.0000</r>
       <r>   4.1767  1.0000</r>
       <r>   4.1767  1.0000</r>
       <r>   4.1777  1.0000</r>
       <r>   4.1785  1.0000</r>
       <r>   4.1785  1.0000</r>
       <r>   4.1794  1.0000</r>
       <r>   4.1804  1.0000</r>
       <r>   4.1804  1.0000</r>
       <r>   5.6391  1.0000</r>
       <r>   5.6415  1.0000</r>
       <r>   5.6421  1.0000</r>
       <r>   5.6445  1.0000</r>
       <r>   6.1536  1.0000</r>
       <r>   6.1548  1.0000</r>
       <r>   6.1552  1.0000</r>
       <r>   6.1563  1.0000</r>
       <r>   6.9270  1.0000</r>
       <r>   6.9283  1.0000</r>
       <r>   6.9294  1.0000</r>
       <r>   6.9307  1.0000</r>
       <r>   8.2278  0.0000</r>
       <r>   8.2288  0.0000</r>
       <r>   8.2288  0.0000</r>
       <r>   8.2293  0.0000</r>
       <r>   8.2300  0.0000</r>
       <r>   8.2304  0.0000</r>
       <r>   8.2305  0.0000</r>
       <r>   8.2314  0.0000</r>
       <r>   9.6722  0.0000</r>
       <r>   9.6759  0.0000</r>
       <r>   9.6773  0.0000</r>
       <r>   9.6775  0.0000</r>
       <r>   9.6776  0.0000</r>
       <r>   9.6779  0.0000</r>
       <r>   9.6792  0.0000</r>
       <r>   9.6830  0.0000</r>
       <r>  10.3671  0.0000</r>
       <r>  10.3684  0.0000</r>
       <r>  10.3697  0.0000</r>
       <r>  10.3701  0.0000</r>
       <r>  10.3704  0.0000</r>
       <r>  10.3707  0.0000</r>
       <r>  10.3720  0.0000</r>
       <r>  10.3733  0.0000</r>
      </set>
      <set comment="kpoint 17">
       <r>  -3.2054  1.0000</r>
       <r>  -1.7584  1.0000</r>
       <r>  -1.7584  1.0000</r>
       <r>  -1.0418  1.0000</r>
       <r>  -1.0386  1.0000</r>
       <r>  -0.3257  1.0000</r>
       <r>  -0.3257  1.0000</r>
       <r>  -0.3252  1.0000</r>
       <r>   0.3837  1.0000</r>
       <r>   0.3857  1.0000</r>
       <r>   0.3869  1.0000</r>
       <r>   0.3889  1.0000</r>
       <r>   1.0941  1.0000</r>
       <r>   1.0941  1.0000</r>
       <r>   1.7963  1.0000</r>
       <r>   1.7984  1.0000</r>
       <r>   1.7986  1.0000</r>
       <r>   1.7997  1.0000</r>
       <r>   1.8012  1.0000</r>
       <r>   1.8022  1.0000</r>
       <r>   2.5003  1.0000</r>
       <r>   3.1664  1.0000</r>
       <r>   3.1664  1.0000</r>
       <r>   3.2368  1.0000</r>
       <r>   3.2369  1.0000</r>
       <r>   3.8285  1.0000</r>
       <r>   3.8285  1.0000</r>
       <r>   4.5901  1.0000</r>
       <r>   4.5934  1.0000</r>
       <r>   4.7478  1.0000</r>
       <r>   5.1999  1.0000</r>
       <r>   5.1999  1.0000</r>
       <r>   5.8225  1.0000</r>
       <r>   5.8225  1.0000</r>
       <r>   5.9453  1.0000</r>
       <r>   5.9462  1.0000</r>
       <r>   5.9462  1.0000</r>
       <r>   6.0893  1.0000</r>
       <r>   6.0894  1.0000</r>
       <r>   6.5492  1.0000</r>
       <r>   6.5492  1.0000</r>
       <r>   6.8554  1.0000</r>
       <r>   6.8554  1.0000</r>
       <r>   7.2476  1.0000</r>
       <r>   7.2497  1.0000</r>
       <r>   7.2512  1.0000</r>
       <r>   7.2532  1.0000</r>
       <r>   7.3744  1.0000</r>
       <r>   7.3745  1.0000</r>
       <r>   7.4330  0.5620</r>
       <r>   7.4336  0.5304</r>
       <r>   7.4336  0.5264</r>
       <r>   8.1641  0.0000</r>
       <r>   8.1641  0.0000</r>
       <r>   8.6036  0.0000</r>
       <r>   8.6044  0.0000</r>
       <r>   8.6072  0.0000</r>
       <r>   8.6079  0.0000</r>
       <r>   8.7431  0.0000</r>
       <r>   8.7432  0.0000</r>
       <r>   8.7608  0.0000</r>
       <r>   8.7785  0.0000</r>
       <r>   8.7785  0.0000</r>
       <r>   8.8508  0.0000</r>
       <r>   8.8508  0.0000</r>
       <r>   9.1354  0.0000</r>
       <r>   9.1354  0.0000</r>
       <r>   9.6333  0.0000</r>
       <r>   9.6334  0.0000</r>
       <r>  10.1127  0.0000</r>
       <r>  10.1129  0.0000</r>
       <r>  10.1239  0.0000</r>
      </set>
      <set comment="kpoint 18">
       <r>  -3.1449  1.0000</r>
       <r>  -1.6999  1.0000</r>
       <r>  -1.6984  1.0000</r>
       <r>  -1.6969  1.0000</r>
       <r>  -0.2693  1.0000</r>
       <r>  -0.2665  1.0000</r>
       <r>  -0.2663  1.0000</r>
       <r>  -0.2657  1.0000</r>
       <r>  -0.2655  1.0000</r>
       <r>  -0.2628  1.0000</r>
       <r>   1.1499  1.0000</r>
       <r>   1.1520  1.0000</r>
       <r>   1.1527  1.0000</r>
       <r>   1.1530  1.0000</r>
       <r>   1.1538  1.0000</r>
       <r>   1.1540  1.0000</r>
       <r>   1.1564  1.0000</r>
       <r>   2.5565  1.0000</r>
       <r>   2.5582  1.0000</r>
       <r>   2.5590  1.0000</r>
       <r>   2.5598  1.0000</r>
       <r>   2.5602  1.0000</r>
       <r>   2.5616  1.0000</r>
       <r>   3.8851  1.0000</r>
       <r>   3.8858  1.0000</r>
       <r>   3.8864  1.0000</r>
       <r>   3.9557  1.0000</r>
       <r>   3.9564  1.0000</r>
       <r>   3.9572  1.0000</r>
       <r>   5.2533  1.0000</r>
       <r>   5.2547  1.0000</r>
       <r>   5.2560  1.0000</r>
       <r>   5.2560  1.0000</r>
       <r>   5.2572  1.0000</r>
       <r>   5.2587  1.0000</r>
       <r>   5.3396  1.0000</r>
       <r>   6.6203  1.0000</r>
       <r>   6.6206  1.0000</r>
       <r>   6.6221  1.0000</r>
       <r>   6.6222  1.0000</r>
       <r>   6.6231  1.0000</r>
       <r>   6.6237  1.0000</r>
       <r>   6.6259  1.0000</r>
       <r>   6.6274  1.0000</r>
       <r>   6.6289  1.0000</r>
       <r>   6.9122  1.0000</r>
       <r>   6.9129  1.0000</r>
       <r>   6.9136  1.0000</r>
       <r>   7.9832  0.0000</r>
       <r>   7.9840  0.0000</r>
       <r>   7.9850  0.0000</r>
       <r>   7.9850  0.0000</r>
       <r>   7.9861  0.0000</r>
       <r>   7.9869  0.0000</r>
       <r>   8.2872  0.0000</r>
       <r>   8.2877  0.0000</r>
       <r>   8.2888  0.0000</r>
       <r>   8.2888  0.0000</r>
       <r>   8.2899  0.0000</r>
       <r>   8.2904  0.0000</r>
       <r>   9.3361  0.0000</r>
       <r>   9.3369  0.0000</r>
       <r>   9.3378  0.0000</r>
       <r>   9.6688  0.0000</r>
       <r>   9.6695  0.0000</r>
       <r>   9.6703  0.0000</r>
       <r>   9.6948  0.0000</r>
       <r>   9.6963  0.0000</r>
       <r>   9.6970  0.0000</r>
       <r>   9.6970  0.0000</r>
       <r>   9.6978  0.0000</r>
       <r>   9.6992  0.0000</r>
      </set>
      <set comment="kpoint 19">
       <r>  -2.9633  1.0000</r>
       <r>  -2.2392  1.0000</r>
       <r>  -1.5186  1.0000</r>
       <r>  -1.5186  1.0000</r>
       <r>  -0.8015  1.0000</r>
       <r>  -0.8014  1.0000</r>
       <r>  -0.0882  1.0000</r>
       <r>  -0.0882  1.0000</r>
       <r>  -0.0876  1.0000</r>
       <r>   0.6196  1.0000</r>
       <r>   0.6223  1.0000</r>
       <r>   0.6228  1.0000</r>
       <r>   0.6239  1.0000</r>
       <r>   1.3295  1.0000</r>
       <r>   1.3295  1.0000</r>
       <r>   2.0310  1.0000</r>
       <r>   2.0316  1.0000</r>
       <r>   2.0341  1.0000</r>
       <r>   2.0347  1.0000</r>
       <r>   2.7161  1.0000</r>
       <r>   2.7337  1.0000</r>
       <r>   3.3914  1.0000</r>
       <r>   3.4291  1.0000</r>
       <r>   3.4292  1.0000</r>
       <r>   3.4742  1.0000</r>
       <r>   4.0577  1.0000</r>
       <r>   4.0577  1.0000</r>
       <r>   4.1049  1.0000</r>
       <r>   4.1049  1.0000</r>
       <r>   4.7438  1.0000</r>
       <r>   4.7438  1.0000</r>
       <r>   4.8204  1.0000</r>
       <r>   4.8204  1.0000</r>
       <r>   5.3859  1.0000</r>
       <r>   5.3859  1.0000</r>
       <r>   5.4889  1.0000</r>
       <r>   5.5282  1.0000</r>
       <r>   5.5282  1.0000</r>
       <r>   6.1160  1.0000</r>
       <r>   6.1160  1.0000</r>
       <r>   6.1972  1.0000</r>
       <r>   6.7948  1.0000</r>
       <r>   6.7949  1.0000</r>
       <r>   6.8582  1.0000</r>
       <r>   6.8583  1.0000</r>
       <r>   7.0847  1.0000</r>
       <r>   7.0847  1.0000</r>
       <r>   7.4385  0.2682</r>
       <r>   7.4385  0.2659</r>
       <r>   7.4759  0.0000</r>
       <r>   7.4760  0.0000</r>
       <r>   7.8164  0.0000</r>
       <r>   7.8164  0.0000</r>
       <r>   8.2193  0.0000</r>
       <r>   8.3989  0.0000</r>
       <r>   8.4731  0.0000</r>
       <r>   8.4731  0.0000</r>
       <r>   8.8290  0.0000</r>
       <r>   8.8290  0.0000</r>
       <r>   9.1604  0.0000</r>
       <r>   9.1605  0.0000</r>
       <r>   9.4923  0.0000</r>
       <r>   9.4923  0.0000</r>
       <r>   9.6251  0.0000</r>
       <r>   9.6251  0.0000</r>
       <r>   9.9906  0.0000</r>
       <r>   9.9906  0.0000</r>
       <r>  10.1767  0.0000</r>
       <r>  10.1767  0.0000</r>
       <r>  10.5004  0.0000</r>
       <r>  10.5060  0.0000</r>
       <r>  10.5108  0.0000</r>
      </set>
      <set comment="kpoint 20">
       <r>  -2.6626  1.0000</r>
       <r>  -2.6598  1.0000</r>
       <r>  -1.2218  1.0000</r>
       <r>  -1.2198  1.0000</r>
       <r>  -1.2190  1.0000</r>
       <r>  -1.2170  1.0000</r>
       <r>   0.2056  1.0000</r>
       <r>   0.2077  1.0000</r>
       <r>   0.2078  1.0000</r>
       <r>   0.2087  1.0000</r>
       <r>   0.2097  1.0000</r>
       <r>   0.2111  1.0000</r>
       <r>   1.6162  1.0000</r>
       <r>   1.6180  1.0000</r>
       <r>   1.6221  1.0000</r>
       <r>   1.6224  1.0000</r>
       <r>   1.6246  1.0000</r>
       <r>   1.6255  1.0000</r>
       <r>   3.0177  1.0000</r>
       <r>   3.0183  1.0000</r>
       <r>   3.0193  1.0000</r>
       <r>   3.0196  1.0000</r>
       <r>   3.0232  1.0000</r>
       <r>   3.0260  1.0000</r>
       <r>   4.3423  1.0000</r>
       <r>   4.3426  1.0000</r>
       <r>   4.3452  1.0000</r>
       <r>   4.3455  1.0000</r>
       <r>   4.4043  1.0000</r>
       <r>   4.4048  1.0000</r>
       <r>   4.4057  1.0000</r>
       <r>   4.4062  1.0000</r>
       <r>   4.4121  1.0000</r>
       <r>   4.4135  1.0000</r>
       <r>   5.7167  1.0000</r>
       <r>   5.7186  1.0000</r>
       <r>   5.7196  1.0000</r>
       <r>   5.7215  1.0000</r>
       <r>   5.7898  1.0000</r>
       <r>   5.7905  1.0000</r>
       <r>   5.7913  1.0000</r>
       <r>   5.7920  1.0000</r>
       <r>   7.0773  1.0000</r>
       <r>   7.0779  1.0000</r>
       <r>   7.0802  1.0000</r>
       <r>   7.0808  1.0000</r>
       <r>   7.1595  1.0000</r>
       <r>   7.1611  1.0000</r>
       <r>   7.3641  1.0000</r>
       <r>   7.3647  1.0000</r>
       <r>   7.3669  1.0000</r>
       <r>   7.3675  1.0000</r>
       <r>   8.4431  0.0000</r>
       <r>   8.4437  0.0000</r>
       <r>   8.4449  0.0000</r>
       <r>   8.4455  0.0000</r>
       <r>   8.7597  0.0000</r>
       <r>   8.7604  0.0000</r>
       <r>   8.7625  0.0000</r>
       <r>   8.7632  0.0000</r>
       <r>   9.7778  0.0000</r>
       <r>   9.7786  0.0000</r>
       <r>   9.7797  0.0000</r>
       <r>   9.7804  0.0000</r>
       <r>  10.0206  0.0000</r>
       <r>  10.0220  0.0000</r>
       <r>  10.0938  0.0000</r>
       <r>  10.0958  0.0000</r>
       <r>  10.0968  0.0000</r>
       <r>  10.0988  0.0000</r>
       <r>  11.0691  0.0000</r>
       <r>  11.0953  0.0000</r>
      </set>
      <set comment="kpoint 21">
       <r>  -3.0238  1.0000</r>
       <r>  -2.2994  1.0000</r>
       <r>  -1.5785  1.0000</r>
       <r>  -0.8633  1.0000</r>
       <r>  -0.8611  1.0000</r>
       <r>  -0.8590  1.0000</r>
       <r>  -0.1493  1.0000</r>
       <r>  -0.1473  1.0000</r>
       <r>  -0.1451  1.0000</r>
       <r>   0.5608  1.0000</r>
       <r>   0.5627  1.0000</r>
       <r>   0.5633  1.0000</r>
       <r>   0.5657  1.0000</r>
       <r>   1.2698  1.0000</r>
       <r>   1.2730  1.0000</r>
       <r>   1.9728  1.0000</r>
       <r>   1.9737  1.0000</r>
       <r>   1.9766  1.0000</r>
       <r>   2.6579  1.0000</r>
       <r>   2.6724  1.0000</r>
       <r>   2.6746  1.0000</r>
       <r>   2.6757  1.0000</r>
       <r>   2.6779  1.0000</r>
       <r>   3.3712  1.0000</r>
       <r>   4.0004  1.0000</r>
       <r>   4.0474  1.0000</r>
       <r>   4.0693  1.0000</r>
       <r>   4.0726  1.0000</r>
       <r>   4.6869  1.0000</r>
       <r>   4.7345  1.0000</r>
       <r>   4.7378  1.0000</r>
       <r>   4.9153  1.0000</r>
       <r>   5.4217  1.0000</r>
       <r>   5.4512  1.0000</r>
       <r>   5.4546  1.0000</r>
       <r>   5.5859  1.0000</r>
       <r>   6.0580  1.0000</r>
       <r>   6.0615  1.0000</r>
       <r>   6.1161  1.0000</r>
       <r>   6.1194  1.0000</r>
       <r>   6.1224  1.0000</r>
       <r>   6.2572  1.0000</r>
       <r>   6.7385  1.0000</r>
       <r>   6.7420  1.0000</r>
       <r>   6.8056  1.0000</r>
       <r>   6.9289  1.0000</r>
       <r>   7.0280  1.0000</r>
       <r>   7.4473  0.0313</r>
       <r>   7.4817  0.0000</r>
       <r>   7.4852  0.0000</r>
       <r>   7.5481  0.0000</r>
       <r>   7.6016  0.0000</r>
       <r>   7.7070  0.0000</r>
       <r>   8.2440  0.0000</r>
       <r>   8.2740  0.0000</r>
       <r>   8.2748  0.0000</r>
       <r>   8.3430  0.0000</r>
       <r>   8.8795  0.0000</r>
       <r>   9.0824  0.0000</r>
       <r>   9.0853  0.0000</r>
       <r>   9.4353  0.0000</r>
       <r>   9.4461  0.0000</r>
       <r>   9.4497  0.0000</r>
       <r>   9.6029  0.0000</r>
       <r>   9.6199  0.0000</r>
       <r>   9.6288  0.0000</r>
       <r>   9.7718  0.0000</r>
       <r>   9.7777  0.0000</r>
       <r>   9.7807  0.0000</r>
       <r>  10.2964  0.0000</r>
       <r>  10.4160  0.0000</r>
       <r>  10.4238  0.0000</r>
      </set>
      <set comment="kpoint 22">
       <r>  -2.9633  1.0000</r>
       <r>  -2.2392  1.0000</r>
       <r>  -1.5197  1.0000</r>
       <r>  -1.5175  1.0000</r>
       <r>  -0.8025  1.0000</r>
       <r>  -0.8004  1.0000</r>
       <r>  -0.0897  1.0000</r>
       <r>  -0.0880  1.0000</r>
       <r>  -0.0863  1.0000</r>
       <r>   0.6203  1.0000</r>
       <r>   0.6213  1.0000</r>
       <r>   0.6226  1.0000</r>
       <r>   0.6243  1.0000</r>
       <r>   1.3290  1.0000</r>
       <r>   1.3300  1.0000</r>
       <r>   2.0307  1.0000</r>
       <r>   2.0327  1.0000</r>
       <r>   2.0335  1.0000</r>
       <r>   2.0344  1.0000</r>
       <r>   2.7161  1.0000</r>
       <r>   2.7336  1.0000</r>
       <r>   3.3914  1.0000</r>
       <r>   3.4281  1.0000</r>
       <r>   3.4303  1.0000</r>
       <r>   3.4742  1.0000</r>
       <r>   4.0573  1.0000</r>
       <r>   4.0582  1.0000</r>
       <r>   4.1037  1.0000</r>
       <r>   4.1060  1.0000</r>
       <r>   4.7434  1.0000</r>
       <r>   4.7443  1.0000</r>
       <r>   4.8199  1.0000</r>
       <r>   4.8209  1.0000</r>
       <r>   5.3848  1.0000</r>
       <r>   5.3870  1.0000</r>
       <r>   5.4889  1.0000</r>
       <r>   5.5271  1.0000</r>
       <r>   5.5294  1.0000</r>
       <r>   6.1149  1.0000</r>
       <r>   6.1171  1.0000</r>
       <r>   6.1972  1.0000</r>
       <r>   6.7943  1.0000</r>
       <r>   6.7955  1.0000</r>
       <r>   6.8576  1.0000</r>
       <r>   6.8588  1.0000</r>
       <r>   7.0842  1.0000</r>
       <r>   7.0851  1.0000</r>
       <r>   7.4378  0.2992</r>
       <r>   7.4392  0.2340</r>
       <r>   7.4753  0.0000</r>
       <r>   7.4765  0.0000</r>
       <r>   7.8162  0.0000</r>
       <r>   7.8166  0.0000</r>
       <r>   8.2193  0.0000</r>
       <r>   8.3989  0.0000</r>
       <r>   8.4725  0.0000</r>
       <r>   8.4737  0.0000</r>
       <r>   8.8279  0.0000</r>
       <r>   8.8302  0.0000</r>
       <r>   9.1599  0.0000</r>
       <r>   9.1610  0.0000</r>
       <r>   9.4918  0.0000</r>
       <r>   9.4928  0.0000</r>
       <r>   9.6239  0.0000</r>
       <r>   9.6263  0.0000</r>
       <r>   9.9897  0.0000</r>
       <r>   9.9915  0.0000</r>
       <r>  10.1761  0.0000</r>
       <r>  10.1773  0.0000</r>
       <r>  10.5003  0.0000</r>
       <r>  10.5029  0.0000</r>
       <r>  10.5106  0.0000</r>
      </set>
      <set comment="kpoint 23">
       <r>  -2.7819  1.0000</r>
       <r>  -2.0598  1.0000</r>
       <r>  -2.0577  1.0000</r>
       <r>  -1.3400  1.0000</r>
       <r>  -1.3380  1.0000</r>
       <r>  -0.6238  1.0000</r>
       <r>  -0.6216  1.0000</r>
       <r>   0.0895  1.0000</r>
       <r>   0.0906  1.0000</r>
       <r>   0.7961  1.0000</r>
       <r>   0.7984  1.0000</r>
       <r>   0.7991  1.0000</r>
       <r>   0.8013  1.0000</r>
       <r>   1.5034  1.0000</r>
       <r>   1.5045  1.0000</r>
       <r>   1.5066  1.0000</r>
       <r>   2.2063  1.0000</r>
       <r>   2.2085  1.0000</r>
       <r>   2.8898  1.0000</r>
       <r>   2.8908  1.0000</r>
       <r>   2.9068  1.0000</r>
       <r>   2.9078  1.0000</r>
       <r>   3.5845  1.0000</r>
       <r>   3.5867  1.0000</r>
       <r>   3.6014  1.0000</r>
       <r>   3.6036  1.0000</r>
       <r>   4.2294  1.0000</r>
       <r>   4.2762  1.0000</r>
       <r>   4.2772  1.0000</r>
       <r>   4.2932  1.0000</r>
       <r>   4.3013  1.0000</r>
       <r>   4.3023  1.0000</r>
       <r>   4.9128  1.0000</r>
       <r>   4.9152  1.0000</r>
       <r>   4.9727  1.0000</r>
       <r>   4.9749  1.0000</r>
       <r>   5.6053  1.0000</r>
       <r>   5.6599  1.0000</r>
       <r>   5.6609  1.0000</r>
       <r>   5.6802  1.0000</r>
       <r>   6.3368  1.0000</r>
       <r>   6.3380  1.0000</r>
       <r>   6.3441  1.0000</r>
       <r>   6.3464  1.0000</r>
       <r>   7.0508  1.0000</r>
       <r>   7.2508  1.0000</r>
       <r>   7.6377  0.0000</r>
       <r>   7.6401  0.0000</r>
       <r>   7.7072  0.0000</r>
       <r>   7.7083  0.0000</r>
       <r>   7.9652  0.0000</r>
       <r>   7.9670  0.0000</r>
       <r>   8.3205  0.0000</r>
       <r>   8.3218  0.0000</r>
       <r>   8.3800  0.0000</r>
       <r>   8.5630  0.0000</r>
       <r>   8.5641  0.0000</r>
       <r>   8.6498  0.0000</r>
       <r>   9.0629  0.0000</r>
       <r>   9.0640  0.0000</r>
       <r>   9.2497  0.0000</r>
       <r>   9.2510  0.0000</r>
       <r>   9.6649  0.0000</r>
       <r>   9.6661  0.0000</r>
       <r>   9.7135  0.0000</r>
       <r>   9.9262  0.0000</r>
       <r>   9.9271  0.0000</r>
       <r>  10.3209  0.0000</r>
       <r>  10.3234  0.0000</r>
       <r>  10.6125  0.0000</r>
       <r>  10.6137  0.0000</r>
       <r>  10.6855  0.0000</r>
      </set>
      <set comment="kpoint 24">
       <r>  -2.4816  1.0000</r>
       <r>  -2.4788  1.0000</r>
       <r>  -1.7598  1.0000</r>
       <r>  -1.7570  1.0000</r>
       <r>  -1.0415  1.0000</r>
       <r>  -1.0387  1.0000</r>
       <r>  -0.3266  1.0000</r>
       <r>  -0.3238  1.0000</r>
       <r>   0.3844  1.0000</r>
       <r>   0.3872  1.0000</r>
       <r>   1.0911  1.0000</r>
       <r>   1.0929  1.0000</r>
       <r>   1.0939  1.0000</r>
       <r>   1.0957  1.0000</r>
       <r>   1.7928  1.0000</r>
       <r>   1.7943  1.0000</r>
[...]
       <r>   6.5716  1.0000</r>
       <r>   7.2704  1.0000</r>
       <r>   7.2708  1.0000</r>
       <r>   7.2737  1.0000</r>
       <r>   7.2742  1.0000</r>
       <r>   7.2813  1.0000</r>
       <r>   7.2813  1.0000</r>
       <r>   7.3202  1.0000</r>
       <r>   7.3202  1.0000</r>
       <r>   8.7231  0.0000</r>
       <r>   8.7232  0.0000</r>
       <r>   8.7878  0.0000</r>
       <r>   8.7879  0.0000</r>
       <r>   9.2806  0.0000</r>
       <r>   9.2809  0.0000</r>
       <r>   9.2842  0.0000</r>
       <r>   9.2845  0.0000</r>
       <r>   9.3973  0.0000</r>
       <r>   9.3973  0.0000</r>
       <r>  10.0028  0.0000</r>
       <r>  10.0028  0.0000</r>
       <r>  10.0698  0.0000</r>
       <r>  10.0699  0.0000</r>
       <r>  10.1312  0.0000</r>
       <r>  10.1312  0.0000</r>
       <r>  10.7085  0.0000</r>
       <r>  10.7093  0.0000</r>
       <r>  10.7449  0.0000</r>
       <r>  10.7458  0.0000</r>
      </set>
      <set comment="kpoint 34">
       <r>  -2.4802  1.0000</r>
       <r>  -2.4802  1.0000</r>
       <r>  -1.7585  1.0000</r>
       <r>  -1.7584  1.0000</r>
       <r>  -1.0401  1.0000</r>
       <r>  -1.0401  1.0000</r>
       <r>  -0.3252  1.0000</r>
       <r>  -0.3252  1.0000</r>
       <r>   0.3858  1.0000</r>
       <r>   0.3858  1.0000</r>
       <r>   1.0922  1.0000</r>
       <r>   1.0926  1.0000</r>
       <r>   1.0942  1.0000</r>
       <r>   1.0947  1.0000</r>
       <r>   1.7935  1.0000</r>
       <r>   1.7935  1.0000</r>
       <r>   2.4948  1.0000</r>
       <r>   2.4948  1.0000</r>
       <r>   2.4995  1.0000</r>
       <r>   2.4996  1.0000</r>
       <r>   3.1804  1.0000</r>
       <r>   3.1804  1.0000</r>
       <r>   3.1930  1.0000</r>
       <r>   3.1931  1.0000</r>
       <r>   3.8407  1.0000</r>
       <r>   3.8407  1.0000</r>
       <r>   3.9451  1.0000</r>
       <r>   3.9451  1.0000</r>
       <r>   4.5111  1.0000</r>
       <r>   4.5111  1.0000</r>
       <r>   4.5153  1.0000</r>
       <r>   4.5154  1.0000</r>
       <r>   4.6395  1.0000</r>
       <r>   4.6395  1.0000</r>
       <r>   5.1625  1.0000</r>
       <r>   5.1625  1.0000</r>
       <r>   5.2747  1.0000</r>
       <r>   5.2747  1.0000</r>
       <r>   5.3086  1.0000</r>
       <r>   5.3086  1.0000</r>
       <r>   5.9454  1.0000</r>
       <r>   5.9454  1.0000</r>
       <r>   6.6459  1.0000</r>
       <r>   6.6459  1.0000</r>
       <r>   7.2527  1.0000</r>
       <r>   7.2527  1.0000</r>
       <r>   7.6091  0.0000</r>
       <r>   7.6091  0.0000</r>
       <r>   7.9248  0.0000</r>
       <r>   7.9248  0.0000</r>
       <r>   8.0094  0.0000</r>
       <r>   8.0094  0.0000</r>
       <r>   8.2506  0.0000</r>
       <r>   8.2506  0.0000</r>
       <r>   8.5610  0.0000</r>
       <r>   8.5610  0.0000</r>
       <r>   8.6625  0.0000</r>
       <r>   8.6625  0.0000</r>
       <r>   8.8958  0.0000</r>
       <r>   8.8958  0.0000</r>
       <r>   9.2726  0.0000</r>
       <r>   9.2726  0.0000</r>
       <r>   9.9016  0.0000</r>
       <r>   9.9016  0.0000</r>
       <r>  10.0120  0.0000</r>
       <r>  10.0120  0.0000</r>
       <r>  10.2179  0.0000</r>
       <r>  10.2179  0.0000</r>
       <r>  10.2305  0.0000</r>
       <r>  10.2306  0.0000</r>
       <r>  10.7464  0.0000</r>
       <r>  10.7464  0.0000</r>
      </set>
      <set comment="kpoint 35">
       <r>  -2.2995  1.0000</r>
       <r>  -2.2994  1.0000</r>
       <r>  -1.5806  1.0000</r>
       <r>  -1.5787  1.0000</r>
       <r>  -1.5784  1.0000</r>
       <r>  -1.5765  1.0000</r>
       <r>  -0.8611  1.0000</r>
       <r>  -0.8611  1.0000</r>
       <r>   1.2671  1.0000</r>
       <r>   1.2691  1.0000</r>
       <r>   1.2693  1.0000</r>
       <r>   1.2712  1.0000</r>
       <r>   1.9683  1.0000</r>
       <r>   1.9690  1.0000</r>
       <r>   1.9730  1.0000</r>
       <r>   1.9734  1.0000</r>
       <r>   1.9736  1.0000</r>
       <r>   1.9747  1.0000</r>
       <r>   2.6686  1.0000</r>
       <r>   2.6687  1.0000</r>
       <r>   2.6708  1.0000</r>
       <r>   2.6709  1.0000</r>
       <r>   3.3532  1.0000</r>
       <r>   3.3540  1.0000</r>
       <r>   3.3543  1.0000</r>
       <r>   3.3549  1.0000</r>
       <r>   3.3668  1.0000</r>
       <r>   3.3671  1.0000</r>
       <r>   4.0444  1.0000</r>
       <r>   4.0463  1.0000</r>
       <r>   4.0466  1.0000</r>
       <r>   4.0485  1.0000</r>
       <r>   4.7615  1.0000</r>
       <r>   4.7615  1.0000</r>
       <r>   5.4441  1.0000</r>
       <r>   5.4441  1.0000</r>
       <r>   5.4463  1.0000</r>
       <r>   5.4464  1.0000</r>
       <r>   6.1307  1.0000</r>
       <r>   6.1315  1.0000</r>
       <r>   6.1318  1.0000</r>
       <r>   6.1326  1.0000</r>
       <r>   6.7967  1.0000</r>
       <r>   6.7977  1.0000</r>
       <r>   6.7978  1.0000</r>
       <r>   6.7988  1.0000</r>
       <r>   7.4666  0.0000</r>
       <r>   7.4674  0.0000</r>
       <r>   7.4678  0.0000</r>
       <r>   7.4685  0.0000</r>
       <r>   8.1521  0.0000</r>
       <r>   8.1521  0.0000</r>
       <r>   8.1543  0.0000</r>
       <r>   8.1544  0.0000</r>
       <r>   8.8077  0.0000</r>
       <r>   8.8078  0.0000</r>
       <r>   8.8547  0.0000</r>
       <r>   8.8547  0.0000</r>
       <r>   9.0401  0.0000</r>
       <r>   9.0407  0.0000</r>
       <r>   9.0409  0.0000</r>
       <r>   9.0415  0.0000</r>
       <r>   9.7142  0.0000</r>
       <r>   9.7153  0.0000</r>
       <r>   9.7153  0.0000</r>
       <r>   9.7164  0.0000</r>
       <r>  10.3767  0.0000</r>
       <r>  10.3767  0.0000</r>
       <r>  10.8475  0.0000</r>
       <r>  10.8485  0.0000</r>
       <r>  10.8486  0.0000</r>
       <r>  10.8496  0.0000</r>
      </set>
      <set comment="kpoint 36">
       <r>  -2.0011  1.0000</r>
       <r>  -1.9990  1.0000</r>
       <r>  -1.9983  1.0000</r>
       <r>  -1.9962  1.0000</r>
       <r>  -1.2817  1.0000</r>
       <r>  -1.2795  1.0000</r>
       <r>  -1.2789  1.0000</r>
       <r>  -1.2767  1.0000</r>
       <r>   1.5605  1.0000</r>
       <r>   1.5627  1.0000</r>
       <r>   1.5633  1.0000</r>
       <r>   1.5655  1.0000</r>
       <r>   2.2577  1.0000</r>
       <r>   2.2595  1.0000</r>
       <r>   2.2611  1.0000</r>
       <r>   2.2614  1.0000</r>
       <r>   2.2615  1.0000</r>
       <r>   2.2618  1.0000</r>
       <r>   2.2634  1.0000</r>
       <r>   2.2652  1.0000</r>
       <r>   2.9569  1.0000</r>
       <r>   2.9588  1.0000</r>
       <r>   2.9604  1.0000</r>
       <r>   2.9606  1.0000</r>
       <r>   2.9608  1.0000</r>
       <r>   2.9611  1.0000</r>
       <r>   2.9626  1.0000</r>
       <r>   2.9645  1.0000</r>
       <r>   3.6408  1.0000</r>
       <r>   3.6430  1.0000</r>
       <r>   3.6436  1.0000</r>
       <r>   3.6458  1.0000</r>
       <r>   5.7271  1.0000</r>
       <r>   5.7290  1.0000</r>
       <r>   5.7307  1.0000</r>
       <r>   5.7309  1.0000</r>
       <r>   5.7310  1.0000</r>
       <r>   5.7313  1.0000</r>
       <r>   5.7330  1.0000</r>
       <r>   5.7349  1.0000</r>
       <r>   6.4076  1.0000</r>
       <r>   6.4087  1.0000</r>
       <r>   6.4091  1.0000</r>
       <r>   6.4102  1.0000</r>
       <r>   7.0931  1.0000</r>
       <r>   7.0941  1.0000</r>
       <r>   7.0946  1.0000</r>
       <r>   7.0957  1.0000</r>
       <r>   7.7512  0.0000</r>
       <r>   7.7534  0.0000</r>
       <r>   7.7551  0.0000</r>
       <r>   7.7553  0.0000</r>
       <r>   7.7555  0.0000</r>
       <r>   7.7557  0.0000</r>
       <r>   7.7574  0.0000</r>
       <r>   7.7595  0.0000</r>
       <r>   9.3192  0.0000</r>
       <r>   9.3212  0.0000</r>
       <r>   9.3220  0.0000</r>
       <r>   9.3240  0.0000</r>
       <r>   9.8028  0.0000</r>
       <r>   9.8039  0.0000</r>
       <r>   9.8044  0.0000</r>
       <r>   9.8055  0.0000</r>
       <r>  10.6502  0.0000</r>
       <r>  10.6511  0.0000</r>
       <r>  10.6514  0.0000</r>
       <r>  10.6525  0.0000</r>
       <r>  10.6527  0.0000</r>
       <r>  10.6538  0.0000</r>
       <r>  10.6541  0.0000</r>
       <r>  10.6549  0.0000</r>
      </set>
      <set comment="kpoint 37">
       <r>  -2.2392  1.0000</r>
       <r>  -2.2392  1.0000</r>
       <r>  -2.2392  1.0000</r>
       <r>  -2.2392  1.0000</r>
       <r>  -0.0928  1.0000</r>
       <r>  -0.0884  1.0000</r>
       <r>  -0.0884  1.0000</r>
       <r>  -0.0880  1.0000</r>
       <r>  -0.0875  1.0000</r>
       <r>  -0.0871  1.0000</r>
       <r>  -0.0871  1.0000</r>
       <r>  -0.0827  1.0000</r>
       <r>   2.0276  1.0000</r>
       <r>   2.0276  1.0000</r>
       <r>   2.0276  1.0000</r>
       <r>   2.0277  1.0000</r>
       <r>   2.0277  1.0000</r>
       <r>   2.0277  1.0000</r>
       <r>   2.0277  1.0000</r>
       <r>   2.0277  1.0000</r>
       <r>   4.0635  1.0000</r>
       <r>   4.0635  1.0000</r>
       <r>   4.0648  1.0000</r>
       <r>   4.0649  1.0000</r>
       <r>   4.0649  1.0000</r>
       <r>   4.0649  1.0000</r>
       <r>   4.0663  1.0000</r>
       <r>   4.0663  1.0000</r>
       <r>   4.1770  1.0000</r>
       <r>   4.1770  1.0000</r>
       <r>   4.1785  1.0000</r>
       <r>   4.1785  1.0000</r>
       <r>   4.1785  1.0000</r>
       <r>   4.1787  1.0000</r>
       <r>   4.1801  1.0000</r>
       <r>   4.1801  1.0000</r>
       <r>   5.6418  1.0000</r>
       <r>   5.6418  1.0000</r>
       <r>   5.6418  1.0000</r>
       <r>   5.6418  1.0000</r>
       <r>   6.1550  1.0000</r>
       <r>   6.1550  1.0000</r>
       <r>   6.1550  1.0000</r>
       <r>   6.1550  1.0000</r>
       <r>   6.9288  1.0000</r>
       <r>   6.9288  1.0000</r>
       <r>   6.9288  1.0000</r>
       <r>   6.9288  1.0000</r>
       <r>   8.2274  0.0000</r>
       <r>   8.2274  0.0000</r>
       <r>   8.2280  0.0000</r>
       <r>   8.2288  0.0000</r>
       <r>   8.2305  0.0000</r>
       <r>   8.2313  0.0000</r>
       <r>   8.2318  0.0000</r>
       <r>   8.2318  0.0000</r>
       <r>   9.6776  0.0000</r>
       <r>   9.6776  0.0000</r>
       <r>   9.6776  0.0000</r>
       <r>   9.6776  0.0000</r>
       <r>   9.6776  0.0000</r>
       <r>   9.6776  0.0000</r>
       <r>   9.6776  0.0000</r>
       <r>   9.6776  0.0000</r>
       <r>  10.3702  0.0000</r>
       <r>  10.3702  0.0000</r>
       <r>  10.3702  0.0000</r>
       <r>  10.3702  0.0000</r>
       <r>  10.3702  0.0000</r>
       <r>  10.3702  0.0000</r>
       <r>  10.3702  0.0000</r>
       <r>  10.3702  0.0000</r>
      </set>
      <set comment="kpoint 38">
       <r>  -2.1791  1.0000</r>
       <r>  -2.1790  1.0000</r>
       <r>  -2.1790  1.0000</r>
       <r>  -2.1790  1.0000</r>
       <r>  -0.7419  1.0000</r>
       <r>  -0.7419  1.0000</r>
       <r>  -0.7419  1.0000</r>
       <r>  -0.7419  1.0000</r>
       <r>   0.6814  1.0000</r>
       <r>   0.6814  1.0000</r>
       <r>   0.6814  1.0000</r>
       <r>   0.6814  1.0000</r>
       <r>   2.0861  1.0000</r>
       <r>   2.0861  1.0000</r>
       <r>   2.0861  1.0000</r>
       <r>   2.0861  1.0000</r>
       <r>   2.0861  1.0000</r>
       <r>   2.0861  1.0000</r>
       <r>   2.0861  1.0000</r>
       <r>   2.0861  1.0000</r>
       <r>   3.4825  1.0000</r>
       <r>   3.4825  1.0000</r>
       <r>   3.4825  1.0000</r>
       <r>   3.4825  1.0000</r>
       <r>   3.4825  1.0000</r>
       <r>   3.4825  1.0000</r>
       <r>   3.4826  1.0000</r>
       <r>   3.4826  1.0000</r>
       <r>   4.7999  1.0000</r>
       <r>   4.7999  1.0000</r>
       <r>   4.7999  1.0000</r>
       <r>   4.7999  1.0000</r>
       <r>   4.8730  1.0000</r>
       <r>   4.8730  1.0000</r>
       <r>   4.8732  1.0000</r>
       <r>   4.8732  1.0000</r>
       <r>   4.8732  1.0000</r>
       <r>   4.8732  1.0000</r>
       <r>   4.8734  1.0000</r>
       <r>   4.8734  1.0000</r>
       <r>   6.2341  1.0000</r>
       <r>   6.2341  1.0000</r>
       <r>   6.2341  1.0000</r>
       <r>   6.2341  1.0000</r>
       <r>   7.6062  0.0000</r>
       <r>   7.6062  0.0000</r>
       <r>   7.6062  0.0000</r>
       <r>   7.6062  0.0000</r>
       <r>   7.8537  0.0000</r>
       <r>   7.8538  0.0000</r>
       <r>   7.8538  0.0000</r>
       <r>   7.8538  0.0000</r>
       <r>   8.8752  0.0000</r>
       <r>   8.8752  0.0000</r>
       <r>   8.8755  0.0000</r>
       <r>   8.8755  0.0000</r>
       <r>   8.8755  0.0000</r>
       <r>   8.8755  0.0000</r>
       <r>   8.8757  0.0000</r>
       <r>   8.8757  0.0000</r>
       <r>   8.9631  0.0000</r>
       <r>   8.9631  0.0000</r>
       <r>   8.9631  0.0000</r>
       <r>   8.9631  0.0000</r>
       <r>  10.4755  0.0000</r>
       <r>  10.4755  0.0000</r>
       <r>  10.4760  0.0000</r>
       <r>  10.4760  0.0000</r>
       <r>  10.4760  0.0000</r>
       <r>  10.4760  0.0000</r>
       <r>  10.4765  0.0000</r>
       <r>  10.4765  0.0000</r>
      </set>
      <set comment="kpoint 39">
       <r>  -1.9987  1.0000</r>
       <r>  -1.9986  1.0000</r>
       <r>  -1.9986  1.0000</r>
       <r>  -1.9986  1.0000</r>
       <r>  -1.2792  1.0000</r>
       <r>  -1.2792  1.0000</r>
       <r>  -1.2792  1.0000</r>
       <r>  -1.2792  1.0000</r>
       <r>   1.5630  1.0000</r>
       <r>   1.5630  1.0000</r>
       <r>   1.5630  1.0000</r>
       <r>   1.5630  1.0000</r>
       <r>   2.2614  1.0000</r>
       <r>   2.2614  1.0000</r>
       <r>   2.2614  1.0000</r>
       <r>   2.2614  1.0000</r>
       <r>   2.2614  1.0000</r>
       <r>   2.2614  1.0000</r>
       <r>   2.2615  1.0000</r>
       <r>   2.2615  1.0000</r>
       <r>   2.9607  1.0000</r>
       <r>   2.9607  1.0000</r>
       <r>   2.9607  1.0000</r>
       <r>   2.9607  1.0000</r>
       <r>   2.9607  1.0000</r>
       <r>   2.9607  1.0000</r>
       <r>   2.9607  1.0000</r>
       <r>   2.9607  1.0000</r>
       <r>   3.6433  1.0000</r>
       <r>   3.6433  1.0000</r>
       <r>   3.6433  1.0000</r>
       <r>   3.6433  1.0000</r>
       <r>   5.7308  1.0000</r>
       <r>   5.7308  1.0000</r>
       <r>   5.7310  1.0000</r>
       <r>   5.7310  1.0000</r>
       <r>   5.7310  1.0000</r>
       <r>   5.7310  1.0000</r>
       <r>   5.7311  1.0000</r>
       <r>   5.7311  1.0000</r>
       <r>   6.4089  1.0000</r>
       <r>   6.4089  1.0000</r>
       <r>   6.4089  1.0000</r>
       <r>   6.4089  1.0000</r>
       <r>   7.0944  1.0000</r>
       <r>   7.0944  1.0000</r>
       <r>   7.0944  1.0000</r>
       <r>   7.0944  1.0000</r>
       <r>   7.7552  0.0000</r>
       <r>   7.7552  0.0000</r>
       <r>   7.7554  0.0000</r>
       <r>   7.7554  0.0000</r>
       <r>   7.7554  0.0000</r>
       <r>   7.7554  0.0000</r>
       <r>   7.7556  0.0000</r>
       <r>   7.7556  0.0000</r>
       <r>   9.3216  0.0000</r>
       <r>   9.3216  0.0000</r>
       <r>   9.3216  0.0000</r>
       <r>   9.3216  0.0000</r>
       <r>   9.8042  0.0000</r>
       <r>   9.8042  0.0000</r>
       <r>   9.8042  0.0000</r>
       <r>   9.8042  0.0000</r>
       <r>  10.6523  0.0000</r>
       <r>  10.6523  0.0000</r>
       <r>  10.6526  0.0000</r>
       <r>  10.6526  0.0000</r>
       <r>  10.6526  0.0000</r>
       <r>  10.6526  0.0000</r>
       <r>  10.6529  0.0000</r>
       <r>  10.6529  0.0000</r>
      </set>
      <set comment="kpoint 40">
       <r>  -1.7030  1.0000</r>
       <r>  -1.6989  1.0000</r>
       <r>  -1.6989  1.0000</r>
       <r>  -1.6987  1.0000</r>
       <r>  -1.6983  1.0000</r>
       <r>  -1.6981  1.0000</r>
       <r>  -1.6981  1.0000</r>
       <r>  -1.6940  1.0000</r>
       <r>   2.5433  1.0000</r>
       <r>   2.5494  1.0000</r>
       <r>   2.5494  1.0000</r>
       <r>   2.5524  1.0000</r>
       <r>   2.5527  1.0000</r>
       <r>   2.5528  1.0000</r>
       <r>   2.5530  1.0000</r>
       <r>   2.5530  1.0000</r>
       <r>   2.5531  1.0000</r>
       <r>   2.5531  1.0000</r>
       <r>   2.5532  1.0000</r>
       <r>   2.5532  1.0000</r>
       <r>   2.5532  1.0000</r>
       <r>   2.5533  1.0000</r>
       <r>   2.5533  1.0000</r>
       <r>   2.5533  1.0000</r>
       <r>   2.5534  1.0000</r>
       <r>   2.5534  1.0000</r>
       <r>   2.5536  1.0000</r>
       <r>   2.5537  1.0000</r>
       <r>   2.5540  1.0000</r>
       <r>   2.5570  1.0000</r>
       <r>   2.5570  1.0000</r>
       <r>   2.5631  1.0000</r>
       <r>   6.6894  1.0000</r>
       <r>   6.6894  1.0000</r>
       <r>   6.6913  1.0000</r>
       <r>   6.6931  1.0000</r>
       <r>   6.6944  1.0000</r>
       <r>   6.6948  1.0000</r>
       <r>   6.6948  1.0000</r>
       <r>   6.6948  1.0000</r>
       <r>   6.6950  1.0000</r>
       <r>   6.6951  1.0000</r>
       <r>   6.6951  1.0000</r>
       <r>   6.6951  1.0000</r>
       <r>   6.6951  1.0000</r>
       <r>   6.6952  1.0000</r>
       <r>   6.6952  1.0000</r>
       <r>   6.6952  1.0000</r>
       <r>   6.6954  1.0000</r>
       <r>   6.6954  1.0000</r>
       <r>   6.6954  1.0000</r>
       <r>   6.6958  1.0000</r>
       <r>   6.6971  1.0000</r>
       <r>   6.6989  1.0000</r>
       <r>   6.7008  1.0000</r>
       <r>   6.7008  1.0000</r>
       <r>  10.7474  0.0000</r>
       <r>  10.7474  0.0000</r>
       <r>  10.7474  0.0000</r>
       <r>  10.7480  0.0000</r>
       <r>  10.7494  0.0000</r>
       <r>  10.7501  0.0000</r>
       <r>  10.7501  0.0000</r>
       <r>  10.7502  0.0000</r>
       <r>  10.9300  0.0000</r>
       <r>  10.9309  0.0000</r>
       <r>  10.9314  0.0000</r>
       <r>  10.9329  0.0000</r>
       <r>  10.9330  0.0000</r>
       <r>  10.9334  0.0000</r>
       <r>  10.9336  0.0000</r>
       <r>  10.9341  0.0000</r>
      </set>
     </set>
    </set>
   </array>
  </eigenvalues>
 </calculation>
 <structure name="finalpos" >
  <crystal>
   <varray name="basis" >
    <v>       8.23588780      0.00000000      0.00000000</v>
    <v>       0.00000000      8.23588780      0.00000000</v>
    <v>       0.00000000      0.00000000      8.23588780</v>
   </varray>
   <i name="volume">    558.63901560</i>
   <varray name="rec_basis" >
    <v>       0.12141982      0.00000000      0.00000000</v>
    <v>       0.00000000      0.12141982      0.00000000</v>
    <v>       0.00000000      0.00000000      0.12141982</v>
   </varray>
  </crystal>
  <varray name="positions" >
   <v>       0.25121420      0.25000000      0.00000000</v>
   <v>       0.75000000      0.25000000      0.00000000</v>
   <v>       0.25000000      0.75000000      0.00000000</v>
   <v>       0.75000000      0.75000000      0.00000000</v>
   <v>       0.25000000      0.25000000      0.50000000</v>
   <v>       0.75000000      0.25000000      0.50000000</v>
   <v>       0.25000000      0.75000000      0.50000000</v>
   <v>       0.75000000      0.75000000      0.50000000</v>
   <v>       0.25000000      0.00000000      0.25000000</v>
   <v>       0.75000000      0.00000000      0.25000000</v>
   <v>       0.25000000      0.50000000      0.25000000</v>
   <v>       0.75000000      0.50000000      0.25000000</v>
   <v>       0.25000000      0.00000000      0.75000000</v>
   <v>       0.75000000      0.00000000      0.75000000</v>
   <v>       0.25000000      0.50000000      0.75000000</v>
   <v>       0.75000000      0.50000000      0.75000000</v>
   <v>       0.00000000      0.25000000      0.25000000</v>
   <v>       0.50000000      0.25000000      0.25000000</v>
   <v>       0.00000000      0.75000000      0.25000000</v>
   <v>       0.50000000      0.75000000      0.25000000</v>
   <v>       0.00000000      0.25000000      0.75000000</v>
   <v>       0.50000000      0.25000000      0.75000000</v>
   <v>       0.00000000      0.75000000      0.75000000</v>
   <v>       0.50000000      0.75000000      0.75000000</v>
   <v>       0.00000000      0.00000000      0.00000000</v>
   <v>       0.50000000      0.00000000      0.00000000</v>
   <v>       0.00000000      0.50000000      0.00000000</v>
   <v>       0.50000000      0.50000000      0.00000000</v>
   <v>       0.00000000      0.00000000      0.50000000</v>
   <v>       0.50000000      0.00000000      0.50000000</v>
   <v>       0.00000000      0.50000000      0.50000000</v>
   <v>       0.50000000      0.50000000      0.50000000</v>
  </varray>
 </structure>
</modeling>
