   4   4   0   0
  0.1410542E+02  0.3835441E-09  0.3835441E-09  0.3835441E-09  0.5000000E-15
  1.000000000000000E-004
  CAR 
 unknown system                          
     23.23480940     -3.75225051  301      9.70658284      1.00000000
     -3.752  0.0000E+00  0.0000E+00
     -3.662  0.0000E+00  0.0000E+00
     -3.572  0.0000E+00  0.0000E+00
     -3.482  0.0000E+00  0.0000E+00
     -3.392  0.0000E+00  0.0000E+00
     -3.302  0.0000E+00  0.0000E+00
     -3.213  0.0000E+00  0.0000E+00
     -3.123  0.0000E+00  0.0000E+00
     -3.033  0.0000E+00  0.0000E+00
     -2.943  0.0000E+00  0.0000E+00
     -2.853  0.0000E+00  0.0000E+00
     -2.763  0.0000E+00  0.0000E+00
     -2.673  0.0000E+00  0.0000E+00
     -2.583  0.2809E-17  0.2527E-18
     -2.493  0.1012E-01  0.9108E-03
     -2.403  0.1459E+00  0.1403E-01
     -2.313  0.8097E-01  0.2458E-01
     -2.223  0.2504E+00  0.4711E-01
     -2.133  0.2429E+00  0.7374E-01
     -2.043  0.1039E+00  0.8308E-01
     -1.953  0.3039E+00  0.1120E+00
     -1.863  0.4650E+00  0.1538E+00
     -1.773  0.8201E-01  0.1630E+00
     -1.683  0.7078E+00  0.2267E+00
     -1.593  0.7583E-03  0.2286E+00
     -1.503  0.5378E+00  0.2769E+00
     -1.413  0.3727E+00  0.3112E+00
     -1.323  0.4761E+00  0.3540E+00
     -1.233  0.5069E+00  0.3997E+00
     -1.144  0.1615E-07  0.4197E+00
     -1.054  0.3017E+00  0.4468E+00
     -0.964  0.7285E+00  0.5344E+00
     -0.874  0.3238E+00  0.5635E+00
     -0.784  0.7286E+00  0.6290E+00
     -0.694  0.4857E+00  0.6727E+00
     -0.604  0.1215E+00  0.6837E+00
     -0.514  0.8747E+00  0.7623E+00
     -0.424  0.4862E+00  0.8148E+00
     -0.334  0.5294E+00  0.8624E+00
     -0.244  0.7286E+00  0.9294E+00
     -0.154  0.2392E+00  0.9510E+00
     -0.064  0.9982E+00  0.1041E+01
      0.026  0.7014E+00  0.1104E+01
      0.116  0.3860E+00  0.1139E+01
      0.206  0.4857E+00  0.1235E+01
      0.296  0.3786E-01  0.1239E+01
      0.386  0.5465E+00  0.1292E+01
      0.476  0.1226E+01  0.1402E+01
      0.566  0.2441E+00  0.1434E+01
      0.656  0.1647E+01  0.1582E+01
      0.746  0.9731E-02  0.1588E+01
      0.836  0.9587E+00  0.1674E+01
      0.926  0.3383E+00  0.1705E+01
      1.015  0.7477E-06  0.1761E+01
      1.105  0.1148E+01  0.1865E+01
      1.195  0.7652E-05  0.1914E+01
      1.285  0.8375E+00  0.1990E+01
      1.375  0.9723E+00  0.2095E+01
      1.465  0.7137E+00  0.2159E+01
      1.555  0.9937E+00  0.2250E+01
      1.645  0.4635E+00  0.2291E+01
      1.735  0.5070E+00  0.2337E+01
      1.825  0.1214E+01  0.2477E+01
      1.915  0.7384E+00  0.2543E+01
      2.005  0.9724E+00  0.2637E+01
      2.095  0.4848E+00  0.2681E+01
      2.185  0.2966E+00  0.2708E+01
      2.275  0.1408E+01  0.2839E+01
      2.365  0.9019E+00  0.2920E+01
      2.455  0.4859E+00  0.2992E+01
      2.545  0.1214E+01  0.3102E+01
      2.635  0.2545E+00  0.3124E+01
      2.725  0.2647E+01  0.3362E+01
      2.815  0.4857E+00  0.3407E+01
      2.905  0.4857E+00  0.3451E+01
      2.995  0.9715E+00  0.3538E+01
      3.084  0.2449E+00  0.3560E+01
      3.174  0.1544E+01  0.3699E+01
      3.264  0.7581E+00  0.3771E+01
      3.354  0.1929E+01  0.3948E+01
      3.444  0.4857E+00  0.3992E+01
      3.534  0.7358E+00  0.4058E+01
      3.624  0.1670E+01  0.4208E+01
      3.714  0.8380E+00  0.4286E+01
      3.804  0.7302E+00  0.4371E+01
      3.894  0.1456E+01  0.4502E+01
      3.984  0.1026E-01  0.4503E+01
      4.074  0.1910E+01  0.4674E+01
      4.164  0.9408E+00  0.4761E+01
      4.254  0.1214E+01  0.4895E+01
      4.344  0.7285E+00  0.4960E+01
      4.434  0.7804E+00  0.5031E+01
      4.524  0.1932E+01  0.5206E+01
      4.614  0.7263E+00  0.5272E+01
      4.704  0.1130E+01  0.5373E+01
      4.794  0.4859E+00  0.5490E+01
      4.884  0.9907E+00  0.5579E+01
      4.974  0.9784E+00  0.5700E+01
      5.064  0.1918E+01  0.5872E+01
      5.153  0.7961E+00  0.5944E+01
      5.243  0.2039E-01  0.6005E+01
      5.333  0.8251E+00  0.6100E+01
      5.423  0.1109E+01  0.6235E+01
      5.513  0.1216E+01  0.6353E+01
      5.603  0.9699E+00  0.6441E+01
      5.693  0.6643E+00  0.6500E+01
      5.783  0.5641E+00  0.6562E+01
      5.873  0.1879E+01  0.6771E+01
      5.963  0.1214E+01  0.6883E+01
      6.053  0.1785E+01  0.7044E+01
      6.143  0.1692E+01  0.7196E+01
      6.233  0.1134E+01  0.7298E+01
      6.323  0.9381E-01  0.7314E+01
      6.413  0.1142E+01  0.7453E+01
      6.503  0.1743E+01  0.7615E+01
      6.593  0.1142E+01  0.7728E+01
      6.683  0.8472E+00  0.7821E+01
      6.773  0.1543E+01  0.7971E+01
      6.863  0.8251E+00  0.8104E+01
      6.953  0.8528E+00  0.8204E+01
      7.043  0.1822E+01  0.8368E+01
      7.133  0.1637E+01  0.8526E+01
      7.222  0.9640E+00  0.8619E+01
      7.312  0.9807E+00  0.8707E+01
      7.402  0.1075E+01  0.8814E+01
      7.492  0.1120E+01  0.8918E+01
      7.582  0.9096E+00  0.9031E+01
      7.672  0.9757E+00  0.9144E+01
      7.762  0.1008E+01  0.9234E+01
      7.852  0.9382E+00  0.9348E+01
      7.942  0.1914E+01  0.9567E+01
      8.032  0.2676E+00  0.9593E+01
      8.122  0.2046E+01  0.9778E+01
      8.212  0.9734E+00  0.9867E+01
      8.302  0.1576E+01  0.1001E+02
      8.392  0.8833E+00  0.1009E+02
      8.482  0.1492E+01  0.1022E+02
      8.572  0.2348E+01  0.1044E+02
      8.662  0.4857E+00  0.1056E+02
      8.752  0.6509E+00  0.1062E+02
      8.842  0.1385E+01  0.1075E+02
      8.932  0.1093E+01  0.1092E+02
      9.022  0.8091E+00  0.1100E+02
      9.112  0.9959E+00  0.1111E+02
      9.202  0.8741E+00  0.1125E+02
      9.291  0.1546E+01  0.1142E+02
      9.381  0.1379E+01  0.1154E+02
      9.471  0.1913E+01  0.1173E+02
      9.561  0.5477E+00  0.1178E+02
      9.651  0.1814E+01  0.1194E+02
      9.741  0.1370E+01  0.1207E+02
      9.831  0.1452E+01  0.1221E+02
      9.921  0.9389E+00  0.1229E+02
     10.011  0.4956E+00  0.1235E+02
     10.101  0.1747E+01  0.1251E+02
     10.191  0.2490E+00  0.1253E+02
     10.281  0.1219E+01  0.1269E+02
     10.371  0.2060E+01  0.1287E+02
     10.461  0.2697E+01  0.1312E+02
     10.551  0.2233E+01  0.1332E+02
     10.641  0.2587E+00  0.1336E+02
     10.731  0.2625E+01  0.1360E+02
     10.821  0.1082E+01  0.1370E+02
     10.911  0.8916E+00  0.1382E+02
     11.001  0.1405E+01  0.1400E+02
     11.091  0.3449E+00  0.1404E+02
     11.181  0.1459E+01  0.1417E+02
     11.271  0.1379E+01  0.1431E+02
     11.361  0.9700E+00  0.1443E+02
     11.450  0.2383E+01  0.1464E+02
     11.540  0.9702E+00  0.1473E+02
     11.630  0.1846E+01  0.1494E+02
     11.720  0.1336E+01  0.1509E+02
     11.810  0.3374E+00  0.1512E+02
     11.900  0.1358E+01  0.1525E+02
     11.990  0.1944E+01  0.1544E+02
     12.080  0.1455E+01  0.1557E+02
     12.170  0.1238E+01  0.1568E+02
     12.260  0.8987E+00  0.1577E+02
     12.350  0.1399E+01  0.1592E+02
     12.440  0.2501E+01  0.1617E+02
     12.530  0.1459E+01  0.1637E+02
     12.620  0.7288E+00  0.1643E+02
     12.710  0.2033E+01  0.1661E+02
     12.800  0.9555E+00  0.1674E+02
     12.890  0.9710E+00  0.1682E+02
     12.980  0.1993E+01  0.1700E+02
     13.070  0.1780E+01  0.1717E+02
     13.160  0.1397E+01  0.1731E+02
     13.250  0.1458E+01  0.1746E+02
     13.340  0.1144E+01  0.1756E+02
     13.430  0.2677E+01  0.1782E+02
     13.519  0.1415E+01  0.1796E+02
     13.609  0.1780E+01  0.1812E+02
     13.699  0.4883E+00  0.1818E+02
     13.789  0.1665E+01  0.1833E+02
     13.879  0.1070E+01  0.1846E+02
     13.969  0.1866E+01  0.1865E+02
     14.059  0.2316E+01  0.1886E+02
     14.149  0.1473E+01  0.1899E+02
     14.239  0.8947E+00  0.1911E+02
     14.329  0.1853E+01  0.1928E+02
     14.419  0.1944E+01  0.1947E+02
     14.509  0.1725E+01  0.1963E+02
     14.599  0.3073E+01  0.1992E+02
     14.689  0.1924E+01  0.2010E+02
     14.779  0.9377E+00  0.2019E+02
     14.869  0.1183E+01  0.2032E+02
     14.959  0.1453E+01  0.2047E+02
     15.049  0.1000E+01  0.2062E+02
     15.139  0.3638E+00  0.2065E+02
     15.229  0.1820E+01  0.2083E+02
     15.319  0.2583E+01  0.2106E+02
     15.409  0.1696E+01  0.2124E+02
     15.499  0.2705E+01  0.2149E+02
     15.588  0.1360E+01  0.2167E+02
     15.678  0.9921E+00  0.2177E+02
     15.768  0.1442E+01  0.2197E+02
     15.858  0.1213E+01  0.2212E+02
     15.948  0.1712E+01  0.2229E+02
     16.038  0.2103E+01  0.2248E+02
     16.128  0.2141E+01  0.2269E+02
     16.218  0.3068E+01  0.2301E+02
     16.308  0.4360E+00  0.2313E+02
     16.398  0.1640E+01  0.2329E+02
     16.488  0.1396E+01  0.2342E+02
     16.578  0.1731E+01  0.2363E+02
     16.668  0.1056E+01  0.2377E+02
     16.758  0.9566E+00  0.2391E+02
     16.848  0.4096E+01  0.2428E+02
     16.938  0.1407E+01  0.2441E+02
     17.028  0.1897E+01  0.2460E+02
     17.118  0.2686E+01  0.2484E+02
     17.208  0.1406E+01  0.2498E+02
     17.298  0.1074E+01  0.2513E+02
     17.388  0.8698E+00  0.2526E+02
     17.478  0.2456E+01  0.2550E+02
     17.568  0.1755E+01  0.2568E+02
     17.657  0.2648E+01  0.2592E+02
     17.747  0.1262E+01  0.2604E+02
     17.837  0.1238E+01  0.2618E+02
     17.927  0.2124E+01  0.2637E+02
     18.017  0.2745E+01  0.2663E+02
     18.107  0.9702E+00  0.2675E+02
     18.197  0.9095E+00  0.2684E+02
     18.287  0.2689E+01  0.2708E+02
     18.377  0.9549E+00  0.2723E+02
     18.467  0.1934E+01  0.2742E+02
     18.557  0.2243E+01  0.2765E+02
     18.647  0.9868E+00  0.2774E+02
     18.737  0.1864E+01  0.2794E+02
     18.827  0.1846E+01  0.2812E+02
     18.917  0.3295E+01  0.2844E+02
     19.007  0.7989E+00  0.2856E+02
     19.097  0.1515E+01  0.2871E+02
     19.187  0.2203E+01  0.2892E+02
     19.277  0.9863E+00  0.2902E+02
     19.367  0.1010E+01  0.2916E+02
     19.457  0.9696E+00  0.2927E+02
     19.547  0.7684E+00  0.2936E+02
     19.637  0.1628E+01  0.2951E+02
     19.726  0.1827E+01  0.2969E+02
     19.816  0.2111E+01  0.2990E+02
     19.906  0.1547E+01  0.3007E+02
     19.996  0.1431E+01  0.3021E+02
     20.086  0.1769E+01  0.3037E+02
     20.176  0.1925E+01  0.3055E+02
     20.266  0.2429E+00  0.3057E+02
     20.356  0.6634E+00  0.3063E+02
     20.446  0.1278E+01  0.3076E+02
     20.536  0.7088E+00  0.3094E+02
     20.626  0.1230E+00  0.3096E+02
     20.716  0.4752E+00  0.3100E+02
     20.806  0.6885E+00  0.3106E+02
     20.896  0.1446E+01  0.3124E+02
     20.986  0.1148E+01  0.3134E+02
     21.076  0.1187E+01  0.3149E+02
     21.166  0.7565E+00  0.3156E+02
     21.256  0.1208E+01  0.3169E+02
     21.346  0.4840E+00  0.3173E+02
     21.436  0.7213E+00  0.3180E+02
     21.526  0.4857E+00  0.3184E+02
     21.616  0.2427E+00  0.3186E+02
     21.706  0.7076E+00  0.3193E+02
     21.795  0.2423E+00  0.3196E+02
     21.885  0.3638E-01  0.3197E+02
     21.975  0.4525E-06  0.3198E+02
     22.065  0.2429E+00  0.3200E+02
     22.155  0.0000E+00  0.3200E+02
     22.245  0.0000E+00  0.3200E+02
     22.335  0.0000E+00  0.3200E+02
     22.425  0.0000E+00  0.3200E+02
     22.515  0.0000E+00  0.3200E+02
     22.605  0.0000E+00  0.3200E+02
     22.695  0.0000E+00  0.3200E+02
     22.785  0.0000E+00  0.3200E+02
     22.875  0.0000E+00  0.3200E+02
     22.965  0.0000E+00  0.3200E+02
     23.055  0.0000E+00  0.3200E+02
     23.145  0.0000E+00  0.3200E+02
     23.235  0.0000E+00  0.3200E+02
