  32  32   0   0
  0.1501517E+02  0.7832374E-09  0.7832374E-09  0.7832374E-09  0.5000000E-15
  1.000000000000000E-004
  CAR 
 unknown system                          
     13.70719046     -3.56773172  301      9.03425768      1.00000000
     -3.568  0.0000E+00  0.0000E+00
     -3.510  0.0000E+00  0.0000E+00
     -3.453  0.0000E+00  0.0000E+00
     -3.395  0.0000E+00  0.0000E+00
     -3.337  0.0000E+00  0.0000E+00
     -3.280  0.0000E+00  0.0000E+00
     -3.222  0.0000E+00  0.0000E+00
     -3.165  0.0000E+00  0.0000E+00
     -3.107  0.0000E+00  0.0000E+00
     -3.049  0.0000E+00  0.0000E+00
     -2.992  0.0000E+00  0.0000E+00
     -2.934  0.0000E+00  0.0000E+00
     -2.877  0.0000E+00  0.0000E+00
     -2.819  0.2204E-08  0.1269E-09
     -2.762  0.1165E+00  0.6709E-02
     -2.704  0.6525E+00  0.4428E-01
     -2.646  0.1020E+01  0.1030E+00
     -2.589  0.1630E+01  0.1969E+00
     -2.531  0.1619E+01  0.2901E+00
     -2.474  0.1764E+01  0.3917E+00
     -2.416  0.2165E+01  0.5164E+00
     -2.358  0.1355E+01  0.5944E+00
     -2.301  0.2588E+01  0.7434E+00
     -2.243  0.2157E+01  0.8676E+00
     -2.186  0.3025E+01  0.1042E+01
     -2.128  0.2437E+01  0.1182E+01
     -2.071  0.3388E+01  0.1377E+01
     -2.013  0.2934E+01  0.1546E+01
     -1.955  0.1786E+01  0.1649E+01
     -1.898  0.3749E+01  0.1865E+01
     -1.840  0.3572E+01  0.2071E+01
     -1.783  0.2921E+01  0.2239E+01
     -1.725  0.3398E+01  0.2434E+01
     -1.667  0.4107E+01  0.2671E+01
     -1.610  0.3985E+01  0.2901E+01
     -1.552  0.2633E+01  0.3052E+01
     -1.495  0.4746E+01  0.3325E+01
     -1.437  0.2460E+01  0.3467E+01
     -1.380  0.4620E+01  0.3733E+01
     -1.322  0.3768E+01  0.3950E+01
     -1.264  0.6288E+01  0.4312E+01
     -1.207  0.3112E+01  0.4491E+01
     -1.149  0.2940E+01  0.4661E+01
     -1.092  0.6143E+01  0.5014E+01
     -1.034  0.3649E+01  0.5225E+01
     -0.976  0.4498E+01  0.5484E+01
     -0.919  0.4194E+01  0.5725E+01
     -0.861  0.4921E+01  0.6008E+01
     -0.804  0.5182E+01  0.6307E+01
     -0.746  0.4822E+01  0.6585E+01
     -0.689  0.5485E+01  0.6900E+01
     -0.631  0.4330E+01  0.7150E+01
     -0.573  0.5067E+01  0.7442E+01
     -0.516  0.4920E+01  0.7725E+01
     -0.458  0.5670E+01  0.8051E+01
     -0.401  0.3435E+01  0.8249E+01
     -0.343  0.6871E+01  0.8645E+01
     -0.285  0.6566E+01  0.9023E+01
     -0.228  0.5643E+01  0.9348E+01
     -0.170  0.4411E+01  0.9602E+01
     -0.113  0.4426E+01  0.9857E+01
     -0.055  0.6402E+01  0.1023E+02
      0.002  0.4806E+01  0.1050E+02
      0.060  0.7139E+01  0.1091E+02
      0.118  0.6869E+01  0.1131E+02
      0.175  0.3724E+01  0.1152E+02
      0.233  0.7759E+01  0.1197E+02
      0.290  0.6311E+01  0.1233E+02
      0.348  0.6059E+01  0.1268E+02
      0.406  0.2613E+01  0.1283E+02
      0.463  0.8337E+01  0.1331E+02
      0.521  0.5557E+01  0.1363E+02
      0.578  0.7034E+01  0.1404E+02
      0.636  0.7990E+01  0.1450E+02
      0.693  0.7078E+01  0.1491E+02
      0.751  0.5695E+01  0.1523E+02
      0.809  0.4641E+01  0.1550E+02
      0.866  0.6324E+01  0.1586E+02
      0.924  0.6117E+01  0.1622E+02
      0.981  0.7618E+01  0.1666E+02
      1.039  0.7741E+01  0.1710E+02
      1.096  0.8300E+01  0.1758E+02
      1.154  0.6453E+01  0.1795E+02
      1.212  0.4994E+01  0.1824E+02
      1.269  0.8366E+01  0.1872E+02
      1.327  0.6492E+01  0.1909E+02
      1.384  0.7104E+01  0.1950E+02
      1.442  0.4965E+01  0.1979E+02
      1.500  0.8358E+01  0.2027E+02
      1.557  0.7010E+01  0.2067E+02
      1.615  0.8894E+01  0.2119E+02
      1.672  0.9822E+01  0.2175E+02
      1.730  0.5330E+01  0.2206E+02
      1.787  0.7602E+01  0.2250E+02
      1.845  0.7379E+01  0.2292E+02
      1.903  0.5902E+01  0.2326E+02
      1.960  0.5845E+01  0.2360E+02
      2.018  0.9280E+01  0.2413E+02
      2.075  0.8618E+01  0.2463E+02
      2.133  0.1002E+02  0.2521E+02
      2.191  0.6790E+01  0.2560E+02
      2.248  0.8722E+01  0.2610E+02
      2.306  0.7773E+01  0.2655E+02
      2.363  0.4982E+01  0.2683E+02
      2.421  0.9742E+01  0.2739E+02
      2.478  0.5672E+01  0.2772E+02
      2.536  0.9137E+01  0.2825E+02
      2.594  0.9408E+01  0.2879E+02
      2.651  0.9609E+01  0.2934E+02
      2.709  0.6571E+01  0.2972E+02
      2.766  0.7361E+01  0.3014E+02
      2.824  0.1331E+02  0.3091E+02
      2.882  0.6332E+01  0.3128E+02
      2.939  0.7901E+01  0.3173E+02
      2.997  0.7448E+01  0.3216E+02
      3.054  0.1013E+02  0.3274E+02
      3.112  0.5323E+01  0.3305E+02
      3.169  0.9745E+01  0.3361E+02
      3.227  0.7757E+01  0.3406E+02
      3.285  0.1196E+02  0.3475E+02
      3.342  0.1063E+02  0.3536E+02
      3.400  0.9786E+01  0.3592E+02
      3.457  0.7639E+01  0.3636E+02
      3.515  0.5586E+01  0.3668E+02
      3.573  0.1170E+02  0.3736E+02
      3.630  0.7233E+01  0.3777E+02
      3.688  0.9363E+01  0.3831E+02
      3.745  0.7195E+01  0.3873E+02
      3.803  0.1160E+02  0.3939E+02
      3.860  0.9620E+01  0.3995E+02
      3.918  0.1103E+02  0.4058E+02
      3.976  0.1004E+02  0.4116E+02
      4.033  0.8234E+01  0.4164E+02
      4.091  0.8278E+01  0.4211E+02
      4.148  0.1421E+02  0.4293E+02
      4.206  0.8576E+01  0.4343E+02
      4.264  0.7068E+01  0.4383E+02
      4.321  0.1148E+02  0.4449E+02
      4.379  0.9035E+01  0.4501E+02
      4.436  0.7274E+01  0.4543E+02
      4.494  0.8763E+01  0.4594E+02
      4.551  0.1322E+02  0.4670E+02
      4.609  0.7432E+01  0.4713E+02
      4.667  0.1136E+02  0.4778E+02
      4.724  0.9064E+01  0.4830E+02
      4.782  0.1038E+02  0.4890E+02
      4.839  0.1028E+02  0.4949E+02
      4.897  0.9766E+01  0.5005E+02
      4.955  0.8646E+01  0.5055E+02
      5.012  0.8092E+01  0.5102E+02
      5.070  0.1212E+02  0.5172E+02
      5.127  0.9923E+01  0.5229E+02
      5.185  0.1287E+02  0.5303E+02
      5.242  0.9613E+01  0.5358E+02
      5.300  0.1210E+02  0.5428E+02
      5.358  0.5401E+01  0.5459E+02
      5.415  0.1413E+02  0.5540E+02
      5.473  0.6524E+01  0.5578E+02
      5.530  0.1214E+02  0.5648E+02
      5.588  0.1044E+02  0.5708E+02
      5.646  0.1514E+02  0.5795E+02
      5.703  0.1025E+02  0.5854E+02
      5.761  0.1137E+02  0.5920E+02
      5.818  0.1059E+02  0.5981E+02
      5.876  0.1012E+02  0.6039E+02
      5.933  0.1081E+02  0.6101E+02
      5.991  0.1118E+02  0.6166E+02
      6.049  0.1416E+02  0.6247E+02
      6.106  0.1393E+02  0.6327E+02
      6.164  0.1059E+02  0.6388E+02
      6.221  0.9113E+01  0.6441E+02
      6.279  0.1083E+02  0.6503E+02
      6.337  0.1048E+02  0.6564E+02
      6.394  0.1403E+02  0.6644E+02
      6.452  0.9737E+01  0.6700E+02
      6.509  0.1154E+02  0.6767E+02
      6.567  0.1038E+02  0.6827E+02
      6.624  0.1435E+02  0.6909E+02
      6.682  0.9696E+01  0.6965E+02
      6.740  0.7395E+01  0.7008E+02
      6.797  0.9741E+01  0.7064E+02
      6.855  0.1502E+02  0.7150E+02
      6.912  0.1106E+02  0.7214E+02
      6.970  0.9970E+01  0.7271E+02
      7.028  0.1064E+02  0.7333E+02
      7.085  0.7610E+01  0.7377E+02
      7.143  0.9634E+01  0.7432E+02
      7.200  0.1297E+02  0.7507E+02
      7.258  0.1226E+02  0.7577E+02
      7.315  0.8187E+01  0.7624E+02
      7.373  0.9819E+01  0.7681E+02
      7.431  0.1593E+02  0.7773E+02
      7.488  0.7197E+01  0.7814E+02
      7.546  0.1039E+02  0.7874E+02
      7.603  0.1293E+02  0.7948E+02
      7.661  0.7888E+01  0.7994E+02
      7.719  0.1594E+02  0.8086E+02
      7.776  0.7275E+01  0.8128E+02
      7.834  0.1402E+02  0.8208E+02
      7.891  0.1504E+02  0.8295E+02
      7.949  0.1134E+02  0.8360E+02
      8.006  0.1064E+02  0.8421E+02
      8.064  0.1134E+02  0.8487E+02
      8.122  0.1188E+02  0.8555E+02
      8.179  0.1383E+02  0.8635E+02
      8.237  0.1228E+02  0.8706E+02
      8.294  0.1251E+02  0.8778E+02
      8.352  0.1144E+02  0.8843E+02
      8.410  0.8553E+01  0.8893E+02
      8.467  0.1608E+02  0.8985E+02
      8.525  0.9972E+01  0.9043E+02
      8.582  0.8115E+01  0.9089E+02
      8.640  0.1200E+02  0.9158E+02
      8.697  0.1156E+02  0.9225E+02
      8.755  0.1139E+02  0.9291E+02
      8.813  0.1013E+02  0.9349E+02
      8.870  0.1155E+02  0.9415E+02
      8.928  0.1157E+02  0.9482E+02
      8.985  0.8770E+01  0.9533E+02
      9.043  0.1423E+02  0.9615E+02
      9.101  0.1048E+02  0.9675E+02
      9.158  0.1217E+02  0.9745E+02
      9.216  0.1245E+02  0.9817E+02
      9.273  0.1672E+02  0.9913E+02
      9.331  0.1126E+02  0.9978E+02
      9.388  0.1162E+02  0.1004E+03
      9.446  0.1157E+02  0.1011E+03
      9.504  0.9709E+01  0.1017E+03
      9.561  0.1679E+02  0.1026E+03
      9.619  0.1524E+02  0.1035E+03
      9.676  0.1696E+02  0.1045E+03
      9.734  0.9460E+01  0.1050E+03
      9.792  0.1524E+02  0.1059E+03
      9.849  0.9885E+01  0.1065E+03
      9.907  0.9962E+01  0.1071E+03
      9.964  0.8507E+01  0.1075E+03
     10.022  0.9878E+01  0.1081E+03
     10.079  0.1362E+02  0.1089E+03
     10.137  0.2047E+02  0.1101E+03
     10.195  0.1427E+02  0.1109E+03
     10.252  0.1277E+02  0.1116E+03
     10.310  0.1557E+02  0.1125E+03
     10.367  0.1426E+02  0.1134E+03
     10.425  0.1077E+02  0.1140E+03
     10.483  0.8196E+01  0.1144E+03
     10.540  0.1078E+02  0.1151E+03
     10.598  0.1044E+02  0.1157E+03
     10.655  0.1143E+02  0.1163E+03
     10.713  0.1198E+02  0.1170E+03
     10.770  0.1784E+02  0.1180E+03
     10.828  0.1534E+02  0.1189E+03
     10.886  0.1092E+02  0.1196E+03
     10.943  0.1076E+02  0.1202E+03
     11.001  0.1325E+02  0.1209E+03
     11.058  0.1796E+02  0.1220E+03
     11.116  0.1334E+02  0.1227E+03
     11.174  0.8654E+01  0.1232E+03
     11.231  0.1289E+02  0.1240E+03
     11.289  0.1850E+02  0.1250E+03
     11.346  0.7665E+01  0.1255E+03
     11.404  0.1352E+02  0.1263E+03
     11.461  0.7260E+01  0.1267E+03
     11.519  0.1733E+02  0.1277E+03
     11.577  0.1012E+02  0.1283E+03
     11.634  0.1616E+02  0.1292E+03
     11.692  0.8521E+01  0.1297E+03
     11.749  0.1272E+02  0.1304E+03
     11.807  0.1297E+02  0.1312E+03
     11.865  0.1642E+02  0.1321E+03
     11.922  0.1079E+02  0.1327E+03
     11.980  0.8023E+01  0.1332E+03
     12.037  0.6048E+01  0.1335E+03
     12.095  0.8881E+01  0.1341E+03
     12.152  0.7987E+01  0.1345E+03
     12.210  0.6383E+01  0.1349E+03
     12.268  0.8650E+01  0.1354E+03
     12.325  0.1308E+01  0.1355E+03
     12.383  0.3889E+01  0.1357E+03
     12.440  0.1216E+01  0.1357E+03
     12.498  0.1584E+01  0.1358E+03
     12.556  0.4824E+00  0.1359E+03
     12.613  0.7769E+00  0.1359E+03
     12.671  0.6716E+00  0.1360E+03
     12.728  0.1721E+00  0.1360E+03
     12.786  0.5903E+00  0.1360E+03
     12.843  0.0000E+00  0.1360E+03
     12.901  0.3169E-03  0.1360E+03
     12.959  0.8008E-01  0.1360E+03
     13.016  0.0000E+00  0.1360E+03
     13.074  0.0000E+00  0.1360E+03
     13.131  0.0000E+00  0.1360E+03
     13.189  0.0000E+00  0.1360E+03
     13.247  0.0000E+00  0.1360E+03
     13.304  0.0000E+00  0.1360E+03
     13.362  0.0000E+00  0.1360E+03
     13.419  0.0000E+00  0.1360E+03
     13.477  0.0000E+00  0.1360E+03
     13.534  0.0000E+00  0.1360E+03
     13.592  0.0000E+00  0.1360E+03
     13.650  0.0000E+00  0.1360E+03
     13.707  0.0000E+00  0.1360E+03
