   32   32    1    1
  0.1501517E+02  0.7832374E-09  0.7832374E-09  0.7832374E-09  0.5000000E-15
  1.000000000000000E-004
  CAR 
 unknown system                          
   96  196   68
 
  0.0000000E+00  0.0000000E+00  0.0000000E+00  0.5787037E-03
   1       -2.7825
   2       -0.3968
   3       -0.3929
   4       -0.3929
   5       -0.3929
   6       -0.3929
   7       -0.3891
   8        1.9458
   9        1.9502
  10        1.9502
  11        1.9521
  12        1.9522
  13        1.9522
  14        1.9522
  15        1.9522
  16        1.9523
  17        1.9541
  18        1.9541
  19        1.9586
  20        4.0442
  21        4.0442
  22        4.0442
  23        4.0442
  24        4.5082
  25        4.5082
  26        4.5083
  27        4.5083
  28        5.8680
  29        5.8680
  30        5.8680
  31        7.3861
  32        7.3861
  33        7.3861
  34        8.0497
  35        8.0497
  36        8.0542
  37        8.0542
  38        8.0544
  39        8.0544
  40        8.0544
  41        8.0544
  42        8.0546
  43        8.0546
  44        8.0591
  45        8.0591
  46        9.0115
  47        9.0160
  48        9.0160
  49        9.0160
  50        9.0160
  51        9.0204
  52       10.2482
  53       10.2482
  54       10.2496
  55       10.2523
  56       10.2524
  57       10.2524
  58       10.2524
  59       10.2524
  60       10.2524
  61       10.2551
  62       10.2566
  63       10.2566
  64       10.6728
  65       10.6739
  66       10.6739
  67       10.6739
  68       10.6743
 
  0.8333333E-01  0.0000000E+00  0.0000000E+00  0.1157407E-02
   1       -2.7658
   2       -0.7716
   3       -0.3765
   4       -0.3765
   5       -0.3765
   6       -0.3765
   7        0.0172
   8        1.5806
   9        1.5807
  10        1.5807
  11        1.5807
  12        1.9683
  13        1.9683
  14        1.9683
  15        1.9683
  16        2.3546
  17        2.3546
  18        2.3546
  19        2.3546
  20        3.8440
  21        3.8440
  22        3.8440
  23        3.8440
  24        4.7391
  25        4.7391
  26        4.7392
  27        4.7392
  28        5.5669
  29        5.8832
  30        5.8832
  31        7.4017
  32        7.4018
  33        7.7044
  34        7.7044
  35        7.7155
  36        7.7509
  37        7.7509
  38        7.7509
  39        7.7510
  40        8.0696
  41        8.0696
  42        8.0696
  43        8.0696
  44        8.4350
  45        8.4350
  46        8.9459
  47        8.9459
  48        9.2361
  49        9.2361
  50        9.2361
  51        9.2361
  52        9.9008
  53        9.9008
  54        9.9008
  55        9.9008
  56       10.0001
  57       10.0001
  58       10.0001
  59       10.0001
  60       10.6346
  61       10.6346
  62       10.6346
  63       10.6346
  64       10.7721
  65       10.7761
  66       10.8014
  67       10.8014
  68       10.8015
 
  0.1666667E+00  0.0000000E+00  0.0000000E+00  0.1157407E-02
   1       -2.7155
   2       -1.1183
   3       -0.3272
   4       -0.3272
   5       -0.3272
   6       -0.3272
   7        0.4586
   8        1.2404
   9        1.2404
  10        1.2404
  11        1.2404
  12        2.0166
  13        2.0167
  14        2.0167
  15        2.0167
  16        2.7873
  17        2.7873
  18        2.7873
  19        2.7874
  20        3.5381
  21        3.5381
  22        3.5381
  23        3.5381
  24        4.9845
  25        5.1372
  26        5.1372
  27        5.1372
  28        5.1372
  29        5.9286
  30        5.9286
  31        7.1891
  32        7.1891
  33        7.1891
  34        7.1891
  35        7.3852
  36        7.3852
  37        7.4486
  38        7.4486
  39        8.1153
  40        8.1153
  41        8.1153
  42        8.1153
  43        8.3831
  44        8.7734
  45        8.7734
  46        8.8462
  47        8.8462
  48        9.4724
  49        9.4724
  50        9.4724
  51        9.4725
  52        9.5438
  53        9.5438
  54        9.5439
  55        9.5440
  56        9.5800
  57        9.5800
  58        9.5801
  59        9.5801
  60       11.0291
  61       11.0291
  62       11.0476
  63       11.0476
  64       11.0476
  65       11.0476
  66       11.1876
  67       11.1876
  68       11.1876
 
  0.2500000E+00  0.0000000E+00  0.0000000E+00  0.1157407E-02
   1       -2.6318
   2       -1.4328
   3       -0.2451
   4       -0.2451
   5       -0.2451
   6       -0.2451
   7        0.9285
   8        0.9318
   9        0.9318
  10        0.9318
  11        0.9339
  12        2.0972
  13        2.0972
  14        2.0972
  15        2.0972
  16        3.2428
  17        3.2439
  18        3.2439
  19        3.2443
  20        3.2500
  21        3.2503
  22        3.2503
  23        3.2514
  24        4.3521
  25        5.5843
  26        5.5843
  27        5.5844
  28        5.5844
  29        6.0043
  30        6.0043
  31        6.5815
  32        6.5815
  33        6.5815
  34        6.5815
  35        7.0965
  36        7.0965
  37        7.5264
  38        7.5264
  39        8.1915
  40        8.1915
  41        8.1915
  42        8.1915
  43        8.5581
  44        8.5581
  45        8.8766
  46        8.8766
  47        8.8766
  48        8.8766
  49        9.1575
  50        9.2864
  51        9.2864
  52        9.2898
  53        9.2899
  54        9.2916
  55        9.2916
  56        9.7734
  57        9.7734
  58        9.7734
  59        9.7734
  60       11.0811
  61       11.0811
  62       11.0811
  63       11.0811
  64       11.3842
  65       11.3843
  66       11.4913
  67       11.4913
  68       11.4913
 
  0.3333333E+00  0.0000000E+00  0.0000000E+00  0.1157407E-02
   1       -2.5148
   2       -1.7149
   3       -0.1302
   4       -0.1302
   5       -0.1302
   6       -0.1302
   7        0.6549
   8        0.6549
   9        0.6549
  10        0.6549
  11        1.4329
  12        2.2098
  13        2.2098
  14        2.2098
  15        2.2098
  16        2.9765
  17        2.9765
  18        2.9765
  19        2.9765
  20        3.7227
  21        3.7418
  22        3.7418
  23        3.7418
  24        3.7419
  25        5.9736
  26        5.9736
  27        5.9736
  28        5.9736
  29        6.0662
  30        6.0662
  31        6.0663
  32        6.0663
  33        6.1105
  34        6.1105
  35        6.8384
  36        6.8384
  37        7.6344
  38        7.6344
  39        8.2743
  40        8.2743
  41        8.2745
  42        8.2745
  43        8.2982
  44        8.2983
  45        8.2985
  46        8.2985
  47        8.3366
  48        8.3367
  49        9.0303
  50        9.0303
  51        9.0303
  52        9.0303
  53        9.7609
  54        9.7609
  55        9.9610
  56        9.9610
  57        9.9610
  58        9.9610
  59        9.9853
  60       10.8082
  61       10.8082
  62       10.8082
  63       10.8083
  64       11.7995
  65       11.7996
  66       11.9591
  67       11.9624
  68       11.9659
 
  0.4166667E+00  0.0000000E+00  0.0000000E+00  0.1157407E-02
   1       -2.3644
   2       -1.9643
   3        0.0173
   4        0.0174
   5        0.0174
   6        0.0174
   7        0.4101
   8        0.4101
   9        0.4101
  10        0.4101
  11        1.9645
  12        2.3543
  13        2.3543
  14        2.3543
  15        2.3543
  16        2.7382
  17        2.7382
  18        2.7382
  19        2.7382
  20        3.1117
  21        4.2619
  22        4.2619
  23        4.2619
  24        4.2619
  25        5.3806
  26        5.3806
  27        5.3806
  28        5.3806
  29        6.2468
  30        6.2468
  31        6.5787
  32        6.5787
  33        6.5788
  34        6.5788
  35        6.6109
  36        6.6109
  37        7.6862
  38        7.6863
  39        7.6863
  40        7.6863
  41        7.7717
  42        7.7718
  43        8.1265
  44        8.1265
  45        8.4354
  46        8.4354
  47        8.4354
  48        8.4354
  49        8.8015
  50        8.8015
  51        8.8015
  52        8.8015
  53       10.1447
  54       10.1447
  55       10.1447
  56       10.1447
  57       10.2642
  58       10.2642
  59       10.5626
  60       10.5626
  61       10.5626
  62       10.5626
  63       10.8516
  64       11.3619
  65       11.3619
  66       12.2548
  67       12.2548
  68       12.4709
 
  0.5000000E+00  0.0000000E+00  0.0000000E+00  0.5787037E-03
   1       -2.1824
   2       -2.1793
   3        0.1933
   4        0.1966
   5        0.1966
   6        0.1974
   7        0.1976
   8        0.1984
   9        0.1984
  10        0.2017
  11        2.5222
  12        2.5248
  13        2.5289
  14        2.5293
  15        2.5293
  16        2.5301
  17        2.5311
  18        2.5319
  19        2.5319
  20        2.5346
  21        4.8079
  22        4.8079
  23        4.8085
  24        4.8086
  25        4.8090
  26        4.8092
  27        4.8097
  28        4.8097
  29        6.4119
  30        6.4119
  31        6.4152
  32        6.4152
  33        7.1187
  34        7.1187
  35        7.1190
  36        7.1197
  37        7.1197
  38        7.1203
  39        7.1207
  40        7.1207
  41        7.9345
  42        7.9358
  43        7.9375
  44        7.9388
  45        8.6006
  46        8.6006
  47        8.6015
  48        8.6031
  49        8.6032
  50        8.6048
  51        8.6057
  52        8.6057
  53       10.3403
  54       10.3412
  55       10.3412
  56       10.3413
  57       10.3438
  58       10.3440
  59       10.3440
  60       10.3449
  61       10.7968
  62       10.7968
  63       10.7991
  64       10.7991
  65       11.7497
  66       11.7507
  67       12.7363
  68       12.7382
 
  0.0000000E+00  0.8333333E-01  0.0000000E+00  0.2314815E-02
   1       -2.7658
   2       -0.7715
   3       -0.3795
   4       -0.3765
   5       -0.3765
   6       -0.3735
   7        0.0172
   8        1.5777
   9        1.5807
  10        1.5807
  11        1.5837
  12        1.9662
  13        1.9671
  14        1.9695
  15        1.9704
  16        2.3515
  17        2.3546
  18        2.3546
  19        2.3576
  20        3.8422
  21        3.8430
  22        3.8450
  23        3.8458
  24        4.7373
  25        4.7381
  26        4.7402
  27        4.7410
  28        5.5669
  29        5.8832
  30        5.8832
  31        7.4017
  32        7.4018
  33        7.7043
  34        7.7045
  35        7.7156
  36        7.7476
  37        7.7509
  38        7.7509
  39        7.7543
  40        8.0668
  41        8.0696
  42        8.0696
  43        8.0724
  44        8.4350
  45        8.4350
  46        8.9459
  47        8.9459
  48        9.2330
  49        9.2361
  50        9.2361
  51        9.2391
  52        9.8979
  53        9.9008
  54        9.9008
  55        9.9037
  56        9.9973
  57        9.9989
  58       10.0012
  59       10.0028
  60       10.6317
  61       10.6346
  62       10.6346
  63       10.6375
  64       10.7721
  65       10.7750
  66       10.8006
  67       10.8014
  68       10.8021
 
  0.8333333E-01  0.8333333E-01  0.0000000E+00  0.4629630E-02
   1       -2.7490
   2       -0.7563
   3       -0.7538
   4       -0.3601
   5       -0.3601
   6        0.0323
   7        0.0349
   8        1.2080
   9        1.5951
  10        1.5961
  11        1.5976
  12        1.5986
  13        1.9839
  14        1.9848
  15        2.3689
  16        2.3698
  17        2.3714
  18        2.3724
  19        2.7555
  20        3.5065
  21        3.5065
  22        4.0750
  23        4.0750
  24        4.5407
  25        4.5407
  26        5.1056
  27        5.1056
  28        5.5819
  29        5.5826
  30        5.8983
  31        7.4076
  32        7.4100
  33        7.4174
  34        7.6777
  35        7.6777
  36        7.7183
  37        7.7211
  38        7.7307
  39        7.7314
  40        7.8754
  41        7.8754
  42        8.1083
  43        8.1104
  44        8.4488
  45        8.4516
  46        9.1315
  47        9.1340
  48        9.2107
  49        9.2137
  50        9.4553
  51        9.4553
  52        9.5495
  53        9.6456
  54        9.6465
  55        9.6480
  56        9.6490
  57       10.2820
  58       10.2838
  59       10.3820
  60       10.3830
  61       10.3837
  62       10.3846
  63       10.8453
  64       10.8460
  65       10.9089
  66       10.9092
  67       10.9557
  68       10.9573
 
  0.1666667E+00  0.8333333E-01  0.0000000E+00  0.4629630E-02
   1       -2.6988
   2       -1.1017
   3       -0.7056
   4       -0.3108
   5       -0.3108
   6        0.0827
   7        0.4749
   8        0.8668
   9        1.2567
  10        1.2567
  11        1.6446
  12        1.6454
  13        1.6460
  14        2.4180
  15        2.4188
  16        2.4193
  17        2.8033
  18        2.8033
  19        3.1807
  20        3.1807
  21        3.1867
  22        3.9065
  23        3.9066
  24        4.8029
  25        4.8029
  26        5.0001
  27        5.5218
  28        5.5218
  29        5.6282
  30        5.9437
  31        6.8449
  32        7.0924
  33        7.1889
  34        7.1889
  35        7.4004
  36        7.4641
  37        7.5536
  38        7.7654
  39        7.7773
  40        7.8607
  41        7.8607
  42        8.3982
  43        8.4344
  44        8.4959
  45        8.8615
  46        9.0114
  47        9.0677
  48        9.1179
  49        9.1180
  50        9.2289
  51        9.3250
  52        9.3251
  53        9.3384
  54        9.6577
  55        9.7917
  56        9.7918
  57        9.8573
  58        9.8574
  59        9.9619
  60       10.6957
  61       10.7969
  62       10.7970
  63       11.0265
  64       11.0718
  65       11.0965
  66       11.2468
  67       11.2538
  68       11.2539
 
  0.2500000E+00  0.8333333E-01  0.0000000E+00  0.4629630E-02
   1       -2.6151
   2       -1.4162
   3       -0.6232
   4       -0.2287
   5       -0.2287
   6        0.1646
   7        0.5571
   8        0.9455
   9        0.9480
  10        0.9494
  11        1.3376
  12        1.7262
  13        1.7262
  14        2.4989
  15        2.4989
  16        2.8797
  17        2.8808
  18        2.8839
  19        3.2659
  20        3.2659
  21        3.6326
  22        3.6328
  23        3.6478
  24        4.3678
  25        5.2317
  26        5.2317
  27        5.7048
  28        5.9733
  29        5.9734
  30        6.0195
  31        6.2319
  32        6.5914
  33        6.5914
  34        6.8043
  35        6.9554
  36        7.1117
  37        7.5415
  38        7.8415
  39        7.8539
  40        7.9311
  41        7.9311
  42        8.4961
  43        8.5206
  44        8.5207
  45        8.5722
  46        8.8657
  47        8.9389
  48        9.0334
  49        9.0335
  50        9.1576
  51        9.1722
  52        9.2628
  53        9.2629
  54        9.3035
  55        9.4964
  56        9.6715
  57       10.0171
  58       10.0453
  59       10.0453
  60       10.7269
  61       11.1392
  62       11.2408
  63       11.2408
  64       11.3651
  65       11.3651
  66       11.4130
  67       11.4618
  68       11.5772
 
  0.3333333E+00  0.8333333E-01  0.0000000E+00  0.4629630E-02
   1       -2.4981
   2       -1.6982
   3       -0.5080
   4       -0.1138
   5       -0.1138
   6        0.2786
   7        0.2799
   8        0.6712
   9        0.6712
  10        1.0616
  11        1.4490
  12        1.8392
  13        1.8392
  14        2.6096
  15        2.6100
  16        2.6112
  17        2.6115
  18        3.3712
  19        3.3712
  20        3.3765
  21        3.7386
  22        3.7576
  23        3.7576
  24        4.1373
  25        5.6194
  26        5.7091
  27        5.7091
  28        5.8121
  29        5.9867
  30        5.9867
  31        6.1256
  32        6.3547
  33        6.4564
  34        6.4564
  35        6.5456
  36        6.8536
  37        7.6489
  38        7.9174
  39        7.9175
  40        7.9482
  41        7.9605
  42        8.0368
  43        8.0368
  44        8.3293
  45        8.6508
  46        8.6619
  47        8.6623
  48        8.6785
  49        8.6803
  50        8.7725
  51        8.7725
  52        9.4118
  53        9.5651
  54        9.6473
  55        9.7762
  56        9.9996
  57       10.2432
  58       10.2432
  59       10.2758
  60       10.4560
  61       11.0936
  62       11.0936
  63       11.1864
  64       11.6135
  65       11.7124
  66       11.7148
  67       11.7153
  68       11.8220
 
  0.4166667E+00  0.8333333E-01  0.0000000E+00  0.4629630E-02
   1       -2.3477
   2       -1.9476
   3       -0.3600
   4        0.0324
   5        0.0338
   6        0.0353
   7        0.4249
   8        0.4264
   9        0.4278
  10        0.8176
  11        1.9802
  12        1.9844
  13        1.9849
  14        2.3702
  15        2.3702
  16        2.7547
  17        2.7548
  18        3.1274
  19        3.1358
  20        3.1361
  21        3.8986
  22        4.2774
  23        4.2774
  24        4.6549
  25        5.0226
  26        5.3950
  27        5.3950
  28        5.7667
  29        5.9498
  30        6.2204
  31        6.2204
  32        6.2620
  33        6.3167
  34        6.6259
  35        6.9689
  36        6.9689
  37        7.3283
  38        7.3283
  39        7.7851
  40        8.0748
  41        8.0749
  42        8.0852
  43        8.0959
  44        8.1328
  45        8.1743
  46        8.1743
  47        8.4451
  48        8.4509
  49        8.5423
  50        8.5423
  51        8.8163
  52        9.1827
  53        9.8121
  54       10.0483
  55       10.2138
  56       10.2795
  57       10.4304
  58       10.4304
  59       10.4929
  60       10.8488
  61       10.8489
  62       10.8653
  63       10.9360
  64       11.1282
  65       11.3773
  66       12.1186
  67       12.2184
  68       12.2197
 
  0.5000000E+00  0.8333333E-01  0.0000000E+00  0.2314815E-02
   1       -2.1657
   2       -2.1627
   3       -0.1808
   4       -0.1778
   5        0.2117
   6        0.2130
   7        0.2148
   8        0.2160
   9        0.6042
  10        0.6073
  11        2.1592
  12        2.1605
  13        2.1623
  14        2.1636
  15        2.5401
  16        2.5413
  17        2.9277
  18        2.9290
  19        2.9308
  20        2.9321
  21        4.4474
  22        4.4486
  23        4.8230
  24        4.8237
  25        4.8242
  26        4.8249
  27        5.1982
  28        5.1994
  29        6.1165
  30        6.1197
  31        6.4271
  32        6.4304
  33        6.7605
  34        6.7607
  35        6.7618
  36        6.7621
  37        7.5084
  38        7.5087
  39        7.5097
  40        7.5100
  41        7.9463
  42        7.9493
  43        8.2511
  44        8.2545
  45        8.2568
  46        8.2598
  47        8.3405
  48        8.3420
  49        8.3438
  50        8.3453
  51        8.9825
  52        8.9859
  53        9.9981
  54       10.0012
  55       10.5709
  56       10.5729
  57       10.6273
  58       10.6278
  59       10.6305
  60       10.6311
  61       10.7057
  62       10.7090
  63       10.8122
  64       10.8145
  65       11.7625
  66       11.7634
  67       12.6538
  68       12.6593
 
  0.0000000E+00  0.1666667E+00  0.0000000E+00  0.2314815E-02
   1       -2.7155
   2       -1.1183
   3       -0.3302
   4       -0.3272
   5       -0.3272
   6       -0.3242
   7        0.4585
   8        1.2374
   9        1.2404
  10        1.2404
  11        1.2434
  12        2.0146
  13        2.0155
  14        2.0178
  15        2.0187
  16        2.7843
  17        2.7873
  18        2.7873
  19        2.7904
  20        3.5361
  21        3.5370
  22        3.5392
  23        3.5401
  24        4.9845
  25        5.1351
  26        5.1360
  27        5.1383
  28        5.1392
  29        5.9286
  30        5.9286
  31        7.1858
  32        7.1891
  33        7.1891
  34        7.1924
  35        7.3852
  36        7.3852
  37        7.4486
  38        7.4486
  39        8.1125
  40        8.1153
  41        8.1154
  42        8.1182
  43        8.3831
  44        8.7734
  45        8.7734
  46        8.8462
  47        8.8462
  48        9.4699
  49        9.4713
  50        9.4737
  51        9.4750
  52        9.5410
  53        9.5439
  54        9.5439
  55        9.5467
  56        9.5771
  57        9.5800
  58        9.5801
  59        9.5829
  60       11.0290
  61       11.0291
  62       11.0446
  63       11.0476
  64       11.0478
  65       11.0506
  66       11.1864
  67       11.1876
  68       11.1890
 
  0.8333333E-01  0.1666667E+00  0.0000000E+00  0.4629630E-02
   1       -2.6988
   2       -1.1017
   3       -0.7056
   4       -0.3108
   5       -0.3108
   6        0.0827
   7        0.4749
   8        0.8667
   9        1.2566
  10        1.2567
  11        1.6439
  12        1.6454
  13        1.6467
  14        2.4172
  15        2.4188
  16        2.4201
  17        2.8033
  18        2.8033
  19        3.1807
  20        3.1807
  21        3.1867
  22        3.9066
  23        3.9066
  24        4.8029
  25        4.8029
  26        5.0001
  27        5.5218
  28        5.5218
  29        5.6282
  30        5.9438
  31        6.8449
  32        7.0924
  33        7.1889
  34        7.1890
  35        7.4004
  36        7.4641
  37        7.5536
  38        7.7654
  39        7.7772
  40        7.8607
  41        7.8607
  42        8.3982
  43        8.4344
  44        8.4960
  45        8.8615
  46        9.0114
  47        9.0677
  48        9.1180
  49        9.1180
  50        9.2289
  51        9.3250
  52        9.3251
  53        9.3384
  54        9.6576
  55        9.7918
  56        9.7918
  57        9.8573
  58        9.8573
  59        9.9619
  60       10.6956
  61       10.7970
  62       10.7970
  63       11.0265
  64       11.0717
  65       11.0965
  66       11.2468
  67       11.2538
  68       11.2538
 
  0.1666667E+00  0.1666667E+00  0.0000000E+00  0.4629630E-02
   1       -2.6486
   2       -1.0534
   3       -1.0509
   4       -0.2615
   5       -0.2615
   6        0.5221
   7        0.5241
   8        0.5260
   9        1.3036
  10        1.3046
  11        1.3061
  12        1.3071
  13        2.0803
  14        2.0812
  15        2.8476
  16        2.8484
  17        2.8503
  18        2.8507
  19        2.8522
  20        2.8534
  21        3.6161
  22        4.1672
  23        4.1672
  24        4.6378
  25        4.6378
  26        5.0463
  27        5.0471
  28        5.9423
  29        5.9424
  30        5.9892
  31        6.5252
  32        6.5277
  33        7.0900
  34        7.0900
  35        7.4445
  36        7.4474
  37        7.4637
  38        7.4639
  39        7.5102
  40        7.9196
  41        7.9218
  42        8.4429
  43        8.4439
  44        8.7921
  45        8.7932
  46        8.7947
  47        8.7958
  48        8.9052
  49        8.9077
  50        8.9102
  51        9.1241
  52        9.1258
  53        9.6193
  54        9.6221
  55       10.2306
  56       10.2307
  57       10.2711
  58       10.2720
  59       10.2725
  60       10.2736
  61       10.3735
  62       10.3754
  63       10.6992
  64       11.2167
  65       11.2173
  66       11.4886
  67       11.4886
  68       11.7782
 
  0.2500000E+00  0.1666667E+00  0.0000000E+00  0.4629630E-02
   1       -2.5649
   2       -1.3665
   3       -0.9695
   4       -0.1794
   5       -0.1794
   6        0.2140
   7        0.6054
   8        0.9943
   9        0.9968
  10        0.9982
  11        1.3864
  12        1.3864
  13        1.7742
  14        2.5444
  15        2.5461
  16        2.5481
  17        2.9309
  18        2.9309
  19        3.3134
  20        3.3134
  21        4.0315
  22        4.0315
  23        4.0749
  24        4.4149
  25        4.9302
  26        4.9302
  27        5.1244
  28        5.9096
  29        6.0649
  30        6.2361
  31        6.3950
  32        6.3950
  33        6.6100
  34        6.6100
  35        7.1573
  36        7.3466
  37        7.4187
  38        7.4187
  39        7.5221
  40        7.5865
  41        8.1953
  42        8.1953
  43        8.2190
  44        8.5006
  45        8.5007
  46        8.5184
  47        8.6187
  48        8.9836
  49        9.0098
  50        9.2163
  51        9.2303
  52        9.3493
  53        9.4727
  54        9.6792
  55        9.6792
  56       10.0839
  57       10.1522
  58       10.4008
  59       10.5847
  60       10.5847
  61       10.7170
  62       10.7170
  63       10.8178
  64       11.5063
  65       11.5226
  66       11.7980
  67       11.8682
  68       11.9607
 
  0.3333333E+00  0.1666667E+00  0.0000000E+00  0.4629630E-02
   1       -2.4479
   2       -1.6484
   3       -0.8540
   4       -0.0659
   5       -0.0646
   6       -0.0631
   7        0.7183
   8        0.7201
   9        0.7213
  10        1.4964
  11        1.4993
  12        1.4998
  13        1.5010
  14        2.2738
  15        2.2738
  16        3.0412
  17        3.0423
  18        3.0427
  19        3.7856
  20        3.7904
  21        3.7908
  22        3.8047
  23        3.8048
  24        4.5621
  25        5.2330
  26        5.2937
  27        5.3887
  28        5.3887
  29        5.9750
  30        6.0236
  31        6.0237
  32        6.1710
  33        6.7591
  34        6.8778
  35        6.8779
  36        6.8992
  37        7.5070
  38        7.5070
  39        7.5913
  40        7.5914
  41        7.6287
  42        7.6919
  43        8.2382
  44        8.2382
  45        8.2735
  46        8.3596
  47        8.6223
  48        9.0795
  49        9.0798
  50        9.0908
  51        9.1829
  52        9.2831
  53        9.3540
  54        9.8210
  55        9.8250
  56       10.0422
  57       10.1317
  58       10.5516
  59       10.8311
  60       10.8311
  61       11.1911
  62       11.1911
  63       11.2040
  64       11.2919
  65       11.5879
  66       11.7102
  67       11.7102
  68       11.8928
 
  0.4166667E+00  0.1666667E+00  0.0000000E+00  0.4629630E-02
   1       -2.2976
   2       -1.8977
   3       -0.7056
   4       -0.3106
   5        0.0829
   6        0.0829
   7        0.4754
   8        0.4754
   9        0.8661
  10        1.2561
  11        1.6454
  12        1.6454
  13        2.0285
  14        2.0326
  15        2.0331
  16        3.1752
  17        3.1850
  18        3.1852
  19        3.5614
  20        3.5614
  21        3.5656
  22        4.3237
  23        4.3237
  24        4.6940
  25        5.0766
  26        5.3726
  27        5.4376
  28        5.4376
  29        5.7438
  30        5.8953
  31        5.8953
  32        6.1792
  33        6.3074
  34        6.6715
  35        7.0017
  36        7.0017
  37        7.3898
  38        7.3898
  39        7.6398
  40        7.6398
  41        7.7656
  42        7.8241
  43        8.0070
  44        8.0070
  45        8.1311
  46        8.1429
  47        8.4938
  48        8.4938
  49        8.7540
  50        9.0903
  51        9.2280
  52        9.5041
  53        9.5920
  54        9.5947
  55        9.8925
  56       10.3255
  57       10.6310
  58       10.8398
  59       10.9058
  60       11.0372
  61       11.0372
  62       11.3299
  63       11.4234
  64       11.4653
  65       11.4653
  66       11.6941
  67       11.6941
  68       11.7967
 
  0.5000000E+00  0.1666667E+00  0.0000000E+00  0.2314815E-02
   1       -2.1157
   2       -2.1127
   3       -0.5259
   4       -0.5229
   5        0.2608
   6        0.2620
   7        0.2639
   8        0.2651
   9        1.0435
  10        1.0465
  11        1.8209
  12        1.8222
  13        1.8240
  14        1.8252
  15        2.5882
  16        2.5894
  17        3.3562
  18        3.3575
  19        3.3593
  20        3.3607
  21        4.1163
  22        4.1175
  23        4.8681
  24        4.8687
  25        4.8693
  26        4.8699
  27        5.5413
  28        5.5445
  29        5.6161
  30        5.6173
  31        6.4339
  32        6.4343
  33        6.4353
  34        6.4355
  35        6.4727
  36        6.4760
  37        7.8049
  38        7.8062
  39        7.8082
  40        7.8095
  41        7.9281
  42        7.9287
  43        7.9297
  44        7.9297
  45        7.9318
  46        7.9350
  47        7.9771
  48        7.9801
  49        8.9098
  50        8.9129
  51        9.3944
  52        9.3977
  53        9.6818
  54        9.6848
  55       10.0882
  56       10.0900
  57       10.8582
  58       10.8605
  59       11.0844
  60       11.0878
  61       11.2411
  62       11.2419
  63       11.2444
  64       11.2452
  65       11.8001
  66       11.8010
  67       12.2242
  68       12.2248
 
  0.0000000E+00  0.2500000E+00  0.0000000E+00  0.2314815E-02
   1       -2.6318
   2       -1.4328
   3       -0.2481
   4       -0.2451
   5       -0.2451
   6       -0.2421
   7        0.9286
   8        0.9307
   9        0.9318
  10        0.9318
  11        0.9348
  12        2.0951
  13        2.0960
  14        2.0983
  15        2.0993
  16        3.2420
  17        3.2431
  18        3.2454
  19        3.2460
  20        3.2473
  21        3.2500
  22        3.2501
  23        3.2532
  24        4.3521
  25        5.5822
  26        5.5832
  27        5.5855
  28        5.5865
  29        6.0043
  30        6.0044
  31        6.5782
  32        6.5815
  33        6.5815
  34        6.5847
  35        7.0965
  36        7.0965
  37        7.5264
  38        7.5264
  39        8.1887
  40        8.1915
  41        8.1915
  42        8.1943
  43        8.5581
  44        8.5581
  45        8.8741
  46        8.8754
  47        8.8778
  48        8.8790
  49        9.1574
  50        9.2863
  51        9.2882
  52        9.2886
  53        9.2899
  54        9.2899
  55        9.2930
  56        9.7707
  57        9.7734
  58        9.7734
  59        9.7761
  60       11.0786
  61       11.0811
  62       11.0811
  63       11.0835
  64       11.3842
  65       11.3845
  66       11.4885
  67       11.4913
  68       11.4942
 