 vasp.4.6.28 25Jul05 complex 
 executed on             LinuxIFC date 2016.11.12  12:40:56
 running on    4 nodes
 distr:  one band on    1 nodes,    4 groups


--------------------------------------------------------------------------------------------------------


 INCAR:
 POTCAR:   PAW_PBE Al 04Jan2001                   
 POTCAR:   PAW_PBE Al 04Jan2001                   
   VRHFIN =Al: s2p1                                                             
   LEXCH  = PE                                                                  
   EATOM  =    53.5387 eV,    3.9350 Ry                                         
                                                                                
   TITEL  = PAW_PBE Al 04Jan2001                                                
   LULTRA =        F    use ultrasoft PP ?                                      
   IUNSCR =        1    unscreen: 0-lin 1-nonlin 2-no                           
   RPACOR =    1.500    partial core radius                                     
   POMASS =   26.982; ZVAL   =    3.000    mass and valenz                      
   RCORE  =    1.900    outmost cutoff radius                                   
   RWIGS  =    2.650; RWIGS  =    1.402    wigner-seitz radius (au A)           
   ENMAX  =  240.300; ENMIN  =  180.225 eV                                      
   ICORE  =        2    local potential                                         
   LCOR   =        T    correct aug charges                                     
   LPAW   =        T    paw PP                                                  
   EAUG   =  291.052                                                            
   DEXC   =    -.041                                                            
   RMAX   =    2.974    core radius for proj-oper                               
   RAUG   =    1.300    factor for augmentation sphere                          
   RDEP   =    1.966    radius for radial grids                                 
   QCUT   =   -4.203; QGAM   =    8.405    optimization parameters              
                                                                                
   Description                                                                  
     l     E      TYP  RCUT    TYP  RCUT                                        
     0   .000     23  1.900                                                     
     0   .000     23  1.900                                                     
     1   .000     23  1.900                                                     
     1  1.000     23  1.900                                                     
     2   .000      7  1.900                                                     
  local pseudopotential read in
  partial core-charges read in
  atomic valenz-charges read in
  non local Contribution for L=           0  read in
    real space projection operators read in
  non local Contribution for L=           0  read in
    real space projection operators read in
  non local Contribution for L=           1  read in
    real space projection operators read in
  non local Contribution for L=           1  read in
    real space projection operators read in
    PAW grid and wavefunctions read in
 
   number of l-projection  operators is LMAX  =           4
   number of lm-projection operators is LMMAX =           8
 

 ----------------------------------------------------------------------------- 
|                                                                             |
|  ADVICE TO THIS USER RUNNING 'VASP/VAMP'   (HEAR YOUR MASTER'S VOICE ...):  |
|                                                                             |
|      You have a (more or less) 'large supercell' and for larger cells       |
|      it might be more efficient to use real space projection operators      |
|      So try LREAL= Auto  in the INCAR   file.                               |
|      Mind: If you want to do an extremely accurate calculations keep the    |
|      reciprocal projection scheme          (i.e. LREAL=.FALSE.)             |
|                                                                             |
 ----------------------------------------------------------------------------- 

 PAW_PBE Al 04Jan2001                   :
 energy of atom  1       EATOM=  -53.5387
 kinetic energy error for atom=    0.0001 (will be added to EATOM!!)
 
 EXHCAR: internal setup
 exchange correlation table for  LEXCH =        8
   RHO(1)=    0.500       N(1)  =     2000
   RHO(2)=  100.500       N(2)  =     4000
 
 POSCAR: Al                                      
  positions in direct lattice
  No initial velocities read in
 


--------------------------------------------------------------------------------------------------------


 ion  position               nearest neighbor table
   1  0.251  0.250  0.000-  18 2.76  22 2.76  26 2.76  28 2.76   9 2.77  11 2.77  13 2.77  15 2.77
                            25 2.78  21 2.78  27 2.78  17 2.78
   2  0.750  0.250  0.000-  10 2.77  12 2.77  14 2.77  16 2.77  17 2.77  18 2.77  21 2.77  22 2.77
                            25 2.77  26 2.77  27 2.77  28 2.77
   3  0.250  0.750  0.000-   9 2.77  11 2.77  13 2.77  15 2.77  19 2.77  20 2.77  23 2.77  24 2.77
                            25 2.77  26 2.77  27 2.77  28 2.77
   4  0.750  0.750  0.000-  10 2.77  12 2.77  14 2.77  16 2.77  19 2.77  20 2.77  23 2.77  24 2.77
                            25 2.77  26 2.77  27 2.77  28 2.77
   5  0.250  0.250  0.500-   9 2.77  11 2.77  13 2.77  15 2.77  17 2.77  18 2.77  21 2.77  22 2.77
                            29 2.77  30 2.77  31 2.77  32 2.77
   6  0.750  0.250  0.500-  10 2.77  12 2.77  14 2.77  16 2.77  17 2.77  18 2.77  21 2.77  22 2.77
                            29 2.77  30 2.77  31 2.77  32 2.77
   7  0.250  0.750  0.500-   9 2.77  11 2.77  13 2.77  15 2.77  19 2.77  20 2.77  23 2.77  24 2.77
                            29 2.77  30 2.77  31 2.77  32 2.77
   8  0.750  0.750  0.500-  10 2.77  12 2.77  14 2.77  16 2.77  19 2.77  20 2.77  23 2.77  24 2.77
                            29 2.77  30 2.77  31 2.77  32 2.77
   9  0.250  0.000  0.250-   3 2.77   5 2.77   7 2.77  17 2.77  18 2.77  19 2.77  20 2.77  25 2.77
                            26 2.77  29 2.77  30 2.77   1 2.77
  10  0.750  0.000  0.250-   2 2.77   4 2.77   6 2.77   8 2.77  17 2.77  18 2.77  19 2.77  20 2.77
                            25 2.77  26 2.77  29 2.77  30 2.77
  11  0.250  0.500  0.250-   3 2.77   5 2.77   7 2.77  17 2.77  18 2.77  19 2.77  20 2.77  27 2.77
                            28 2.77  31 2.77  32 2.77   1 2.77
  12  0.750  0.500  0.250-   2 2.77   4 2.77   6 2.77   8 2.77  17 2.77  18 2.77  19 2.77  20 2.77
                            27 2.77  28 2.77  31 2.77  32 2.77
  13  0.250  0.000  0.750-   3 2.77   5 2.77   7 2.77  21 2.77  22 2.77  23 2.77  24 2.77  25 2.77
                            26 2.77  29 2.77  30 2.77   1 2.77
  14  0.750  0.000  0.750-   2 2.77   4 2.77   6 2.77   8 2.77  21 2.77  22 2.77  23 2.77  24 2.77
                            25 2.77  26 2.77  29 2.77  30 2.77
  15  0.250  0.500  0.750-   3 2.77   5 2.77   7 2.77  21 2.77  22 2.77  23 2.77  24 2.77  27 2.77
                            28 2.77  31 2.77  32 2.77   1 2.77
  16  0.750  0.500  0.750-   2 2.77   4 2.77   6 2.77   8 2.77  21 2.77  22 2.77  23 2.77  24 2.77
                            27 2.77  28 2.77  31 2.77  32 2.77
  17  0.000  0.250  0.250-   2 2.77   5 2.77   6 2.77   9 2.77  10 2.77  11 2.77  12 2.77  25 2.77
                            27 2.77  29 2.77  31 2.77   1 2.78
  18  0.500  0.250  0.250-   1 2.76   2 2.77   5 2.77   6 2.77   9 2.77  10 2.77  11 2.77  12 2.77
                            26 2.77  28 2.77  30 2.77  32 2.77
  19  0.000  0.750  0.250-   3 2.77   4 2.77   7 2.77   8 2.77   9 2.77  10 2.77  11 2.77  12 2.77
                            25 2.77  27 2.77  29 2.77  31 2.77
  20  0.500  0.750  0.250-   3 2.77   4 2.77   7 2.77   8 2.77   9 2.77  10 2.77  11 2.77  12 2.77
                            26 2.77  28 2.77  30 2.77  32 2.77
  21  0.000  0.250  0.750-   2 2.77   5 2.77   6 2.77  13 2.77  14 2.77  15 2.77  16 2.77  25 2.77
                            27 2.77  29 2.77  31 2.77   1 2.78
  22  0.500  0.250  0.750-   1 2.76   2 2.77   5 2.77   6 2.77  13 2.77  14 2.77  15 2.77  16 2.77
                            26 2.77  28 2.77  30 2.77  32 2.77
  23  0.000  0.750  0.750-   3 2.77   4 2.77   7 2.77   8 2.77  13 2.77  14 2.77  15 2.77  16 2.77
                            25 2.77  27 2.77  29 2.77  31 2.77
  24  0.500  0.750  0.750-   3 2.77   4 2.77   7 2.77   8 2.77  13 2.77  14 2.77  15 2.77  16 2.77
                            26 2.77  28 2.77  30 2.77  32 2.77
  25  0.000  0.000  0.000-   2 2.77   3 2.77   4 2.77   9 2.77  10 2.77  13 2.77  14 2.77  17 2.77
                            19 2.77  21 2.77  23 2.77   1 2.78
  26  0.500  0.000  0.000-   1 2.76   2 2.77   3 2.77   4 2.77   9 2.77  10 2.77  13 2.77  14 2.77
                            18 2.77  20 2.77  22 2.77  24 2.77
  27  0.000  0.500  0.000-   2 2.77   3 2.77   4 2.77  11 2.77  12 2.77  15 2.77  16 2.77  17 2.77
                            19 2.77  21 2.77  23 2.77   1 2.78
  28  0.500  0.500  0.000-   1 2.76   2 2.77   3 2.77   4 2.77  11 2.77  12 2.77  15 2.77  16 2.77
                            18 2.77  20 2.77  22 2.77  24 2.77
  29  0.000  0.000  0.500-   5 2.77   6 2.77   7 2.77   8 2.77   9 2.77  10 2.77  13 2.77  14 2.77
                            17 2.77  19 2.77  21 2.77  23 2.77
  30  0.500  0.000  0.500-   5 2.77   6 2.77   7 2.77   8 2.77   9 2.77  10 2.77  13 2.77  14 2.77
                            18 2.77  20 2.77  22 2.77  24 2.77
  31  0.000  0.500  0.500-   5 2.77   6 2.77   7 2.77   8 2.77  11 2.77  12 2.77  15 2.77  16 2.77
                            17 2.77  19 2.77  21 2.77  23 2.77
  32  0.500  0.500  0.500-   5 2.77   6 2.77   7 2.77   8 2.77  11 2.77  12 2.77  15 2.77  16 2.77
                            18 2.77  20 2.77  22 2.77  24 2.77
 
  LATTYP: Found a simple cubic cell.
 ALAT       =     7.8323743572
  
  Lattice vectors:
  
 A1 = (   7.8323743572,   0.0000000000,   0.0000000000)
 A2 = (   0.0000000000,   7.8323743572,   0.0000000000)
 A3 = (   0.0000000000,   0.0000000000,   7.8323743572)
 Subroutine PRICEL returns:
 Original cell was already a primitive cell.
 

Analysis of symmetry for initial positions (statically):

 Routine SETGRP: Setting up the symmetry group for a 
 simple cubic supercell.


 Subroutine GETGRP returns: Found  8 space group operations
 (whereof  2 operations were pure point group operations)
 out of a pool of 48 trial point group operations.


The static configuration has the point symmetry C_1h.
 The point group associated with its full space group is C_4v.

Analysis of symmetry for dynamics (positions and initial velocities):

 Subroutine DYNSYM returns: Found  8 space group operations
 (whereof  2 operations were pure point group operations)
 out of a pool of  8 trial space group operations
 (whereof  2 operations were pure point group operations)
 and found also     1 'primitive' translations


The dynamic configuration has the point symmetry C_1h.
 The point group associated with its full space group is C_4v.
 
 
 KPOINTS: Automatic mesh                          

Automatic generation of k-mesh.
 
 Subroutine IBZKPT returns following result:
 ===========================================
 
 Found    196 irreducible k-points:
 
 Following reciprocal coordinates:
            Coordinates               Weight
  0.000000  0.000000  0.000000      1.000000
  0.083333  0.000000  0.000000      2.000000
  0.166667  0.000000  0.000000      2.000000
  0.250000  0.000000  0.000000      2.000000
  0.333333  0.000000  0.000000      2.000000
  0.416667  0.000000  0.000000      2.000000
  0.500000  0.000000  0.000000      1.000000
  0.000000  0.083333  0.000000      4.000000
  0.083333  0.083333  0.000000      8.000000
  0.166667  0.083333  0.000000      8.000000
  0.250000  0.083333  0.000000      8.000000
  0.333333  0.083333  0.000000      8.000000
  0.416667  0.083333  0.000000      8.000000
  0.500000  0.083333  0.000000      4.000000
  0.000000  0.166667  0.000000      4.000000
  0.083333  0.166667  0.000000      8.000000
  0.166667  0.166667  0.000000      8.000000
  0.250000  0.166667  0.000000      8.000000
  0.333333  0.166667  0.000000      8.000000
  0.416667  0.166667  0.000000      8.000000
  0.500000  0.166667  0.000000      4.000000
  0.000000  0.250000  0.000000      4.000000
  0.083333  0.250000  0.000000      8.000000
  0.166667  0.250000  0.000000      8.000000
  0.250000  0.250000  0.000000      8.000000
  0.333333  0.250000  0.000000      8.000000
  0.416667  0.250000  0.000000      8.000000
  0.500000  0.250000  0.000000      4.000000
  0.000000  0.333333  0.000000      4.000000
  0.083333  0.333333  0.000000      8.000000
  0.166667  0.333333  0.000000      8.000000
  0.250000  0.333333  0.000000      8.000000
  0.333333  0.333333  0.000000      8.000000
  0.416667  0.333333  0.000000      8.000000
  0.500000  0.333333  0.000000      4.000000
  0.000000  0.416667  0.000000      4.000000
  0.083333  0.416667  0.000000      8.000000
  0.166667  0.416667  0.000000      8.000000
  0.250000  0.416667  0.000000      8.000000
  0.333333  0.416667  0.000000      8.000000
  0.416667  0.416667  0.000000      8.000000
  0.500000  0.416667  0.000000      4.000000
  0.000000  0.500000  0.000000      2.000000
  0.083333  0.500000  0.000000      4.000000
  0.166667  0.500000  0.000000      4.000000
  0.250000  0.500000  0.000000      4.000000
  0.333333  0.500000  0.000000      4.000000
  0.416667  0.500000  0.000000      4.000000
  0.500000  0.500000  0.000000      2.000000
  0.000000  0.083333  0.083333      4.000000
  0.083333  0.083333  0.083333      8.000000
  0.166667  0.083333  0.083333      8.000000
  0.250000  0.083333  0.083333      8.000000
  0.333333  0.083333  0.083333      8.000000
  0.416667  0.083333  0.083333      8.000000
  0.500000  0.083333  0.083333      4.000000
  0.000000  0.166667  0.083333      8.000000
  0.083333  0.166667  0.083333     16.000000
  0.166667  0.166667  0.083333     16.000000
  0.250000  0.166667  0.083333     16.000000
  0.333333  0.166667  0.083333     16.000000
  0.416667  0.166667  0.083333     16.000000
  0.500000  0.166667  0.083333      8.000000
  0.000000  0.250000  0.083333      8.000000
  0.083333  0.250000  0.083333     16.000000
  0.166667  0.250000  0.083333     16.000000
  0.250000  0.250000  0.083333     16.000000
  0.333333  0.250000  0.083333     16.000000
  0.416667  0.250000  0.083333     16.000000
  0.500000  0.250000  0.083333      8.000000
  0.000000  0.333333  0.083333      8.000000
  0.083333  0.333333  0.083333     16.000000
  0.166667  0.333333  0.083333     16.000000
  0.250000  0.333333  0.083333     16.000000
  0.333333  0.333333  0.083333     16.000000
  0.416667  0.333333  0.083333     16.000000
  0.500000  0.333333  0.083333      8.000000
  0.000000  0.416667  0.083333      8.000000
  0.083333  0.416667  0.083333     16.000000
  0.166667  0.416667  0.083333     16.000000
  0.250000  0.416667  0.083333     16.000000
  0.333333  0.416667  0.083333     16.000000
  0.416667  0.416667  0.083333     16.000000
  0.500000  0.416667  0.083333      8.000000
  0.000000  0.500000  0.083333      4.000000
  0.083333  0.500000  0.083333      8.000000
  0.166667  0.500000  0.083333      8.000000
  0.250000  0.500000  0.083333      8.000000
  0.333333  0.500000  0.083333      8.000000
  0.416667  0.500000  0.083333      8.000000
  0.500000  0.500000  0.083333      4.000000
  0.000000  0.166667  0.166667      4.000000
  0.083333  0.166667  0.166667      8.000000
  0.166667  0.166667  0.166667      8.000000
  0.250000  0.166667  0.166667      8.000000
  0.333333  0.166667  0.166667      8.000000
  0.416667  0.166667  0.166667      8.000000
  0.500000  0.166667  0.166667      4.000000
  0.000000  0.250000  0.166667      8.000000
  0.083333  0.250000  0.166667     16.000000
  0.166667  0.250000  0.166667     16.000000
  0.250000  0.250000  0.166667     16.000000
  0.333333  0.250000  0.166667     16.000000
  0.416667  0.250000  0.166667     16.000000
  0.500000  0.250000  0.166667      8.000000
  0.000000  0.333333  0.166667      8.000000
  0.083333  0.333333  0.166667     16.000000
  0.166667  0.333333  0.166667     16.000000
  0.250000  0.333333  0.166667     16.000000
  0.333333  0.333333  0.166667     16.000000
  0.416667  0.333333  0.166667     16.000000
  0.500000  0.333333  0.166667      8.000000
  0.000000  0.416667  0.166667      8.000000
  0.083333  0.416667  0.166667     16.000000
  0.166667  0.416667  0.166667     16.000000
  0.250000  0.416667  0.166667     16.000000
  0.333333  0.416667  0.166667     16.000000
  0.416667  0.416667  0.166667     16.000000
  0.500000  0.416667  0.166667      8.000000
  0.000000  0.500000  0.166667      4.000000
  0.083333  0.500000  0.166667      8.000000
  0.166667  0.500000  0.166667      8.000000
  0.250000  0.500000  0.166667      8.000000
  0.333333  0.500000  0.166667      8.000000
  0.416667  0.500000  0.166667      8.000000
  0.500000  0.500000  0.166667      4.000000
  0.000000  0.250000  0.250000      4.000000
  0.083333  0.250000  0.250000      8.000000
  0.166667  0.250000  0.250000      8.000000
  0.250000  0.250000  0.250000      8.000000
  0.333333  0.250000  0.250000      8.000000
  0.416667  0.250000  0.250000      8.000000
  0.500000  0.250000  0.250000      4.000000
  0.000000  0.333333  0.250000      8.000000
  0.083333  0.333333  0.250000     16.000000
  0.166667  0.333333  0.250000     16.000000
  0.250000  0.333333  0.250000     16.000000
  0.333333  0.333333  0.250000     16.000000
  0.416667  0.333333  0.250000     16.000000
  0.500000  0.333333  0.250000      8.000000
  0.000000  0.416667  0.250000      8.000000
  0.083333  0.416667  0.250000     16.000000
  0.166667  0.416667  0.250000     16.000000
  0.250000  0.416667  0.250000     16.000000
  0.333333  0.416667  0.250000     16.000000
  0.416667  0.416667  0.250000     16.000000
  0.500000  0.416667  0.250000      8.000000
  0.000000  0.500000  0.250000      4.000000
  0.083333  0.500000  0.250000      8.000000
  0.166667  0.500000  0.250000      8.000000
  0.250000  0.500000  0.250000      8.000000
  0.333333  0.500000  0.250000      8.000000
  0.416667  0.500000  0.250000      8.000000
  0.500000  0.500000  0.250000      4.000000
  0.000000  0.333333  0.333333      4.000000
  0.083333  0.333333  0.333333      8.000000
  0.166667  0.333333  0.333333      8.000000
  0.250000  0.333333  0.333333      8.000000
  0.333333  0.333333  0.333333      8.000000
  0.416667  0.333333  0.333333      8.000000
  0.500000  0.333333  0.333333      4.000000
  0.000000  0.416667  0.333333      8.000000
  0.083333  0.416667  0.333333     16.000000
  0.166667  0.416667  0.333333     16.000000
  0.250000  0.416667  0.333333     16.000000
  0.333333  0.416667  0.333333     16.000000
  0.416667  0.416667  0.333333     16.000000
  0.500000  0.416667  0.333333      8.000000
  0.000000  0.500000  0.333333      4.000000
  0.083333  0.500000  0.333333      8.000000
  0.166667  0.500000  0.333333      8.000000
  0.250000  0.500000  0.333333      8.000000
  0.333333  0.500000  0.333333      8.000000
  0.416667  0.500000  0.333333      8.000000
  0.500000  0.500000  0.333333      4.000000
  0.000000  0.416667  0.416667      4.000000
  0.083333  0.416667  0.416667      8.000000
  0.166667  0.416667  0.416667      8.000000
  0.250000  0.416667  0.416667      8.000000
  0.333333  0.416667  0.416667      8.000000
  0.416667  0.416667  0.416667      8.000000
  0.500000  0.416667  0.416667      4.000000
  0.000000  0.500000  0.416667      4.000000
  0.083333  0.500000  0.416667      8.000000
  0.166667  0.500000  0.416667      8.000000
  0.250000  0.500000  0.416667      8.000000
  0.333333  0.500000  0.416667      8.000000
  0.416667  0.500000  0.416667      8.000000
  0.500000  0.500000  0.416667      4.000000
  0.000000  0.500000  0.500000      1.000000
  0.083333  0.500000  0.500000      2.000000
  0.166667  0.500000  0.500000      2.000000
  0.250000  0.500000  0.500000      2.000000
  0.333333  0.500000  0.500000      2.000000
  0.416667  0.500000  0.500000      2.000000
  0.500000  0.500000  0.500000      1.000000
 
 Following cartesian coordinates:
            Coordinates               Weight
  0.000000  0.000000  0.000000      1.000000
  0.010640  0.000000  0.000000      2.000000
  0.021279  0.000000  0.000000      2.000000
  0.031919  0.000000  0.000000      2.000000
  0.042558  0.000000  0.000000      2.000000
  0.053198  0.000000  0.000000      2.000000
  0.063838  0.000000  0.000000      1.000000
  0.000000  0.010640  0.000000      4.000000
  0.010640  0.010640  0.000000      8.000000
  0.021279  0.010640  0.000000      8.000000
  0.031919  0.010640  0.000000      8.000000
  0.042558  0.010640  0.000000      8.000000
  0.053198  0.010640  0.000000      8.000000
  0.063838  0.010640  0.000000      4.000000
  0.000000  0.021279  0.000000      4.000000
  0.010640  0.021279  0.000000      8.000000
  0.021279  0.021279  0.000000      8.000000
  0.031919  0.021279  0.000000      8.000000
  0.042558  0.021279  0.000000      8.000000
  0.053198  0.021279  0.000000      8.000000
  0.063838  0.021279  0.000000      4.000000
  0.000000  0.031919  0.000000      4.000000
  0.010640  0.031919  0.000000      8.000000
  0.021279  0.031919  0.000000      8.000000
  0.031919  0.031919  0.000000      8.000000
  0.042558  0.031919  0.000000      8.000000
  0.053198  0.031919  0.000000      8.000000
  0.063838  0.031919  0.000000      4.000000
  0.000000  0.042558  0.000000      4.000000
  0.010640  0.042558  0.000000      8.000000
  0.021279  0.042558  0.000000      8.000000
  0.031919  0.042558  0.000000      8.000000
  0.042558  0.042558  0.000000      8.000000
  0.053198  0.042558  0.000000      8.000000
  0.063838  0.042558  0.000000      4.000000
  0.000000  0.053198  0.000000      4.000000
  0.010640  0.053198  0.000000      8.000000
  0.021279  0.053198  0.000000      8.000000
  0.031919  0.053198  0.000000      8.000000
  0.042558  0.053198  0.000000      8.000000
  0.053198  0.053198  0.000000      8.000000
  0.063838  0.053198  0.000000      4.000000
  0.000000  0.063838  0.000000      2.000000
  0.010640  0.063838  0.000000      4.000000
  0.021279  0.063838  0.000000      4.000000
  0.031919  0.063838  0.000000      4.000000
  0.042558  0.063838  0.000000      4.000000
  0.053198  0.063838  0.000000      4.000000
  0.063838  0.063838  0.000000      2.000000
  0.000000  0.010640  0.010640      4.000000
  0.010640  0.010640  0.010640      8.000000
  0.021279  0.010640  0.010640      8.000000
  0.031919  0.010640  0.010640      8.000000
  0.042558  0.010640  0.010640      8.000000
  0.053198  0.010640  0.010640      8.000000
  0.063838  0.010640  0.010640      4.000000
  0.000000  0.021279  0.010640      8.000000
  0.010640  0.021279  0.010640     16.000000
  0.021279  0.021279  0.010640     16.000000
  0.031919  0.021279  0.010640     16.000000
  0.042558  0.021279  0.010640     16.000000
  0.053198  0.021279  0.010640     16.000000
  0.063838  0.021279  0.010640      8.000000
  0.000000  0.031919  0.010640      8.000000
  0.010640  0.031919  0.010640     16.000000
  0.021279  0.031919  0.010640     16.000000
  0.031919  0.031919  0.010640     16.000000
  0.042558  0.031919  0.010640     16.000000
  0.053198  0.031919  0.010640     16.000000
  0.063838  0.031919  0.010640      8.000000
  0.000000  0.042558  0.010640      8.000000
  0.010640  0.042558  0.010640     16.000000
  0.021279  0.042558  0.010640     16.000000
  0.031919  0.042558  0.010640     16.000000
  0.042558  0.042558  0.010640     16.000000
  0.053198  0.042558  0.010640     16.000000
  0.063838  0.042558  0.010640      8.000000
  0.000000  0.053198  0.010640      8.000000
  0.010640  0.053198  0.010640     16.000000
  0.021279  0.053198  0.010640     16.000000
  0.031919  0.053198  0.010640     16.000000
  0.042558  0.053198  0.010640     16.000000
  0.053198  0.053198  0.010640     16.000000
  0.063838  0.053198  0.010640      8.000000
  0.000000  0.063838  0.010640      4.000000
  0.010640  0.063838  0.010640      8.000000
  0.021279  0.063838  0.010640      8.000000
  0.031919  0.063838  0.010640      8.000000
  0.042558  0.063838  0.010640      8.000000
  0.053198  0.063838  0.010640      8.000000
  0.063838  0.063838  0.010640      4.000000
  0.000000  0.021279  0.021279      4.000000
  0.010640  0.021279  0.021279      8.000000
  0.021279  0.021279  0.021279      8.000000
  0.031919  0.021279  0.021279      8.000000
  0.042558  0.021279  0.021279      8.000000
  0.053198  0.021279  0.021279      8.000000
  0.063838  0.021279  0.021279      4.000000
  0.000000  0.031919  0.021279      8.000000
  0.010640  0.031919  0.021279     16.000000
  0.021279  0.031919  0.021279     16.000000
  0.031919  0.031919  0.021279     16.000000
  0.042558  0.031919  0.021279     16.000000
  0.053198  0.031919  0.021279     16.000000
  0.063838  0.031919  0.021279      8.000000
  0.000000  0.042558  0.021279      8.000000
  0.010640  0.042558  0.021279     16.000000
  0.021279  0.042558  0.021279     16.000000
  0.031919  0.042558  0.021279     16.000000
  0.042558  0.042558  0.021279     16.000000
  0.053198  0.042558  0.021279     16.000000
  0.063838  0.042558  0.021279      8.000000
  0.000000  0.053198  0.021279      8.000000
  0.010640  0.053198  0.021279     16.000000
  0.021279  0.053198  0.021279     16.000000
  0.031919  0.053198  0.021279     16.000000
  0.042558  0.053198  0.021279     16.000000
  0.053198  0.053198  0.021279     16.000000
  0.063838  0.053198  0.021279      8.000000
  0.000000  0.063838  0.021279      4.000000
  0.010640  0.063838  0.021279      8.000000
  0.021279  0.063838  0.021279      8.000000
  0.031919  0.063838  0.021279      8.000000
  0.042558  0.063838  0.021279      8.000000
  0.053198  0.063838  0.021279      8.000000
  0.063838  0.063838  0.021279      4.000000
  0.000000  0.031919  0.031919      4.000000
  0.010640  0.031919  0.031919      8.000000
  0.021279  0.031919  0.031919      8.000000
  0.031919  0.031919  0.031919      8.000000
  0.042558  0.031919  0.031919      8.000000
  0.053198  0.031919  0.031919      8.000000
  0.063838  0.031919  0.031919      4.000000
  0.000000  0.042558  0.031919      8.000000
  0.010640  0.042558  0.031919     16.000000
  0.021279  0.042558  0.031919     16.000000
  0.031919  0.042558  0.031919     16.000000
  0.042558  0.042558  0.031919     16.000000
  0.053198  0.042558  0.031919     16.000000
  0.063838  0.042558  0.031919      8.000000
  0.000000  0.053198  0.031919      8.000000
  0.010640  0.053198  0.031919     16.000000
  0.021279  0.053198  0.031919     16.000000
  0.031919  0.053198  0.031919     16.000000
  0.042558  0.053198  0.031919     16.000000
  0.053198  0.053198  0.031919     16.000000
  0.063838  0.053198  0.031919      8.000000
  0.000000  0.063838  0.031919      4.000000
  0.010640  0.063838  0.031919      8.000000
  0.021279  0.063838  0.031919      8.000000
  0.031919  0.063838  0.031919      8.000000
  0.042558  0.063838  0.031919      8.000000
  0.053198  0.063838  0.031919      8.000000
  0.063838  0.063838  0.031919      4.000000
  0.000000  0.042558  0.042558      4.000000
  0.010640  0.042558  0.042558      8.000000
  0.021279  0.042558  0.042558      8.000000
  0.031919  0.042558  0.042558      8.000000
  0.042558  0.042558  0.042558      8.000000
  0.053198  0.042558  0.042558      8.000000
  0.063838  0.042558  0.042558      4.000000
  0.000000  0.053198  0.042558      8.000000
  0.010640  0.053198  0.042558     16.000000
  0.021279  0.053198  0.042558     16.000000
  0.031919  0.053198  0.042558     16.000000
  0.042558  0.053198  0.042558     16.000000
  0.053198  0.053198  0.042558     16.000000
  0.063838  0.053198  0.042558      8.000000
  0.000000  0.063838  0.042558      4.000000
  0.010640  0.063838  0.042558      8.000000
  0.021279  0.063838  0.042558      8.000000
  0.031919  0.063838  0.042558      8.000000
  0.042558  0.063838  0.042558      8.000000
  0.053198  0.063838  0.042558      8.000000
  0.063838  0.063838  0.042558      4.000000
  0.000000  0.053198  0.053198      4.000000
  0.010640  0.053198  0.053198      8.000000
  0.021279  0.053198  0.053198      8.000000
  0.031919  0.053198  0.053198      8.000000
  0.042558  0.053198  0.053198      8.000000
  0.053198  0.053198  0.053198      8.000000
  0.063838  0.053198  0.053198      4.000000
  0.000000  0.063838  0.053198      4.000000
  0.010640  0.063838  0.053198      8.000000
  0.021279  0.063838  0.053198      8.000000
  0.031919  0.063838  0.053198      8.000000
  0.042558  0.063838  0.053198      8.000000
  0.053198  0.063838  0.053198      8.000000
  0.063838  0.063838  0.053198      4.000000
  0.000000  0.063838  0.063838      1.000000
  0.010640  0.063838  0.063838      2.000000
  0.021279  0.063838  0.063838      2.000000
  0.031919  0.063838  0.063838      2.000000
  0.042558  0.063838  0.063838      2.000000
  0.053198  0.063838  0.063838      2.000000
  0.063838  0.063838  0.063838      1.000000
 


--------------------------------------------------------------------------------------------------------




 Dimension of arrays:
   k-Points           NKPTS =    196   number of bands    NBANDS=     68
   number of dos      NEDOS =    301   number of ions     NIONS =     32
   non local maximal  LDIM  =      4   non local SUM 2l+1 LMDIM =      8
   total plane-waves  NPLWV = 343000
   max r-space proj   IRMAX =      1   max aug-charges    IRDMAX= 222439
   dimension x,y,z NGX =    70 NGY =   70 NGZ =   70
   dimension x,y,z NGXF=   140 NGYF=  140 NGZF=  140
   support grid    NGXF=   280 NGYF=  280 NGZF=  280
   ions per type =              32
 NGX,Y,Z   is equivalent  to a cutoff of  14.86, 14.86, 14.86 a.u.
 NGXF,Y,Z  is equivalent  to a cutoff of  29.72, 29.72, 29.72 a.u.


 I would recommend the setting:
   dimension x,y,z NGX =    70 NGY =   70 NGZ =   70
 SYSTEM =  unknown system                          
 POSCAR =  Al                                      

 Startparameter for this run:
   NWRITE =      2    write-flag & timer
   PREC   = accura    medium, high low
   ISTART =      0    job   : 0-new  1-cont  2-samecut
   ICHARG =      2    charge: 1-file 2-atom 10-const
   ISPIN  =      1    spin polarized calculation?
   LNONCOLLINEAR =      F non collinear calculations
   LSORBIT =      F    spin-orbit coupling
   INIWAV =      1    electr: 0-lowe 1-rand  2-diag
   LASPH  =      F    aspherical Exc in radial PAW
   METAGGA=      F    non-selfconsistent MetaGGA calc.

 Electronic Relaxation 1
   ENCUT  =  750.0 eV  55.12 Ry    7.42 a.u.  17.49 17.49 17.49*2*pi/ulx,y,z
   ENINI  =  750.0     initial cutoff
   ENAUG  =  291.1 eV  augmentation charge cutoff
   NELM   =     60;   NELMIN=  2; NELMDL=  0     # of ELM steps 
   EDIFF  = 0.1E-07   stopping-criterion for ELM
   LREAL  =      F    real-space projection
   LCOMPAT=      F    compatible to vasp.4.4
   LREAL_COMPAT= F    compatible to vasp.4.5.1-3
   GGA_COMPAT  = T    GGA compatible to vasp.4.4-vasp.4.6
   LMAXPAW     = -100 max onsite density
   LMAXMIX     =    2 max onsite mixed and CHGCAR
   VOSKOWN=      0    Vosko Wilk Nusair interpolation
   ROPT   =    0.00000
 Ionic relaxation
   EDIFFG = 0.1E-06   stopping-criterion for IOM
   NSW    =      0    number of steps for IOM
   NBLOCK =      1;   KBLOCK =      1    inner block; outer block 
   IBRION =     -1    ionic relax: 0-MD 1-quasi-New 2-CG
   NFREE  =      0    steps in history (QN), initial steepest desc. (CG)
   ISIF   =      2    stress and relaxation
   IWAVPR =     10    prediction:  0-non 1-charg 2-wave 3-comb
   ISYM   =      2    0-nonsym 1-usesym 2-fastsym
   LCORR  =      T    Harris-Foulkes like correction to forces

   POTIM  =   0.50    time-step for ionic-motion
   TEIN   =    0.0    initial temperature
   TEBEG  =    0.0;   TEEND  =   0.0 temperature during run
   SMASS  =  -3.00    Nose mass-parameter (am)
   estimated Nose-frequenzy (Omega)   =  0.10E-29 period in steps =****** mass=  -0.140E-26a.u.
   NPACO  =    256;   APACO  = 16.0  distance and # of slots for P.C.
   PSTRESS=    0.0 pullay stress

  Mass of Ions in am
   POMASS =  26.98
  Ionic Valenz
   ZVAL   =   3.00
  Atomic Wigner-Seitz radii
   RWIGS  =  -1.00
   NELECT =      96.0000    total number of electrons
   NUPDOWN=      -1.0000    fix difference up-down

 DOS related values:
   EMIN   =  10.00;   EMAX   =-10.00  energy-range for DOS
   ISMEAR =     0;   SIGMA  =   0.01  broadening in eV -4-tet -1-fermi 0-gaus

 Electronic relaxation 2 (details)
   IALGO  =     38    algorithm
   LDIAG  =      T    sub-space diagonalisation
   IMIX   =      4    mixing-type and parameters
     AMIX     =   0.40;   BMIX     =  1.00
     AMIX_MAG =   1.60;   BMIX_MAG =  1.00
     AMIN     =   0.10
     WC   =   100.;   INIMIX=   1;  MIXPRE=   1

 Intra band minimization:
   WEIMIN = 0.0000     energy-eigenvalue tresh-hold
   EBREAK =  0.38E-10  absolut break condition
   DEPER  =   0.30     relativ break condition  

   TIME   =   0.10     timestep for ELM

  volume/ion in A,a.u.               =      15.02       101.33
  Fermi-wavevector in a.u.,eV,Ry     =   0.957058 12.462405  0.915961

 Second variation
   LSECVAR=     F    do a second variation
 
 Write flags
   LWAVE  =      F    write WAVECAR
   LCHARG =      F    write CHGCAR
   LVTOT  =      F    write LOCPOT, local potential
   LELF   =      F    write electronic localiz. function (ELF)
   LORBIT =      0    0 simple, 1 ext, 2 COOP (PROOUT)


 Dipole corrections
   IDIPOL =      0    1-x, 2-y, 3-z
   LDIPOL =      F    correct potential



--------------------------------------------------------------------------------------------------------


 Static calculation
 charge density will be updated during run
 non-spin polarized calculation
 Variant of blocked Davidson
 Davidson routine will perform the subspace rotation
 performe sub-space diagonalisation
    after iterative eigenvector-optimisation
 modified Broyden-mixing scheme, WC =      100.0
 initial mixing is a Kerker type mixing with AMIX =  0.4000 and BMIX =      1.0000
 Hartree-type preconditioning will be used
 using additional bands           20
 reciprocal scheme for non local part
 use partial core corrections
 calculate Harris-corrections to forces 
   (improved forces if not selfconsistent)
 use gradient corrections 
 use of overlap-Matrix (Vanderbilt PP)
 Gauss-broadening in eV      SIGMA  =   0.01


--------------------------------------------------------------------------------------------------------


  energy-cutoff  :      750.00
  volume of cell :      480.49
      direct lattice vectors                 reciprocal lattice vectors
     7.832374357  0.000000000  0.000000000     0.127675205  0.000000000  0.000000000
     0.000000000  7.832374357  0.000000000     0.000000000  0.127675205  0.000000000
     0.000000000  0.000000000  7.832374357     0.000000000  0.000000000  0.127675205

  length of vectors
     7.832374357  7.832374357  7.832374357     0.127675205  0.127675205  0.127675205


 
 k-points in units of 2pi/SCALE and weight: Automatic mesh                          
   0.00000000  0.00000000  0.00000000       0.001
   0.01063960  0.00000000  0.00000000       0.001
   0.02127920  0.00000000  0.00000000       0.001
   0.03191880  0.00000000  0.00000000       0.001
   0.04255840  0.00000000  0.00000000       0.001
   0.05319800  0.00000000  0.00000000       0.001
   0.06383760  0.00000000  0.00000000       0.001
   0.00000000  0.01063960  0.00000000       0.002
   0.01063960  0.01063960  0.00000000       0.005
   0.02127920  0.01063960  0.00000000       0.005
   0.03191880  0.01063960  0.00000000       0.005
   0.04255840  0.01063960  0.00000000       0.005
   0.05319800  0.01063960  0.00000000       0.005
   0.06383760  0.01063960  0.00000000       0.002
   0.00000000  0.02127920  0.00000000       0.002
   0.01063960  0.02127920  0.00000000       0.005
   0.02127920  0.02127920  0.00000000       0.005
   0.03191880  0.02127920  0.00000000       0.005
   0.04255840  0.02127920  0.00000000       0.005
   0.05319800  0.02127920  0.00000000       0.005
   0.06383760  0.02127920  0.00000000       0.002
   0.00000000  0.03191880  0.00000000       0.002
   0.01063960  0.03191880  0.00000000       0.005
   0.02127920  0.03191880  0.00000000       0.005
   0.03191880  0.03191880  0.00000000       0.005
   0.04255840  0.03191880  0.00000000       0.005
   0.05319800  0.03191880  0.00000000       0.005
   0.06383760  0.03191880  0.00000000       0.002
   0.00000000  0.04255840  0.00000000       0.002
   0.01063960  0.04255840  0.00000000       0.005
   0.02127920  0.04255840  0.00000000       0.005
   0.03191880  0.04255840  0.00000000       0.005
   0.04255840  0.04255840  0.00000000       0.005
   0.05319800  0.04255840  0.00000000       0.005
   0.06383760  0.04255840  0.00000000       0.002
   0.00000000  0.05319800  0.00000000       0.002
   0.01063960  0.05319800  0.00000000       0.005
   0.02127920  0.05319800  0.00000000       0.005
   0.03191880  0.05319800  0.00000000       0.005
   0.04255840  0.05319800  0.00000000       0.005
   0.05319800  0.05319800  0.00000000       0.005
   0.06383760  0.05319800  0.00000000       0.002
   0.00000000  0.06383760  0.00000000       0.001
   0.01063960  0.06383760  0.00000000       0.002
   0.02127920  0.06383760  0.00000000       0.002
   0.03191880  0.06383760  0.00000000       0.002
   0.04255840  0.06383760  0.00000000       0.002
   0.05319800  0.06383760  0.00000000       0.002
   0.06383760  0.06383760  0.00000000       0.001
   0.00000000  0.01063960  0.01063960       0.002
   0.01063960  0.01063960  0.01063960       0.005
   0.02127920  0.01063960  0.01063960       0.005
   0.03191880  0.01063960  0.01063960       0.005
   0.04255840  0.01063960  0.01063960       0.005
   0.05319800  0.01063960  0.01063960       0.005
   0.06383760  0.01063960  0.01063960       0.002
   0.00000000  0.02127920  0.01063960       0.005
   0.01063960  0.02127920  0.01063960       0.009
   0.02127920  0.02127920  0.01063960       0.009
   0.03191880  0.02127920  0.01063960       0.009
   0.04255840  0.02127920  0.01063960       0.009
   0.05319800  0.02127920  0.01063960       0.009
   0.06383760  0.02127920  0.01063960       0.005
   0.00000000  0.03191880  0.01063960       0.005
   0.01063960  0.03191880  0.01063960       0.009
   0.02127920  0.03191880  0.01063960       0.009
   0.03191880  0.03191880  0.01063960       0.009
   0.04255840  0.03191880  0.01063960       0.009
   0.05319800  0.03191880  0.01063960       0.009
   0.06383760  0.03191880  0.01063960       0.005
   0.00000000  0.04255840  0.01063960       0.005
   0.01063960  0.04255840  0.01063960       0.009
   0.02127920  0.04255840  0.01063960       0.009
   0.03191880  0.04255840  0.01063960       0.009
   0.04255840  0.04255840  0.01063960       0.009
   0.05319800  0.04255840  0.01063960       0.009
   0.06383760  0.04255840  0.01063960       0.005
   0.00000000  0.05319800  0.01063960       0.005
   0.01063960  0.05319800  0.01063960       0.009
   0.02127920  0.05319800  0.01063960       0.009
   0.03191880  0.05319800  0.01063960       0.009
   0.04255840  0.05319800  0.01063960       0.009
   0.05319800  0.05319800  0.01063960       0.009
   0.06383760  0.05319800  0.01063960       0.005
   0.00000000  0.06383760  0.01063960       0.002
   0.01063960  0.06383760  0.01063960       0.005
   0.02127920  0.06383760  0.01063960       0.005
   0.03191880  0.06383760  0.01063960       0.005
   0.04255840  0.06383760  0.01063960       0.005
   0.05319800  0.06383760  0.01063960       0.005
   0.06383760  0.06383760  0.01063960       0.002
   0.00000000  0.02127920  0.02127920       0.002
   0.01063960  0.02127920  0.02127920       0.005
   0.02127920  0.02127920  0.02127920       0.005
   0.03191880  0.02127920  0.02127920       0.005
   0.04255840  0.02127920  0.02127920       0.005
   0.05319800  0.02127920  0.02127920       0.005
   0.06383760  0.02127920  0.02127920       0.002
   0.00000000  0.03191880  0.02127920       0.005
   0.01063960  0.03191880  0.02127920       0.009
   0.02127920  0.03191880  0.02127920       0.009
   0.03191880  0.03191880  0.02127920       0.009
   0.04255840  0.03191880  0.02127920       0.009
   0.05319800  0.03191880  0.02127920       0.009
   0.06383760  0.03191880  0.02127920       0.005
   0.00000000  0.04255840  0.02127920       0.005
   0.01063960  0.04255840  0.02127920       0.009
   0.02127920  0.04255840  0.02127920       0.009
   0.03191880  0.04255840  0.02127920       0.009
   0.04255840  0.04255840  0.02127920       0.009
   0.05319800  0.04255840  0.02127920       0.009
   0.06383760  0.04255840  0.02127920       0.005
   0.00000000  0.05319800  0.02127920       0.005
   0.01063960  0.05319800  0.02127920       0.009
   0.02127920  0.05319800  0.02127920       0.009
   0.03191880  0.05319800  0.02127920       0.009
   0.04255840  0.05319800  0.02127920       0.009
   0.05319800  0.05319800  0.02127920       0.009
   0.06383760  0.05319800  0.02127920       0.005
   0.00000000  0.06383760  0.02127920       0.002
   0.01063960  0.06383760  0.02127920       0.005
   0.02127920  0.06383760  0.02127920       0.005
   0.03191880  0.06383760  0.02127920       0.005
   0.04255840  0.06383760  0.02127920       0.005
   0.05319800  0.06383760  0.02127920       0.005
   0.06383760  0.06383760  0.02127920       0.002
   0.00000000  0.03191880  0.03191880       0.002
   0.01063960  0.03191880  0.03191880       0.005
   0.02127920  0.03191880  0.03191880       0.005
   0.03191880  0.03191880  0.03191880       0.005
   0.04255840  0.03191880  0.03191880       0.005
   0.05319800  0.03191880  0.03191880       0.005
   0.06383760  0.03191880  0.03191880       0.002
   0.00000000  0.04255840  0.03191880       0.005
   0.01063960  0.04255840  0.03191880       0.009
   0.02127920  0.04255840  0.03191880       0.009
   0.03191880  0.04255840  0.03191880       0.009
   0.04255840  0.04255840  0.03191880       0.009
   0.05319800  0.04255840  0.03191880       0.009
   0.06383760  0.04255840  0.03191880       0.005
   0.00000000  0.05319800  0.03191880       0.005
   0.01063960  0.05319800  0.03191880       0.009
   0.02127920  0.05319800  0.03191880       0.009
   0.03191880  0.05319800  0.03191880       0.009
   0.04255840  0.05319800  0.03191880       0.009
   0.05319800  0.05319800  0.03191880       0.009
   0.06383760  0.05319800  0.03191880       0.005
   0.00000000  0.06383760  0.03191880       0.002
   0.01063960  0.06383760  0.03191880       0.005
   0.02127920  0.06383760  0.03191880       0.005
   0.03191880  0.06383760  0.03191880       0.005
   0.04255840  0.06383760  0.03191880       0.005
   0.05319800  0.06383760  0.03191880       0.005
   0.06383760  0.06383760  0.03191880       0.002
   0.00000000  0.04255840  0.04255840       0.002
   0.01063960  0.04255840  0.04255840       0.005
   0.02127920  0.04255840  0.04255840       0.005
   0.03191880  0.04255840  0.04255840       0.005
   0.04255840  0.04255840  0.04255840       0.005
   0.05319800  0.04255840  0.04255840       0.005
   0.06383760  0.04255840  0.04255840       0.002
   0.00000000  0.05319800  0.04255840       0.005
   0.01063960  0.05319800  0.04255840       0.009
   0.02127920  0.05319800  0.04255840       0.009
   0.03191880  0.05319800  0.04255840       0.009
   0.04255840  0.05319800  0.04255840       0.009
   0.05319800  0.05319800  0.04255840       0.009
   0.06383760  0.05319800  0.04255840       0.005
   0.00000000  0.06383760  0.04255840       0.002
   0.01063960  0.06383760  0.04255840       0.005
   0.02127920  0.06383760  0.04255840       0.005
   0.03191880  0.06383760  0.04255840       0.005
   0.04255840  0.06383760  0.04255840       0.005
   0.05319800  0.06383760  0.04255840       0.005
   0.06383760  0.06383760  0.04255840       0.002
   0.00000000  0.05319800  0.05319800       0.002
   0.01063960  0.05319800  0.05319800       0.005
   0.02127920  0.05319800  0.05319800       0.005
   0.03191880  0.05319800  0.05319800       0.005
   0.04255840  0.05319800  0.05319800       0.005
   0.05319800  0.05319800  0.05319800       0.005
   0.06383760  0.05319800  0.05319800       0.002
   0.00000000  0.06383760  0.05319800       0.002
   0.01063960  0.06383760  0.05319800       0.005
   0.02127920  0.06383760  0.05319800       0.005
   0.03191880  0.06383760  0.05319800       0.005
   0.04255840  0.06383760  0.05319800       0.005
   0.05319800  0.06383760  0.05319800       0.005
   0.06383760  0.06383760  0.05319800       0.002
   0.00000000  0.06383760  0.06383760       0.001
   0.01063960  0.06383760  0.06383760       0.001
   0.02127920  0.06383760  0.06383760       0.001
   0.03191880  0.06383760  0.06383760       0.001
   0.04255840  0.06383760  0.06383760       0.001
   0.05319800  0.06383760  0.06383760       0.001
   0.06383760  0.06383760  0.06383760       0.001
 
 k-points in reciprocal lattice and weights: Automatic mesh                          
   0.00000000  0.00000000  0.00000000       0.001
   0.08333333  0.00000000  0.00000000       0.001
   0.16666667  0.00000000  0.00000000       0.001
   0.25000000  0.00000000  0.00000000       0.001
   0.33333333  0.00000000  0.00000000       0.001
   0.41666667  0.00000000  0.00000000       0.001
   0.50000000  0.00000000  0.00000000       0.001
   0.00000000  0.08333333  0.00000000       0.002
   0.08333333  0.08333333  0.00000000       0.005
   0.16666667  0.08333333  0.00000000       0.005
   0.25000000  0.08333333  0.00000000       0.005
   0.33333333  0.08333333  0.00000000       0.005
   0.41666667  0.08333333  0.00000000       0.005
   0.50000000  0.08333333  0.00000000       0.002
   0.00000000  0.16666667  0.00000000       0.002
   0.08333333  0.16666667  0.00000000       0.005
   0.16666667  0.16666667  0.00000000       0.005
   0.25000000  0.16666667  0.00000000       0.005
   0.33333333  0.16666667  0.00000000       0.005
   0.41666667  0.16666667  0.00000000       0.005
   0.50000000  0.16666667  0.00000000       0.002
   0.00000000  0.25000000  0.00000000       0.002
   0.08333333  0.25000000  0.00000000       0.005
   0.16666667  0.25000000  0.00000000       0.005
   0.25000000  0.25000000  0.00000000       0.005
   0.33333333  0.25000000  0.00000000       0.005
   0.41666667  0.25000000  0.00000000       0.005
   0.50000000  0.25000000  0.00000000       0.002
   0.00000000  0.33333333  0.00000000       0.002
   0.08333333  0.33333333  0.00000000       0.005
   0.16666667  0.33333333  0.00000000       0.005
   0.25000000  0.33333333  0.00000000       0.005
   0.33333333  0.33333333  0.00000000       0.005
   0.41666667  0.33333333  0.00000000       0.005
   0.50000000  0.33333333  0.00000000       0.002
   0.00000000  0.41666667  0.00000000       0.002
   0.08333333  0.41666667  0.00000000       0.005
   0.16666667  0.41666667  0.00000000       0.005
   0.25000000  0.41666667  0.00000000       0.005
   0.33333333  0.41666667  0.00000000       0.005
   0.41666667  0.41666667  0.00000000       0.005
   0.50000000  0.41666667  0.00000000       0.002
   0.00000000  0.50000000  0.00000000       0.001
   0.08333333  0.50000000  0.00000000       0.002
   0.16666667  0.50000000  0.00000000       0.002
   0.25000000  0.50000000  0.00000000       0.002
   0.33333333  0.50000000  0.00000000       0.002
   0.41666667  0.50000000  0.00000000       0.002
   0.50000000  0.50000000  0.00000000       0.001
   0.00000000  0.08333333  0.08333333       0.002
   0.08333333  0.08333333  0.08333333       0.005
   0.16666667  0.08333333  0.08333333       0.005
   0.25000000  0.08333333  0.08333333       0.005
   0.33333333  0.08333333  0.08333333       0.005
   0.41666667  0.08333333  0.08333333       0.005
   0.50000000  0.08333333  0.08333333       0.002
   0.00000000  0.16666667  0.08333333       0.005
   0.08333333  0.16666667  0.08333333       0.009
   0.16666667  0.16666667  0.08333333       0.009
   0.25000000  0.16666667  0.08333333       0.009
   0.33333333  0.16666667  0.08333333       0.009
   0.41666667  0.16666667  0.08333333       0.009
   0.50000000  0.16666667  0.08333333       0.005
   0.00000000  0.25000000  0.08333333       0.005
   0.08333333  0.25000000  0.08333333       0.009
   0.16666667  0.25000000  0.08333333       0.009
   0.25000000  0.25000000  0.08333333       0.009
   0.33333333  0.25000000  0.08333333       0.009
   0.41666667  0.25000000  0.08333333       0.009
   0.50000000  0.25000000  0.08333333       0.005
   0.00000000  0.33333333  0.08333333       0.005
   0.08333333  0.33333333  0.08333333       0.009
   0.16666667  0.33333333  0.08333333       0.009
   0.25000000  0.33333333  0.08333333       0.009
   0.33333333  0.33333333  0.08333333       0.009
   0.41666667  0.33333333  0.08333333       0.009
   0.50000000  0.33333333  0.08333333       0.005
   0.00000000  0.41666667  0.08333333       0.005
   0.08333333  0.41666667  0.08333333       0.009
   0.16666667  0.41666667  0.08333333       0.009
   0.25000000  0.41666667  0.08333333       0.009
   0.33333333  0.41666667  0.08333333       0.009
   0.41666667  0.41666667  0.08333333       0.009
   0.50000000  0.41666667  0.08333333       0.005
   0.00000000  0.50000000  0.08333333       0.002
   0.08333333  0.50000000  0.08333333       0.005
   0.16666667  0.50000000  0.08333333       0.005
   0.25000000  0.50000000  0.08333333       0.005
   0.33333333  0.50000000  0.08333333       0.005
   0.41666667  0.50000000  0.08333333       0.005
   0.50000000  0.50000000  0.08333333       0.002
   0.00000000  0.16666667  0.16666667       0.002
   0.08333333  0.16666667  0.16666667       0.005
   0.16666667  0.16666667  0.16666667       0.005
   0.25000000  0.16666667  0.16666667       0.005
   0.33333333  0.16666667  0.16666667       0.005
   0.41666667  0.16666667  0.16666667       0.005
   0.50000000  0.16666667  0.16666667       0.002
   0.00000000  0.25000000  0.16666667       0.005
   0.08333333  0.25000000  0.16666667       0.009
   0.16666667  0.25000000  0.16666667       0.009
   0.25000000  0.25000000  0.16666667       0.009
   0.33333333  0.25000000  0.16666667       0.009
   0.41666667  0.25000000  0.16666667       0.009
   0.50000000  0.25000000  0.16666667       0.005
   0.00000000  0.33333333  0.16666667       0.005
   0.08333333  0.33333333  0.16666667       0.009
   0.16666667  0.33333333  0.16666667       0.009
   0.25000000  0.33333333  0.16666667       0.009
   0.33333333  0.33333333  0.16666667       0.009
   0.41666667  0.33333333  0.16666667       0.009
   0.50000000  0.33333333  0.16666667       0.005
   0.00000000  0.41666667  0.16666667       0.005
   0.08333333  0.41666667  0.16666667       0.009
   0.16666667  0.41666667  0.16666667       0.009
   0.25000000  0.41666667  0.16666667       0.009
   0.33333333  0.41666667  0.16666667       0.009
   0.41666667  0.41666667  0.16666667       0.009
   0.50000000  0.41666667  0.16666667       0.005
   0.00000000  0.50000000  0.16666667       0.002
   0.08333333  0.50000000  0.16666667       0.005
   0.16666667  0.50000000  0.16666667       0.005
   0.25000000  0.50000000  0.16666667       0.005
   0.33333333  0.50000000  0.16666667       0.005
   0.41666667  0.50000000  0.16666667       0.005
   0.50000000  0.50000000  0.16666667       0.002
   0.00000000  0.25000000  0.25000000       0.002
   0.08333333  0.25000000  0.25000000       0.005
   0.16666667  0.25000000  0.25000000       0.005
   0.25000000  0.25000000  0.25000000       0.005
   0.33333333  0.25000000  0.25000000       0.005
   0.41666667  0.25000000  0.25000000       0.005
   0.50000000  0.25000000  0.25000000       0.002
   0.00000000  0.33333333  0.25000000       0.005
   0.08333333  0.33333333  0.25000000       0.009
   0.16666667  0.33333333  0.25000000       0.009
   0.25000000  0.33333333  0.25000000       0.009
   0.33333333  0.33333333  0.25000000       0.009
   0.41666667  0.33333333  0.25000000       0.009
   0.50000000  0.33333333  0.25000000       0.005
   0.00000000  0.41666667  0.25000000       0.005
   0.08333333  0.41666667  0.25000000       0.009
   0.16666667  0.41666667  0.25000000       0.009
   0.25000000  0.41666667  0.25000000       0.009
   0.33333333  0.41666667  0.25000000       0.009
   0.41666667  0.41666667  0.25000000       0.009
   0.50000000  0.41666667  0.25000000       0.005
   0.00000000  0.50000000  0.25000000       0.002
   0.08333333  0.50000000  0.25000000       0.005
   0.16666667  0.50000000  0.25000000       0.005
   0.25000000  0.50000000  0.25000000       0.005
   0.33333333  0.50000000  0.25000000       0.005
   0.41666667  0.50000000  0.25000000       0.005
   0.50000000  0.50000000  0.25000000       0.002
   0.00000000  0.33333333  0.33333333       0.002
   0.08333333  0.33333333  0.33333333       0.005
   0.16666667  0.33333333  0.33333333       0.005
   0.25000000  0.33333333  0.33333333       0.005
   0.33333333  0.33333333  0.33333333       0.005
   0.41666667  0.33333333  0.33333333       0.005
   0.50000000  0.33333333  0.33333333       0.002
   0.00000000  0.41666667  0.33333333       0.005
   0.08333333  0.41666667  0.33333333       0.009
   0.16666667  0.41666667  0.33333333       0.009
   0.25000000  0.41666667  0.33333333       0.009
   0.33333333  0.41666667  0.33333333       0.009
   0.41666667  0.41666667  0.33333333       0.009
   0.50000000  0.41666667  0.33333333       0.005
   0.00000000  0.50000000  0.33333333       0.002
   0.08333333  0.50000000  0.33333333       0.005
   0.16666667  0.50000000  0.33333333       0.005
   0.25000000  0.50000000  0.33333333       0.005
   0.33333333  0.50000000  0.33333333       0.005
   0.41666667  0.50000000  0.33333333       0.005
   0.50000000  0.50000000  0.33333333       0.002
   0.00000000  0.41666667  0.41666667       0.002
   0.08333333  0.41666667  0.41666667       0.005
   0.16666667  0.41666667  0.41666667       0.005
   0.25000000  0.41666667  0.41666667       0.005
   0.33333333  0.41666667  0.41666667       0.005
   0.41666667  0.41666667  0.41666667       0.005
   0.50000000  0.41666667  0.41666667       0.002
   0.00000000  0.50000000  0.41666667       0.002
   0.08333333  0.50000000  0.41666667       0.005
   0.16666667  0.50000000  0.41666667       0.005
   0.25000000  0.50000000  0.41666667       0.005
   0.33333333  0.50000000  0.41666667       0.005
   0.41666667  0.50000000  0.41666667       0.005
   0.50000000  0.50000000  0.41666667       0.002
   0.00000000  0.50000000  0.50000000       0.001
   0.08333333  0.50000000  0.50000000       0.001
   0.16666667  0.50000000  0.50000000       0.001
   0.25000000  0.50000000  0.50000000       0.001
   0.33333333  0.50000000  0.50000000       0.001
   0.41666667  0.50000000  0.50000000       0.001
   0.50000000  0.50000000  0.50000000       0.001
 
 position of ions in fractional coordinates (direct lattice) 
   0.25127675  0.25000000  0.00000000
   0.75000000  0.25000000  0.00000000
   0.25000000  0.75000000  0.00000000
   0.75000000  0.75000000  0.00000000
   0.25000000  0.25000000  0.50000000
   0.75000000  0.25000000  0.50000000
   0.25000000  0.75000000  0.50000000
   0.75000000  0.75000000  0.50000000
   0.25000000  0.00000000  0.25000000
   0.75000000  0.00000000  0.25000000
   0.25000000  0.50000000  0.25000000
   0.75000000  0.50000000  0.25000000
   0.25000000  0.00000000  0.75000000
   0.75000000  0.00000000  0.75000000
   0.25000000  0.50000000  0.75000000
   0.75000000  0.50000000  0.75000000
   0.00000000  0.25000000  0.25000000
   0.50000000  0.25000000  0.25000000
   0.00000000  0.75000000  0.25000000
   0.50000000  0.75000000  0.25000000
   0.00000000  0.25000000  0.75000000
   0.50000000  0.25000000  0.75000000
   0.00000000  0.75000000  0.75000000
   0.50000000  0.75000000  0.75000000
   0.00000000  0.00000000  0.00000000
   0.50000000  0.00000000  0.00000000
   0.00000000  0.50000000  0.00000000
   0.50000000  0.50000000  0.00000000
   0.00000000  0.00000000  0.50000000
   0.50000000  0.00000000  0.50000000
   0.00000000  0.50000000  0.50000000
   0.50000000  0.50000000  0.50000000
 
 position of ions in cartesian coordinates  (Angst):
   1.96809359  1.95809359  0.00000000
   5.87428077  1.95809359  0.00000000
   1.95809359  5.87428077  0.00000000
   5.87428077  5.87428077  0.00000000
   1.95809359  1.95809359  3.91618718
   5.87428077  1.95809359  3.91618718
   1.95809359  5.87428077  3.91618718
   5.87428077  5.87428077  3.91618718
   1.95809359  0.00000000  1.95809359
   5.87428077  0.00000000  1.95809359
   1.95809359  3.91618718  1.95809359
   5.87428077  3.91618718  1.95809359
   1.95809359  0.00000000  5.87428077
   5.87428077  0.00000000  5.87428077
   1.95809359  3.91618718  5.87428077
   5.87428077  3.91618718  5.87428077
   0.00000000  1.95809359  1.95809359
   3.91618718  1.95809359  1.95809359
   0.00000000  5.87428077  1.95809359
   3.91618718  5.87428077  1.95809359
   0.00000000  1.95809359  5.87428077
   3.91618718  1.95809359  5.87428077
   0.00000000  5.87428077  5.87428077
   3.91618718  5.87428077  5.87428077
   0.00000000  0.00000000  0.00000000
   3.91618718  0.00000000  0.00000000
   0.00000000  3.91618718  0.00000000
   3.91618718  3.91618718  0.00000000
   0.00000000  0.00000000  3.91618718
   3.91618718  0.00000000  3.91618718
   0.00000000  3.91618718  3.91618718
   3.91618718  3.91618718  3.91618718
 


--------------------------------------------------------------------------------------------------------


 k-point  1 :  0.00000.00000.0000  plane waves:  22335
 k-point  2 :  0.08330.00000.0000  plane waves:  22403
 k-point  3 :  0.16670.00000.0000  plane waves:  22423
 k-point  4 :  0.25000.00000.0000  plane waves:  22411
 k-point  5 :  0.33330.00000.0000  plane waves:  22431
 k-point  6 :  0.41670.00000.0000  plane waves:  22431
 k-point  7 :  0.50000.00000.0000  plane waves:  22410
 k-point  8 :  0.00000.08330.0000  plane waves:  22403
 k-point  9 :  0.08330.08330.0000  plane waves:  22435
 k-point 10 :  0.16670.08330.0000  plane waves:  22444
 k-point 11 :  0.25000.08330.0000  plane waves:  22412
 k-point 12 :  0.33330.08330.0000  plane waves:  22411
 k-point 13 :  0.41670.08330.0000  plane waves:  22425
 k-point 14 :  0.50000.08330.0000  plane waves:  22420
 k-point 15 :  0.00000.16670.0000  plane waves:  22423
 k-point 16 :  0.08330.16670.0000  plane waves:  22444
 k-point 17 :  0.16670.16670.0000  plane waves:  22411
 k-point 18 :  0.25000.16670.0000  plane waves:  22436
 k-point 19 :  0.33330.16670.0000  plane waves:  22451
 k-point 20 :  0.41670.16670.0000  plane waves:  22434
 k-point 21 :  0.50000.16670.0000  plane waves:  22376
 k-point 22 :  0.00000.25000.0000  plane waves:  22411
 k-point 23 :  0.08330.25000.0000  plane waves:  22412
 k-point 24 :  0.16670.25000.0000  plane waves:  22436
 k-point 25 :  0.25000.25000.0000  plane waves:  22409
 k-point 26 :  0.33330.25000.0000  plane waves:  22430
 k-point 27 :  0.41670.25000.0000  plane waves:  22395
 k-point 28 :  0.50000.25000.0000  plane waves:  22408
 k-point 29 :  0.00000.33330.0000  plane waves:  22431
 k-point 30 :  0.08330.33330.0000  plane waves:  22411
 k-point 31 :  0.16670.33330.0000  plane waves:  22451
 k-point 32 :  0.25000.33330.0000  plane waves:  22430
 k-point 33 :  0.33330.33330.0000  plane waves:  22429
 k-point 34 :  0.41670.33330.0000  plane waves:  22402
 k-point 35 :  0.50000.33330.0000  plane waves:  22386
 k-point 36 :  0.00000.41670.0000  plane waves:  22431
 k-point 37 :  0.08330.41670.0000  plane waves:  22425
 k-point 38 :  0.16670.41670.0000  plane waves:  22434
 k-point 39 :  0.25000.41670.0000  plane waves:  22395
 k-point 40 :  0.33330.41670.0000  plane waves:  22402
 k-point 41 :  0.41670.41670.0000  plane waves:  22398
 k-point 42 :  0.50000.41670.0000  plane waves:  22404
 k-point 43 :  0.00000.50000.0000  plane waves:  22410
 k-point 44 :  0.08330.50000.0000  plane waves:  22420
 k-point 45 :  0.16670.50000.0000  plane waves:  22376
 k-point 46 :  0.25000.50000.0000  plane waves:  22408
 k-point 47 :  0.33330.50000.0000  plane waves:  22386
 k-point 48 :  0.41670.50000.0000  plane waves:  22404
 k-point 49 :  0.50000.50000.0000  plane waves:  22368
 k-point 50 :  0.00000.08330.0833  plane waves:  22435
 k-point 51 :  0.08330.08330.0833  plane waves:  22461
 k-point 52 :  0.16670.08330.0833  plane waves:  22448
 k-point 53 :  0.25000.08330.0833  plane waves:  22411
 k-point 54 :  0.33330.08330.0833  plane waves:  22414
 k-point 55 :  0.41670.08330.0833  plane waves:  22425
 k-point 56 :  0.50000.08330.0833  plane waves:  22404
 k-point 57 :  0.00000.16670.0833  plane waves:  22444
 k-point 58 :  0.08330.16670.0833  plane waves:  22448
 k-point 59 :  0.16670.16670.0833  plane waves:  22428
 k-point 60 :  0.25000.16670.0833  plane waves:  22421
 k-point 61 :  0.33330.16670.0833  plane waves:  22421
 k-point 62 :  0.41670.16670.0833  plane waves:  22419
 k-point 63 :  0.50000.16670.0833  plane waves:  22396
 k-point 64 :  0.00000.25000.0833  plane waves:  22412
 k-point 65 :  0.08330.25000.0833  plane waves:  22411
 k-point 66 :  0.16670.25000.0833  plane waves:  22421
 k-point 67 :  0.25000.25000.0833  plane waves:  22437
 k-point 68 :  0.33330.25000.0833  plane waves:  22427
 k-point 69 :  0.41670.25000.0833  plane waves:  22391
 k-point 70 :  0.50000.25000.0833  plane waves:  22392
 k-point 71 :  0.00000.33330.0833  plane waves:  22411
 k-point 72 :  0.08330.33330.0833  plane waves:  22414
 k-point 73 :  0.16670.33330.0833  plane waves:  22421
 k-point 74 :  0.25000.33330.0833  plane waves:  22427
 k-point 75 :  0.33330.33330.0833  plane waves:  22410
 k-point 76 :  0.41670.33330.0833  plane waves:  22394
 k-point 77 :  0.50000.33330.0833  plane waves:  22420
 k-point 78 :  0.00000.41670.0833  plane waves:  22425
 k-point 79 :  0.08330.41670.0833  plane waves:  22425
 k-point 80 :  0.16670.41670.0833  plane waves:  22419
 k-point 81 :  0.25000.41670.0833  plane waves:  22391
 k-point 82 :  0.33330.41670.0833  plane waves:  22394
 k-point 83 :  0.41670.41670.0833  plane waves:  22422
 k-point 84 :  0.50000.41670.0833  plane waves:  22388
 k-point 85 :  0.00000.50000.0833  plane waves:  22420
 k-point 86 :  0.08330.50000.0833  plane waves:  22404
 k-point 87 :  0.16670.50000.0833  plane waves:  22396
 k-point 88 :  0.25000.50000.0833  plane waves:  22392
 k-point 89 :  0.33330.50000.0833  plane waves:  22420
 k-point 90 :  0.41670.50000.0833  plane waves:  22388
 k-point 91 :  0.50000.50000.0833  plane waves:  22408
 k-point 92 :  0.00000.16670.1667  plane waves:  22411
 k-point 93 :  0.08330.16670.1667  plane waves:  22428
 k-point 94 :  0.16670.16670.1667  plane waves:  22454
 k-point 95 :  0.25000.16670.1667  plane waves:  22422
 k-point 96 :  0.33330.16670.1667  plane waves:  22437
 k-point 97 :  0.41670.16670.1667  plane waves:  22396
 k-point 98 :  0.50000.16670.1667  plane waves:  22386
 k-point 99 :  0.00000.25000.1667  plane waves:  22436
 k-point ** :  0.08330.25000.1667  plane waves:  22421
 k-point ** :  0.16670.25000.1667  plane waves:  22422
 k-point ** :  0.25000.25000.1667  plane waves:  22433
 k-point ** :  0.33330.25000.1667  plane waves:  22423
 k-point ** :  0.41670.25000.1667  plane waves:  22384
 k-point ** :  0.50000.25000.1667  plane waves:  22382
 k-point ** :  0.00000.33330.1667  plane waves:  22451
 k-point ** :  0.08330.33330.1667  plane waves:  22421
 k-point ** :  0.16670.33330.1667  plane waves:  22437
 k-point ** :  0.25000.33330.1667  plane waves:  22423
 k-point ** :  0.33330.33330.1667  plane waves:  22391
 k-point ** :  0.41670.33330.1667  plane waves:  22397
 k-point ** :  0.50000.33330.1667  plane waves:  22394
 k-point ** :  0.00000.41670.1667  plane waves:  22434
 k-point ** :  0.08330.41670.1667  plane waves:  22419
 k-point ** :  0.16670.41670.1667  plane waves:  22396
 k-point ** :  0.25000.41670.1667  plane waves:  22384
 k-point ** :  0.33330.41670.1667  plane waves:  22397
 k-point ** :  0.41670.41670.1667  plane waves:  22425
 k-point ** :  0.50000.41670.1667  plane waves:  22398
 k-point ** :  0.00000.50000.1667  plane waves:  22376
 k-point ** :  0.08330.50000.1667  plane waves:  22396
 k-point ** :  0.16670.50000.1667  plane waves:  22386
 k-point ** :  0.25000.50000.1667  plane waves:  22382
 k-point ** :  0.33330.50000.1667  plane waves:  22394
 k-point ** :  0.41670.50000.1667  plane waves:  22398
 k-point ** :  0.50000.50000.1667  plane waves:  22428
 k-point ** :  0.00000.25000.2500  plane waves:  22409
 k-point ** :  0.08330.25000.2500  plane waves:  22437
 k-point ** :  0.16670.25000.2500  plane waves:  22433
 k-point ** :  0.25000.25000.2500  plane waves:  22445
 k-point ** :  0.33330.25000.2500  plane waves:  22413
 k-point ** :  0.41670.25000.2500  plane waves:  22393
 k-point ** :  0.50000.25000.2500  plane waves:  22420
 k-point ** :  0.00000.33330.2500  plane waves:  22430
 k-point ** :  0.08330.33330.2500  plane waves:  22427
 k-point ** :  0.16670.33330.2500  plane waves:  22423
 k-point ** :  0.25000.33330.2500  plane waves:  22413
 k-point ** :  0.33330.33330.2500  plane waves:  22403
 k-point ** :  0.41670.33330.2500  plane waves:  22412
 k-point ** :  0.50000.33330.2500  plane waves:  22384
 k-point ** :  0.00000.41670.2500  plane waves:  22395
 k-point ** :  0.08330.41670.2500  plane waves:  22391
 k-point ** :  0.16670.41670.2500  plane waves:  22384
 k-point ** :  0.25000.41670.2500  plane waves:  22393
 k-point ** :  0.33330.41670.2500  plane waves:  22412
 k-point ** :  0.41670.41670.2500  plane waves:  22376
 k-point ** :  0.50000.41670.2500  plane waves:  22392
 k-point ** :  0.00000.50000.2500  plane waves:  22408
 k-point ** :  0.08330.50000.2500  plane waves:  22392
 k-point ** :  0.16670.50000.2500  plane waves:  22382
 k-point ** :  0.25000.50000.2500  plane waves:  22420
 k-point ** :  0.33330.50000.2500  plane waves:  22384
 k-point ** :  0.41670.50000.2500  plane waves:  22392
 k-point ** :  0.50000.50000.2500  plane waves:  22376
 k-point ** :  0.00000.33330.3333  plane waves:  22429
 k-point ** :  0.08330.33330.3333  plane waves:  22410
 k-point ** :  0.16670.33330.3333  plane waves:  22391
 k-point ** :  0.25000.33330.3333  plane waves:  22403
 k-point ** :  0.33330.33330.3333  plane waves:  22340
 k-point ** :  0.41670.33330.3333  plane waves:  22379
 k-point ** :  0.50000.33330.3333  plane waves:  22384
 k-point ** :  0.00000.41670.3333  plane waves:  22402
 k-point ** :  0.08330.41670.3333  plane waves:  22394
 k-point ** :  0.16670.41670.3333  plane waves:  22397
 k-point ** :  0.25000.41670.3333  plane waves:  22412
 k-point ** :  0.33330.41670.3333  plane waves:  22379
 k-point ** :  0.41670.41670.3333  plane waves:  22365
 k-point ** :  0.50000.41670.3333  plane waves:  22380
 k-point ** :  0.00000.50000.3333  plane waves:  22386
 k-point ** :  0.08330.50000.3333  plane waves:  22420
 k-point ** :  0.16670.50000.3333  plane waves:  22394
 k-point ** :  0.25000.50000.3333  plane waves:  22384
 k-point ** :  0.33330.50000.3333  plane waves:  22384
 k-point ** :  0.41670.50000.3333  plane waves:  22380
 k-point ** :  0.50000.50000.3333  plane waves:  22352
 k-point ** :  0.00000.41670.4167  plane waves:  22398
 k-point ** :  0.08330.41670.4167  plane waves:  22422
 k-point ** :  0.16670.41670.4167  plane waves:  22425
 k-point ** :  0.25000.41670.4167  plane waves:  22376
 k-point ** :  0.33330.41670.4167  plane waves:  22365
 k-point ** :  0.41670.41670.4167  plane waves:  22391
 k-point ** :  0.50000.41670.4167  plane waves:  22374
 k-point ** :  0.00000.50000.4167  plane waves:  22404
 k-point ** :  0.08330.50000.4167  plane waves:  22388
 k-point ** :  0.16670.50000.4167  plane waves:  22398
 k-point ** :  0.25000.50000.4167  plane waves:  22392
 k-point ** :  0.33330.50000.4167  plane waves:  22380
 k-point ** :  0.41670.50000.4167  plane waves:  22374
 k-point ** :  0.50000.50000.4167  plane waves:  22408
 k-point ** :  0.00000.50000.5000  plane waves:  22368
 k-point ** :  0.08330.50000.5000  plane waves:  22408
 k-point ** :  0.16670.50000.5000  plane waves:  22428
 k-point ** :  0.25000.50000.5000  plane waves:  22376
 k-point ** :  0.33330.50000.5000  plane waves:  22352
 k-point ** :  0.41670.50000.5000  plane waves:  22408
 k-point ** :  0.50000.50000.5000  plane waves:  22400

 maximum and minimum number of plane-waves per node :  22461 22335

 maximum number of plane-waves:  22461
 maximal index in each direction: 
   IXMAX= 17   IYMAX= 17   IZMAX= 17
   IXMIN=-17   IYMIN=-17   IZMIN=-17

 NGX is ok and might be reduce to  70
 NGY is ok and might be reduce to  70
 NGZ is ok and might be reduce to  70

 parallel 3dFFT wavefunction:
    minimum data exchange during FFTs selected (reduces bandwidth)
 parallel 3dFFT charge:
    minimum data exchange during FFTs selected (reduces bandwidth)

 For storing wavefunctions 4778.31 MBYTES are necessary
 For predicting wavefunctions   56.46 MBYTES are necessary
Broyden mixing: mesh for mixing (old mesh)
   NGX = 35   NGY = 35   NGZ = 35
  (NGX  =140   NGY  =140   NGZ  =140)
 gives a total of  42875 points
 initial charge density was supplied:
 charge density of overlapping atoms calculated
 number of electron   96.0000000 magnetization 
 keeping initial charge density in first step


--------------------------------------------------------------------------------------------------------


 Maximum index for augmentation-charges        53934 (set IRDMAX)


--------------------------------------------------------------------------------------------------------


 First call to EWALD:  gamma=   0.226
 Maximum number of real-space cells 3x 3x 3
 Maximum number of reciprocal cells 3x 3x 3

    FEWALD:  VPU time    0.01: CPU time    0.01


----------------------------------------- Iteration    1(   1)  ---------------------------------------


    POTLOK:  VPU time    2.26: CPU time    2.27
    SETDIJ:  VPU time    2.18: CPU time    2.19
    EDDAV :  VPU time 1716.34: CPU time 1717.81
    DOS   :  VPU time    0.00: CPU time   -0.00
    ------------------------------------------
      LOOP:  VPU time 1720.84: CPU time 1722.32

 eigenvalue-minimisations  : 26656
 total energy-change (2. order) : 0.1978076E+03  (-0.4331616E+04)
 number of electron   96.0000000 magnetization 
 augmentation part    96.0000000 magnetization 

 Free energy of the ion-electron system (eV)
  ---------------------------------------------------
  alpha Z        PSCENC =        -7.15822495
  Ewald energy   TEWEN  =     -2427.62240689
  -1/2 Hartree   DENC   =        -2.39603461
  -V(xc)+E(xc)   XCENC  =      -834.14651111
  PAW double counting   =      1137.73615723     -115.16745734
  entropy T*S    EENTRO =        -0.00025804
  eigenvalues    EBANDS =       733.32719955
  atomic energy  EATOM  =      1713.23509266
  ---------------------------------------------------
  free energy    TOTEN  =       197.80755651 eV

  energy without entropy =      197.80781454  energy(sigma->0) =      197.80768553


--------------------------------------------------------------------------------------------------------




----------------------------------------- Iteration    1(   2)  ---------------------------------------


    EDDAV :  VPU time 1918.02: CPU time 1924.88
    DOS   :  VPU time   -0.00: CPU time   -0.00
    ------------------------------------------
      LOOP:  VPU time 1918.08: CPU time 1924.94

 eigenvalue-minimisations  : 31064
 total energy-change (2. order) :-0.2985539E+03  (-0.2796006E+03)
 number of electron   96.0000000 magnetization 
 augmentation part    96.0000000 magnetization 

 Free energy of the ion-electron system (eV)
  ---------------------------------------------------
  alpha Z        PSCENC =        -7.15822495
  Ewald energy   TEWEN  =     -2427.62240689
  -1/2 Hartree   DENC   =        -2.39603461
  -V(xc)+E(xc)   XCENC  =      -834.14651111
  PAW double counting   =      1137.73615723     -115.16745734
  entropy T*S    EENTRO =        -0.00044687
  eigenvalues    EBANDS =       434.77349741
  atomic energy  EATOM  =      1713.23509266
  ---------------------------------------------------
  free energy    TOTEN  =      -100.74633447 eV

  energy without entropy =     -100.74588760  energy(sigma->0) =     -100.74611104


--------------------------------------------------------------------------------------------------------




----------------------------------------- Iteration    1(   3)  ---------------------------------------


    EDDAV :  VPU time 2000.55: CPU time 2005.97
    DOS   :  VPU time   -0.00: CPU time   -0.00
    ------------------------------------------
      LOOP:  VPU time 2000.61: CPU time 2006.02

 eigenvalue-minimisations  : 33008
 total energy-change (2. order) :-0.1825227E+02  (-0.1719674E+02)
 number of electron   96.0000000 magnetization 
 augmentation part    96.0000000 magnetization 

 Free energy of the ion-electron system (eV)
  ---------------------------------------------------
  alpha Z        PSCENC =        -7.15822495
  Ewald energy   TEWEN  =     -2427.62240689
  -1/2 Hartree   DENC   =        -2.39603461
  -V(xc)+E(xc)   XCENC  =      -834.14651111
  PAW double counting   =      1137.73615723     -115.16745734
  entropy T*S    EENTRO =        -0.00075941
  eigenvalues    EBANDS =       416.52153756
  atomic energy  EATOM  =      1713.23509266
  ---------------------------------------------------
  free energy    TOTEN  =      -118.99860687 eV

  energy without entropy =     -118.99784745  energy(sigma->0) =     -118.99822716


--------------------------------------------------------------------------------------------------------




----------------------------------------- Iteration    1(   4)  ---------------------------------------


    EDDAV :  VPU time 1856.37: CPU time 1857.99
    DOS   :  VPU time    0.00: CPU time   -0.00
    ------------------------------------------
      LOOP:  VPU time 1856.42: CPU time 1858.05

 eigenvalue-minimisations  : 31444
 total energy-change (2. order) :-0.4380971E+00  (-0.4326716E+00)
 number of electron   96.0000000 magnetization 
 augmentation part    96.0000000 magnetization 

 Free energy of the ion-electron system (eV)
  ---------------------------------------------------
  alpha Z        PSCENC =        -7.15822495
  Ewald energy   TEWEN  =     -2427.62240689
  -1/2 Hartree   DENC   =        -2.39603461
  -V(xc)+E(xc)   XCENC  =      -834.14651111
  PAW double counting   =      1137.73615723     -115.16745734
  entropy T*S    EENTRO =        -0.00085852
  eigenvalues    EBANDS =       416.08353956
  atomic energy  EATOM  =      1713.23509266
  ---------------------------------------------------
  free energy    TOTEN  =      -119.43670397 eV

  energy without entropy =     -119.43584545  energy(sigma->0) =     -119.43627471


--------------------------------------------------------------------------------------------------------




----------------------------------------- Iteration    1(   5)  ---------------------------------------


    EDDAV :  VPU time 1685.47: CPU time 1698.06
    DOS   :  VPU time   -0.00: CPU time   -0.00
    CHARGE:  VPU time  112.37: CPU time  112.83
    MIXING:  VPU time    0.04: CPU time    0.04
    ------------------------------------------
      LOOP:  VPU time 1797.93: CPU time 1811.00

 eigenvalue-minimisations  : 31636
 total energy-change (2. order) :-0.5383766E-02  (-0.5374738E-02)
 number of electron   96.0000000 magnetization 
 augmentation part    -1.1296766 magnetization 

 Broyden mixing:
  rms(total) = 0.55355E+00    rms(broyden)= 0.55355E+00
  rms(prec ) = 0.79521E+00
  weight for this iteration     100.00

 Free energy of the ion-electron system (eV)
  ---------------------------------------------------
  alpha Z        PSCENC =        -7.15822495
  Ewald energy   TEWEN  =     -2427.62240689
  -1/2 Hartree   DENC   =        -2.39603461
  -V(xc)+E(xc)   XCENC  =      -834.14651111
  PAW double counting   =      1137.73615723     -115.16745734
  entropy T*S    EENTRO =        -0.00086166
  eigenvalues    EBANDS =       416.07815893
  atomic energy  EATOM  =      1713.23509266
  ---------------------------------------------------
  free energy    TOTEN  =      -119.44208774 eV

  energy without entropy =     -119.44122608  energy(sigma->0) =     -119.44165691


--------------------------------------------------------------------------------------------------------




----------------------------------------- Iteration    1(   6)  ---------------------------------------


    POTLOK:  VPU time    2.06: CPU time    2.06
    SETDIJ:  VPU time    2.02: CPU time    2.02
    EDDAV :  VPU time 1709.86: CPU time 1718.28
    DOS   :  VPU time    0.00: CPU time   -0.00
    CHARGE:  VPU time  111.74: CPU time  112.29
    MIXING:  VPU time    0.05: CPU time    0.05
    ------------------------------------------
      LOOP:  VPU time 1825.79: CPU time 1834.76

 eigenvalue-minimisations  : 30796
 total energy-change (2. order) : 0.4569471E+00  (-0.3853930E-02)
 number of electron   96.0000000 magnetization 
 augmentation part    -1.1440250 magnetization 

 Broyden mixing:
  rms(total) = 0.34422E+00    rms(broyden)= 0.34422E+00
  rms(prec ) = 0.49653E+00
  weight for this iteration     100.00

 eigenvalues of (default mixing * dielectric matrix)
  average eigenvalue GAMMA=   2.6358
  2.6358

 Free energy of the ion-electron system (eV)
  ---------------------------------------------------
  alpha Z        PSCENC =        -7.15822495
  Ewald energy   TEWEN  =     -2427.62240689
  -1/2 Hartree   DENC   =        -2.43204431
  -V(xc)+E(xc)   XCENC  =      -832.76547078
  PAW double counting   =      1143.33761102     -121.09341420
  entropy T*S    EENTRO =        -0.00080905
  eigenvalues    EBANDS =       415.51452582
  atomic energy  EATOM  =      1713.23509266
  ---------------------------------------------------
  free energy    TOTEN  =      -118.98514066 eV

  energy without entropy =     -118.98433161  energy(sigma->0) =     -118.98473614


--------------------------------------------------------------------------------------------------------




----------------------------------------- Iteration    1(   7)  ---------------------------------------


    POTLOK:  VPU time    2.07: CPU time    2.07
    SETDIJ:  VPU time    1.93: CPU time    1.93
    EDDAV :  VPU time 1658.57: CPU time 1662.02
    DOS   :  VPU time   -0.00: CPU time   -0.00
    CHARGE:  VPU time  116.09: CPU time  116.34
    MIXING:  VPU time    0.04: CPU time    0.05
    ------------------------------------------
      LOOP:  VPU time 1778.74: CPU time 1782.47

 eigenvalue-minimisations  : 29304
 total energy-change (2. order) : 0.3320396E+00  (-0.1172951E-01)
 number of electron   96.0000000 magnetization 
 augmentation part    -1.1740139 magnetization 

 Broyden mixing:
  rms(total) = 0.13439E-01    rms(broyden)= 0.13439E-01
  rms(prec ) = 0.15764E-01
  weight for this iteration     100.00

 eigenvalues of (default mixing * dielectric matrix)
  average eigenvalue GAMMA=   2.4585
  2.4585  2.4585

 Free energy of the ion-electron system (eV)
  ---------------------------------------------------
  alpha Z        PSCENC =        -7.15822495
  Ewald energy   TEWEN  =     -2427.62240689
  -1/2 Hartree   DENC   =        -3.92612146
  -V(xc)+E(xc)   XCENC  =      -830.03794015
  PAW double counting   =      1151.69583815     -130.05128008
  entropy T*S    EENTRO =        -0.00086842
  eigenvalues    EBANDS =       415.21281007
  atomic energy  EATOM  =      1713.23509266
  ---------------------------------------------------
  free energy    TOTEN  =      -118.65310107 eV

  energy without entropy =     -118.65223264  energy(sigma->0) =     -118.65266685


[...]
     64      11.1480      0.00000
     65      12.4738      0.00000
     66      12.4745      0.00000
     67      12.4750      0.00000
     68      12.4753      0.00000

 k-point 194 :       0.3333    0.5000    0.5000
  band No.  band energies     occupation 
      1      -1.3169      2.00000
      2      -1.3168      2.00000
      3      -1.3168      2.00000
      4      -1.3168      2.00000
      5      -0.5243      2.00000
      6      -0.5243      2.00000
      7      -0.5243      2.00000
      8      -0.5243      2.00000
      9       2.5931      2.00000
     10       2.5931      2.00000
     11       2.5931      2.00000
     12       2.5931      2.00000
     13       3.3552      2.00000
     14       3.3552      2.00000
     15       3.3553      2.00000
     16       3.3553      2.00000
     17       3.3553      2.00000
     18       3.3553      2.00000
     19       3.3553      2.00000
     20       3.3553      2.00000
     21       4.1124      2.00000
     22       4.1124      2.00000
     23       4.1125      2.00000
     24       4.1125      2.00000
     25       4.1125      2.00000
     26       4.1125      2.00000
     27       4.1127      2.00000
     28       4.1127      2.00000
     29       4.8524      2.00000
     30       4.8524      2.00000
     31       4.8524      2.00000
     32       4.8524      2.00000
     33       7.1755      2.00000
     34       7.1755      2.00000
     35       7.1761      2.00000
     36       7.1761      2.00000
     37       7.1761      2.00000
     38       7.1761      2.00000
     39       7.1766      2.00000
     40       7.1766      2.00000
     41       7.8949      2.00000
     42       7.8949      2.00000
     43       7.8949      2.00000
     44       7.8949      2.00000
     45       8.6552      2.00000
     46       8.6552      2.00000
     47       8.6552      2.00000
     48       8.6552      2.00000
     49       9.3525      0.00000
     50       9.3525      0.00000
     51       9.3531      0.00000
     52       9.3531      0.00000
     53       9.3531      0.00000
     54       9.3531      0.00000
     55       9.3536      0.00000
     56       9.3536      0.00000
     57      11.1884      0.00000
     58      11.1884      0.00000
     59      11.1884      0.00000
     60      11.1884      0.00000
     61      11.6221      0.00000
     62      11.6221      0.00000
     63      11.6221      0.00000
     64      11.6221      0.00000
     65      12.6029      0.00000
     66      12.6035      0.00000
     67      12.6041      0.00000
     68      12.6043      0.00000

 k-point 195 :       0.4167    0.5000    0.5000
  band No.  band energies     occupation 
      1      -1.1679      2.00000
      2      -1.1679      2.00000
      3      -1.1679      2.00000
      4      -1.1679      2.00000
      5      -0.7715      2.00000
      6      -0.7715      2.00000
      7      -0.7715      2.00000
      8      -0.7714      2.00000
      9       3.1188      2.00000
     10       3.1189      2.00000
     11       3.1189      2.00000
     12       3.1189      2.00000
     13       3.4981      2.00000
     14       3.4981      2.00000
     15       3.4981      2.00000
     16       3.4981      2.00000
     17       3.4981      2.00000
     18       3.4981      2.00000
     19       3.4982      2.00000
     20       3.4982      2.00000
     21       3.8772      2.00000
     22       3.8772      2.00000
     23       3.8773      2.00000
     24       3.8773      2.00000
     25       3.8773      2.00000
     26       3.8773      2.00000
     27       3.8774      2.00000
     28       3.8774      2.00000
     29       4.2512      2.00000
     30       4.2512      2.00000
     31       4.2512      2.00000
     32       4.2513      2.00000
     33       7.6813      2.00000
     34       7.6813      2.00000
     35       7.6818      2.00000
     36       7.6818      2.00000
     37       7.6818      2.00000
     38       7.6818      2.00000
     39       7.6823      2.00000
     40       7.6823      2.00000
     41       8.0406      2.00000
     42       8.0406      2.00000
     43       8.0406      2.00000
     44       8.0406      2.00000
     45       8.4201      2.00000
     46       8.4201      2.00000
     47       8.4201      2.00000
     48       8.4201      2.00000
     49       8.7733      2.00000
     50       8.7733      2.00000
     51       8.7738      2.00000
     52       8.7738      2.00000
     53       8.7738      2.00000
     54       8.7739      2.00000
     55       8.7744      2.00000
     56       8.7744      2.00000
     57      12.0370      0.00000
     58      12.0371      0.00000
     59      12.0371      0.00000
     60      12.0371      0.00000
     61      12.1242      0.00000
     62      12.1242      0.00000
     63      12.1242      0.00000
     64      12.1242      0.00000
     65      12.7501      0.00000
     66      12.7506      0.00000
     67      12.7509      0.00000
     68      12.7510      0.00000

 k-point 196 :       0.5000    0.5000    0.5000
  band No.  band energies     occupation 
      1      -0.9911      2.00000
      2      -0.9865      2.00000
      3      -0.9865      2.00000
      4      -0.9861      2.00000
      5      -0.9860      2.00000
      6      -0.9855      2.00000
      7      -0.9855      2.00000
      8      -0.9810      2.00000
      9       3.6618      2.00000
     10       3.6679      2.00000
     11       3.6679      2.00000
     12       3.6713      2.00000
     13       3.6716      2.00000
     14       3.6717      2.00000
     15       3.6722      2.00000
     16       3.6722      2.00000
     17       3.6722      2.00000
     18       3.6722      2.00000
     19       3.6723      2.00000
     20       3.6723      2.00000
     21       3.6723      2.00000
     22       3.6723      2.00000
     23       3.6723      2.00000
     24       3.6723      2.00000
     25       3.6724      2.00000
     26       3.6724      2.00000
     27       3.6728      2.00000
     28       3.6729      2.00000
     29       3.6732      2.00000
     30       3.6767      2.00000
     31       3.6767      2.00000
     32       3.6827      2.00000
     33       8.2089      2.00000
     34       8.2089      2.00000
     35       8.2113      2.00000
     36       8.2128      2.00000
     37       8.2145      2.00000
     38       8.2150      2.00000
     39       8.2151      2.00000
     40       8.2151      2.00000
     41       8.2153      2.00000
     42       8.2153      2.00000
     43       8.2153      2.00000
     44       8.2153      2.00000
     45       8.2154      2.00000
     46       8.2154      2.00000
     47       8.2154      2.00000
     48       8.2154      2.00000
     49       8.2157      2.00000
     50       8.2157      2.00000
     51       8.2158      2.00000
     52       8.2162      2.00000
     53       8.2179      2.00000
     54       8.2194      2.00000
     55       8.2218      2.00000
     56       8.2218      2.00000
     57      12.6511      0.00000
     58      12.6517      0.00000
     59      12.6517      0.00000
     60      12.6520      0.00000
     61      12.6538      0.00000
     62      12.6542      0.00000
     63      12.6542      0.00000
     64      12.6548      0.00000
     65      12.9186      0.00000
     66      12.9194      0.00000
     67      12.9204      0.00000
     68      12.9220      0.00000


--------------------------------------------------------------------------------------------------------


 soft charge-density along one line, spin component           1
         0         1         2         3         4         5         6         7         8         9
 total charge-density along one line
 
 pseudopotential strength for first ion, spin component:           1
  8.413  -0.008  -0.000  -0.000  -0.000  -0.000  -0.000  -0.000
 -0.008   0.000  -0.000  -0.000  -0.000   0.000   0.000   0.000
 -0.000  -0.000   1.993  -0.000   0.000  -0.030   0.000  -0.000
 -0.000  -0.000  -0.000   1.993  -0.000   0.000  -0.030   0.000
 -0.000  -0.000   0.000  -0.000   1.993  -0.000   0.000  -0.030
 -0.000   0.000  -0.030   0.000  -0.000  -0.011   0.000  -0.000
 -0.000   0.000   0.000  -0.030   0.000   0.000  -0.011   0.000
 -0.000   0.000  -0.000   0.000  -0.030  -0.000   0.000  -0.011
 total augmentation occupancy for first ion, spin component:           1
  1.300  -0.587  -0.000   0.000   0.003   0.000  -0.000  -0.002
 -0.587   0.588   0.000   0.000  -0.004   0.000  -0.000   0.001
 -0.000   0.000   0.808   0.003   0.007  -0.173  -0.001  -0.001
  0.000   0.000   0.003   0.814  -0.001  -0.001  -0.170  -0.001
  0.003  -0.004   0.007  -0.001   0.811  -0.001  -0.001  -0.172
  0.000   0.000  -0.173  -0.001  -0.001   0.043   0.000   0.000
 -0.000  -0.000  -0.001  -0.170  -0.001   0.000   0.041   0.000
 -0.002   0.001  -0.001  -0.001  -0.172   0.000   0.000   0.042


------------------------ aborting loop because EDIFF is reached ----------------------------------------




--------------------------------------------------------------------------------------------------------


    CHARGE:  VPU time  112.28: CPU time  112.34
    FORLOC:  VPU time    0.34: CPU time    0.34
    FORNL :  VPU time  228.93: CPU time  229.03
    STRESS:  VPU time  802.61: CPU time  802.95
    FORCOR:  VPU time    2.17: CPU time    2.17
    FORHAR:  VPU time    0.83: CPU time    0.83
    MIXING:  VPU time    0.05: CPU time    0.05


--------------------------------------------------------------------------------------------------------



  FREE ENERGIE OF THE ION-ELECTRON SYSTEM (eV)
  ---------------------------------------------------
  free  energy   TOTEN  =      -118.653361 eV

  energy  without entropy=     -118.652490  energy(sigma->0) =     -118.652926
 

  FORCE on cell =-STRESS in cart. coord.  units (eV/reduce length):
  Direction    X        Y        Z        XY       YZ       ZX
  --------------------------------------------------------------------------------------
  Alpha Z     -7.16     -7.16     -7.16
  Ewald     -809.21   -809.21   -809.21      0.00      0.00     -0.00
  Hartree      1.33      1.33      1.33     -0.00     -0.00     -0.00
  E(xc)     -282.62   -282.62   -282.62      0.00     -0.00      0.00
  Local       23.63     23.63     23.63      0.00     -0.00     -0.00
  n-local    620.93    620.30    621.57     -1.54     -0.43      0.68
  augment    -31.34    -31.34    -31.34     -0.00     -0.00     -0.00
  Kinetic    511.18    504.02    518.34      6.43      0.31     -5.81
  -------------------------------------------------------------------------------------
  Total       26.73     26.73     26.73     -0.00      0.00      0.00
  in kB       89.14     89.15     89.15     -0.00      0.00      0.00
  external pressure =       89.15 kB  Pullay stress =        0.00 kB


 VOLUME and BASIS-vectors are now :
 -----------------------------------------------------------------------------
  energy-cutoff  :      750.00
  volume of cell :      480.49
      direct lattice vectors                 reciprocal lattice vectors
     7.832374357  0.000000000  0.000000000     0.127675205  0.000000000  0.000000000
     0.000000000  7.832374357  0.000000000     0.000000000  0.127675205  0.000000000
     0.000000000  0.000000000  7.832374357     0.000000000  0.000000000  0.127675205

  length of vectors
     7.832374357  7.832374357  7.832374357     0.127675205  0.127675205  0.127675205


 FORCES acting on ions
    electron-ion (+dipol)            ewald-force                    non-local-force                 convergence-correction
 -----------------------------------------------------------------------------------------------
   0.428E+00 -.948E-13 -.223E-08   -.350E+00 -.125E-13 -.224E-14   -.144E+00 0.108E-18 -.271E-19   -.626E-06 0.312E-14 0.500E-14
   -.919E-01 0.473E-12 0.115E-08   0.924E-01 -.516E-14 -.205E-14   0.241E-02 -.271E-19 0.932E-20   -.262E-06 0.429E-14 0.595E-14
   0.305E-01 0.629E-13 0.818E-12   -.293E-01 -.394E-14 -.222E-14   -.930E-03 0.136E-19 0.000E+00   -.121E-05 -.304E-14 0.619E-14
   -.222E-01 -.243E-12 0.119E-11   0.230E-01 -.394E-14 -.222E-14   0.522E-03 -.136E-19 0.000E+00   0.370E-06 -.411E-14 0.812E-14
   0.305E-01 0.672E-13 -.896E-11   -.293E-01 -.300E-14 -.547E-14   -.930E-03 0.000E+00 0.678E-20   -.120E-05 0.171E-14 -.181E-14
   -.222E-01 -.187E-12 -.886E-11   0.230E-01 -.300E-14 -.569E-14   0.522E-03 0.136E-19 0.339E-20   0.365E-06 0.190E-14 -.271E-14
   0.134E-01 -.121E-12 0.209E-12   -.121E-01 -.411E-14 -.619E-14   -.480E-03 0.136E-19 -.169E-20   -.232E-05 -.161E-14 -.297E-14
   -.109E-01 -.423E-12 0.384E-12   0.113E-01 -.411E-14 0.918E-15   -.102E-03 0.136E-19 0.000E+00   0.205E-05 -.173E-14 -.490E-14
   0.537E-01 -.268E-03 0.268E-03   -.552E-01 0.222E-03 -.222E-03   0.609E-03 0.665E-04 -.665E-04   -.131E-05 0.107E-06 -.107E-06
   -.325E-01 0.904E-04 -.904E-04   0.311E-01 -.664E-04 0.664E-04   0.165E-02 -.181E-04 0.181E-04   0.509E-06 0.582E-07 -.582E-07
   0.537E-01 0.268E-03 0.268E-03   -.552E-01 -.222E-03 -.222E-03   0.609E-03 -.665E-04 -.665E-04   -.131E-05 -.107E-06 -.107E-06
   -.325E-01 -.904E-04 -.904E-04   0.311E-01 0.664E-04 0.664E-04   0.165E-02 0.181E-04 0.181E-04   0.509E-06 -.582E-07 -.582E-07
   0.537E-01 -.268E-03 -.268E-03   -.552E-01 0.222E-03 0.222E-03   0.609E-03 0.665E-04 0.665E-04   -.131E-05 0.107E-06 0.107E-06
   -.325E-01 0.904E-04 0.904E-04   0.311E-01 -.664E-04 -.664E-04   0.165E-02 -.181E-04 -.181E-04   0.509E-06 0.582E-07 0.582E-07
   0.537E-01 0.268E-03 -.268E-03   -.552E-01 -.222E-03 0.222E-03   0.609E-03 -.665E-04 0.665E-04   -.131E-05 -.107E-06 0.107E-06
   -.325E-01 -.904E-04 0.904E-04   0.311E-01 0.664E-04 -.664E-04   0.165E-02 0.181E-04 -.181E-04   0.509E-06 -.582E-07 0.582E-07
   -.532E-01 -.854E-14 0.928E-01   0.447E-01 0.461E-14 -.847E-01   0.167E-01 0.136E-19 -.173E-01   0.472E-06 0.241E-14 0.184E-06
   -.530E-01 -.810E-13 -.937E-01   0.444E-01 0.405E-14 0.854E-01   0.170E-01 0.000E+00 0.178E-01   0.459E-06 0.201E-14 -.418E-06
   -.196E-02 -.179E-13 0.732E-02   0.149E-02 0.494E-14 -.701E-02   -.847E-04 0.000E+00 -.146E-03   0.255E-06 -.236E-14 0.659E-06
   -.185E-02 -.735E-13 -.732E-02   0.135E-02 0.661E-14 0.702E-02   -.655E-04 -.678E-20 0.141E-03   0.337E-06 -.174E-14 -.729E-06
   -.532E-01 -.102E-13 -.928E-01   0.447E-01 0.772E-14 0.847E-01   0.167E-01 0.000E+00 0.173E-01   0.472E-06 0.325E-14 -.184E-06
   -.530E-01 -.386E-13 0.937E-01   0.444E-01 0.405E-14 -.854E-01   0.170E-01 -.136E-19 -.178E-01   0.459E-06 0.332E-14 0.418E-06
   -.196E-02 -.212E-13 -.732E-02   0.149E-02 0.361E-14 0.701E-02   -.847E-04 0.000E+00 0.146E-03   0.255E-06 -.320E-14 -.659E-06
   -.185E-02 0.900E-13 0.732E-02   0.135E-02 0.305E-14 -.702E-02   -.655E-04 -.136E-19 -.141E-03   0.337E-06 -.304E-14 0.729E-06
   -.532E-01 -.928E-01 0.631E-11   0.447E-01 0.847E-01 0.327E-14   0.167E-01 0.173E-01 -.641E-20   0.473E-06 -.187E-06 0.633E-14
   -.530E-01 0.937E-01 0.662E-11   0.444E-01 -.854E-01 0.665E-14   0.170E-01 -.178E-01 0.000E+00   0.460E-06 0.421E-06 0.738E-14
   -.532E-01 0.928E-01 0.631E-11   0.447E-01 -.847E-01 0.304E-14   0.167E-01 -.173E-01 0.000E+00   0.473E-06 0.187E-06 0.548E-14
   -.530E-01 -.937E-01 0.626E-11   0.444E-01 0.854E-01 -.460E-15   0.170E-01 0.178E-01 0.614E-20   0.460E-06 -.421E-06 0.607E-14
   -.196E-02 -.732E-02 -.584E-12   0.149E-02 0.701E-02 0.207E-14   -.847E-04 0.146E-03 0.000E+00   0.254E-06 -.663E-06 -.313E-14
   -.185E-02 0.732E-02 -.690E-12   0.135E-02 -.702E-02 0.223E-14   -.655E-04 -.141E-03 0.000E+00   0.337E-06 0.732E-06 -.415E-14
   -.196E-02 0.732E-02 -.581E-12   0.149E-02 -.701E-02 0.162E-14   -.847E-04 -.146E-03 0.169E-20   0.254E-06 0.663E-06 -.229E-14
   -.185E-02 -.732E-02 -.635E-12   0.135E-02 0.702E-02 0.448E-15   -.655E-04 0.141E-03 0.136E-19   0.337E-06 -.732E-06 -.285E-14
 -----------------------------------------------------------------------------------------------
   0.993E-06 0.613E-13 -.109E-08   -.331E-14 -.178E-13 -.229E-14   -.916E-06 -.344E-17 -.139E-17   0.362E-07 -.158E-14 -.177E-14
 
 
 POSITION                                       TOTAL-FORCE (eV/Angst)
 -----------------------------------------------------------------------------------
      1.96809      1.95809      0.00000        -0.066066      0.000000      0.000000
      5.87428      1.95809      0.00000         0.002902      0.000000     -0.000000
      1.95809      5.87428      0.00000         0.000321      0.000000      0.000000
      5.87428      5.87428      0.00000         0.001360      0.000000      0.000000
      1.95809      1.95809      3.91619         0.000321      0.000000      0.000000
      5.87428      1.95809      3.91619         0.001360      0.000000      0.000000
      1.95809      5.87428      3.91619         0.000882      0.000000     -0.000000
      5.87428      5.87428      3.91619         0.000287     -0.000000     -0.000000
      1.95809      0.00000      1.95809        -0.000942      0.000020     -0.000020
      5.87428      0.00000      1.95809         0.000179      0.000006     -0.000006
      1.95809      3.91619      1.95809        -0.000942     -0.000020     -0.000020
      5.87428      3.91619      1.95809         0.000179     -0.000006     -0.000006
      1.95809      0.00000      5.87428        -0.000942      0.000020      0.000020
      5.87428      0.00000      5.87428         0.000179      0.000006      0.000006
      1.95809      3.91619      5.87428        -0.000942     -0.000020      0.000020
      5.87428      3.91619      5.87428         0.000179     -0.000006      0.000006
      0.00000      1.95809      1.95809         0.008164      0.000000     -0.009157
      3.91619      1.95809      1.95809         0.008378     -0.000000      0.009448
      0.00000      5.87428      1.95809        -0.000554     -0.000000      0.000165
      3.91619      5.87428      1.95809        -0.000566     -0.000000     -0.000167
      0.00000      1.95809      5.87428         0.008164      0.000000      0.009157
      3.91619      1.95809      5.87428         0.008378      0.000000     -0.009448
      0.00000      5.87428      5.87428        -0.000554     -0.000000     -0.000165
      3.91619      5.87428      5.87428        -0.000566     -0.000000      0.000167
      0.00000      0.00000      0.00000         0.008164      0.009157      0.000000
      3.91619      0.00000      0.00000         0.008378     -0.009448      0.000000
      0.00000      3.91619      0.00000         0.008164     -0.009157      0.000000
      3.91619      3.91619      0.00000         0.008378      0.009448     -0.000000
      0.00000      0.00000      3.91619        -0.000554     -0.000165      0.000000
      3.91619      0.00000      3.91619        -0.000566      0.000167     -0.000000
      0.00000      3.91619      3.91619        -0.000554      0.000165      0.000000
      3.91619      3.91619      3.91619        -0.000566     -0.000167      0.000000
 -----------------------------------------------------------------------------------
    total drift:                                0.000000      0.000000     -0.000000


--------------------------------------------------------------------------------------------------------



 mean value of Nose-termostat <S>:     1.000 mean value of <T> :     0.000
 mean temperature <T/S>/<1/S>  :     0.000

     LOOP+:  VPU time26689.94: CPU time26745.14
  
  
 General timing and accounting informations for this job:
 ========================================================
  
                  Total CPU time used (sec):    26929.632
                            User time (sec):    26024.018
                          System time (sec):      905.614
                         Elapsed time (sec):    26985.032
  
                   Maximum memory used (kb):     6906468.
                   Average memory used (kb):           0.
  
                          Minor page faults:      1300653
                          Major page faults:            0
                 Voluntary context switches:          896
