<?xml version="1.0" encoding="ISO-8859-1"?>
<modeling>
 <generator>
  <i name="program" type="string">vasp</i>
  <i name="version" type="string">4.6.28 </i>
  <i name="subversion" type="string">25Jul05 complex  parallel</i>
  <i name="platform" type="string">LinuxIFC</i>
  <i name="date" type="string">2016 11 12</i>
  <i name="time" type="string">12:40:56</i>
 </generator>
 <incar>
  <i type="string" name="PREC">accurate</i>
  <i type="int" name="IALGO">    38</i>
  <i type="logical" name="ADDGRID"> T  </i>
  <i name="EDIFF">      0.00000001</i>
  <i type="int" name="IBRION">    -1</i>
  <i name="ENCUT">    750.00000000</i>
  <i type="logical" name="LREAL"> F  </i>
  <i type="int" name="ISMEAR">     0</i>
  <i name="SIGMA">      0.01000000</i>
  <i type="logical" name="LWAVE"> F  </i>
  <i type="logical" name="LCHARG"> F  </i>
 </incar>
 <kpoints>
  <generation param="Gamma">
   <v type="int" name="divisions">      12      12      12</v>
   <v name="usershift">      0.00000000      0.00000000      0.00000000</v>
   <v name="genvec1">      0.08333333      0.00000000      0.00000000</v>
   <v name="genvec2">      0.00000000      0.08333333      0.00000000</v>
   <v name="genvec3">      0.00000000      0.00000000      0.08333333</v>
   <v name="shift">      0.00000000      0.00000000      0.00000000</v>
  </generation>
  <varray name="kpointlist" >
   <v>       0.00000000      0.00000000      0.00000000</v>
   <v>       0.08333333      0.00000000      0.00000000</v>
   <v>       0.16666667      0.00000000      0.00000000</v>
   <v>       0.25000000      0.00000000      0.00000000</v>
   <v>       0.33333333      0.00000000      0.00000000</v>
   <v>       0.41666667      0.00000000      0.00000000</v>
   <v>       0.50000000      0.00000000      0.00000000</v>
   <v>       0.00000000      0.08333333      0.00000000</v>
   <v>       0.08333333      0.08333333      0.00000000</v>
   <v>       0.16666667      0.08333333      0.00000000</v>
   <v>       0.25000000      0.08333333      0.00000000</v>
   <v>       0.33333333      0.08333333      0.00000000</v>
   <v>       0.41666667      0.08333333      0.00000000</v>
   <v>       0.50000000      0.08333333      0.00000000</v>
   <v>       0.00000000      0.16666667      0.00000000</v>
   <v>       0.08333333      0.16666667      0.00000000</v>
   <v>       0.16666667      0.16666667      0.00000000</v>
   <v>       0.25000000      0.16666667      0.00000000</v>
   <v>       0.33333333      0.16666667      0.00000000</v>
   <v>       0.41666667      0.16666667      0.00000000</v>
   <v>       0.50000000      0.16666667      0.00000000</v>
   <v>       0.00000000      0.25000000      0.00000000</v>
   <v>       0.08333333      0.25000000      0.00000000</v>
   <v>       0.16666667      0.25000000      0.00000000</v>
   <v>       0.25000000      0.25000000      0.00000000</v>
   <v>       0.33333333      0.25000000      0.00000000</v>
   <v>       0.41666667      0.25000000      0.00000000</v>
   <v>       0.50000000      0.25000000      0.00000000</v>
   <v>       0.00000000      0.33333333      0.00000000</v>
   <v>       0.08333333      0.33333333      0.00000000</v>
   <v>       0.16666667      0.33333333      0.00000000</v>
   <v>       0.25000000      0.33333333      0.00000000</v>
   <v>       0.33333333      0.33333333      0.00000000</v>
   <v>       0.41666667      0.33333333      0.00000000</v>
   <v>       0.50000000      0.33333333      0.00000000</v>
   <v>       0.00000000      0.41666667      0.00000000</v>
   <v>       0.08333333      0.41666667      0.00000000</v>
   <v>       0.16666667      0.41666667      0.00000000</v>
   <v>       0.25000000      0.41666667      0.00000000</v>
   <v>       0.33333333      0.41666667      0.00000000</v>
   <v>       0.41666667      0.41666667      0.00000000</v>
   <v>       0.50000000      0.41666667      0.00000000</v>
   <v>       0.00000000      0.50000000      0.00000000</v>
   <v>       0.08333333      0.50000000      0.00000000</v>
   <v>       0.16666667      0.50000000      0.00000000</v>
   <v>       0.25000000      0.50000000      0.00000000</v>
   <v>       0.33333333      0.50000000      0.00000000</v>
   <v>       0.41666667      0.50000000      0.00000000</v>
   <v>       0.50000000      0.50000000      0.00000000</v>
   <v>       0.00000000      0.08333333      0.08333333</v>
   <v>       0.08333333      0.08333333      0.08333333</v>
   <v>       0.16666667      0.08333333      0.08333333</v>
   <v>       0.25000000      0.08333333      0.08333333</v>
   <v>       0.33333333      0.08333333      0.08333333</v>
   <v>       0.41666667      0.08333333      0.08333333</v>
   <v>       0.50000000      0.08333333      0.08333333</v>
   <v>       0.00000000      0.16666667      0.08333333</v>
   <v>       0.08333333      0.16666667      0.08333333</v>
   <v>       0.16666667      0.16666667      0.08333333</v>
   <v>       0.25000000      0.16666667      0.08333333</v>
   <v>       0.33333333      0.16666667      0.08333333</v>
   <v>       0.41666667      0.16666667      0.08333333</v>
   <v>       0.50000000      0.16666667      0.08333333</v>
   <v>       0.00000000      0.25000000      0.08333333</v>
   <v>       0.08333333      0.25000000      0.08333333</v>
   <v>       0.16666667      0.25000000      0.08333333</v>
   <v>       0.25000000      0.25000000      0.08333333</v>
   <v>       0.33333333      0.25000000      0.08333333</v>
   <v>       0.41666667      0.25000000      0.08333333</v>
   <v>       0.50000000      0.25000000      0.08333333</v>
   <v>       0.00000000      0.33333333      0.08333333</v>
   <v>       0.08333333      0.33333333      0.08333333</v>
   <v>       0.16666667      0.33333333      0.08333333</v>
   <v>       0.25000000      0.33333333      0.08333333</v>
   <v>       0.33333333      0.33333333      0.08333333</v>
   <v>       0.41666667      0.33333333      0.08333333</v>
   <v>       0.50000000      0.33333333      0.08333333</v>
   <v>       0.00000000      0.41666667      0.08333333</v>
   <v>       0.08333333      0.41666667      0.08333333</v>
   <v>       0.16666667      0.41666667      0.08333333</v>
   <v>       0.25000000      0.41666667      0.08333333</v>
   <v>       0.33333333      0.41666667      0.08333333</v>
   <v>       0.41666667      0.41666667      0.08333333</v>
   <v>       0.50000000      0.41666667      0.08333333</v>
   <v>       0.00000000      0.50000000      0.08333333</v>
   <v>       0.08333333      0.50000000      0.08333333</v>
   <v>       0.16666667      0.50000000      0.08333333</v>
   <v>       0.25000000      0.50000000      0.08333333</v>
   <v>       0.33333333      0.50000000      0.08333333</v>
   <v>       0.41666667      0.50000000      0.08333333</v>
   <v>       0.50000000      0.50000000      0.08333333</v>
   <v>       0.00000000      0.16666667      0.16666667</v>
   <v>       0.08333333      0.16666667      0.16666667</v>
   <v>       0.16666667      0.16666667      0.16666667</v>
   <v>       0.25000000      0.16666667      0.16666667</v>
   <v>       0.33333333      0.16666667      0.16666667</v>
   <v>       0.41666667      0.16666667      0.16666667</v>
   <v>       0.50000000      0.16666667      0.16666667</v>
   <v>       0.00000000      0.25000000      0.16666667</v>
   <v>       0.08333333      0.25000000      0.16666667</v>
   <v>       0.16666667      0.25000000      0.16666667</v>
   <v>       0.25000000      0.25000000      0.16666667</v>
   <v>       0.33333333      0.25000000      0.16666667</v>
   <v>       0.41666667      0.25000000      0.16666667</v>
   <v>       0.50000000      0.25000000      0.16666667</v>
   <v>       0.00000000      0.33333333      0.16666667</v>
   <v>       0.08333333      0.33333333      0.16666667</v>
   <v>       0.16666667      0.33333333      0.16666667</v>
   <v>       0.25000000      0.33333333      0.16666667</v>
   <v>       0.33333333      0.33333333      0.16666667</v>
   <v>       0.41666667      0.33333333      0.16666667</v>
   <v>       0.50000000      0.33333333      0.16666667</v>
   <v>       0.00000000      0.41666667      0.16666667</v>
   <v>       0.08333333      0.41666667      0.16666667</v>
   <v>       0.16666667      0.41666667      0.16666667</v>
   <v>       0.25000000      0.41666667      0.16666667</v>
   <v>       0.33333333      0.41666667      0.16666667</v>
   <v>       0.41666667      0.41666667      0.16666667</v>
   <v>       0.50000000      0.41666667      0.16666667</v>
   <v>       0.00000000      0.50000000      0.16666667</v>
   <v>       0.08333333      0.50000000      0.16666667</v>
   <v>       0.16666667      0.50000000      0.16666667</v>
   <v>       0.25000000      0.50000000      0.16666667</v>
   <v>       0.33333333      0.50000000      0.16666667</v>
   <v>       0.41666667      0.50000000      0.16666667</v>
   <v>       0.50000000      0.50000000      0.16666667</v>
   <v>       0.00000000      0.25000000      0.25000000</v>
   <v>       0.08333333      0.25000000      0.25000000</v>
   <v>       0.16666667      0.25000000      0.25000000</v>
   <v>       0.25000000      0.25000000      0.25000000</v>
   <v>       0.33333333      0.25000000      0.25000000</v>
   <v>       0.41666667      0.25000000      0.25000000</v>
   <v>       0.50000000      0.25000000      0.25000000</v>
   <v>       0.00000000      0.33333333      0.25000000</v>
   <v>       0.08333333      0.33333333      0.25000000</v>
   <v>       0.16666667      0.33333333      0.25000000</v>
   <v>       0.25000000      0.33333333      0.25000000</v>
   <v>       0.33333333      0.33333333      0.25000000</v>
   <v>       0.41666667      0.33333333      0.25000000</v>
   <v>       0.50000000      0.33333333      0.25000000</v>
   <v>       0.00000000      0.41666667      0.25000000</v>
   <v>       0.08333333      0.41666667      0.25000000</v>
   <v>       0.16666667      0.41666667      0.25000000</v>
   <v>       0.25000000      0.41666667      0.25000000</v>
   <v>       0.33333333      0.41666667      0.25000000</v>
   <v>       0.41666667      0.41666667      0.25000000</v>
   <v>       0.50000000      0.41666667      0.25000000</v>
   <v>       0.00000000      0.50000000      0.25000000</v>
   <v>       0.08333333      0.50000000      0.25000000</v>
   <v>       0.16666667      0.50000000      0.25000000</v>
   <v>       0.25000000      0.50000000      0.25000000</v>
   <v>       0.33333333      0.50000000      0.25000000</v>
   <v>       0.41666667      0.50000000      0.25000000</v>
   <v>       0.50000000      0.50000000      0.25000000</v>
   <v>       0.00000000      0.33333333      0.33333333</v>
   <v>       0.08333333      0.33333333      0.33333333</v>
   <v>       0.16666667      0.33333333      0.33333333</v>
   <v>       0.25000000      0.33333333      0.33333333</v>
   <v>       0.33333333      0.33333333      0.33333333</v>
   <v>       0.41666667      0.33333333      0.33333333</v>
   <v>       0.50000000      0.33333333      0.33333333</v>
   <v>       0.00000000      0.41666667      0.33333333</v>
   <v>       0.08333333      0.41666667      0.33333333</v>
   <v>       0.16666667      0.41666667      0.33333333</v>
   <v>       0.25000000      0.41666667      0.33333333</v>
   <v>       0.33333333      0.41666667      0.33333333</v>
   <v>       0.41666667      0.41666667      0.33333333</v>
   <v>       0.50000000      0.41666667      0.33333333</v>
   <v>       0.00000000      0.50000000      0.33333333</v>
   <v>       0.08333333      0.50000000      0.33333333</v>
   <v>       0.16666667      0.50000000      0.33333333</v>
   <v>       0.25000000      0.50000000      0.33333333</v>
   <v>       0.33333333      0.50000000      0.33333333</v>
   <v>       0.41666667      0.50000000      0.33333333</v>
   <v>       0.50000000      0.50000000      0.33333333</v>
   <v>       0.00000000      0.41666667      0.41666667</v>
   <v>       0.08333333      0.41666667      0.41666667</v>
   <v>       0.16666667      0.41666667      0.41666667</v>
   <v>       0.25000000      0.41666667      0.41666667</v>
   <v>       0.33333333      0.41666667      0.41666667</v>
   <v>       0.41666667      0.41666667      0.41666667</v>
   <v>       0.50000000      0.41666667      0.41666667</v>
   <v>       0.00000000      0.50000000      0.41666667</v>
   <v>       0.08333333      0.50000000      0.41666667</v>
   <v>       0.16666667      0.50000000      0.41666667</v>
   <v>       0.25000000      0.50000000      0.41666667</v>
   <v>       0.33333333      0.50000000      0.41666667</v>
   <v>       0.41666667      0.50000000      0.41666667</v>
   <v>       0.50000000      0.50000000      0.41666667</v>
   <v>       0.00000000      0.50000000      0.50000000</v>
   <v>       0.08333333      0.50000000      0.50000000</v>
   <v>       0.16666667      0.50000000      0.50000000</v>
   <v>       0.25000000      0.50000000      0.50000000</v>
   <v>       0.33333333      0.50000000      0.50000000</v>
   <v>       0.41666667      0.50000000      0.50000000</v>
   <v>       0.50000000      0.50000000      0.50000000</v>
  </varray>
  <varray name="weights" >
   <v>       0.00057870</v>
   <v>       0.00115741</v>
   <v>       0.00115741</v>
   <v>       0.00115741</v>
   <v>       0.00115741</v>
   <v>       0.00115741</v>
   <v>       0.00057870</v>
   <v>       0.00231481</v>
   <v>       0.00462963</v>
   <v>       0.00462963</v>
   <v>       0.00462963</v>
   <v>       0.00462963</v>
   <v>       0.00462963</v>
   <v>       0.00231481</v>
   <v>       0.00231481</v>
   <v>       0.00462963</v>
   <v>       0.00462963</v>
   <v>       0.00462963</v>
   <v>       0.00462963</v>
   <v>       0.00462963</v>
   <v>       0.00231481</v>
   <v>       0.00231481</v>
   <v>       0.00462963</v>
   <v>       0.00462963</v>
   <v>       0.00462963</v>
   <v>       0.00462963</v>
   <v>       0.00462963</v>
   <v>       0.00231481</v>
   <v>       0.00231481</v>
   <v>       0.00462963</v>
   <v>       0.00462963</v>
   <v>       0.00462963</v>
   <v>       0.00462963</v>
   <v>       0.00462963</v>
   <v>       0.00231481</v>
   <v>       0.00231481</v>
   <v>       0.00462963</v>
   <v>       0.00462963</v>
   <v>       0.00462963</v>
   <v>       0.00462963</v>
   <v>       0.00462963</v>
   <v>       0.00231481</v>
   <v>       0.00115741</v>
   <v>       0.00231481</v>
   <v>       0.00231481</v>
   <v>       0.00231481</v>
   <v>       0.00231481</v>
   <v>       0.00231481</v>
   <v>       0.00115741</v>
   <v>       0.00231481</v>
   <v>       0.00462963</v>
   <v>       0.00462963</v>
   <v>       0.00462963</v>
   <v>       0.00462963</v>
   <v>       0.00462963</v>
   <v>       0.00231481</v>
   <v>       0.00462963</v>
   <v>       0.00925926</v>
   <v>       0.00925926</v>
   <v>       0.00925926</v>
   <v>       0.00925926</v>
   <v>       0.00925926</v>
   <v>       0.00462963</v>
   <v>       0.00462963</v>
   <v>       0.00925926</v>
   <v>       0.00925926</v>
   <v>       0.00925926</v>
   <v>       0.00925926</v>
   <v>       0.00925926</v>
   <v>       0.00462963</v>
   <v>       0.00462963</v>
   <v>       0.00925926</v>
   <v>       0.00925926</v>
   <v>       0.00925926</v>
   <v>       0.00925926</v>
   <v>       0.00925926</v>
   <v>       0.00462963</v>
   <v>       0.00462963</v>
   <v>       0.00925926</v>
   <v>       0.00925926</v>
   <v>       0.00925926</v>
   <v>       0.00925926</v>
   <v>       0.00925926</v>
   <v>       0.00462963</v>
   <v>       0.00231481</v>
   <v>       0.00462963</v>
   <v>       0.00462963</v>
   <v>       0.00462963</v>
   <v>       0.00462963</v>
   <v>       0.00462963</v>
   <v>       0.00231481</v>
   <v>       0.00231481</v>
   <v>       0.00462963</v>
   <v>       0.00462963</v>
   <v>       0.00462963</v>
   <v>       0.00462963</v>
   <v>       0.00462963</v>
   <v>       0.00231481</v>
   <v>       0.00462963</v>
   <v>       0.00925926</v>
   <v>       0.00925926</v>
   <v>       0.00925926</v>
   <v>       0.00925926</v>
   <v>       0.00925926</v>
   <v>       0.00462963</v>
   <v>       0.00462963</v>
   <v>       0.00925926</v>
   <v>       0.00925926</v>
   <v>       0.00925926</v>
   <v>       0.00925926</v>
   <v>       0.00925926</v>
   <v>       0.00462963</v>
   <v>       0.00462963</v>
   <v>       0.00925926</v>
   <v>       0.00925926</v>
   <v>       0.00925926</v>
   <v>       0.00925926</v>
   <v>       0.00925926</v>
   <v>       0.00462963</v>
   <v>       0.00231481</v>
   <v>       0.00462963</v>
   <v>       0.00462963</v>
   <v>       0.00462963</v>
   <v>       0.00462963</v>
   <v>       0.00462963</v>
   <v>       0.00231481</v>
   <v>       0.00231481</v>
   <v>       0.00462963</v>
   <v>       0.00462963</v>
   <v>       0.00462963</v>
   <v>       0.00462963</v>
   <v>       0.00462963</v>
   <v>       0.00231481</v>
   <v>       0.00462963</v>
   <v>       0.00925926</v>
   <v>       0.00925926</v>
   <v>       0.00925926</v>
   <v>       0.00925926</v>
   <v>       0.00925926</v>
   <v>       0.00462963</v>
   <v>       0.00462963</v>
   <v>       0.00925926</v>
   <v>       0.00925926</v>
   <v>       0.00925926</v>
   <v>       0.00925926</v>
   <v>       0.00925926</v>
   <v>       0.00462963</v>
   <v>       0.00231481</v>
   <v>       0.00462963</v>
   <v>       0.00462963</v>
   <v>       0.00462963</v>
   <v>       0.00462963</v>
   <v>       0.00462963</v>
   <v>       0.00231481</v>
   <v>       0.00231481</v>
   <v>       0.00462963</v>
   <v>       0.00462963</v>
   <v>       0.00462963</v>
   <v>       0.00462963</v>
   <v>       0.00462963</v>
   <v>       0.00231481</v>
   <v>       0.00462963</v>
   <v>       0.00925926</v>
   <v>       0.00925926</v>
   <v>       0.00925926</v>
   <v>       0.00925926</v>
   <v>       0.00925926</v>
   <v>       0.00462963</v>
   <v>       0.00231481</v>
   <v>       0.00462963</v>
   <v>       0.00462963</v>
   <v>       0.00462963</v>
   <v>       0.00462963</v>
   <v>       0.00462963</v>
   <v>       0.00231481</v>
   <v>       0.00231481</v>
   <v>       0.00462963</v>
   <v>       0.00462963</v>
   <v>       0.00462963</v>
   <v>       0.00462963</v>
   <v>       0.00462963</v>
   <v>       0.00231481</v>
   <v>       0.00231481</v>
   <v>       0.00462963</v>
   <v>       0.00462963</v>
   <v>       0.00462963</v>
   <v>       0.00462963</v>
   <v>       0.00462963</v>
   <v>       0.00231481</v>
   <v>       0.00057870</v>
   <v>       0.00115741</v>
   <v>       0.00115741</v>
   <v>       0.00115741</v>
   <v>       0.00115741</v>
   <v>       0.00115741</v>
   <v>       0.00057870</v>
  </varray>
 </kpoints>
 <parameters>
  <separator name="general" >
   <i type="string" name="SYSTEM">unknown system</i>
   <i type="logical" name="LCOMPAT"> F  </i>
  </separator>
  <separator name="electronic" >
   <i type="string" name="PREC">accura</i>
   <i name="ENMAX">    750.00000000</i>
   <i name="ENAUG">    291.05200000</i>
   <i name="EDIFF">      0.00000001</i>
   <i type="int" name="IALGO">    38</i>
   <i type="int" name="IWAVPR">    10</i>
   <i type="int" name="NBANDS">    65</i>
   <i name="NELECT">     96.00000000</i>
   <separator name="electronic smearing" >
    <i type="int" name="ISMEAR">     0</i>
    <i name="SIGMA">      0.01000000</i>
   </separator>
   <separator name="electronic projectors" >
    <i type="logical" name="LREAL"> F  </i>
    <v name="ROPT">      0.00000000</v>
    <i type="int" name="LMAXPAW">  -100</i>
    <i type="int" name="LMAXMIX">     2</i>
   </separator>
   <separator name="electronic startup" >
    <i type="int" name="ISTART">     0</i>
    <i type="int" name="ICHARG">     2</i>
    <i type="int" name="INIWAV">     1</i>
   </separator>
   <separator name="electronic spin" >
    <i type="int" name="ISPIN">     1</i>
    <i type="logical" name="LNONCOLLINEAR"> F  </i>
    <v name="MAGMOM">      1.00000000      1.00000000      1.00000000      1.00000000      1.00000000      1.00000000      1.00000000      1.00000000      1.00000000      1.00000000      1.00000000      1.00000000      1.00000000      1.00000000      1.00000000      1.00000000      1.00000000      1.00000000      1.00000000      1.00000000
      1.00000000      1.00000000      1.00000000      1.00000000      1.00000000      1.00000000      1.00000000      1.00000000      1.00000000      1.00000000      1.00000000      1.00000000</v>
    <i name="NUPDOWN">     -1.00000000</i>
    <i type="logical" name="LSORBIT"> F  </i>
    <v name="SAXIS">      0.00000000      0.00000000      1.00000000</v>
    <i type="logical" name="LSPIRAL"> F  </i>
    <v name="QSPIRAL">      0.00000000      0.00000000      0.00000000</v>
    <i type="logical" name="LZEROZ"> F  </i>
   </separator>
   <separator name="electronic exchange-correlation" >
    <i type="string" name="GGA">--</i>
    <i type="int" name="VOSKOWN">     0</i>
    <i type="logical" name="LASPH"> F  </i>
    <i type="logical" name="LMETAGGA"> F  </i>
    <i type="string" name="GGA2">--</i>
   </separator>
   <separator name="electronic convergence" >
    <i type="int" name="NELM">    60</i>
    <i type="int" name="NELMDL">     0</i>
    <i type="int" name="NELMIN">     2</i>
    <i name="ENINI">    750.00000000</i>
    <separator name="electronic convergence detail" >
     <i type="logical" name="LDIAG"> T  </i>
     <i name="WEIMIN">      0.00000000</i>
     <i name="EBREAK">      0.00000000</i>
     <i name="DEPER">      0.30000000</i>
     <i type="int" name="NRMM">     4</i>
     <i name="TIME">      0.10000000</i>
    </separator>
   </separator>
   <separator name="electronic mixer" >
    <i name="AMIX">      0.40000000</i>
    <i name="BMIX">      1.00000000</i>
    <i name="AMIN">      0.10000000</i>
    <i name="AMIX_MAG">      1.60000000</i>
    <i name="BMIX_MAG">      1.00000000</i>
    <separator name="electronic mixer details" >
     <i type="int" name="IMIX">     4</i>
     <i type="int" name="MAXMIX">   -45</i>
     <i name="WC">    100.00000000</i>
     <i type="int" name="INIMIX">     1</i>
     <i type="int" name="MIXPRE">     1</i>
     <i type="int" name="MREMOVE">     5</i>
    </separator>
   </separator>
   <separator name="electronic dipolcorrection" >
    <i type="int" name="IDIPOL">     0</i>
    <i type="logical" name="LDIPOL"> F  </i>
    <v name="DIPOL">   -100.00000000</v>
    <i name="EFIELD">      0.00000000</i>
   </separator>
  </separator>
  <separator name="grids" >
   <i type="int" name="NGX">    70</i>
   <i type="int" name="NGY">    70</i>
   <i type="int" name="NGZ">    70</i>
   <i type="int" name="NGXF">   140</i>
   <i type="int" name="NGYF">   140</i>
   <i type="int" name="NGZF">   140</i>
   <i type="logical" name="ADDGRID"> T  </i>
  </separator>
  <separator name="ionic" >
   <i type="int" name="NSW">     0</i>
   <i type="int" name="IBRION">    -1</i>
   <i type="int" name="ISIF">     2</i>
   <i name="PSTRESS">      0.00000000</i>
   <i name="EDIFFG">      0.00000010</i>
   <i type="int" name="NFREE">     0</i>
   <i name="POTIM">      0.50000000</i>
   <i name="SMASS">     -3.00000000</i>
  </separator>
  <separator name="ionic md" >
   <i name="TEBEG">      0.00010000</i>
   <i name="TEEND">      0.00010000</i>
   <i type="int" name="NBLOCK">     1</i>
   <i type="int" name="KBLOCK">     1</i>
   <i type="int" name="NPACO">   256</i>
   <i name="APACO">     16.00000000</i>
  </separator>
  <separator name="symmetry" >
   <i type="int" name="ISYM">     2</i>
   <i name="SYMPREC">      0.00001000</i>
  </separator>
  <separator name="dos" >
   <i type="logical" name="LORBIT"> F  </i>
   <v name="RWIGS">     -1.00000000</v>
   <i type="int" name="NEDOS">   301</i>
   <i name="EMIN">     10.00000000</i>
   <i name="EMAX">    -10.00000000</i>
  </separator>
  <separator name="writing" >
   <i type="int" name="NWRITE">     2</i>
   <i type="logical" name="LWAVE"> F  </i>
   <i type="logical" name="LCHARG"> F  </i>
   <i type="logical" name="LPARD"> F  </i>
   <i type="logical" name="LVTOT"> F  </i>
   <i type="logical" name="LELF"> F  </i>
   <i type="logical" name="LOPTICS"> F  </i>
   <i name="STM">      0.00000000</i>
  </separator>
  <separator name="performance" >
   <i type="int" name="NPAR">     4</i>
   <i type="int" name="NSIM">     4</i>
   <i type="int" name="NBLK">   256</i>
   <i type="logical" name="LPLANE"> T  </i>
   <i type="logical" name="LCRITICAL_MEM"> F  </i>
   <i type="logical" name="LSCALAPACK"> F  </i>
   <i type="logical" name="LSCALU"> F  </i>
   <i type="logical" name="LASYNC"> F  </i>
  </separator>
  <separator name="miscellaneous" >
   <i type="int" name="IDIOT">     3</i>
   <i type="logical" name="LMUSIC"> F  </i>
   <v name="POMASS">     26.98200000</v>
   <i type="logical" name="LCORR"> T  </i>
  </separator>
  <i type="logical" name="LREAL_COMPAT"> F  </i>
  <i type="logical" name="GGA_COMPAT"> T  </i>
  <i type="logical" name="LBERRY"> F  </i>
  <i type="int" name="ICORELEVEL">     0</i>
  <i type="logical" name="LDAU"> F  </i>
  <i type="int" name="I_CONSTRAINED_M">     0</i>
 </parameters>
 <atominfo>
  <atoms>      32</atoms>
  <types>       1</types>
  <array name="atoms" >
   <dimension dim="1">ion</dimension>
   <field type="string">element</field>
   <field type="int">atomtype</field>
   <set>
    <rc><c>Al</c><c>   1</c></rc>
    <rc><c>Al</c><c>   1</c></rc>
    <rc><c>Al</c><c>   1</c></rc>
    <rc><c>Al</c><c>   1</c></rc>
    <rc><c>Al</c><c>   1</c></rc>
    <rc><c>Al</c><c>   1</c></rc>
    <rc><c>Al</c><c>   1</c></rc>
    <rc><c>Al</c><c>   1</c></rc>
    <rc><c>Al</c><c>   1</c></rc>
    <rc><c>Al</c><c>   1</c></rc>
    <rc><c>Al</c><c>   1</c></rc>
    <rc><c>Al</c><c>   1</c></rc>
    <rc><c>Al</c><c>   1</c></rc>
    <rc><c>Al</c><c>   1</c></rc>
    <rc><c>Al</c><c>   1</c></rc>
    <rc><c>Al</c><c>   1</c></rc>
    <rc><c>Al</c><c>   1</c></rc>
    <rc><c>Al</c><c>   1</c></rc>
    <rc><c>Al</c><c>   1</c></rc>
    <rc><c>Al</c><c>   1</c></rc>
    <rc><c>Al</c><c>   1</c></rc>
    <rc><c>Al</c><c>   1</c></rc>
    <rc><c>Al</c><c>   1</c></rc>
    <rc><c>Al</c><c>   1</c></rc>
    <rc><c>Al</c><c>   1</c></rc>
    <rc><c>Al</c><c>   1</c></rc>
    <rc><c>Al</c><c>   1</c></rc>
    <rc><c>Al</c><c>   1</c></rc>
    <rc><c>Al</c><c>   1</c></rc>
    <rc><c>Al</c><c>   1</c></rc>
    <rc><c>Al</c><c>   1</c></rc>
    <rc><c>Al</c><c>   1</c></rc>
   </set>
  </array>
  <array name="atomtypes" >
   <dimension dim="1">type</dimension>
   <field type="int">atomspertype</field>
   <field type="string">element</field>
   <field>mass</field>
   <field>valence</field>
   <field type="string">pseudopotential</field>
   <set>
    <rc><c>  32</c><c>Al</c><c>     26.98200000</c><c>      3.00000000</c><c> PAW_PBE Al 04Jan2001                   </c></rc>
   </set>
  </array>
 </atominfo>
 <structure name="initialpos" >
  <crystal>
   <varray name="basis" >
    <v>       7.83237436      0.00000000      0.00000000</v>
    <v>       0.00000000      7.83237436      0.00000000</v>
    <v>       0.00000000      0.00000000      7.83237436</v>
   </varray>
   <i name="volume">    480.48552712</i>
   <varray name="rec_basis" >
    <v>       0.12767520      0.00000000      0.00000000</v>
    <v>       0.00000000      0.12767520      0.00000000</v>
    <v>       0.00000000      0.00000000      0.12767520</v>
   </varray>
  </crystal>
  <varray name="positions" >
   <v>       0.25127675      0.25000000      0.00000000</v>
   <v>       0.75000000      0.25000000      0.00000000</v>
   <v>       0.25000000      0.75000000      0.00000000</v>
   <v>       0.75000000      0.75000000      0.00000000</v>
   <v>       0.25000000      0.25000000      0.50000000</v>
   <v>       0.75000000      0.25000000      0.50000000</v>
   <v>       0.25000000      0.75000000      0.50000000</v>
   <v>       0.75000000      0.75000000      0.50000000</v>
   <v>       0.25000000      0.00000000      0.25000000</v>
   <v>       0.75000000      0.00000000      0.25000000</v>
   <v>       0.25000000      0.50000000      0.25000000</v>
   <v>       0.75000000      0.50000000      0.25000000</v>
   <v>       0.25000000      0.00000000      0.75000000</v>
   <v>       0.75000000      0.00000000      0.75000000</v>
   <v>       0.25000000      0.50000000      0.75000000</v>
   <v>       0.75000000      0.50000000      0.75000000</v>
   <v>       0.00000000      0.25000000      0.25000000</v>
   <v>       0.50000000      0.25000000      0.25000000</v>
   <v>       0.00000000      0.75000000      0.25000000</v>
   <v>       0.50000000      0.75000000      0.25000000</v>
   <v>       0.00000000      0.25000000      0.75000000</v>
   <v>       0.50000000      0.25000000      0.75000000</v>
   <v>       0.00000000      0.75000000      0.75000000</v>
   <v>       0.50000000      0.75000000      0.75000000</v>
   <v>       0.00000000      0.00000000      0.00000000</v>
   <v>       0.50000000      0.00000000      0.00000000</v>
   <v>       0.00000000      0.50000000      0.00000000</v>
   <v>       0.50000000      0.50000000      0.00000000</v>
   <v>       0.00000000      0.00000000      0.50000000</v>
   <v>       0.50000000      0.00000000      0.50000000</v>
   <v>       0.00000000      0.50000000      0.50000000</v>
   <v>       0.50000000      0.50000000      0.50000000</v>
  </varray>
 </structure>
 <calculation>
  <scstep>
   <time name="dav"> 1716.34 1717.81</time>
   <time name="total"> 1720.84 1722.32</time>
   <energy>
    <i name="alphaZ">     -7.15822495</i>
    <i name="ewald">  -2427.62240689</i>
    <i name="hartreedc">     -2.39603461</i>
    <i name="XCdc">   -834.14651111</i>
    <i name="pawpsdc">   1137.73615723</i>
    <i name="pawaedc">   -115.16745734</i>
    <i name="eentropy">     -0.00025804</i>
    <i name="bandstr">    733.32719955</i>
    <i name="atom">   1713.23509266</i>
    <i name="e_fr_energy">    197.80755651</i>
    <i name="e_wo_entrp">    197.80781454</i>
    <i name="e_0_energy">    197.80768553</i>
   </energy>
  </scstep>
  <scstep>
   <time name="dav"> 1918.02 1924.88</time>
   <time name="total"> 1918.08 1924.94</time>
   <energy>
    <i name="e_fr_energy">   -100.74633447</i>
    <i name="e_wo_entrp">   -100.74588760</i>
    <i name="e_0_energy">   -100.74611104</i>
   </energy>
  </scstep>
  <scstep>
   <time name="dav"> 2000.55 2005.97</time>
   <time name="total"> 2000.61 2006.02</time>
   <energy>
    <i name="e_fr_energy">   -118.99860687</i>
    <i name="e_wo_entrp">   -118.99784745</i>
    <i name="e_0_energy">   -118.99822716</i>
   </energy>
  </scstep>
  <scstep>
   <time name="dav"> 1856.37 1857.99</time>
   <time name="total"> 1856.42 1858.05</time>
   <energy>
    <i name="e_fr_energy">   -119.43670397</i>
    <i name="e_wo_entrp">   -119.43584545</i>
    <i name="e_0_energy">   -119.43627471</i>
   </energy>
  </scstep>
  <scstep>
   <time name="dav"> 1685.47 1698.06</time>
   <time name="total"> 1797.93 1811.00</time>
   <energy>
    <i name="e_fr_energy">   -119.44208774</i>
    <i name="e_wo_entrp">   -119.44122608</i>
    <i name="e_0_energy">   -119.44165691</i>
   </energy>
  </scstep>
  <scstep>
   <time name="dav"> 1709.86 1718.28</time>
   <time name="total"> 1825.79 1834.76</time>
   <energy>
    <i name="e_fr_energy">   -118.98514066</i>
    <i name="e_wo_entrp">   -118.98433161</i>
    <i name="e_0_energy">   -118.98473614</i>
   </energy>
  </scstep>
  <scstep>
   <time name="dav"> 1658.57 1662.02</time>
   <time name="total"> 1778.74 1782.47</time>
   <energy>
    <i name="e_fr_energy">   -118.65310107</i>
    <i name="e_wo_entrp">   -118.65223264</i>
    <i name="e_0_energy">   -118.65266685</i>
   </energy>
  </scstep>
  <scstep>
   <time name="dav"> 1779.62 1783.55</time>
   <time name="total"> 1900.25 1904.46</time>
   <energy>
    <i name="e_fr_energy">   -118.65332442</i>
    <i name="e_wo_entrp">   -118.65245560</i>
    <i name="e_0_energy">   -118.65289001</i>
   </energy>
  </scstep>
  <scstep>
   <time name="dav"> 1734.67 1739.49</time>
   <time name="total"> 1854.83 1859.91</time>
   <energy>
    <i name="e_fr_energy">   -118.65336077</i>
    <i name="e_wo_entrp">   -118.65249057</i>
    <i name="e_0_energy">   -118.65292567</i>
   </energy>
  </scstep>
  <scstep>
   <time name="dav"> 1765.29 1766.12</time>
   <time name="total"> 1881.31 1882.21</time>
   <energy>
    <i name="e_fr_energy">   -118.65336346</i>
    <i name="e_wo_entrp">   -118.65249316</i>
    <i name="e_0_energy">   -118.65292831</i>
   </energy>
  </scstep>
  <scstep>
   <time name="dav"> 1740.90 1741.72</time>
   <time name="total"> 1861.49 1862.38</time>
   <energy>
    <i name="e_fr_energy">   -118.65336167</i>
    <i name="e_wo_entrp">   -118.65249132</i>
    <i name="e_0_energy">   -118.65292650</i>
   </energy>
  </scstep>
  <scstep>
   <time name="dav"> 1316.11 1316.74</time>
   <time name="total"> 1431.70 1432.37</time>
   <energy>
    <i name="e_fr_energy">   -118.65336093</i>
    <i name="e_wo_entrp">   -118.65249058</i>
    <i name="e_0_energy">   -118.65292575</i>
   </energy>
  </scstep>
  <scstep>
   <time name="dav"> 1175.55 1176.11</time>
   <time name="total"> 1291.39 1292.02</time>
   <energy>
    <i name="e_fr_energy">   -118.65336078</i>
    <i name="e_wo_entrp">   -118.65249044</i>
    <i name="e_0_energy">   -118.65292561</i>
   </energy>
  </scstep>
  <scstep>
   <time name="dav"> 1153.60 1154.14</time>
   <time name="total"> 1275.75 1276.37</time>
   <energy>
    <i name="e_fr_energy">   -118.65336077</i>
    <i name="e_wo_entrp">   -118.65249043</i>
    <i name="e_0_energy">   -118.65292560</i>
   </energy>
  </scstep>
  <scstep>
   <time name="dav"> 1142.87 1143.41</time>
   <time name="total"> 1147.27 1147.82</time>
   <energy>
    <i name="alphaZ">     -7.15822495</i>
    <i name="ewald">  -2427.62240689</i>
    <i name="hartreedc">     -3.99575664</i>
    <i name="XCdc">   -829.95348955</i>
    <i name="pawpsdc">   1151.97149455</i>
    <i name="pawaedc">   -130.36435581</i>
    <i name="eentropy">     -0.00087034</i>
    <i name="bandstr">    415.23515619</i>
    <i name="atom">   1713.23509266</i>
    <i name="e_fr_energy">   -118.65336077</i>
    <i name="e_wo_entrp">   -118.65249043</i>
    <i name="e_0_energy">   -118.65292560</i>
   </energy>
  </scstep>
  <structure>
   <crystal>
    <varray name="basis" >
     <v>       7.83237436      0.00000000      0.00000000</v>
     <v>       0.00000000      7.83237436      0.00000000</v>
     <v>       0.00000000      0.00000000      7.83237436</v>
    </varray>
    <i name="volume">    480.48552712</i>
    <varray name="rec_basis" >
     <v>       0.12767520      0.00000000      0.00000000</v>
     <v>       0.00000000      0.12767520      0.00000000</v>
     <v>       0.00000000      0.00000000      0.12767520</v>
    </varray>
   </crystal>
   <varray name="positions" >
    <v>       0.25127675      0.25000000      0.00000000</v>
    <v>       0.75000000      0.25000000      0.00000000</v>
    <v>       0.25000000      0.75000000      0.00000000</v>
    <v>       0.75000000      0.75000000      0.00000000</v>
    <v>       0.25000000      0.25000000      0.50000000</v>
    <v>       0.75000000      0.25000000      0.50000000</v>
    <v>       0.25000000      0.75000000      0.50000000</v>
    <v>       0.75000000      0.75000000      0.50000000</v>
    <v>       0.25000000      0.00000000      0.25000000</v>
    <v>       0.75000000      0.00000000      0.25000000</v>
    <v>       0.25000000      0.50000000      0.25000000</v>
    <v>       0.75000000      0.50000000      0.25000000</v>
    <v>       0.25000000      0.00000000      0.75000000</v>
    <v>       0.75000000      0.00000000      0.75000000</v>
    <v>       0.25000000      0.50000000      0.75000000</v>
    <v>       0.75000000      0.50000000      0.75000000</v>
    <v>       0.00000000      0.25000000      0.25000000</v>
    <v>       0.50000000      0.25000000      0.25000000</v>
    <v>       0.00000000      0.75000000      0.25000000</v>
    <v>       0.50000000      0.75000000      0.25000000</v>
    <v>       0.00000000      0.25000000      0.75000000</v>
    <v>       0.50000000      0.25000000      0.75000000</v>
    <v>       0.00000000      0.75000000      0.75000000</v>
    <v>       0.50000000      0.75000000      0.75000000</v>
    <v>       0.00000000      0.00000000      0.00000000</v>
    <v>       0.50000000      0.00000000      0.00000000</v>
    <v>       0.00000000      0.50000000      0.00000000</v>
    <v>       0.50000000      0.50000000      0.00000000</v>
    <v>       0.00000000      0.00000000      0.50000000</v>
    <v>       0.50000000      0.00000000      0.50000000</v>
    <v>       0.00000000      0.50000000      0.50000000</v>
    <v>       0.50000000      0.50000000      0.50000000</v>
   </varray>
  </structure>
  <varray name="forces" >
   <v>      -0.06606596      0.00000000      0.00000000</v>
   <v>       0.00290188      0.00000000     -0.00000000</v>
   <v>       0.00032095      0.00000000      0.00000000</v>
   <v>       0.00136011      0.00000000      0.00000000</v>
   <v>       0.00032095      0.00000000      0.00000000</v>
   <v>       0.00136011      0.00000000      0.00000000</v>
   <v>       0.00088167      0.00000000     -0.00000000</v>
   <v>       0.00028714     -0.00000000     -0.00000000</v>
   <v>      -0.00094154      0.00002024     -0.00002024</v>
   <v>       0.00017882      0.00000592     -0.00000592</v>
   <v>      -0.00094154     -0.00002024     -0.00002024</v>
   <v>       0.00017882     -0.00000592     -0.00000592</v>
   <v>      -0.00094154      0.00002024      0.00002024</v>
   <v>       0.00017882      0.00000592      0.00000592</v>
   <v>      -0.00094154     -0.00002024      0.00002024</v>
   <v>       0.00017882     -0.00000592      0.00000592</v>
   <v>       0.00816365      0.00000000     -0.00915656</v>
   <v>       0.00837754     -0.00000000      0.00944779</v>
   <v>      -0.00055428     -0.00000000      0.00016541</v>
   <v>      -0.00056591     -0.00000000     -0.00016704</v>
   <v>       0.00816365      0.00000000      0.00915656</v>
   <v>       0.00837754      0.00000000     -0.00944779</v>
   <v>      -0.00055428     -0.00000000     -0.00016541</v>
   <v>      -0.00056591     -0.00000000      0.00016704</v>
   <v>       0.00816365      0.00915656      0.00000000</v>
   <v>       0.00837754     -0.00944779      0.00000000</v>
   <v>       0.00816365     -0.00915656      0.00000000</v>
   <v>       0.00837754      0.00944779     -0.00000000</v>
   <v>      -0.00055428     -0.00016541      0.00000000</v>
   <v>      -0.00056591      0.00016704     -0.00000000</v>
   <v>      -0.00055428      0.00016541      0.00000000</v>
   <v>      -0.00056591     -0.00016704      0.00000000</v>
  </varray>
  <varray name="stress" >
   <v>      89.14411774     -0.00000000      0.00000000</v>
   <v>      -0.00000000     89.14647078      0.00000000</v>
   <v>       0.00000000      0.00000000     89.14647078</v>
  </varray>
  <energy>
   <i name="e_fr_energy">   -118.65336077</i>
   <i name="e_wo_entrp">   -118.65292560</i>
   <i name="e_0_energy">     -0.00087034</i>
  </energy>
  <eigenvalues>
   <array>
    <dimension dim="1">band</dimension>
    <dimension dim="2">kpoint</dimension>
    <dimension dim="3">spin</dimension>
    <field>eigene</field>
    <field>occ</field>
    <set>
     <set comment="spin 1">
      <set comment="kpoint 1">
       <r>  -2.7825  1.0000</r>
       <r>  -0.3968  1.0000</r>
       <r>  -0.3929  1.0000</r>
       <r>  -0.3929  1.0000</r>
       <r>  -0.3929  1.0000</r>
       <r>  -0.3929  1.0000</r>
       <r>  -0.3891  1.0000</r>
       <r>   1.9458  1.0000</r>
       <r>   1.9502  1.0000</r>
       <r>   1.9502  1.0000</r>
       <r>   1.9521  1.0000</r>
       <r>   1.9522  1.0000</r>
       <r>   1.9522  1.0000</r>
       <r>   1.9522  1.0000</r>
       <r>   1.9522  1.0000</r>
       <r>   1.9523  1.0000</r>
       <r>   1.9541  1.0000</r>
       <r>   1.9541  1.0000</r>
       <r>   1.9586  1.0000</r>
       <r>   4.0442  1.0000</r>
       <r>   4.0442  1.0000</r>
       <r>   4.0442  1.0000</r>
       <r>   4.0442  1.0000</r>
       <r>   4.5082  1.0000</r>
       <r>   4.5082  1.0000</r>
       <r>   4.5083  1.0000</r>
       <r>   4.5083  1.0000</r>
       <r>   5.8680  1.0000</r>
       <r>   5.8680  1.0000</r>
       <r>   5.8680  1.0000</r>
       <r>   7.3861  1.0000</r>
       <r>   7.3861  1.0000</r>
       <r>   7.3861  1.0000</r>
       <r>   8.0497  1.0000</r>
       <r>   8.0497  1.0000</r>
       <r>   8.0542  1.0000</r>
       <r>   8.0542  1.0000</r>
       <r>   8.0544  1.0000</r>
       <r>   8.0544  1.0000</r>
       <r>   8.0544  1.0000</r>
       <r>   8.0544  1.0000</r>
       <r>   8.0546  1.0000</r>
       <r>   8.0546  1.0000</r>
       <r>   8.0591  1.0000</r>
       <r>   8.0591  1.0000</r>
       <r>   9.0115  0.9993</r>
       <r>   9.0160  0.9951</r>
       <r>   9.0160  0.9951</r>
       <r>   9.0160  0.9950</r>
       <r>   9.0160  0.9950</r>
       <r>   9.0204  0.9746</r>
       <r>  10.2482  0.0000</r>
       <r>  10.2482  0.0000</r>
       <r>  10.2496  0.0000</r>
       <r>  10.2523  0.0000</r>
       <r>  10.2524  0.0000</r>
       <r>  10.2524  0.0000</r>
       <r>  10.2524  0.0000</r>
       <r>  10.2524  0.0000</r>
       <r>  10.2524  0.0000</r>
       <r>  10.2551  0.0000</r>
       <r>  10.2566  0.0000</r>
       <r>  10.2566  0.0000</r>
       <r>  10.6728  0.0000</r>
       <r>  10.6739  0.0000</r>
       <r>  10.6739  0.0000</r>
       <r>  10.6739  0.0000</r>
       <r>  10.6743  0.0000</r>
      </set>
      <set comment="kpoint 2">
       <r>  -2.7658  1.0000</r>
       <r>  -0.7716  1.0000</r>
       <r>  -0.3765  1.0000</r>
       <r>  -0.3765  1.0000</r>
       <r>  -0.3765  1.0000</r>
       <r>  -0.3765  1.0000</r>
       <r>   0.0172  1.0000</r>
       <r>   1.5806  1.0000</r>
       <r>   1.5807  1.0000</r>
       <r>   1.5807  1.0000</r>
       <r>   1.5807  1.0000</r>
       <r>   1.9683  1.0000</r>
       <r>   1.9683  1.0000</r>
       <r>   1.9683  1.0000</r>
       <r>   1.9683  1.0000</r>
       <r>   2.3546  1.0000</r>
       <r>   2.3546  1.0000</r>
       <r>   2.3546  1.0000</r>
       <r>   2.3546  1.0000</r>
       <r>   3.8440  1.0000</r>
       <r>   3.8440  1.0000</r>
       <r>   3.8440  1.0000</r>
       <r>   3.8440  1.0000</r>
       <r>   4.7391  1.0000</r>
       <r>   4.7391  1.0000</r>
       <r>   4.7392  1.0000</r>
       <r>   4.7392  1.0000</r>
       <r>   5.5669  1.0000</r>
       <r>   5.8832  1.0000</r>
       <r>   5.8832  1.0000</r>
       <r>   7.4017  1.0000</r>
       <r>   7.4018  1.0000</r>
       <r>   7.7044  1.0000</r>
       <r>   7.7044  1.0000</r>
       <r>   7.7155  1.0000</r>
       <r>   7.7509  1.0000</r>
       <r>   7.7509  1.0000</r>
       <r>   7.7509  1.0000</r>
       <r>   7.7510  1.0000</r>
       <r>   8.0696  1.0000</r>
       <r>   8.0696  1.0000</r>
       <r>   8.0696  1.0000</r>
       <r>   8.0696  1.0000</r>
       <r>   8.4350  1.0000</r>
       <r>   8.4350  1.0000</r>
       <r>   8.9459  1.0000</r>
       <r>   8.9459  1.0000</r>
       <r>   9.2361  0.0000</r>
       <r>   9.2361  0.0000</r>
       <r>   9.2361  0.0000</r>
       <r>   9.2361  0.0000</r>
       <r>   9.9008  0.0000</r>
       <r>   9.9008  0.0000</r>
       <r>   9.9008  0.0000</r>
       <r>   9.9008  0.0000</r>
       <r>  10.0001  0.0000</r>
       <r>  10.0001  0.0000</r>
       <r>  10.0001  0.0000</r>
       <r>  10.0001  0.0000</r>
       <r>  10.6346  0.0000</r>
       <r>  10.6346  0.0000</r>
       <r>  10.6346  0.0000</r>
       <r>  10.6346  0.0000</r>
       <r>  10.7721  0.0000</r>
       <r>  10.7761  0.0000</r>
       <r>  10.8014  0.0000</r>
       <r>  10.8014  0.0000</r>
       <r>  10.8015  0.0000</r>
      </set>
      <set comment="kpoint 3">
       <r>  -2.7155  1.0000</r>
       <r>  -1.1183  1.0000</r>
       <r>  -0.3272  1.0000</r>
       <r>  -0.3272  1.0000</r>
       <r>  -0.3272  1.0000</r>
       <r>  -0.3272  1.0000</r>
       <r>   0.4586  1.0000</r>
       <r>   1.2404  1.0000</r>
       <r>   1.2404  1.0000</r>
       <r>   1.2404  1.0000</r>
       <r>   1.2404  1.0000</r>
       <r>   2.0166  1.0000</r>
       <r>   2.0167  1.0000</r>
       <r>   2.0167  1.0000</r>
       <r>   2.0167  1.0000</r>
       <r>   2.7873  1.0000</r>
       <r>   2.7873  1.0000</r>
       <r>   2.7873  1.0000</r>
       <r>   2.7874  1.0000</r>
       <r>   3.5381  1.0000</r>
       <r>   3.5381  1.0000</r>
       <r>   3.5381  1.0000</r>
       <r>   3.5381  1.0000</r>
       <r>   4.9845  1.0000</r>
       <r>   5.1372  1.0000</r>
       <r>   5.1372  1.0000</r>
       <r>   5.1372  1.0000</r>
       <r>   5.1372  1.0000</r>
       <r>   5.9286  1.0000</r>
       <r>   5.9286  1.0000</r>
       <r>   7.1891  1.0000</r>
       <r>   7.1891  1.0000</r>
       <r>   7.1891  1.0000</r>
       <r>   7.1891  1.0000</r>
       <r>   7.3852  1.0000</r>
       <r>   7.3852  1.0000</r>
       <r>   7.4486  1.0000</r>
       <r>   7.4486  1.0000</r>
       <r>   8.1153  1.0000</r>
       <r>   8.1153  1.0000</r>
       <r>   8.1153  1.0000</r>
       <r>   8.1153  1.0000</r>
       <r>   8.3831  1.0000</r>
       <r>   8.7734  1.0000</r>
       <r>   8.7734  1.0000</r>
       <r>   8.8462  1.0000</r>
       <r>   8.8462  1.0000</r>
       <r>   9.4724  0.0000</r>
       <r>   9.4724  0.0000</r>
       <r>   9.4724  0.0000</r>
       <r>   9.4725  0.0000</r>
       <r>   9.5438  0.0000</r>
       <r>   9.5438  0.0000</r>
       <r>   9.5439  0.0000</r>
       <r>   9.5440  0.0000</r>
       <r>   9.5800  0.0000</r>
       <r>   9.5800  0.0000</r>
       <r>   9.5801  0.0000</r>
       <r>   9.5801  0.0000</r>
       <r>  11.0291  0.0000</r>
       <r>  11.0291  0.0000</r>
       <r>  11.0476  0.0000</r>
       <r>  11.0476  0.0000</r>
       <r>  11.0476  0.0000</r>
       <r>  11.0476  0.0000</r>
       <r>  11.1876  0.0000</r>
       <r>  11.1876  0.0000</r>
       <r>  11.1876  0.0000</r>
      </set>
      <set comment="kpoint 4">
       <r>  -2.6318  1.0000</r>
       <r>  -1.4328  1.0000</r>
       <r>  -0.2451  1.0000</r>
       <r>  -0.2451  1.0000</r>
       <r>  -0.2451  1.0000</r>
       <r>  -0.2451  1.0000</r>
       <r>   0.9285  1.0000</r>
       <r>   0.9318  1.0000</r>
       <r>   0.9318  1.0000</r>
       <r>   0.9318  1.0000</r>
       <r>   0.9339  1.0000</r>
       <r>   2.0972  1.0000</r>
       <r>   2.0972  1.0000</r>
       <r>   2.0972  1.0000</r>
       <r>   2.0972  1.0000</r>
       <r>   3.2428  1.0000</r>
       <r>   3.2439  1.0000</r>
       <r>   3.2439  1.0000</r>
       <r>   3.2443  1.0000</r>
       <r>   3.2500  1.0000</r>
       <r>   3.2503  1.0000</r>
       <r>   3.2503  1.0000</r>
       <r>   3.2514  1.0000</r>
       <r>   4.3521  1.0000</r>
       <r>   5.5843  1.0000</r>
       <r>   5.5843  1.0000</r>
       <r>   5.5844  1.0000</r>
       <r>   5.5844  1.0000</r>
       <r>   6.0043  1.0000</r>
       <r>   6.0043  1.0000</r>
       <r>   6.5815  1.0000</r>
       <r>   6.5815  1.0000</r>
       <r>   6.5815  1.0000</r>
       <r>   6.5815  1.0000</r>
       <r>   7.0965  1.0000</r>
       <r>   7.0965  1.0000</r>
       <r>   7.5264  1.0000</r>
       <r>   7.5264  1.0000</r>
       <r>   8.1915  1.0000</r>
       <r>   8.1915  1.0000</r>
       <r>   8.1915  1.0000</r>
       <r>   8.1915  1.0000</r>
       <r>   8.5581  1.0000</r>
       <r>   8.5581  1.0000</r>
       <r>   8.8766  1.0000</r>
       <r>   8.8766  1.0000</r>
       <r>   8.8766  1.0000</r>
       <r>   8.8766  1.0000</r>
       <r>   9.1575  0.0000</r>
       <r>   9.2864  0.0000</r>
       <r>   9.2864  0.0000</r>
       <r>   9.2898  0.0000</r>
       <r>   9.2899  0.0000</r>
       <r>   9.2916  0.0000</r>
       <r>   9.2916  0.0000</r>
       <r>   9.7734  0.0000</r>
       <r>   9.7734  0.0000</r>
       <r>   9.7734  0.0000</r>
       <r>   9.7734  0.0000</r>
       <r>  11.0811  0.0000</r>
       <r>  11.0811  0.0000</r>
       <r>  11.0811  0.0000</r>
       <r>  11.0811  0.0000</r>
       <r>  11.3842  0.0000</r>
       <r>  11.3843  0.0000</r>
       <r>  11.4913  0.0000</r>
       <r>  11.4913  0.0000</r>
       <r>  11.4913  0.0000</r>
      </set>
      <set comment="kpoint 5">
       <r>  -2.5148  1.0000</r>
       <r>  -1.7149  1.0000</r>
       <r>  -0.1302  1.0000</r>
       <r>  -0.1302  1.0000</r>
       <r>  -0.1302  1.0000</r>
       <r>  -0.1302  1.0000</r>
       <r>   0.6549  1.0000</r>
       <r>   0.6549  1.0000</r>
       <r>   0.6549  1.0000</r>
       <r>   0.6549  1.0000</r>
       <r>   1.4329  1.0000</r>
       <r>   2.2098  1.0000</r>
       <r>   2.2098  1.0000</r>
       <r>   2.2098  1.0000</r>
       <r>   2.2098  1.0000</r>
       <r>   2.9765  1.0000</r>
       <r>   2.9765  1.0000</r>
       <r>   2.9765  1.0000</r>
       <r>   2.9765  1.0000</r>
       <r>   3.7227  1.0000</r>
       <r>   3.7418  1.0000</r>
       <r>   3.7418  1.0000</r>
       <r>   3.7418  1.0000</r>
       <r>   3.7419  1.0000</r>
       <r>   5.9736  1.0000</r>
       <r>   5.9736  1.0000</r>
       <r>   5.9736  1.0000</r>
       <r>   5.9736  1.0000</r>
       <r>   6.0662  1.0000</r>
       <r>   6.0662  1.0000</r>
       <r>   6.0663  1.0000</r>
       <r>   6.0663  1.0000</r>
       <r>   6.1105  1.0000</r>
       <r>   6.1105  1.0000</r>
       <r>   6.8384  1.0000</r>
       <r>   6.8384  1.0000</r>
       <r>   7.6344  1.0000</r>
       <r>   7.6344  1.0000</r>
       <r>   8.2743  1.0000</r>
       <r>   8.2743  1.0000</r>
       <r>   8.2745  1.0000</r>
       <r>   8.2745  1.0000</r>
       <r>   8.2982  1.0000</r>
       <r>   8.2983  1.0000</r>
       <r>   8.2985  1.0000</r>
       <r>   8.2985  1.0000</r>
       <r>   8.3366  1.0000</r>
       <r>   8.3367  1.0000</r>
       <r>   9.0303  0.7099</r>
       <r>   9.0303  0.7099</r>
       <r>   9.0303  0.7099</r>
       <r>   9.0303  0.7098</r>
       <r>   9.7609  0.0000</r>
       <r>   9.7609  0.0000</r>
       <r>   9.9610  0.0000</r>
       <r>   9.9610  0.0000</r>
       <r>   9.9610  0.0000</r>
       <r>   9.9610  0.0000</r>
       <r>   9.9853  0.0000</r>
       <r>  10.8082  0.0000</r>
       <r>  10.8082  0.0000</r>
       <r>  10.8082  0.0000</r>
       <r>  10.8083  0.0000</r>
       <r>  11.7995  0.0000</r>
       <r>  11.7996  0.0000</r>
       <r>  11.9591  0.0000</r>
       <r>  11.9624  0.0000</r>
       <r>  11.9659  0.0000</r>
      </set>
      <set comment="kpoint 6">
       <r>  -2.3644  1.0000</r>
       <r>  -1.9643  1.0000</r>
       <r>   0.0173  1.0000</r>
       <r>   0.0174  1.0000</r>
       <r>   0.0174  1.0000</r>
       <r>   0.0174  1.0000</r>
       <r>   0.4101  1.0000</r>
       <r>   0.4101  1.0000</r>
       <r>   0.4101  1.0000</r>
       <r>   0.4101  1.0000</r>
       <r>   1.9645  1.0000</r>
       <r>   2.3543  1.0000</r>
       <r>   2.3543  1.0000</r>
       <r>   2.3543  1.0000</r>
       <r>   2.3543  1.0000</r>
       <r>   2.7382  1.0000</r>
       <r>   2.7382  1.0000</r>
       <r>   2.7382  1.0000</r>
       <r>   2.7382  1.0000</r>
       <r>   3.1117  1.0000</r>
       <r>   4.2619  1.0000</r>
       <r>   4.2619  1.0000</r>
       <r>   4.2619  1.0000</r>
       <r>   4.2619  1.0000</r>
       <r>   5.3806  1.0000</r>
       <r>   5.3806  1.0000</r>
       <r>   5.3806  1.0000</r>
       <r>   5.3806  1.0000</r>
       <r>   6.2468  1.0000</r>
       <r>   6.2468  1.0000</r>
       <r>   6.5787  1.0000</r>
       <r>   6.5787  1.0000</r>
       <r>   6.5788  1.0000</r>
       <r>   6.5788  1.0000</r>
       <r>   6.6109  1.0000</r>
       <r>   6.6109  1.0000</r>
       <r>   7.6862  1.0000</r>
       <r>   7.6863  1.0000</r>
       <r>   7.6863  1.0000</r>
       <r>   7.6863  1.0000</r>
       <r>   7.7717  1.0000</r>
       <r>   7.7718  1.0000</r>
       <r>   8.1265  1.0000</r>
       <r>   8.1265  1.0000</r>
       <r>   8.4354  1.0000</r>
       <r>   8.4354  1.0000</r>
       <r>   8.4354  1.0000</r>
       <r>   8.4354  1.0000</r>
       <r>   8.8015  1.0000</r>
       <r>   8.8015  1.0000</r>
       <r>   8.8015  1.0000</r>
       <r>   8.8015  1.0000</r>
       <r>  10.1447  0.0000</r>
       <r>  10.1447  0.0000</r>
       <r>  10.1447  0.0000</r>
       <r>  10.1447  0.0000</r>
       <r>  10.2642  0.0000</r>
       <r>  10.2642  0.0000</r>
       <r>  10.5626  0.0000</r>
       <r>  10.5626  0.0000</r>
       <r>  10.5626  0.0000</r>
       <r>  10.5626  0.0000</r>
       <r>  10.8516  0.0000</r>
       <r>  11.3619  0.0000</r>
       <r>  11.3619  0.0000</r>
       <r>  12.2548  0.0000</r>
       <r>  12.2548  0.0000</r>
       <r>  12.4709  0.0000</r>
      </set>
      <set comment="kpoint 7">
       <r>  -2.1824  1.0000</r>
       <r>  -2.1793  1.0000</r>
       <r>   0.1933  1.0000</r>
       <r>   0.1966  1.0000</r>
       <r>   0.1966  1.0000</r>
       <r>   0.1974  1.0000</r>
       <r>   0.1976  1.0000</r>
       <r>   0.1984  1.0000</r>
       <r>   0.1984  1.0000</r>
       <r>   0.2017  1.0000</r>
       <r>   2.5222  1.0000</r>
       <r>   2.5248  1.0000</r>
       <r>   2.5289  1.0000</r>
       <r>   2.5293  1.0000</r>
       <r>   2.5293  1.0000</r>
       <r>   2.5301  1.0000</r>
       <r>   2.5311  1.0000</r>
       <r>   2.5319  1.0000</r>
       <r>   2.5319  1.0000</r>
       <r>   2.5346  1.0000</r>
       <r>   4.8079  1.0000</r>
       <r>   4.8079  1.0000</r>
       <r>   4.8085  1.0000</r>
       <r>   4.8086  1.0000</r>
       <r>   4.8090  1.0000</r>
       <r>   4.8092  1.0000</r>
       <r>   4.8097  1.0000</r>
       <r>   4.8097  1.0000</r>
       <r>   6.4119  1.0000</r>
       <r>   6.4119  1.0000</r>
       <r>   6.4152  1.0000</r>
       <r>   6.4152  1.0000</r>
       <r>   7.1187  1.0000</r>
       <r>   7.1187  1.0000</r>
       <r>   7.1190  1.0000</r>
       <r>   7.1197  1.0000</r>
       <r>   7.1197  1.0000</r>
       <r>   7.1203  1.0000</r>
       <r>   7.1207  1.0000</r>
       <r>   7.1207  1.0000</r>
       <r>   7.9345  1.0000</r>
       <r>   7.9358  1.0000</r>
       <r>   7.9375  1.0000</r>
       <r>   7.9388  1.0000</r>
       <r>   8.6006  1.0000</r>
       <r>   8.6006  1.0000</r>
       <r>   8.6015  1.0000</r>
       <r>   8.6031  1.0000</r>
       <r>   8.6032  1.0000</r>
       <r>   8.6048  1.0000</r>
       <r>   8.6057  1.0000</r>
       <r>   8.6057  1.0000</r>
       <r>  10.3403  0.0000</r>
       <r>  10.3412  0.0000</r>
       <r>  10.3412  0.0000</r>
       <r>  10.3413  0.0000</r>
       <r>  10.3438  0.0000</r>
       <r>  10.3440  0.0000</r>
       <r>  10.3440  0.0000</r>
       <r>  10.3449  0.0000</r>
       <r>  10.7968  0.0000</r>
       <r>  10.7968  0.0000</r>
       <r>  10.7991  0.0000</r>
       <r>  10.7991  0.0000</r>
       <r>  11.7497  0.0000</r>
       <r>  11.7507  0.0000</r>
       <r>  12.7363  0.0000</r>
       <r>  12.7382  0.0000</r>
      </set>
      <set comment="kpoint 8">
       <r>  -2.7658  1.0000</r>
       <r>  -0.7715  1.0000</r>
       <r>  -0.3795  1.0000</r>
       <r>  -0.3765  1.0000</r>
       <r>  -0.3765  1.0000</r>
       <r>  -0.3735  1.0000</r>
       <r>   0.0172  1.0000</r>
       <r>   1.5777  1.0000</r>
       <r>   1.5807  1.0000</r>
       <r>   1.5807  1.0000</r>
       <r>   1.5837  1.0000</r>
       <r>   1.9662  1.0000</r>
       <r>   1.9671  1.0000</r>
       <r>   1.9695  1.0000</r>
       <r>   1.9704  1.0000</r>
       <r>   2.3515  1.0000</r>
       <r>   2.3546  1.0000</r>
       <r>   2.3546  1.0000</r>
       <r>   2.3576  1.0000</r>
       <r>   3.8422  1.0000</r>
       <r>   3.8430  1.0000</r>
       <r>   3.8450  1.0000</r>
       <r>   3.8458  1.0000</r>
       <r>   4.7373  1.0000</r>
       <r>   4.7381  1.0000</r>
       <r>   4.7402  1.0000</r>
       <r>   4.7410  1.0000</r>
       <r>   5.5669  1.0000</r>
       <r>   5.8832  1.0000</r>
       <r>   5.8832  1.0000</r>
       <r>   7.4017  1.0000</r>
       <r>   7.4018  1.0000</r>
       <r>   7.7043  1.0000</r>
       <r>   7.7045  1.0000</r>
       <r>   7.7156  1.0000</r>
       <r>   7.7476  1.0000</r>
       <r>   7.7509  1.0000</r>
       <r>   7.7509  1.0000</r>
       <r>   7.7543  1.0000</r>
       <r>   8.0668  1.0000</r>
       <r>   8.0696  1.0000</r>
       <r>   8.0696  1.0000</r>
       <r>   8.0724  1.0000</r>
       <r>   8.4350  1.0000</r>
       <r>   8.4350  1.0000</r>
       <r>   8.9459  1.0000</r>
       <r>   8.9459  1.0000</r>
       <r>   9.2330  0.0000</r>
       <r>   9.2361  0.0000</r>
       <r>   9.2361  0.0000</r>
       <r>   9.2391  0.0000</r>
       <r>   9.8979  0.0000</r>
       <r>   9.9008  0.0000</r>
       <r>   9.9008  0.0000</r>
       <r>   9.9037  0.0000</r>
       <r>   9.9973  0.0000</r>
       <r>   9.9989  0.0000</r>
       <r>  10.0012  0.0000</r>
       <r>  10.0028  0.0000</r>
       <r>  10.6317  0.0000</r>
       <r>  10.6346  0.0000</r>
       <r>  10.6346  0.0000</r>
       <r>  10.6375  0.0000</r>
       <r>  10.7721  0.0000</r>
       <r>  10.7750  0.0000</r>
       <r>  10.8006  0.0000</r>
       <r>  10.8014  0.0000</r>
       <r>  10.8021  0.0000</r>
      </set>
      <set comment="kpoint 9">
       <r>  -2.7490  1.0000</r>
       <r>  -0.7563  1.0000</r>
       <r>  -0.7538  1.0000</r>
       <r>  -0.3601  1.0000</r>
       <r>  -0.3601  1.0000</r>
       <r>   0.0323  1.0000</r>
       <r>   0.0349  1.0000</r>
       <r>   1.2080  1.0000</r>
       <r>   1.5951  1.0000</r>
       <r>   1.5961  1.0000</r>
       <r>   1.5976  1.0000</r>
       <r>   1.5986  1.0000</r>
       <r>   1.9839  1.0000</r>
       <r>   1.9848  1.0000</r>
       <r>   2.3689  1.0000</r>
       <r>   2.3698  1.0000</r>
       <r>   2.3714  1.0000</r>
       <r>   2.3724  1.0000</r>
       <r>   2.7555  1.0000</r>
       <r>   3.5065  1.0000</r>
       <r>   3.5065  1.0000</r>
       <r>   4.0750  1.0000</r>
       <r>   4.0750  1.0000</r>
       <r>   4.5407  1.0000</r>
       <r>   4.5407  1.0000</r>
       <r>   5.1056  1.0000</r>
       <r>   5.1056  1.0000</r>
       <r>   5.5819  1.0000</r>
       <r>   5.5826  1.0000</r>
       <r>   5.8983  1.0000</r>
       <r>   7.4076  1.0000</r>
       <r>   7.4100  1.0000</r>
       <r>   7.4174  1.0000</r>
       <r>   7.6777  1.0000</r>
       <r>   7.6777  1.0000</r>
       <r>   7.7183  1.0000</r>
       <r>   7.7211  1.0000</r>
       <r>   7.7307  1.0000</r>
       <r>   7.7314  1.0000</r>
       <r>   7.8754  1.0000</r>
       <r>   7.8754  1.0000</r>
       <r>   8.1083  1.0000</r>
       <r>   8.1104  1.0000</r>
       <r>   8.4488  1.0000</r>
       <r>   8.4516  1.0000</r>
       <r>   9.1315  0.0000</r>
       <r>   9.1340  0.0000</r>
       <r>   9.2107  0.0000</r>
       <r>   9.2137  0.0000</r>
       <r>   9.4553  0.0000</r>
       <r>   9.4553  0.0000</r>
       <r>   9.5495  0.0000</r>
       <r>   9.6456  0.0000</r>
       <r>   9.6465  0.0000</r>
       <r>   9.6480  0.0000</r>
       <r>   9.6490  0.0000</r>
       <r>  10.2820  0.0000</r>
       <r>  10.2838  0.0000</r>
       <r>  10.3820  0.0000</r>
       <r>  10.3830  0.0000</r>
       <r>  10.3837  0.0000</r>
       <r>  10.3846  0.0000</r>
       <r>  10.8453  0.0000</r>
       <r>  10.8460  0.0000</r>
       <r>  10.9089  0.0000</r>
       <r>  10.9092  0.0000</r>
       <r>  10.9557  0.0000</r>
       <r>  10.9573  0.0000</r>
      </set>
      <set comment="kpoint 10">
       <r>  -2.6988  1.0000</r>
       <r>  -1.1017  1.0000</r>
       <r>  -0.7056  1.0000</r>
       <r>  -0.3108  1.0000</r>
       <r>  -0.3108  1.0000</r>
       <r>   0.0827  1.0000</r>
       <r>   0.4749  1.0000</r>
       <r>   0.8668  1.0000</r>
       <r>   1.2567  1.0000</r>
       <r>   1.2567  1.0000</r>
       <r>   1.6446  1.0000</r>
       <r>   1.6454  1.0000</r>
       <r>   1.6460  1.0000</r>
       <r>   2.4180  1.0000</r>
       <r>   2.4188  1.0000</r>
       <r>   2.4193  1.0000</r>
       <r>   2.8033  1.0000</r>
       <r>   2.8033  1.0000</r>
       <r>   3.1807  1.0000</r>
       <r>   3.1807  1.0000</r>
       <r>   3.1867  1.0000</r>
       <r>   3.9065  1.0000</r>
       <r>   3.9066  1.0000</r>
       <r>   4.8029  1.0000</r>
       <r>   4.8029  1.0000</r>
       <r>   5.0001  1.0000</r>
       <r>   5.5218  1.0000</r>
       <r>   5.5218  1.0000</r>
       <r>   5.6282  1.0000</r>
       <r>   5.9437  1.0000</r>
       <r>   6.8449  1.0000</r>
       <r>   7.0924  1.0000</r>
       <r>   7.1889  1.0000</r>
       <r>   7.1889  1.0000</r>
       <r>   7.4004  1.0000</r>
       <r>   7.4641  1.0000</r>
       <r>   7.5536  1.0000</r>
       <r>   7.7654  1.0000</r>
       <r>   7.7773  1.0000</r>
       <r>   7.8607  1.0000</r>
       <r>   7.8607  1.0000</r>
       <r>   8.3982  1.0000</r>
       <r>   8.4344  1.0000</r>
       <r>   8.4959  1.0000</r>
       <r>   8.8615  1.0000</r>
       <r>   9.0114  0.9994</r>
       <r>   9.0677  0.0000</r>
       <r>   9.1179  0.0000</r>
       <r>   9.1180  0.0000</r>
       <r>   9.2289  0.0000</r>
       <r>   9.3250  0.0000</r>
       <r>   9.3251  0.0000</r>
       <r>   9.3384  0.0000</r>
       <r>   9.6577  0.0000</r>
       <r>   9.7917  0.0000</r>
       <r>   9.7918  0.0000</r>
       <r>   9.8573  0.0000</r>
       <r>   9.8574  0.0000</r>
       <r>   9.9619  0.0000</r>
       <r>  10.6957  0.0000</r>
       <r>  10.7969  0.0000</r>
       <r>  10.7970  0.0000</r>
       <r>  11.0265  0.0000</r>
       <r>  11.0718  0.0000</r>
       <r>  11.0965  0.0000</r>
       <r>  11.2468  0.0000</r>
       <r>  11.2538  0.0000</r>
       <r>  11.2539  0.0000</r>
      </set>
      <set comment="kpoint 11">
       <r>  -2.6151  1.0000</r>
       <r>  -1.4162  1.0000</r>
       <r>  -0.6232  1.0000</r>
       <r>  -0.2287  1.0000</r>
       <r>  -0.2287  1.0000</r>
       <r>   0.1646  1.0000</r>
       <r>   0.5571  1.0000</r>
       <r>   0.9455  1.0000</r>
       <r>   0.9480  1.0000</r>
       <r>   0.9494  1.0000</r>
       <r>   1.3376  1.0000</r>
       <r>   1.7262  1.0000</r>
       <r>   1.7262  1.0000</r>
       <r>   2.4989  1.0000</r>
       <r>   2.4989  1.0000</r>
       <r>   2.8797  1.0000</r>
       <r>   2.8808  1.0000</r>
       <r>   2.8839  1.0000</r>
       <r>   3.2659  1.0000</r>
       <r>   3.2659  1.0000</r>
       <r>   3.6326  1.0000</r>
       <r>   3.6328  1.0000</r>
       <r>   3.6478  1.0000</r>
       <r>   4.3678  1.0000</r>
       <r>   5.2317  1.0000</r>
       <r>   5.2317  1.0000</r>
       <r>   5.7048  1.0000</r>
       <r>   5.9733  1.0000</r>
       <r>   5.9734  1.0000</r>
       <r>   6.0195  1.0000</r>
       <r>   6.2319  1.0000</r>
       <r>   6.5914  1.0000</r>
       <r>   6.5914  1.0000</r>
       <r>   6.8043  1.0000</r>
       <r>   6.9554  1.0000</r>
       <r>   7.1117  1.0000</r>
       <r>   7.5415  1.0000</r>
       <r>   7.8415  1.0000</r>
       <r>   7.8539  1.0000</r>
       <r>   7.9311  1.0000</r>
       <r>   7.9311  1.0000</r>
       <r>   8.4961  1.0000</r>
       <r>   8.5206  1.0000</r>
       <r>   8.5207  1.0000</r>
       <r>   8.5722  1.0000</r>
       <r>   8.8657  1.0000</r>
       <r>   8.9389  1.0000</r>
       <r>   9.0334  0.5463</r>
       <r>   9.0335  0.5441</r>
       <r>   9.1576  0.0000</r>
       <r>   9.1722  0.0000</r>
       <r>   9.2628  0.0000</r>
       <r>   9.2629  0.0000</r>
       <r>   9.3035  0.0000</r>
       <r>   9.4964  0.0000</r>
       <r>   9.6715  0.0000</r>
       <r>  10.0171  0.0000</r>
       <r>  10.0453  0.0000</r>
       <r>  10.0453  0.0000</r>
       <r>  10.7269  0.0000</r>
       <r>  11.1392  0.0000</r>
       <r>  11.2408  0.0000</r>
       <r>  11.2408  0.0000</r>
       <r>  11.3651  0.0000</r>
       <r>  11.3651  0.0000</r>
       <r>  11.4130  0.0000</r>
       <r>  11.4618  0.0000</r>
       <r>  11.5772  0.0000</r>
      </set>
      <set comment="kpoint 12">
       <r>  -2.4981  1.0000</r>
       <r>  -1.6982  1.0000</r>
       <r>  -0.5080  1.0000</r>
       <r>  -0.1138  1.0000</r>
       <r>  -0.1138  1.0000</r>
       <r>   0.2786  1.0000</r>
       <r>   0.2799  1.0000</r>
       <r>   0.6712  1.0000</r>
       <r>   0.6712  1.0000</r>
       <r>   1.0616  1.0000</r>
       <r>   1.4490  1.0000</r>
       <r>   1.8392  1.0000</r>
       <r>   1.8392  1.0000</r>
       <r>   2.6096  1.0000</r>
       <r>   2.6100  1.0000</r>
       <r>   2.6112  1.0000</r>
       <r>   2.6115  1.0000</r>
       <r>   3.3712  1.0000</r>
       <r>   3.3712  1.0000</r>
       <r>   3.3765  1.0000</r>
       <r>   3.7386  1.0000</r>
       <r>   3.7576  1.0000</r>
       <r>   3.7576  1.0000</r>
       <r>   4.1373  1.0000</r>
       <r>   5.6194  1.0000</r>
       <r>   5.7091  1.0000</r>
       <r>   5.7091  1.0000</r>
       <r>   5.8121  1.0000</r>
       <r>   5.9867  1.0000</r>
       <r>   5.9867  1.0000</r>
       <r>   6.1256  1.0000</r>
       <r>   6.3547  1.0000</r>
       <r>   6.4564  1.0000</r>
       <r>   6.4564  1.0000</r>
       <r>   6.5456  1.0000</r>
       <r>   6.8536  1.0000</r>
       <r>   7.6489  1.0000</r>
       <r>   7.9174  1.0000</r>
       <r>   7.9175  1.0000</r>
       <r>   7.9482  1.0000</r>
       <r>   7.9605  1.0000</r>
       <r>   8.0368  1.0000</r>
       <r>   8.0368  1.0000</r>
       <r>   8.3293  1.0000</r>
       <r>   8.6508  1.0000</r>
       <r>   8.6619  1.0000</r>
       <r>   8.6623  1.0000</r>
       <r>   8.6785  1.0000</r>
       <r>   8.6803  1.0000</r>
       <r>   8.7725  1.0000</r>
       <r>   8.7725  1.0000</r>
       <r>   9.4118  0.0000</r>
       <r>   9.5651  0.0000</r>
       <r>   9.6473  0.0000</r>
       <r>   9.7762  0.0000</r>
       <r>   9.9996  0.0000</r>
       <r>  10.2432  0.0000</r>
       <r>  10.2432  0.0000</r>
       <r>  10.2758  0.0000</r>
       <r>  10.4560  0.0000</r>
       <r>  11.0936  0.0000</r>
       <r>  11.0936  0.0000</r>
       <r>  11.1864  0.0000</r>
       <r>  11.6135  0.0000</r>
       <r>  11.7124  0.0000</r>
       <r>  11.7148  0.0000</r>
       <r>  11.7153  0.0000</r>
       <r>  11.8220  0.0000</r>
      </set>
      <set comment="kpoint 13">
       <r>  -2.3477  1.0000</r>
       <r>  -1.9476  1.0000</r>
       <r>  -0.3600  1.0000</r>
       <r>   0.0324  1.0000</r>
       <r>   0.0338  1.0000</r>
       <r>   0.0353  1.0000</r>
       <r>   0.4249  1.0000</r>
       <r>   0.4264  1.0000</r>
       <r>   0.4278  1.0000</r>
       <r>   0.8176  1.0000</r>
       <r>   1.9802  1.0000</r>
       <r>   1.9844  1.0000</r>
       <r>   1.9849  1.0000</r>
       <r>   2.3702  1.0000</r>
       <r>   2.3702  1.0000</r>
       <r>   2.7547  1.0000</r>
       <r>   2.7548  1.0000</r>
       <r>   3.1274  1.0000</r>
       <r>   3.1358  1.0000</r>
       <r>   3.1361  1.0000</r>
       <r>   3.8986  1.0000</r>
       <r>   4.2774  1.0000</r>
       <r>   4.2774  1.0000</r>
       <r>   4.6549  1.0000</r>
       <r>   5.0226  1.0000</r>
       <r>   5.3950  1.0000</r>
       <r>   5.3950  1.0000</r>
       <r>   5.7667  1.0000</r>
       <r>   5.9498  1.0000</r>
       <r>   6.2204  1.0000</r>
       <r>   6.2204  1.0000</r>
       <r>   6.2620  1.0000</r>
       <r>   6.3167  1.0000</r>
       <r>   6.6259  1.0000</r>
       <r>   6.9689  1.0000</r>
       <r>   6.9689  1.0000</r>
       <r>   7.3283  1.0000</r>
       <r>   7.3283  1.0000</r>
       <r>   7.7851  1.0000</r>
       <r>   8.0748  1.0000</r>
       <r>   8.0749  1.0000</r>
       <r>   8.0852  1.0000</r>
       <r>   8.0959  1.0000</r>
       <r>   8.1328  1.0000</r>
       <r>   8.1743  1.0000</r>
       <r>   8.1743  1.0000</r>
       <r>   8.4451  1.0000</r>
       <r>   8.4509  1.0000</r>
       <r>   8.5423  1.0000</r>
       <r>   8.5423  1.0000</r>
       <r>   8.8163  1.0000</r>
       <r>   9.1827  0.0000</r>
       <r>   9.8121  0.0000</r>
       <r>  10.0483  0.0000</r>
       <r>  10.2138  0.0000</r>
       <r>  10.2795  0.0000</r>
       <r>  10.4304  0.0000</r>
       <r>  10.4304  0.0000</r>
       <r>  10.4929  0.0000</r>
       <r>  10.8488  0.0000</r>
       <r>  10.8489  0.0000</r>
       <r>  10.8653  0.0000</r>
       <r>  10.9360  0.0000</r>
       <r>  11.1282  0.0000</r>
       <r>  11.3773  0.0000</r>
       <r>  12.1186  0.0000</r>
       <r>  12.2184  0.0000</r>
       <r>  12.2197  0.0000</r>
      </set>
      <set comment="kpoint 14">
       <r>  -2.1657  1.0000</r>
       <r>  -2.1627  1.0000</r>
       <r>  -0.1808  1.0000</r>
       <r>  -0.1778  1.0000</r>
       <r>   0.2117  1.0000</r>
       <r>   0.2130  1.0000</r>
       <r>   0.2148  1.0000</r>
       <r>   0.2160  1.0000</r>
       <r>   0.6042  1.0000</r>
       <r>   0.6073  1.0000</r>
       <r>   2.1592  1.0000</r>
       <r>   2.1605  1.0000</r>
       <r>   2.1623  1.0000</r>
       <r>   2.1636  1.0000</r>
       <r>   2.5401  1.0000</r>
       <r>   2.5413  1.0000</r>
       <r>   2.9277  1.0000</r>
       <r>   2.9290  1.0000</r>
       <r>   2.9308  1.0000</r>
       <r>   2.9321  1.0000</r>
       <r>   4.4474  1.0000</r>
       <r>   4.4486  1.0000</r>
       <r>   4.8230  1.0000</r>
       <r>   4.8237  1.0000</r>
       <r>   4.8242  1.0000</r>
       <r>   4.8249  1.0000</r>
       <r>   5.1982  1.0000</r>
       <r>   5.1994  1.0000</r>
       <r>   6.1165  1.0000</r>
       <r>   6.1197  1.0000</r>
       <r>   6.4271  1.0000</r>
       <r>   6.4304  1.0000</r>
       <r>   6.7605  1.0000</r>
       <r>   6.7607  1.0000</r>
       <r>   6.7618  1.0000</r>
       <r>   6.7621  1.0000</r>
       <r>   7.5084  1.0000</r>
       <r>   7.5087  1.0000</r>
       <r>   7.5097  1.0000</r>
       <r>   7.5100  1.0000</r>
       <r>   7.9463  1.0000</r>
       <r>   7.9493  1.0000</r>
       <r>   8.2511  1.0000</r>
       <r>   8.2545  1.0000</r>
       <r>   8.2568  1.0000</r>
       <r>   8.2598  1.0000</r>
       <r>   8.3405  1.0000</r>
       <r>   8.3420  1.0000</r>
       <r>   8.3438  1.0000</r>
       <r>   8.3453  1.0000</r>
       <r>   8.9825  1.0000</r>
       <r>   8.9859  1.0000</r>
       <r>   9.9981  0.0000</r>
       <r>  10.0012  0.0000</r>
       <r>  10.5709  0.0000</r>
       <r>  10.5729  0.0000</r>
       <r>  10.6273  0.0000</r>
       <r>  10.6278  0.0000</r>
       <r>  10.6305  0.0000</r>
       <r>  10.6311  0.0000</r>
       <r>  10.7057  0.0000</r>
       <r>  10.7090  0.0000</r>
       <r>  10.8122  0.0000</r>
       <r>  10.8145  0.0000</r>
       <r>  11.7625  0.0000</r>
       <r>  11.7634  0.0000</r>
       <r>  12.6538  0.0000</r>
       <r>  12.6593  0.0000</r>
      </set>
      <set comment="kpoint 15">
       <r>  -2.7155  1.0000</r>
       <r>  -1.1183  1.0000</r>
       <r>  -0.3302  1.0000</r>
       <r>  -0.3272  1.0000</r>
       <r>  -0.3272  1.0000</r>
       <r>  -0.3242  1.0000</r>
       <r>   0.4585  1.0000</r>
       <r>   1.2374  1.0000</r>
       <r>   1.2404  1.0000</r>
       <r>   1.2404  1.0000</r>
       <r>   1.2434  1.0000</r>
       <r>   2.0146  1.0000</r>
       <r>   2.0155  1.0000</r>
       <r>   2.0178  1.0000</r>
       <r>   2.0187  1.0000</r>
       <r>   2.7843  1.0000</r>
       <r>   2.7873  1.0000</r>
       <r>   2.7873  1.0000</r>
       <r>   2.7904  1.0000</r>
       <r>   3.5361  1.0000</r>
       <r>   3.5370  1.0000</r>
       <r>   3.5392  1.0000</r>
       <r>   3.5401  1.0000</r>
       <r>   4.9845  1.0000</r>
       <r>   5.1351  1.0000</r>
       <r>   5.1360  1.0000</r>
       <r>   5.1383  1.0000</r>
       <r>   5.1392  1.0000</r>
       <r>   5.9286  1.0000</r>
       <r>   5.9286  1.0000</r>
       <r>   7.1858  1.0000</r>
       <r>   7.1891  1.0000</r>
       <r>   7.1891  1.0000</r>
       <r>   7.1924  1.0000</r>
       <r>   7.3852  1.0000</r>
       <r>   7.3852  1.0000</r>
       <r>   7.4486  1.0000</r>
       <r>   7.4486  1.0000</r>
       <r>   8.1125  1.0000</r>
       <r>   8.1153  1.0000</r>
       <r>   8.1154  1.0000</r>
       <r>   8.1182  1.0000</r>
       <r>   8.3831  1.0000</r>
       <r>   8.7734  1.0000</r>
       <r>   8.7734  1.0000</r>
       <r>   8.8462  1.0000</r>
       <r>   8.8462  1.0000</r>
       <r>   9.4699  0.0000</r>
       <r>   9.4713  0.0000</r>
       <r>   9.4737  0.0000</r>
       <r>   9.4750  0.0000</r>
       <r>   9.5410  0.0000</r>
       <r>   9.5439  0.0000</r>
       <r>   9.5439  0.0000</r>
       <r>   9.5467  0.0000</r>
       <r>   9.5771  0.0000</r>
       <r>   9.5800  0.0000</r>
       <r>   9.5801  0.0000</r>
       <r>   9.5829  0.0000</r>
       <r>  11.0290  0.0000</r>
       <r>  11.0291  0.0000</r>
       <r>  11.0446  0.0000</r>
       <r>  11.0476  0.0000</r>
       <r>  11.0478  0.0000</r>
       <r>  11.0506  0.0000</r>
       <r>  11.1864  0.0000</r>
       <r>  11.1876  0.0000</r>
       <r>  11.1890  0.0000</r>
      </set>
      <set comment="kpoint 16">
       <r>  -2.6988  1.0000</r>
       <r>  -1.1017  1.0000</r>
       <r>  -0.7056  1.0000</r>
       <r>  -0.3108  1.0000</r>
       <r>  -0.3108  1.0000</r>
       <r>   0.0827  1.0000</r>
       <r>   0.4749  1.0000</r>
       <r>   0.8667  1.0000</r>
       <r>   1.2566  1.0000</r>
       <r>   1.2567  1.0000</r>
       <r>   1.6439  1.0000</r>
       <r>   1.6454  1.0000</r>
       <r>   1.6467  1.0000</r>
       <r>   2.4172  1.0000</r>
       <r>   2.4188  1.0000</r>
       <r>   2.4201  1.0000</r>
       <r>   2.8033  1.0000</r>
       <r>   2.8033  1.0000</r>
       <r>   3.1807  1.0000</r>
       <r>   3.1807  1.0000</r>
       <r>   3.1867  1.0000</r>
       <r>   3.9066  1.0000</r>
       <r>   3.9066  1.0000</r>
       <r>   4.8029  1.0000</r>
       <r>   4.8029  1.0000</r>
       <r>   5.0001  1.0000</r>
       <r>   5.5218  1.0000</r>
       <r>   5.5218  1.0000</r>
       <r>   5.6282  1.0000</r>
       <r>   5.9438  1.0000</r>
       <r>   6.8449  1.0000</r>
       <r>   7.0924  1.0000</r>
       <r>   7.1889  1.0000</r>
       <r>   7.1890  1.0000</r>
       <r>   7.4004  1.0000</r>
       <r>   7.4641  1.0000</r>
       <r>   7.5536  1.0000</r>
       <r>   7.7654  1.0000</r>
       <r>   7.7772  1.0000</r>
       <r>   7.8607  1.0000</r>
       <r>   7.8607  1.0000</r>
       <r>   8.3982  1.0000</r>
       <r>   8.4344  1.0000</r>
       <r>   8.4960  1.0000</r>
       <r>   8.8615  1.0000</r>
       <r>   9.0114  0.9994</r>
       <r>   9.0677  0.0000</r>
       <r>   9.1180  0.0000</r>
       <r>   9.1180  0.0000</r>
       <r>   9.2289  0.0000</r>
       <r>   9.3250  0.0000</r>
       <r>   9.3251  0.0000</r>
       <r>   9.3384  0.0000</r>
       <r>   9.6576  0.0000</r>
       <r>   9.7918  0.0000</r>
       <r>   9.7918  0.0000</r>
       <r>   9.8573  0.0000</r>
       <r>   9.8573  0.0000</r>
       <r>   9.9619  0.0000</r>
       <r>  10.6956  0.0000</r>
       <r>  10.7970  0.0000</r>
       <r>  10.7970  0.0000</r>
       <r>  11.0265  0.0000</r>
       <r>  11.0717  0.0000</r>
       <r>  11.0965  0.0000</r>
       <r>  11.2468  0.0000</r>
       <r>  11.2538  0.0000</r>
       <r>  11.2538  0.0000</r>
      </set>
      <set comment="kpoint 17">
       <r>  -2.6486  1.0000</r>
       <r>  -1.0534  1.0000</r>
       <r>  -1.0509  1.0000</r>
       <r>  -0.2615  1.0000</r>
       <r>  -0.2615  1.0000</r>
       <r>   0.5221  1.0000</r>
       <r>   0.5241  1.0000</r>
       <r>   0.5260  1.0000</r>
       <r>   1.3036  1.0000</r>
       <r>   1.3046  1.0000</r>
       <r>   1.3061  1.0000</r>
       <r>   1.3071  1.0000</r>
       <r>   2.0803  1.0000</r>
       <r>   2.0812  1.0000</r>
       <r>   2.8476  1.0000</r>
       <r>   2.8484  1.0000</r>
       <r>   2.8503  1.0000</r>
       <r>   2.8507  1.0000</r>
       <r>   2.8522  1.0000</r>
       <r>   2.8534  1.0000</r>
       <r>   3.6161  1.0000</r>
       <r>   4.1672  1.0000</r>
       <r>   4.1672  1.0000</r>
       <r>   4.6378  1.0000</r>
       <r>   4.6378  1.0000</r>
       <r>   5.0463  1.0000</r>
       <r>   5.0471  1.0000</r>
       <r>   5.9423  1.0000</r>
       <r>   5.9424  1.0000</r>
       <r>   5.9892  1.0000</r>
       <r>   6.5252  1.0000</r>
       <r>   6.5277  1.0000</r>
       <r>   7.0900  1.0000</r>
       <r>   7.0900  1.0000</r>
       <r>   7.4445  1.0000</r>
       <r>   7.4474  1.0000</r>
       <r>   7.4637  1.0000</r>
       <r>   7.4639  1.0000</r>
       <r>   7.5102  1.0000</r>
       <r>   7.9196  1.0000</r>
       <r>   7.9218  1.0000</r>
       <r>   8.4429  1.0000</r>
       <r>   8.4439  1.0000</r>
       <r>   8.7921  1.0000</r>
       <r>   8.7932  1.0000</r>
       <r>   8.7947  1.0000</r>
       <r>   8.7958  1.0000</r>
       <r>   8.9052  1.0000</r>
       <r>   8.9077  1.0000</r>
       <r>   8.9102  1.0000</r>
       <r>   9.1241  0.0000</r>
       <r>   9.1258  0.0000</r>
       <r>   9.6193  0.0000</r>
       <r>   9.6221  0.0000</r>
       <r>  10.2306  0.0000</r>
       <r>  10.2307  0.0000</r>
       <r>  10.2711  0.0000</r>
       <r>  10.2720  0.0000</r>
       <r>  10.2725  0.0000</r>
       <r>  10.2736  0.0000</r>
       <r>  10.3735  0.0000</r>
       <r>  10.3754  0.0000</r>
       <r>  10.6992  0.0000</r>
       <r>  11.2167  0.0000</r>
       <r>  11.2173  0.0000</r>
       <r>  11.4886  0.0000</r>
       <r>  11.4886  0.0000</r>
       <r>  11.7782  0.0000</r>
      </set>
      <set comment="kpoint 18">
       <r>  -2.5649  1.0000</r>
       <r>  -1.3665  1.0000</r>
       <r>  -0.9695  1.0000</r>
       <r>  -0.1794  1.0000</r>
       <r>  -0.1794  1.0000</r>
       <r>   0.2140  1.0000</r>
       <r>   0.6054  1.0000</r>
       <r>   0.9943  1.0000</r>
       <r>   0.9968  1.0000</r>
       <r>   0.9982  1.0000</r>
       <r>   1.3864  1.0000</r>
       <r>   1.3864  1.0000</r>
       <r>   1.7742  1.0000</r>
       <r>   2.5444  1.0000</r>
       <r>   2.5461  1.0000</r>
       <r>   2.5481  1.0000</r>
       <r>   2.9309  1.0000</r>
       <r>   2.9309  1.0000</r>
       <r>   3.3134  1.0000</r>
       <r>   3.3134  1.0000</r>
       <r>   4.0315  1.0000</r>
       <r>   4.0315  1.0000</r>
       <r>   4.0749  1.0000</r>
       <r>   4.4149  1.0000</r>
       <r>   4.9302  1.0000</r>
       <r>   4.9302  1.0000</r>
       <r>   5.1244  1.0000</r>
       <r>   5.9096  1.0000</r>
       <r>   6.0649  1.0000</r>
       <r>   6.2361  1.0000</r>
       <r>   6.3950  1.0000</r>
       <r>   6.3950  1.0000</r>
       <r>   6.6100  1.0000</r>
       <r>   6.6100  1.0000</r>
       <r>   7.1573  1.0000</r>
       <r>   7.3466  1.0000</r>
       <r>   7.4187  1.0000</r>
       <r>   7.4187  1.0000</r>
       <r>   7.5221  1.0000</r>
       <r>   7.5865  1.0000</r>
       <r>   8.1953  1.0000</r>
       <r>   8.1953  1.0000</r>
       <r>   8.2190  1.0000</r>
       <r>   8.5006  1.0000</r>
       <r>   8.5007  1.0000</r>
       <r>   8.5184  1.0000</r>
       <r>   8.6187  1.0000</r>
       <r>   8.9836  1.0000</r>
       <r>   9.0098  0.9997</r>
       <r>   9.2163  0.0000</r>
       <r>   9.2303  0.0000</r>
       <r>   9.3493  0.0000</r>
       <r>   9.4727  0.0000</r>
       <r>   9.6792  0.0000</r>
       <r>   9.6792  0.0000</r>
       <r>  10.0839  0.0000</r>
       <r>  10.1522  0.0000</r>
       <r>  10.4008  0.0000</r>
       <r>  10.5847  0.0000</r>
       <r>  10.5847  0.0000</r>
       <r>  10.7170  0.0000</r>
       <r>  10.7170  0.0000</r>
       <r>  10.8178  0.0000</r>
       <r>  11.5063  0.0000</r>
       <r>  11.5226  0.0000</r>
       <r>  11.7980  0.0000</r>
       <r>  11.8682  0.0000</r>
       <r>  11.9607  0.0000</r>
      </set>
      <set comment="kpoint 19">
       <r>  -2.4479  1.0000</r>
       <r>  -1.6484  1.0000</r>
       <r>  -0.8540  1.0000</r>
       <r>  -0.0659  1.0000</r>
       <r>  -0.0646  1.0000</r>
       <r>  -0.0631  1.0000</r>
       <r>   0.7183  1.0000</r>
       <r>   0.7201  1.0000</r>
       <r>   0.7213  1.0000</r>
       <r>   1.4964  1.0000</r>
       <r>   1.4993  1.0000</r>
       <r>   1.4998  1.0000</r>
       <r>   1.5010  1.0000</r>
       <r>   2.2738  1.0000</r>
       <r>   2.2738  1.0000</r>
       <r>   3.0412  1.0000</r>
       <r>   3.0423  1.0000</r>
       <r>   3.0427  1.0000</r>
[...]
       <r>   3.1217  1.0000</r>
       <r>   3.4941  1.0000</r>
       <r>   3.4959  1.0000</r>
       <r>   3.4977  1.0000</r>
       <r>   3.4981  1.0000</r>
       <r>   3.4982  1.0000</r>
       <r>   3.4985  1.0000</r>
       <r>   3.5004  1.0000</r>
       <r>   3.5022  1.0000</r>
       <r>   3.8732  1.0000</r>
       <r>   3.8751  1.0000</r>
       <r>   3.8769  1.0000</r>
       <r>   3.8773  1.0000</r>
       <r>   3.8774  1.0000</r>
       <r>   3.8777  1.0000</r>
       <r>   3.8796  1.0000</r>
       <r>   3.8814  1.0000</r>
       <r>   4.2484  1.0000</r>
       <r>   4.2510  1.0000</r>
       <r>   4.2515  1.0000</r>
       <r>   4.2542  1.0000</r>
       <r>   7.6776  1.0000</r>
       <r>   7.6793  1.0000</r>
       <r>   7.6815  1.0000</r>
       <r>   7.6818  1.0000</r>
       <r>   7.6819  1.0000</r>
       <r>   7.6822  1.0000</r>
       <r>   7.6843  1.0000</r>
       <r>   7.6861  1.0000</r>
       <r>   8.0393  1.0000</r>
       <r>   8.0406  1.0000</r>
       <r>   8.0407  1.0000</r>
       <r>   8.0420  1.0000</r>
       <r>   8.4187  1.0000</r>
       <r>   8.4201  1.0000</r>
       <r>   8.4201  1.0000</r>
       <r>   8.4215  1.0000</r>
       <r>   8.7694  1.0000</r>
       <r>   8.7714  1.0000</r>
       <r>   8.7735  1.0000</r>
       <r>   8.7738  1.0000</r>
       <r>   8.7739  1.0000</r>
       <r>   8.7742  1.0000</r>
       <r>   8.7763  1.0000</r>
       <r>   8.7783  1.0000</r>
       <r>  12.0343  0.0000</r>
       <r>  12.0367  0.0000</r>
       <r>  12.0376  0.0000</r>
       <r>  12.0398  0.0000</r>
       <r>  12.1226  0.0000</r>
       <r>  12.1241  0.0000</r>
       <r>  12.1243  0.0000</r>
       <r>  12.1257  0.0000</r>
       <r>  12.7490  0.0000</r>
       <r>  12.7497  0.0000</r>
       <r>  12.7508  0.0000</r>
       <r>  12.7523  0.0000</r>
      </set>
      <set comment="kpoint 190">
       <r>  -1.5821  1.0000</r>
       <r>  -1.5820  1.0000</r>
       <r>  -1.5820  1.0000</r>
       <r>  -1.5820  1.0000</r>
       <r>   0.7801  1.0000</r>
       <r>   0.7847  1.0000</r>
       <r>   0.7847  1.0000</r>
       <r>   0.7853  1.0000</r>
       <r>   0.7853  1.0000</r>
       <r>   0.7859  1.0000</r>
       <r>   0.7859  1.0000</r>
       <r>   0.7905  1.0000</r>
       <r>   3.1006  1.0000</r>
       <r>   3.1006  1.0000</r>
       <r>   3.1006  1.0000</r>
       <r>   3.1006  1.0000</r>
       <r>   3.1006  1.0000</r>
       <r>   3.1006  1.0000</r>
       <r>   3.1006  1.0000</r>
       <r>   3.1006  1.0000</r>
       <r>   5.1491  1.0000</r>
       <r>   5.1491  1.0000</r>
       <r>   5.1507  1.0000</r>
       <r>   5.1507  1.0000</r>
       <r>   5.1507  1.0000</r>
       <r>   5.1507  1.0000</r>
       <r>   5.1523  1.0000</r>
       <r>   5.1523  1.0000</r>
       <r>   5.6518  1.0000</r>
       <r>   5.6518  1.0000</r>
       <r>   5.6537  1.0000</r>
       <r>   5.6537  1.0000</r>
       <r>   5.6537  1.0000</r>
       <r>   5.6538  1.0000</r>
       <r>   5.6556  1.0000</r>
       <r>   5.6556  1.0000</r>
       <r>   6.9600  1.0000</r>
       <r>   6.9600  1.0000</r>
       <r>   6.9600  1.0000</r>
       <r>   6.9600  1.0000</r>
       <r>   7.4758  1.0000</r>
       <r>   7.4758  1.0000</r>
       <r>   7.4758  1.0000</r>
       <r>   7.4758  1.0000</r>
       <r>   8.7988  1.0000</r>
       <r>   8.7988  1.0000</r>
       <r>   8.7988  1.0000</r>
       <r>   8.7988  1.0000</r>
       <r>   9.8975  0.0000</r>
       <r>   9.8975  0.0000</r>
       <r>   9.8978  0.0000</r>
       <r>   9.8992  0.0000</r>
       <r>   9.9004  0.0000</r>
       <r>   9.9018  0.0000</r>
       <r>   9.9021  0.0000</r>
       <r>   9.9021  0.0000</r>
       <r>  11.3504  0.0000</r>
       <r>  11.3504  0.0000</r>
       <r>  11.3504  0.0000</r>
       <r>  11.3504  0.0000</r>
       <r>  11.3504  0.0000</r>
       <r>  11.3504  0.0000</r>
       <r>  11.3504  0.0000</r>
       <r>  11.3505  0.0000</r>
       <r>  12.0712  0.0000</r>
       <r>  12.0712  0.0000</r>
       <r>  12.0712  0.0000</r>
       <r>  12.0712  0.0000</r>
      </set>
      <set comment="kpoint 191">
       <r>  -1.5655  1.0000</r>
       <r>  -1.5654  1.0000</r>
       <r>  -1.5654  1.0000</r>
       <r>  -1.5654  1.0000</r>
       <r>   0.4102  1.0000</r>
       <r>   0.4102  1.0000</r>
       <r>   0.4102  1.0000</r>
       <r>   0.4102  1.0000</r>
       <r>   1.1916  1.0000</r>
       <r>   1.1916  1.0000</r>
       <r>   1.1916  1.0000</r>
       <r>   1.1916  1.0000</r>
       <r>   3.1165  1.0000</r>
       <r>   3.1165  1.0000</r>
       <r>   3.1166  1.0000</r>
       <r>   3.1166  1.0000</r>
       <r>   3.1166  1.0000</r>
       <r>   3.1166  1.0000</r>
       <r>   3.1166  1.0000</r>
       <r>   3.1166  1.0000</r>
       <r>   4.9620  1.0000</r>
       <r>   4.9620  1.0000</r>
       <r>   4.9628  1.0000</r>
       <r>   4.9628  1.0000</r>
       <r>   4.9628  1.0000</r>
       <r>   4.9628  1.0000</r>
       <r>   4.9636  1.0000</r>
       <r>   4.9636  1.0000</r>
       <r>   5.8709  1.0000</r>
       <r>   5.8709  1.0000</r>
       <r>   5.8720  1.0000</r>
       <r>   5.8720  1.0000</r>
       <r>   5.8720  1.0000</r>
       <r>   5.8720  1.0000</r>
       <r>   5.8732  1.0000</r>
       <r>   5.8732  1.0000</r>
       <r>   6.6510  1.0000</r>
       <r>   6.6510  1.0000</r>
       <r>   6.6510  1.0000</r>
       <r>   6.6510  1.0000</r>
       <r>   7.5714  1.0000</r>
       <r>   7.5714  1.0000</r>
       <r>   7.5714  1.0000</r>
       <r>   7.5714  1.0000</r>
       <r>   9.0560  0.0010</r>
       <r>   9.0561  0.0010</r>
       <r>   9.0561  0.0010</r>
       <r>   9.0561  0.0010</r>
       <r>   9.5432  0.0000</r>
       <r>   9.5432  0.0000</r>
       <r>   9.5432  0.0000</r>
       <r>   9.5432  0.0000</r>
       <r>  10.2863  0.0000</r>
       <r>  10.2863  0.0000</r>
       <r>  10.2863  0.0000</r>
       <r>  10.2863  0.0000</r>
       <r>  11.0676  0.0000</r>
       <r>  11.0676  0.0000</r>
       <r>  11.0684  0.0000</r>
       <r>  11.0684  0.0000</r>
       <r>  11.0684  0.0000</r>
       <r>  11.0685  0.0000</r>
       <r>  11.0693  0.0000</r>
       <r>  11.0693  0.0000</r>
       <r>  12.1956  0.0000</r>
       <r>  12.1962  0.0000</r>
       <r>  12.1965  0.0000</r>
       <r>  12.1974  0.0000</r>
      </set>
      <set comment="kpoint 192">
       <r>  -1.5157  1.0000</r>
       <r>  -1.5157  1.0000</r>
       <r>  -1.5157  1.0000</r>
       <r>  -1.5157  1.0000</r>
       <r>   0.0667  1.0000</r>
       <r>   0.0667  1.0000</r>
       <r>   0.0667  1.0000</r>
       <r>   0.0667  1.0000</r>
       <r>   1.6287  1.0000</r>
       <r>   1.6287  1.0000</r>
       <r>   1.6287  1.0000</r>
       <r>   1.6287  1.0000</r>
       <r>   3.1643  1.0000</r>
       <r>   3.1643  1.0000</r>
       <r>   3.1644  1.0000</r>
       <r>   3.1644  1.0000</r>
       <r>   3.1644  1.0000</r>
       <r>   3.1644  1.0000</r>
       <r>   3.1644  1.0000</r>
       <r>   3.1644  1.0000</r>
       <r>   4.6648  1.0000</r>
       <r>   4.6648  1.0000</r>
       <r>   4.6652  1.0000</r>
       <r>   4.6652  1.0000</r>
       <r>   4.6652  1.0000</r>
       <r>   4.6652  1.0000</r>
       <r>   4.6656  1.0000</r>
       <r>   4.6656  1.0000</r>
       <r>   6.0846  1.0000</r>
       <r>   6.0846  1.0000</r>
       <r>   6.0847  1.0000</r>
       <r>   6.0847  1.0000</r>
       <r>   6.2599  1.0000</r>
       <r>   6.2599  1.0000</r>
       <r>   6.2606  1.0000</r>
       <r>   6.2606  1.0000</r>
       <r>   6.2606  1.0000</r>
       <r>   6.2607  1.0000</r>
       <r>   6.2614  1.0000</r>
       <r>   6.2614  1.0000</r>
       <r>   7.6754  1.0000</r>
       <r>   7.6754  1.0000</r>
       <r>   7.6754  1.0000</r>
       <r>   7.6754  1.0000</r>
       <r>   9.2168  0.0000</r>
       <r>   9.2168  0.0000</r>
       <r>   9.2168  0.0000</r>
       <r>   9.2168  0.0000</r>
       <r>   9.6500  0.0000</r>
       <r>   9.6501  0.0000</r>
       <r>   9.6501  0.0000</r>
       <r>   9.6501  0.0000</r>
       <r>  10.5329  0.0000</r>
       <r>  10.5329  0.0000</r>
       <r>  10.5336  0.0000</r>
       <r>  10.5336  0.0000</r>
       <r>  10.5336  0.0000</r>
       <r>  10.5337  0.0000</r>
       <r>  10.5344  0.0000</r>
       <r>  10.5344  0.0000</r>
       <r>  10.7026  0.0000</r>
       <r>  10.7026  0.0000</r>
       <r>  10.7026  0.0000</r>
       <r>  10.7026  0.0000</r>
       <r>  12.3478  0.0000</r>
       <r>  12.3487  0.0000</r>
       <r>  12.3489  0.0000</r>
       <r>  12.3495  0.0000</r>
      </set>
      <set comment="kpoint 193">
       <r>  -1.4328  1.0000</r>
       <r>  -1.4328  1.0000</r>
       <r>  -1.4328  1.0000</r>
       <r>  -1.4328  1.0000</r>
       <r>  -0.2449  1.0000</r>
       <r>  -0.2449  1.0000</r>
       <r>  -0.2449  1.0000</r>
       <r>  -0.2449  1.0000</r>
       <r>   2.0960  1.0000</r>
       <r>   2.0961  1.0000</r>
       <r>   2.0961  1.0000</r>
       <r>   2.0961  1.0000</r>
       <r>   3.2439  1.0000</r>
       <r>   3.2439  1.0000</r>
       <r>   3.2440  1.0000</r>
       <r>   3.2440  1.0000</r>
       <r>   3.2440  1.0000</r>
       <r>   3.2440  1.0000</r>
       <r>   3.2440  1.0000</r>
       <r>   3.2440  1.0000</r>
       <r>   4.3762  1.0000</r>
       <r>   4.3762  1.0000</r>
       <r>   4.3765  1.0000</r>
       <r>   4.3765  1.0000</r>
       <r>   4.3765  1.0000</r>
       <r>   4.3765  1.0000</r>
       <r>   4.3767  1.0000</r>
       <r>   4.3767  1.0000</r>
       <r>   5.4689  1.0000</r>
       <r>   5.4689  1.0000</r>
       <r>   5.4689  1.0000</r>
       <r>   5.4689  1.0000</r>
       <r>   6.7002  1.0000</r>
       <r>   6.7002  1.0000</r>
       <r>   6.7008  1.0000</r>
       <r>   6.7008  1.0000</r>
       <r>   6.7008  1.0000</r>
       <r>   6.7008  1.0000</r>
       <r>   6.7014  1.0000</r>
       <r>   6.7014  1.0000</r>
       <r>   7.7757  1.0000</r>
       <r>   7.7757  1.0000</r>
       <r>   7.7757  1.0000</r>
       <r>   7.7757  1.0000</r>
       <r>   8.9208  1.0000</r>
       <r>   8.9208  1.0000</r>
       <r>   8.9208  1.0000</r>
       <r>   8.9208  1.0000</r>
       <r>   9.9447  0.0000</r>
       <r>   9.9447  0.0000</r>
       <r>   9.9454  0.0000</r>
       <r>   9.9454  0.0000</r>
       <r>   9.9454  0.0000</r>
       <r>   9.9454  0.0000</r>
       <r>   9.9460  0.0000</r>
       <r>   9.9460  0.0000</r>
       <r>  10.3847  0.0000</r>
       <r>  10.3847  0.0000</r>
       <r>  10.3847  0.0000</r>
       <r>  10.3847  0.0000</r>
       <r>  11.1480  0.0000</r>
       <r>  11.1480  0.0000</r>
       <r>  11.1480  0.0000</r>
       <r>  11.1480  0.0000</r>
       <r>  12.4738  0.0000</r>
       <r>  12.4745  0.0000</r>
       <r>  12.4750  0.0000</r>
       <r>  12.4753  0.0000</r>
      </set>
      <set comment="kpoint 194">
       <r>  -1.3169  1.0000</r>
       <r>  -1.3168  1.0000</r>
       <r>  -1.3168  1.0000</r>
       <r>  -1.3168  1.0000</r>
       <r>  -0.5243  1.0000</r>
       <r>  -0.5243  1.0000</r>
       <r>  -0.5243  1.0000</r>
       <r>  -0.5243  1.0000</r>
       <r>   2.5931  1.0000</r>
       <r>   2.5931  1.0000</r>
       <r>   2.5931  1.0000</r>
       <r>   2.5931  1.0000</r>
       <r>   3.3552  1.0000</r>
       <r>   3.3552  1.0000</r>
       <r>   3.3553  1.0000</r>
       <r>   3.3553  1.0000</r>
       <r>   3.3553  1.0000</r>
       <r>   3.3553  1.0000</r>
       <r>   3.3553  1.0000</r>
       <r>   3.3553  1.0000</r>
       <r>   4.1124  1.0000</r>
       <r>   4.1124  1.0000</r>
       <r>   4.1125  1.0000</r>
       <r>   4.1125  1.0000</r>
       <r>   4.1125  1.0000</r>
       <r>   4.1125  1.0000</r>
       <r>   4.1127  1.0000</r>
       <r>   4.1127  1.0000</r>
       <r>   4.8524  1.0000</r>
       <r>   4.8524  1.0000</r>
       <r>   4.8524  1.0000</r>
       <r>   4.8524  1.0000</r>
       <r>   7.1755  1.0000</r>
       <r>   7.1755  1.0000</r>
       <r>   7.1761  1.0000</r>
       <r>   7.1761  1.0000</r>
       <r>   7.1761  1.0000</r>
       <r>   7.1761  1.0000</r>
       <r>   7.1766  1.0000</r>
       <r>   7.1766  1.0000</r>
       <r>   7.8949  1.0000</r>
       <r>   7.8949  1.0000</r>
       <r>   7.8949  1.0000</r>
       <r>   7.8949  1.0000</r>
       <r>   8.6552  1.0000</r>
       <r>   8.6552  1.0000</r>
       <r>   8.6552  1.0000</r>
       <r>   8.6552  1.0000</r>
       <r>   9.3525  0.0000</r>
       <r>   9.3525  0.0000</r>
       <r>   9.3531  0.0000</r>
       <r>   9.3531  0.0000</r>
       <r>   9.3531  0.0000</r>
       <r>   9.3531  0.0000</r>
       <r>   9.3536  0.0000</r>
       <r>   9.3536  0.0000</r>
       <r>  11.1884  0.0000</r>
       <r>  11.1884  0.0000</r>
       <r>  11.1884  0.0000</r>
       <r>  11.1884  0.0000</r>
       <r>  11.6221  0.0000</r>
       <r>  11.6221  0.0000</r>
       <r>  11.6221  0.0000</r>
       <r>  11.6221  0.0000</r>
       <r>  12.6029  0.0000</r>
       <r>  12.6035  0.0000</r>
       <r>  12.6041  0.0000</r>
       <r>  12.6043  0.0000</r>
      </set>
      <set comment="kpoint 195">
       <r>  -1.1679  1.0000</r>
       <r>  -1.1679  1.0000</r>
       <r>  -1.1679  1.0000</r>
       <r>  -1.1679  1.0000</r>
       <r>  -0.7715  1.0000</r>
       <r>  -0.7715  1.0000</r>
       <r>  -0.7715  1.0000</r>
       <r>  -0.7714  1.0000</r>
       <r>   3.1188  1.0000</r>
       <r>   3.1189  1.0000</r>
       <r>   3.1189  1.0000</r>
       <r>   3.1189  1.0000</r>
       <r>   3.4981  1.0000</r>
       <r>   3.4981  1.0000</r>
       <r>   3.4981  1.0000</r>
       <r>   3.4981  1.0000</r>
       <r>   3.4981  1.0000</r>
       <r>   3.4981  1.0000</r>
       <r>   3.4982  1.0000</r>
       <r>   3.4982  1.0000</r>
       <r>   3.8772  1.0000</r>
       <r>   3.8772  1.0000</r>
       <r>   3.8773  1.0000</r>
       <r>   3.8773  1.0000</r>
       <r>   3.8773  1.0000</r>
       <r>   3.8773  1.0000</r>
       <r>   3.8774  1.0000</r>
       <r>   3.8774  1.0000</r>
       <r>   4.2512  1.0000</r>
       <r>   4.2512  1.0000</r>
       <r>   4.2512  1.0000</r>
       <r>   4.2513  1.0000</r>
       <r>   7.6813  1.0000</r>
       <r>   7.6813  1.0000</r>
       <r>   7.6818  1.0000</r>
       <r>   7.6818  1.0000</r>
       <r>   7.6818  1.0000</r>
       <r>   7.6818  1.0000</r>
       <r>   7.6823  1.0000</r>
       <r>   7.6823  1.0000</r>
       <r>   8.0406  1.0000</r>
       <r>   8.0406  1.0000</r>
       <r>   8.0406  1.0000</r>
       <r>   8.0406  1.0000</r>
       <r>   8.4201  1.0000</r>
       <r>   8.4201  1.0000</r>
       <r>   8.4201  1.0000</r>
       <r>   8.4201  1.0000</r>
       <r>   8.7733  1.0000</r>
       <r>   8.7733  1.0000</r>
       <r>   8.7738  1.0000</r>
       <r>   8.7738  1.0000</r>
       <r>   8.7738  1.0000</r>
       <r>   8.7739  1.0000</r>
       <r>   8.7744  1.0000</r>
       <r>   8.7744  1.0000</r>
       <r>  12.0370  0.0000</r>
       <r>  12.0371  0.0000</r>
       <r>  12.0371  0.0000</r>
       <r>  12.0371  0.0000</r>
       <r>  12.1242  0.0000</r>
       <r>  12.1242  0.0000</r>
       <r>  12.1242  0.0000</r>
       <r>  12.1242  0.0000</r>
       <r>  12.7501  0.0000</r>
       <r>  12.7506  0.0000</r>
       <r>  12.7509  0.0000</r>
       <r>  12.7510  0.0000</r>
      </set>
      <set comment="kpoint 196">
       <r>  -0.9911  1.0000</r>
       <r>  -0.9865  1.0000</r>
       <r>  -0.9865  1.0000</r>
       <r>  -0.9861  1.0000</r>
       <r>  -0.9860  1.0000</r>
       <r>  -0.9855  1.0000</r>
       <r>  -0.9855  1.0000</r>
       <r>  -0.9810  1.0000</r>
       <r>   3.6618  1.0000</r>
       <r>   3.6679  1.0000</r>
       <r>   3.6679  1.0000</r>
       <r>   3.6713  1.0000</r>
       <r>   3.6716  1.0000</r>
       <r>   3.6717  1.0000</r>
       <r>   3.6722  1.0000</r>
       <r>   3.6722  1.0000</r>
       <r>   3.6722  1.0000</r>
       <r>   3.6722  1.0000</r>
       <r>   3.6723  1.0000</r>
       <r>   3.6723  1.0000</r>
       <r>   3.6723  1.0000</r>
       <r>   3.6723  1.0000</r>
       <r>   3.6723  1.0000</r>
       <r>   3.6723  1.0000</r>
       <r>   3.6724  1.0000</r>
       <r>   3.6724  1.0000</r>
       <r>   3.6728  1.0000</r>
       <r>   3.6729  1.0000</r>
       <r>   3.6732  1.0000</r>
       <r>   3.6767  1.0000</r>
       <r>   3.6767  1.0000</r>
       <r>   3.6827  1.0000</r>
       <r>   8.2089  1.0000</r>
       <r>   8.2089  1.0000</r>
       <r>   8.2113  1.0000</r>
       <r>   8.2128  1.0000</r>
       <r>   8.2145  1.0000</r>
       <r>   8.2150  1.0000</r>
       <r>   8.2151  1.0000</r>
       <r>   8.2151  1.0000</r>
       <r>   8.2153  1.0000</r>
       <r>   8.2153  1.0000</r>
       <r>   8.2153  1.0000</r>
       <r>   8.2153  1.0000</r>
       <r>   8.2154  1.0000</r>
       <r>   8.2154  1.0000</r>
       <r>   8.2154  1.0000</r>
       <r>   8.2154  1.0000</r>
       <r>   8.2157  1.0000</r>
       <r>   8.2157  1.0000</r>
       <r>   8.2158  1.0000</r>
       <r>   8.2162  1.0000</r>
       <r>   8.2179  1.0000</r>
       <r>   8.2194  1.0000</r>
       <r>   8.2218  1.0000</r>
       <r>   8.2218  1.0000</r>
       <r>  12.6511  0.0000</r>
       <r>  12.6517  0.0000</r>
       <r>  12.6517  0.0000</r>
       <r>  12.6520  0.0000</r>
       <r>  12.6538  0.0000</r>
       <r>  12.6542  0.0000</r>
       <r>  12.6542  0.0000</r>
       <r>  12.6548  0.0000</r>
       <r>  12.9186  0.0000</r>
       <r>  12.9194  0.0000</r>
       <r>  12.9204  0.0000</r>
       <r>  12.9220  0.0000</r>
      </set>
     </set>
    </set>
   </array>
  </eigenvalues>
 </calculation>
 <structure name="finalpos" >
  <crystal>
   <varray name="basis" >
    <v>       7.83237436      0.00000000      0.00000000</v>
    <v>       0.00000000      7.83237436      0.00000000</v>
    <v>       0.00000000      0.00000000      7.83237436</v>
   </varray>
   <i name="volume">    480.48552712</i>
   <varray name="rec_basis" >
    <v>       0.12767520      0.00000000      0.00000000</v>
    <v>       0.00000000      0.12767520      0.00000000</v>
    <v>       0.00000000      0.00000000      0.12767520</v>
   </varray>
  </crystal>
  <varray name="positions" >
   <v>       0.25127675      0.25000000      0.00000000</v>
   <v>       0.75000000      0.25000000      0.00000000</v>
   <v>       0.25000000      0.75000000      0.00000000</v>
   <v>       0.75000000      0.75000000      0.00000000</v>
   <v>       0.25000000      0.25000000      0.50000000</v>
   <v>       0.75000000      0.25000000      0.50000000</v>
   <v>       0.25000000      0.75000000      0.50000000</v>
   <v>       0.75000000      0.75000000      0.50000000</v>
   <v>       0.25000000      0.00000000      0.25000000</v>
   <v>       0.75000000      0.00000000      0.25000000</v>
   <v>       0.25000000      0.50000000      0.25000000</v>
   <v>       0.75000000      0.50000000      0.25000000</v>
   <v>       0.25000000      0.00000000      0.75000000</v>
   <v>       0.75000000      0.00000000      0.75000000</v>
   <v>       0.25000000      0.50000000      0.75000000</v>
   <v>       0.75000000      0.50000000      0.75000000</v>
   <v>       0.00000000      0.25000000      0.25000000</v>
   <v>       0.50000000      0.25000000      0.25000000</v>
   <v>       0.00000000      0.75000000      0.25000000</v>
   <v>       0.50000000      0.75000000      0.25000000</v>
   <v>       0.00000000      0.25000000      0.75000000</v>
   <v>       0.50000000      0.25000000      0.75000000</v>
   <v>       0.00000000      0.75000000      0.75000000</v>
   <v>       0.50000000      0.75000000      0.75000000</v>
   <v>       0.00000000      0.00000000      0.00000000</v>
   <v>       0.50000000      0.00000000      0.00000000</v>
   <v>       0.00000000      0.50000000      0.00000000</v>
   <v>       0.50000000      0.50000000      0.00000000</v>
   <v>       0.00000000      0.00000000      0.50000000</v>
   <v>       0.50000000      0.00000000      0.50000000</v>
   <v>       0.00000000      0.50000000      0.50000000</v>
   <v>       0.50000000      0.50000000      0.50000000</v>
  </varray>
 </structure>
</modeling>
