  32  32   0   0
  0.1313628E+02  0.7491017E-09  0.7491017E-09  0.7491017E-09  0.5000000E-15
  1.000000000000000E-004
  CAR 
 unknown system                          
     12.24295637     -6.49158665  301      2.92230313      1.00000000
     -6.492  0.0000E+00  0.0000E+00
     -6.429  0.0000E+00  0.0000E+00
     -6.367  0.0000E+00  0.0000E+00
     -6.304  0.0000E+00  0.0000E+00
     -6.242  0.0000E+00  0.0000E+00
     -6.179  0.0000E+00  0.0000E+00
     -6.117  0.0000E+00  0.0000E+00
     -6.054  0.0000E+00  0.0000E+00
     -5.992  0.0000E+00  0.0000E+00
     -5.930  0.0000E+00  0.0000E+00
     -5.867  0.0000E+00  0.0000E+00
     -5.805  0.0000E+00  0.0000E+00
     -5.742  0.0000E+00  0.0000E+00
     -5.680  0.1769E-09  0.1105E-10
     -5.617  0.9536E-01  0.5955E-02
     -5.555  0.5141E+00  0.3806E-01
     -5.492  0.9162E+00  0.9528E-01
     -5.430  0.1306E+01  0.1768E+00
     -5.368  0.1361E+01  0.2618E+00
     -5.305  0.1220E+01  0.3380E+00
     -5.243  0.1807E+01  0.4509E+00
     -5.180  0.1419E+01  0.5395E+00
     -5.118  0.2500E+01  0.6956E+00
     -5.055  0.2304E+01  0.8399E+00
     -4.993  0.1376E+01  0.9259E+00
     -4.930  0.2427E+01  0.1077E+01
     -4.868  0.1942E+01  0.1199E+01
     -4.805  0.3265E+01  0.1403E+01
     -4.743  0.2666E+01  0.1569E+01
     -4.681  0.2143E+01  0.1703E+01
     -4.618  0.3206E+01  0.1903E+01
     -4.556  0.3032E+01  0.2093E+01
     -4.493  0.2391E+01  0.2242E+01
     -4.431  0.3084E+01  0.2435E+01
     -4.368  0.3904E+01  0.2678E+01
     -4.306  0.3698E+01  0.2910E+01
     -4.243  0.2453E+01  0.3063E+01
     -4.181  0.4454E+01  0.3341E+01
     -4.119  0.2258E+01  0.3482E+01
     -4.056  0.4099E+01  0.3738E+01
     -3.994  0.3626E+01  0.3965E+01
     -3.931  0.5626E+01  0.4316E+01
     -3.869  0.2920E+01  0.4498E+01
     -3.806  0.3498E+01  0.4717E+01
     -3.744  0.5342E+01  0.5050E+01
     -3.681  0.3788E+01  0.5288E+01
     -3.619  0.4934E+01  0.5596E+01
     -3.557  0.3329E+01  0.5804E+01
     -3.494  0.5002E+01  0.6116E+01
     -3.432  0.4390E+01  0.6390E+01
     -3.369  0.4990E+01  0.6702E+01
     -3.307  0.5127E+01  0.7022E+01
     -3.244  0.6364E+01  0.7420E+01
     -3.182  0.4613E+01  0.7708E+01
     -3.119  0.5320E+01  0.8040E+01
     -3.057  0.3837E+01  0.8280E+01
     -2.994  0.7094E+01  0.8723E+01
     -2.932  0.6951E+01  0.9157E+01
     -2.870  0.5636E+01  0.9509E+01
     -2.807  0.5709E+01  0.9866E+01
     -2.745  0.6419E+01  0.1027E+02
     -2.682  0.5183E+01  0.1059E+02
     -2.620  0.9462E+01  0.1118E+02
     -2.557  0.5512E+01  0.1153E+02
     -2.495  0.6570E+01  0.1194E+02
     -2.432  0.9447E+01  0.1253E+02
     -2.370  0.7379E+01  0.1299E+02
     -2.308  0.7900E+01  0.1348E+02
     -2.245  0.8198E+01  0.1399E+02
     -2.183  0.8587E+01  0.1453E+02
     -2.120  0.1025E+02  0.1517E+02
     -2.058  0.9840E+01  0.1578E+02
     -1.995  0.9653E+01  0.1639E+02
     -1.933  0.1146E+02  0.1710E+02
     -1.870  0.1239E+02  0.1788E+02
     -1.808  0.1363E+02  0.1873E+02
     -1.746  0.1192E+02  0.1947E+02
     -1.683  0.1778E+02  0.2058E+02
     -1.621  0.1826E+02  0.2172E+02
     -1.558  0.2380E+02  0.2321E+02
     -1.496  0.2530E+02  0.2479E+02
     -1.433  0.2878E+02  0.2659E+02
     -1.371  0.3159E+02  0.2856E+02
     -1.308  0.4099E+02  0.3112E+02
     -1.246  0.4031E+02  0.3364E+02
     -1.183  0.4409E+02  0.3639E+02
     -1.121  0.4188E+02  0.3901E+02
     -1.059  0.5143E+02  0.4222E+02
     -0.996  0.4305E+02  0.4491E+02
     -0.934  0.5542E+02  0.4837E+02
     -0.871  0.7196E+02  0.5287E+02
     -0.809  0.7450E+02  0.5752E+02
     -0.746  0.8280E+02  0.6269E+02
     -0.684  0.9133E+02  0.6840E+02
     -0.621  0.8731E+02  0.7385E+02
     -0.559  0.7471E+02  0.7852E+02
     -0.497  0.7620E+02  0.8328E+02
     -0.434  0.8075E+02  0.8832E+02
     -0.372  0.7787E+02  0.9319E+02
     -0.309  0.7588E+02  0.9792E+02
     -0.247  0.7659E+02  0.1027E+03
     -0.184  0.9904E+02  0.1089E+03
     -0.122  0.1022E+03  0.1153E+03
     -0.059  0.1186E+03  0.1227E+03
      0.003  0.1162E+03  0.1300E+03
      0.066  0.1262E+03  0.1378E+03
      0.128  0.1293E+03  0.1459E+03
      0.190  0.1524E+03  0.1554E+03
      0.253  0.1513E+03  0.1649E+03
      0.315  0.1659E+03  0.1752E+03
      0.378  0.1826E+03  0.1867E+03
      0.440  0.1259E+03  0.1945E+03
      0.503  0.1054E+03  0.2011E+03
      0.565  0.9723E+02  0.2072E+03
      0.628  0.9787E+02  0.2133E+03
      0.690  0.1032E+03  0.2197E+03
      0.752  0.1327E+03  0.2280E+03
      0.815  0.1363E+03  0.2365E+03
      0.877  0.1491E+03  0.2458E+03
      0.940  0.1350E+03  0.2543E+03
      1.002  0.1272E+03  0.2622E+03
      1.065  0.1199E+03  0.2697E+03
      1.127  0.1212E+03  0.2773E+03
      1.190  0.1296E+03  0.2854E+03
      1.252  0.1420E+03  0.2942E+03
      1.314  0.1809E+03  0.3055E+03
      1.377  0.2569E+03  0.3216E+03
      1.439  0.1351E+03  0.3300E+03
      1.502  0.7910E+02  0.3350E+03
      1.564  0.9250E+01  0.3356E+03
      1.627  0.2142E+02  0.3369E+03
      1.689  0.1112E+02  0.3376E+03
      1.752  0.1343E+02  0.3384E+03
      1.814  0.1529E+02  0.3394E+03
      1.877  0.9768E+01  0.3400E+03
      1.939  0.1663E+02  0.3410E+03
      2.001  0.1109E+02  0.3417E+03
      2.064  0.8704E+01  0.3423E+03
      2.126  0.1725E+02  0.3433E+03
      2.189  0.9756E+01  0.3440E+03
      2.251  0.8689E+01  0.3445E+03
      2.314  0.1430E+02  0.3454E+03
      2.376  0.1146E+02  0.3461E+03
      2.439  0.1027E+02  0.3467E+03
      2.501  0.1105E+02  0.3474E+03
      2.563  0.1085E+02  0.3481E+03
      2.626  0.1284E+02  0.3489E+03
      2.688  0.1028E+02  0.3496E+03
      2.751  0.8292E+01  0.3501E+03
      2.813  0.9914E+01  0.3507E+03
      2.876  0.1276E+02  0.3515E+03
      2.938  0.1320E+02  0.3523E+03
      3.001  0.7701E+01  0.3528E+03
      3.063  0.6869E+01  0.3532E+03
      3.125  0.1009E+02  0.3539E+03
      3.188  0.1064E+02  0.3545E+03
      3.250  0.1289E+02  0.3553E+03
      3.313  0.8379E+01  0.3559E+03
      3.375  0.1061E+02  0.3565E+03
      3.438  0.8161E+01  0.3570E+03
      3.500  0.6237E+01  0.3574E+03
      3.563  0.8834E+01  0.3580E+03
      3.625  0.1447E+02  0.3589E+03
      3.688  0.9526E+01  0.3595E+03
      3.750  0.8968E+01  0.3600E+03
      3.812  0.6199E+01  0.3604E+03
      3.875  0.9048E+01  0.3610E+03
      3.937  0.6064E+01  0.3614E+03
      4.000  0.1217E+02  0.3621E+03
      4.062  0.9863E+01  0.3627E+03
      4.125  0.1022E+02  0.3634E+03
      4.187  0.8468E+01  0.3639E+03
      4.250  0.7234E+01  0.3644E+03
      4.312  0.6508E+01  0.3648E+03
      4.374  0.7055E+01  0.3652E+03
      4.437  0.1181E+02  0.3659E+03
      4.499  0.8643E+01  0.3665E+03
      4.562  0.9629E+01  0.3671E+03
      4.624  0.8909E+01  0.3676E+03
      4.687  0.8012E+01  0.3681E+03
      4.749  0.6411E+01  0.3685E+03
      4.812  0.7658E+01  0.3690E+03
      4.874  0.7011E+01  0.3695E+03
      4.936  0.9857E+01  0.3701E+03
      4.999  0.9772E+01  0.3707E+03
      5.061  0.8335E+01  0.3712E+03
      5.124  0.7298E+01  0.3717E+03
      5.186  0.5447E+01  0.3720E+03
      5.249  0.8173E+01  0.3725E+03
      5.311  0.5464E+01  0.3728E+03
      5.374  0.5239E+01  0.3732E+03
      5.436  0.9686E+01  0.3738E+03
      5.499  0.9130E+01  0.3744E+03
      5.561  0.5103E+01  0.3747E+03
      5.623  0.8572E+01  0.3752E+03
      5.686  0.5728E+01  0.3756E+03
      5.748  0.4349E+01  0.3758E+03
      5.811  0.5096E+01  0.3762E+03
      5.873  0.7622E+01  0.3766E+03
      5.936  0.5922E+01  0.3770E+03
      5.998  0.5464E+01  0.3773E+03
      6.061  0.6057E+01  0.3777E+03
      6.123  0.5511E+01  0.3781E+03
      6.185  0.6534E+01  0.3785E+03
      6.248  0.7196E+01  0.3789E+03
      6.310  0.9284E+01  0.3795E+03
      6.373  0.6088E+01  0.3799E+03
      6.435  0.8845E+01  0.3804E+03
      6.498  0.1361E+02  0.3813E+03
      6.560  0.9458E+01  0.3819E+03
      6.623  0.8411E+01  0.3824E+03
      6.685  0.9176E+01  0.3830E+03
      6.747  0.1219E+02  0.3837E+03
      6.810  0.8627E+01  0.3843E+03
      6.872  0.8711E+01  0.3848E+03
      6.935  0.9967E+01  0.3854E+03
      6.997  0.9078E+01  0.3860E+03
      7.060  0.9361E+01  0.3866E+03
      7.122  0.1295E+02  0.3874E+03
      7.185  0.8437E+01  0.3879E+03
      7.247  0.1106E+02  0.3886E+03
      7.310  0.8143E+01  0.3891E+03
      7.372  0.5912E+01  0.3895E+03
      7.434  0.1194E+02  0.3902E+03
      7.497  0.1301E+02  0.3911E+03
      7.559  0.5831E+01  0.3914E+03
      7.622  0.1189E+02  0.3922E+03
      7.684  0.6831E+01  0.3926E+03
      7.747  0.8968E+01  0.3932E+03
      7.809  0.8852E+01  0.3937E+03
      7.872  0.1168E+02  0.3944E+03
      7.934  0.8156E+01  0.3949E+03
      7.996  0.9627E+01  0.3955E+03
      8.059  0.1020E+02  0.3962E+03
      8.121  0.6829E+01  0.3966E+03
      8.184  0.8011E+01  0.3971E+03
      8.246  0.9165E+01  0.3977E+03
      8.309  0.6658E+01  0.3981E+03
      8.371  0.1143E+02  0.3988E+03
      8.434  0.7318E+01  0.3993E+03
      8.496  0.8659E+01  0.3998E+03
      8.558  0.1014E+02  0.4004E+03
      8.621  0.7140E+01  0.4009E+03
      8.683  0.7199E+01  0.4013E+03
      8.746  0.9059E+01  0.4019E+03
      8.808  0.4885E+01  0.4022E+03
      8.871  0.1040E+02  0.4029E+03
      8.933  0.7921E+01  0.4034E+03
      8.996  0.7132E+01  0.4038E+03
      9.058  0.1030E+02  0.4044E+03
      9.121  0.4358E+01  0.4047E+03
      9.183  0.1002E+02  0.4053E+03
      9.245  0.7397E+01  0.4058E+03
      9.308  0.5678E+01  0.4062E+03
      9.370  0.8591E+01  0.4067E+03
      9.433  0.1079E+02  0.4074E+03
      9.495  0.8205E+01  0.4079E+03
      9.558  0.1047E+02  0.4085E+03
      9.620  0.1045E+02  0.4092E+03
      9.683  0.1007E+02  0.4098E+03
      9.745  0.1219E+02  0.4106E+03
      9.807  0.7270E+01  0.4110E+03
      9.870  0.1262E+02  0.4118E+03
      9.932  0.1141E+02  0.4125E+03
      9.995  0.8193E+01  0.4130E+03
     10.057  0.1101E+02  0.4137E+03
     10.120  0.1314E+02  0.4146E+03
     10.182  0.1039E+02  0.4152E+03
     10.245  0.1101E+02  0.4159E+03
     10.307  0.1130E+02  0.4166E+03
     10.370  0.1150E+02  0.4173E+03
     10.432  0.1219E+02  0.4181E+03
     10.494  0.1128E+02  0.4188E+03
     10.557  0.1009E+02  0.4194E+03
     10.619  0.9913E+01  0.4200E+03
     10.682  0.7293E+01  0.4205E+03
     10.744  0.1065E+02  0.4212E+03
     10.807  0.6076E+01  0.4215E+03
     10.869  0.1112E+02  0.4222E+03
     10.932  0.6970E+01  0.4227E+03
     10.994  0.6138E+01  0.4230E+03
     11.056  0.4523E+01  0.4233E+03
     11.119  0.4378E+01  0.4236E+03
     11.181  0.3179E+01  0.4238E+03
     11.244  0.6478E+00  0.4238E+03
     11.306  0.7449E+00  0.4239E+03
     11.369  0.8928E+00  0.4239E+03
     11.431  0.9452E+00  0.4240E+03
     11.494  0.0000E+00  0.4240E+03
     11.556  0.0000E+00  0.4240E+03
     11.618  0.0000E+00  0.4240E+03
     11.681  0.0000E+00  0.4240E+03
     11.743  0.0000E+00  0.4240E+03
     11.806  0.0000E+00  0.4240E+03
     11.868  0.0000E+00  0.4240E+03
     11.931  0.0000E+00  0.4240E+03
     11.993  0.0000E+00  0.4240E+03
     12.056  0.0000E+00  0.4240E+03
     12.118  0.0000E+00  0.4240E+03
     12.181  0.0000E+00  0.4240E+03
     12.243  0.0000E+00  0.4240E+03
