   32   32    1    1
  0.1313628E+02  0.7491017E-09  0.7491017E-09  0.7491017E-09  0.5000000E-15
  1.000000000000000E-004
  CAR 
 unknown system                          
  352  196  212
 
  0.0000000E+00  0.0000000E+00  0.0000000E+00  0.5787037E-03
   1       -5.6400
   2       -3.0570
   3       -3.0540
   4       -3.0540
   5       -3.0540
   6       -3.0540
   7       -3.0510
   8       -1.5999
   9       -1.5999
  10       -1.5998
  11       -1.5998
  12       -1.3806
  13       -1.3806
  14       -1.3806
  15       -1.2811
  16       -1.2789
  17       -1.2789
  18       -1.2779
  19       -1.2777
  20       -1.2776
  21       -1.2776
  22       -1.2776
  23       -1.2774
  24       -1.2764
  25       -1.2764
  26       -1.2742
  27       -0.9929
  28       -0.9929
  29       -0.9929
  30       -0.7344
  31       -0.7327
  32       -0.7327
  33       -0.7327
  34       -0.7327
  35       -0.7311
  36       -0.4184
  37       -0.4169
  38       -0.4169
  39       -0.4169
  40       -0.4169
  41       -0.4154
  42       -0.2333
  43       -0.2323
  44       -0.2323
  45       -0.2303
  46       -0.2303
  47       -0.2302
  48       -0.2302
  49       -0.2302
  50       -0.2301
  51       -0.2301
  52       -0.2297
  53       -0.2296
  54       -0.2296
  55       -0.2293
  56       -0.2293
  57       -0.2291
  58       -0.2291
  59       -0.2291
  60       -0.2291
  61       -0.2290
  62       -0.2290
  63       -0.2273
  64       -0.2273
  65       -0.2255
  66       -0.0498
  67       -0.0477
  68       -0.0477
  69       -0.0474
  70       -0.0473
  71       -0.0473
  72       -0.0472
  73       -0.0472
  74       -0.0471
  75       -0.0468
  76       -0.0468
  77       -0.0447
  78        0.1623
  79        0.1623
  80        0.1623
  81        0.1623
  82        0.1623
  83        0.1623
  84        0.1624
  85        0.1624
  86        0.1846
  87        0.1846
  88        0.1846
  89        0.5071
  90        0.5085
  91        0.5085
  92        0.5086
  93        0.5086
  94        0.5099
  95        0.6156
  96        0.6161
  97        0.6167
  98        0.6167
  99        0.6171
 100        0.6171
 101        0.6171
 102        0.6171
 103        0.6176
 104        0.6176
 105        0.6183
 106        0.6186
 107        0.7463
 108        0.7463
 109        0.7478
 110        0.7478
 111        0.7480
 112        0.7480
 113        0.7480
 114        0.7480
 115        0.7482
 116        0.7482
 117        0.7496
 118        0.7496
 119        0.8561
 120        0.8569
 121        0.8569
 122        0.8570
 123        0.8570
 124        0.8579
 125        0.8812
 126        0.8812
 127        0.8824
 128        0.8826
 129        0.8827
 130        0.8828
 131        0.8828
 132        0.8828
 133        0.8828
 134        0.8832
 135        0.8845
 136        0.8845
 137        0.8862
 138        0.8865
 139        1.1167
 140        1.1175
 141        1.1175
 142        1.1175
 143        1.1175
 144        1.1182
 145        1.3531
 146        1.3531
 147        1.3531
 148        1.3653
 149        1.3653
 150        1.3653
 151        1.3653
 152        1.3653
 153        1.3653
 154        1.3653
 155        1.3653
 156        1.4835
 157        1.4838
 158        1.4838
 159        1.4838
 160        1.4838
 161        1.4838
 162        1.4844
 163        1.4844
 164        1.4844
 165        1.4844
 166        1.4844
 167        1.4847
 168        2.2320
 169        2.2320
 170        2.2320
 171        2.2320
 172        2.5596
 173        2.5599
 174        2.5599
 175        2.5608
 176        2.5610
 177        2.5610
 178        2.5610
 179        2.5610
 180        2.5613
 181        2.5621
 182        2.5621
 183        2.5625
 184        4.5167
 185        4.5167
 186        4.5167
 187        6.1749
 188        6.1749
 189        6.1749
 190        6.1749
 191        8.7572
 192        8.7572
 193        8.7606
 194        8.7606
 195        8.7609
 196        8.7609
 197        8.7609
 198        8.7609
 199        8.7612
 200        8.7612
 201        8.7646
 202        8.7646
 203        9.3302
 204        9.3302
 205        9.3302
 206       10.7484
 207       10.7512
 208       10.7512
 209       10.7514
 210       10.7522
 211       10.7542
 212       10.8149
 
  0.8333333E-01  0.0000000E+00  0.0000000E+00  0.1157407E-02
   1       -5.6204
   2       -3.4215
   3       -3.0379
   4       -3.0379
   5       -3.0379
   6       -3.0379
   7       -2.6877
   8       -1.5958
   9       -1.5958
  10       -1.5958
  11       -1.5958
  12       -1.4764
  13       -1.4764
  14       -1.4764
  15       -1.4764
  16       -1.3809
  17       -1.3718
  18       -1.3718
  19       -1.2860
  20       -1.2860
  21       -1.2860
  22       -1.2860
  23       -1.0978
  24       -1.0978
  25       -1.0978
  26       -1.0977
  27       -0.9881
  28       -0.9878
  29       -0.9878
  30       -0.7478
  31       -0.7476
  32       -0.7261
  33       -0.7261
  34       -0.7261
  35       -0.7260
  36       -0.4935
  37       -0.4148
  38       -0.4148
  39       -0.4148
  40       -0.4147
  41       -0.3550
  42       -0.3550
  43       -0.3398
  44       -0.2443
  45       -0.2439
  46       -0.2439
  47       -0.2439
  48       -0.2375
  49       -0.2375
  50       -0.2375
  51       -0.2375
  52       -0.2296
  53       -0.2295
  54       -0.2294
  55       -0.2294
  56       -0.2180
  57       -0.2180
  58       -0.2180
  59       -0.2178
  60       -0.2082
  61       -0.2082
  62       -0.2082
  63       -0.2079
  64       -0.1076
  65       -0.1075
  66       -0.1075
  67       -0.1075
  68       -0.0941
  69       -0.0941
  70       -0.0433
  71       -0.0433
  72       -0.0433
  73       -0.0433
  74        0.0016
  75        0.0016
  76        0.0016
  77        0.0017
  78        0.1591
  79        0.1591
  80        0.1591
  81        0.1591
  82        0.1670
  83        0.1670
  84        0.1670
  85        0.1670
  86        0.1793
  87        0.1889
  88        0.1889
  89        0.4825
  90        0.4825
  91        0.4826
  92        0.4826
  93        0.5137
  94        0.5393
  95        0.5968
  96        0.5969
  97        0.5969
  98        0.5969
  99        0.6157
 100        0.6157
 101        0.6157
 102        0.6157
 103        0.6384
 104        0.6384
 105        0.6384
 106        0.6384
 107        0.6664
 108        0.6664
 109        0.7479
 110        0.7479
 111        0.7479
 112        0.7479
 113        0.7705
 114        0.7705
 115        0.7705
 116        0.7705
 117        0.8323
 118        0.8323
 119        0.8441
 120        0.8442
 121        0.8442
 122        0.8442
 123        0.8571
 124        0.8572
 125        0.8572
 126        0.8572
 127        0.8693
 128        0.8694
 129        0.8814
 130        0.8881
 131        0.9035
 132        0.9035
 133        0.9035
 134        0.9036
 135        0.9295
 136        0.9295
 137        0.9295
 138        0.9295
 139        1.0870
 140        1.1228
 141        1.1228
 142        1.1228
 143        1.1228
 144        1.1480
 145        1.3138
 146        1.3138
 147        1.3138
 148        1.3138
 149        1.3470
 150        1.3470
 151        1.3511
 152        1.3602
 153        1.3602
 154        1.3602
 155        1.3602
 156        1.4529
 157        1.4529
 158        1.4764
 159        1.4764
 160        1.4765
 161        1.4765
 162        1.4765
 163        1.4765
 164        1.4835
 165        1.4838
 166        1.4844
 167        1.4847
 168        2.2567
 169        2.2567
 170        2.2567
 171        2.2567
 172        2.3119
 173        2.3119
 174        2.3119
 175        2.3119
 176        2.5600
 177        2.5600
 178        2.5600
 179        2.5600
 180        2.8552
 181        2.8552
 182        2.8552
 183        2.8552
 184        4.3714
 185        4.5654
 186        4.5654
 187        6.2367
 188        6.2367
 189        6.2367
 190        6.2367
 191        8.2269
 192        8.2269
 193        8.4517
 194        8.4517
 195        8.4518
 196        8.4518
 197        8.7870
 198        8.7870
 199        8.7870
 200        8.7870
 201        9.3152
 202        9.3152
 203        9.3383
 204        9.3383
 205        9.5156
 206       10.5147
 207       10.5147
 208       10.7983
 209       10.7983
 210       10.7983
 211       10.7983
 212       11.0948
 
  0.1666667E+00  0.0000000E+00  0.0000000E+00  0.1157407E-02
   1       -5.5617
   2       -3.7771
   3       -2.9899
   4       -2.9898
   5       -2.9898
   6       -2.9898
   7       -2.3407
   8       -1.6876
   9       -1.6876
  10       -1.6876
  11       -1.6876
  12       -1.5839
  13       -1.5839
  14       -1.5839
  15       -1.5838
  16       -1.3830
  17       -1.3459
  18       -1.3459
  19       -1.3094
  20       -1.3094
  21       -1.3094
  22       -1.3094
  23       -0.9737
  24       -0.9726
  25       -0.9726
  26       -0.9403
  27       -0.9403
  28       -0.9403
  29       -0.9403
  30       -0.7901
  31       -0.7901
  32       -0.7065
  33       -0.7065
  34       -0.7065
  35       -0.7065
  36       -0.5684
  37       -0.4683
  38       -0.4683
  39       -0.4085
  40       -0.4085
  41       -0.4085
  42       -0.4085
  43       -0.2637
  44       -0.2620
  45       -0.2619
  46       -0.2619
  47       -0.2619
  48       -0.2591
  49       -0.2591
  50       -0.2591
  51       -0.2591
  52       -0.2275
  53       -0.2274
  54       -0.2274
  55       -0.2274
  56       -0.2107
  57       -0.2107
  58       -0.2107
  59       -0.2105
  60       -0.1771
  61       -0.1770
  62       -0.1770
  63       -0.1770
  64       -0.1473
  65       -0.1473
  66       -0.1473
  67       -0.1473
  68       -0.0317
  69       -0.0317
  70       -0.0317
  71       -0.0317
  72        0.0404
  73        0.0405
  74        0.0405
  75        0.0405
  76        0.0529
  77        0.0529
  78        0.1495
  79        0.1495
  80        0.1495
  81        0.1495
  82        0.1637
  83        0.1809
  84        0.1809
  85        0.1809
  86        0.1809
  87        0.2017
  88        0.2017
  89        0.4255
  90        0.4255
  91        0.4255
  92        0.4255
  93        0.5416
  94        0.5492
  95        0.5492
  96        0.5492
  97        0.5492
  98        0.5888
  99        0.5888
 100        0.6241
 101        0.6345
 102        0.6345
 103        0.6345
 104        0.6348
 105        0.6740
 106        0.6740
 107        0.6740
 108        0.6740
 109        0.7478
 110        0.7478
 111        0.7478
 112        0.7478
 113        0.8126
 114        0.8126
 115        0.8131
 116        0.8131
 117        0.8135
 118        0.8135
 119        0.8141
 120        0.8141
 121        0.8572
 122        0.8572
 123        0.8572
 124        0.8572
 125        0.8673
 126        0.8940
 127        0.9042
 128        0.9043
 129        0.9183
 130        0.9183
 131        0.9526
 132        0.9526
 133        0.9526
 134        0.9526
 135        0.9836
 136        0.9836
 137        0.9837
 138        0.9837
 139        1.0572
 140        1.1432
 141        1.1432
 142        1.1432
 143        1.1432
 144        1.1780
 145        1.1799
 146        1.1799
 147        1.1799
 148        1.1799
 149        1.3286
 150        1.3286
 151        1.3449
 152        1.3449
 153        1.3449
 154        1.3449
 155        1.3451
 156        1.3658
 157        1.3658
 158        1.4531
 159        1.4531
 160        1.4531
 161        1.4531
 162        1.4547
 163        1.4547
 164        1.4835
 165        1.4838
 166        1.4844
 167        1.4847
 168        2.0994
 169        2.0994
 170        2.0994
 171        2.0994
 172        2.3135
 173        2.3135
 174        2.3135
 175        2.3135
 176        2.5565
 177        2.5565
 178        2.5565
 179        2.5566
 180        3.2017
 181        3.2017
 182        3.2017
 183        3.2017
 184        3.9915
 185        4.7061
 186        4.7061
 187        6.4183
 188        6.4183
 189        6.4183
 190        6.4183
 191        7.7145
 192        7.7145
 193        7.8228
 194        7.8228
 195        7.8228
 196        7.8228
 197        8.8647
 198        8.8647
 199        8.8647
 200        8.8647
 201        9.3628
 202        9.3628
 203        9.8887
 204        9.8887
 205       10.0165
 206       10.2824
 207       10.2824
 208       10.8081
 209       10.8085
 210       10.8112
 211       10.8179
 212       10.8449
 
  0.2500000E+00  0.0000000E+00  0.0000000E+00  0.1157407E-02
   1       -5.4642
   2       -4.1122
   3       -2.9105
   4       -2.9105
   5       -2.9105
   6       -2.9105
   7       -2.0352
   8       -1.9033
   9       -1.9033
  10       -1.9033
  11       -1.9033
  12       -1.5643
  13       -1.5643
  14       -1.5643
  15       -1.5643
  16       -1.3896
  17       -1.3436
  18       -1.3436
  19       -1.3436
  20       -1.3436
  21       -1.3038
  22       -1.3038
  23       -0.9500
  24       -0.9471
  25       -0.9471
  26       -0.8539
  27       -0.8539
  28       -0.8059
  29       -0.8059
  30       -0.8059
  31       -0.8059
  32       -0.6750
  33       -0.6749
  34       -0.6749
  35       -0.6749
  36       -0.6403
  37       -0.5701
  38       -0.5701
  39       -0.3982
  40       -0.3982
  41       -0.3982
  42       -0.3982
  43       -0.2935
  44       -0.2935
  45       -0.2935
  46       -0.2935
  47       -0.2824
  48       -0.2823
  49       -0.2823
  50       -0.2823
  51       -0.2516
  52       -0.2516
  53       -0.2516
  54       -0.2516
  55       -0.2243
  56       -0.2241
  57       -0.2241
  58       -0.2241
  59       -0.2070
  60       -0.2070
  61       -0.2070
  62       -0.2069
  63       -0.1896
  64       -0.0508
  65       -0.0508
  66       -0.0508
  67       -0.0508
  68       -0.0133
  69       -0.0133
  70       -0.0132
  71       -0.0132
  72        0.0738
  73        0.0738
  74        0.0738
  75        0.0738
  76        0.1341
  77        0.1341
  78        0.1341
  79        0.1341
  80        0.1379
  81        0.2038
  82        0.2038
  83        0.2038
  84        0.2038
  85        0.2101
  86        0.2101
  87        0.2230
  88        0.2230
  89        0.3606
  90        0.3606
  91        0.3606
  92        0.3606
  93        0.4912
  94        0.4912
  95        0.4912
  96        0.4913
  97        0.5163
  98        0.5163
  99        0.5828
 100        0.6687
 101        0.6688
 102        0.6688
 103        0.6688
 104        0.7161
 105        0.7161
 106        0.7161
 107        0.7161
 108        0.7479
 109        0.7479
 110        0.7479
 111        0.7479
 112        0.7859
 113        0.7902
 114        0.7902
 115        0.7903
 116        0.7903
 117        0.8433
 118        0.8434
 119        0.8434
 120        0.8434
 121        0.8441
 122        0.8556
 123        0.8556
 124        0.8556
 125        0.8556
 126        0.9036
 127        0.9560
 128        0.9560
 129        1.0002
 130        1.0002
 131        1.0002
 132        1.0002
 133        1.0042
 134        1.0042
 135        1.0127
 136        1.0127
 137        1.0127
 138        1.0127
 139        1.0285
 140        1.0442
 141        1.0442
 142        1.0442
 143        1.0442
 144        1.1883
 145        1.1883
 146        1.1883
 147        1.1883
 148        1.2071
 149        1.2361
 150        1.2361
 151        1.2985
 152        1.2985
 153        1.3198
 154        1.3198
 155        1.3198
 156        1.3198
 157        1.3350
 158        1.4158
 159        1.4158
 160        1.4158
 161        1.4158
 162        1.4194
 163        1.4194
 164        1.4835
 165        1.4839
 166        1.4843
 167        1.4847
 168        1.9154
 169        1.9154
 170        1.9154
 171        1.9154
 172        2.3759
 173        2.3760
 174        2.3760
 175        2.3760
 176        2.5503
 177        2.5503
 178        2.5503
 179        2.5503
 180        3.4816
 181        3.6051
 182        3.6051
 183        3.6051
 184        3.6052
 185        4.9252
 186        4.9252
 187        6.7099
 188        6.7099
 189        6.7099
 190        6.7099
 191        7.1274
 192        7.1274
 193        7.1274
 194        7.1274
 195        7.2250
 196        7.2250
 197        8.9927
 198        8.9927
 199        8.9927
 200        8.9927
 201        9.4042
 202        9.4042
 203       10.0738
 204       10.0739
 205       10.0739
 206       10.0740
 207       10.0808
 208       10.0810
 209       10.4800
 210       10.4800
 211       10.6832
 212       10.6847
 
  0.3333333E+00  0.0000000E+00  0.0000000E+00  0.1157407E-02
   1       -5.3283
   2       -4.4211
   3       -2.8013
   4       -2.8013
   5       -2.8013
   6       -2.8013
   7       -2.1155
   8       -2.1155
   9       -2.1155
  10       -2.1155
  11       -1.7913
  12       -1.5377
  13       -1.5377
  14       -1.5377
  15       -1.5377
  16       -1.4059
  17       -1.3838
  18       -1.3838
  19       -1.3838
  20       -1.3838
  21       -1.2469
  22       -1.2469
  23       -0.9315
  24       -0.9315
  25       -0.9172
  26       -0.9112
  27       -0.9112
  28       -0.7080
  29       -0.6939
  30       -0.6939
  31       -0.6938
  32       -0.6938
  33       -0.6605
  34       -0.6605
  35       -0.6336
  36       -0.6336
  37       -0.6336
  38       -0.6336
  39       -0.3843
  40       -0.3843
  41       -0.3843
  42       -0.3843
  43       -0.3385
  44       -0.3385
  45       -0.3385
  46       -0.3385
  47       -0.3258
  48       -0.3258
  49       -0.3258
  50       -0.3257
  51       -0.3042
  52       -0.3041
  53       -0.3041
  54       -0.3041
  55       -0.2203
  56       -0.2201
  57       -0.2201
  58       -0.2201
  59       -0.2064
  60       -0.2064
  61       -0.2064
  62       -0.2061
  63       -0.1193
  64        0.0089
  65        0.0089
  66        0.0089
  67        0.0089
  68        0.0781
  69        0.0781
  70        0.0781
  71        0.0781
  72        0.1025
  73        0.1071
  74        0.1071
  75        0.1071
  76        0.1071
  77        0.1137
  78        0.1137
  79        0.1137
  80        0.1138
  81        0.2353
  82        0.2353
  83        0.2353
  84        0.2353
  85        0.2526
  86        0.2526
  87        0.2973
  88        0.2973
  89        0.2973
  90        0.2973
  91        0.3763
  92        0.3763
  93        0.4315
  94        0.4316
  95        0.4316
  96        0.4316
  97        0.4495
  98        0.4495
  99        0.6306
 100        0.7118
 101        0.7118
 102        0.7118
 103        0.7118
 104        0.7487
 105        0.7487
 106        0.7487
 107        0.7487
 108        0.7575
 109        0.7575
 110        0.7575
 111        0.7575
 112        0.7735
 113        0.7735
 114        0.7735
 115        0.7735
 116        0.8014
 117        0.8014
 118        0.8014
 119        0.8015
 120        0.8126
 121        0.8480
 122        0.8481
 123        0.8482
 124        0.8482
 125        0.8504
 126        0.8504
 127        0.8504
 128        0.8505
 129        0.9169
 130        1.0013
 131        1.0178
 132        1.0179
 133        1.0430
 134        1.0752
 135        1.0752
 136        1.0753
 137        1.0753
 138        1.0788
 139        1.0788
 140        1.0885
 141        1.0885
 142        1.1094
 143        1.1094
 144        1.1094
 145        1.1094
 146        1.2347
 147        1.2574
 148        1.2574
 149        1.2627
 150        1.2627
 151        1.2627
 152        1.2628
 153        1.2854
 154        1.2854
 155        1.2854
 156        1.2855
 157        1.3213
 158        1.3667
 159        1.3667
 160        1.3668
 161        1.3668
 162        1.3715
 163        1.3715
 164        1.4835
 165        1.4839
 166        1.4842
 167        1.4847
 168        1.7533
 169        1.7533
 170        1.7533
 171        1.7533
 172        2.4301
 173        2.4301
 174        2.4301
 175        2.4301
 176        2.5403
 177        2.5403
 178        2.5403
 179        2.5403
 180        2.9229
 181        4.0670
 182        4.0670
 183        4.0670
 184        4.0670
 185        5.2074
 186        5.2074
 187        6.4375
 188        6.4375
 189        6.4375
 190        6.4375
 191        6.7600
 192        6.7600
 193        7.0983
 194        7.0983
 195        7.0983
 196        7.0983
 197        9.1690
 198        9.1690
 199        9.1690
 200        9.1690
 201        9.3730
 202        9.3730
 203        9.3730
 204        9.3730
 205        9.4635
 206        9.4635
 207        9.9082
 208        9.9082
 209       10.3048
 210       10.3048
 211       10.3048
 212       10.3048
 
  0.4166667E+00  0.0000000E+00  0.0000000E+00  0.1157407E-02
   1       -5.1548
   2       -4.6995
   3       -2.6640
   4       -2.6639
   5       -2.6639
   6       -2.6639
   7       -2.3168
   8       -2.3168
   9       -2.3168
  10       -2.3168
  11       -1.6172
  12       -1.5049
  13       -1.5049
  14       -1.5049
  15       -1.5049
  16       -1.4404
  17       -1.4260
  18       -1.4260
  19       -1.4260
  20       -1.4260
  21       -1.1777
  22       -1.1777
  23       -1.0153
  24       -1.0153
  25       -0.8759
  26       -0.8647
  27       -0.8647
  28       -0.7705
  29       -0.7396
  30       -0.7396
  31       -0.6065
  32       -0.6065
  33       -0.6065
  34       -0.6065
  35       -0.5886
  36       -0.5886
  37       -0.5886
  38       -0.5886
  39       -0.3909
  40       -0.3907
  41       -0.3907
  42       -0.3907
  43       -0.3883
  44       -0.3883
  45       -0.3883
  46       -0.3880
  47       -0.3673
  48       -0.3672
  49       -0.3672
  50       -0.3672
  51       -0.3262
  52       -0.3262
  53       -0.3262
  54       -0.3262
  55       -0.2160
  56       -0.2157
  57       -0.2157
  58       -0.2156
  59       -0.2081
  60       -0.2081
  61       -0.2081
  62       -0.2077
  63       -0.0538
  64        0.0353
  65        0.0353
  66        0.0353
  67        0.0353
  68        0.0582
  69        0.0894
  70        0.0894
  71        0.0894
  72        0.0894
  73        0.1445
  74        0.1445
  75        0.1445
  76        0.1445
  77        0.2323
  78        0.2323
  79        0.2323
  80        0.2323
  81        0.2393
  82        0.2393
  83        0.2393
  84        0.2393
  85        0.2748
  86        0.2748
  87        0.2748
  88        0.2748
  89        0.2904
  90        0.2904
  91        0.3742
  92        0.3742
  93        0.3742
  94        0.3742
  95        0.3893
  96        0.3893
  97        0.5499
  98        0.5499
  99        0.6005
 100        0.6005
 101        0.6005
 102        0.6005
 103        0.6806
 104        0.7507
 105        0.7507
 106        0.7507
 107        0.7507
 108        0.7568
 109        0.7568
 110        0.7568
 111        0.7568
 112        0.7621
 113        0.7621
 114        0.7621
 115        0.7621
 116        0.7738
 117        0.7931
 118        0.7931
 119        0.7931
 120        0.7931
 121        0.8307
 122        0.8307
 123        0.8308
 124        0.8308
 125        0.8392
 126        0.8392
 127        0.8393
 128        0.8393
 129        0.9063
 130        0.9063
 131        0.9336
 132        0.9762
 133        1.0834
 134        1.0834
 135        1.1360
 136        1.1360
 137        1.1360
 138        1.1360
 139        1.1692
 140        1.1692
 141        1.1769
 142        1.1769
 143        1.1769
 144        1.1769
 145        1.2064
 146        1.2065
 147        1.2426
 148        1.2426
 149        1.2426
 150        1.2426
 151        1.2604
 152        1.3041
 153        1.3086
 154        1.3086
 155        1.3086
 156        1.3086
 157        1.3127
 158        1.3127
 159        1.3614
 160        1.3614
 161        1.3614
 162        1.3614
 163        1.4015
 164        1.4835
 165        1.4840
 166        1.4842
 167        1.4846
 168        1.6082
 169        1.6082
 170        1.6082
 171        1.6082
 172        2.3673
 173        2.4722
 174        2.4722
 175        2.4722
 176        2.4722
 177        2.5252
 178        2.5252
 179        2.5252
 180        2.5253
 181        4.5856
 182        4.5856
 183        4.5857
 184        4.5857
 185        5.5400
 186        5.5400
 187        5.7771
 188        5.7771
 189        5.7771
 190        5.7771
 191        6.3219
 192        6.3219
 193        7.5699
 194        7.5699
 195        7.5699
 196        7.5699
 197        8.7165
 198        8.7165
 199        8.7165
 200        8.7165
 201        9.3911
 202        9.3911
 203        9.3911
 204        9.3911
 205        9.5418
 206        9.5418
 207        9.7622
 208        9.7622
 209        9.9616
 210        9.9617
 211        9.9617
 212        9.9617
 
  0.5000000E+00  0.0000000E+00  0.0000000E+00  0.5787037E-03
   1       -4.9461
   2       -4.9434
   3       -2.5044
   4       -2.5019
   5       -2.5019
   6       -2.5017
   7       -2.5007
   8       -2.5006
   9       -2.5006
  10       -2.4980
  11       -1.5059
  12       -1.5051
  13       -1.4684
  14       -1.4684
  15       -1.4675
  16       -1.4673
  17       -1.4669
  18       -1.4667
  19       -1.4658
  20       -1.4658
  21       -1.1004
  22       -1.0997
  23       -1.0986
  24       -1.0978
  25       -0.8277
  26       -0.8259
  27       -0.8085
  28       -0.8085
  29       -0.8068
  30       -0.8068
  31       -0.5649
  32       -0.5649
  33       -0.5647
  34       -0.5646
  35       -0.5641
  36       -0.5641
  37       -0.5639
  38       -0.5639
  39       -0.4209
  40       -0.4201
  41       -0.4201
  42       -0.4201
  43       -0.4198
  44       -0.4198
  45       -0.4198
  46       -0.4190
  47       -0.3489
  48       -0.3483
  49       -0.3483
  50       -0.3478
  51       -0.3473
  52       -0.3468
  53       -0.3468
  54       -0.3463
  55       -0.2132
  56       -0.2119
  57       -0.2119
  58       -0.2116
  59       -0.2112
  60       -0.2110
  61       -0.2110
  62       -0.2096
  63        0.0055
  64        0.0061
  65        0.0621
  66        0.0624
  67        0.0624
  68        0.0627
  69        0.0628
  70        0.0631
  71        0.0631
  72        0.0634
  73        0.1875
  74        0.1875
  75        0.1875
  76        0.1881
  77        0.1884
  78        0.1889
  79        0.1890
  80        0.1890
  81        0.3201
  82        0.3204
  83        0.3204
  84        0.3212
  85        0.3217
  86        0.3224
  87        0.3224
  88        0.3228
  89        0.3354
  90        0.3354
  91        0.3369
  92        0.3369
  93        0.4076
  94        0.4081
  95        0.4081
  96        0.4081
  97        0.4086
  98        0.4086
  99        0.4086
 100        0.4091
 101        0.7274
 102        0.7274
 103        0.7283
 104        0.7283
 105        0.7288
 106        0.7295
 107        0.7545
 108        0.7545
 109        0.7547
 110        0.7549
 111        0.7549
 112        0.7551
 113        0.7553
 114        0.7553
 115        0.7973
 116        0.7979
 117        0.7979
 118        0.7979
 119        0.7985
 120        0.7986
 121        0.7986
 122        0.7992
 123        0.8197
 124        0.8200
 125        0.8203
 126        0.8203
 127        0.8207
 128        0.8207
 129        0.8210
 130        0.8213
 131        0.9529
 132        0.9541
 133        1.1475
 134        1.1475
 135        1.1476
 136        1.1477
 137        1.1918
 138        1.1920
 139        1.1920
 140        1.1920
 141        1.1927
 142        1.1927
 143        1.1927
 144        1.1930
 145        1.2434
 146        1.2434
 147        1.2441
 148        1.2441
 149        1.2444
 150        1.2444
 151        1.2445
 152        1.2446
 153        1.2446
 154        1.2446
 155        1.2454
 156        1.2454
 157        1.2836
 158        1.2836
 159        1.4769
 160        1.4774
 161        1.4774
 162        1.4776
 163        1.4776
 164        1.4778
 165        1.4778
 166        1.4783
 167        1.4835
 168        1.4841
 169        1.4841
 170        1.4846
 171        1.8498
 172        1.8515
 173        2.5018
 174        2.5023
 175        2.5029
 176        2.5029
 177        2.5036
 178        2.5036
 179        2.5042
 180        2.5047
 181        5.1553
 182        5.1556
 183        5.1556
 184        5.1572
 185        5.1578
 186        5.1593
 187        5.1593
 188        5.1596
 189        5.9123
 190        5.9123
 191        5.9151
 192        5.9151
 193        8.1108
 194        8.1108
 195        8.1109
 196        8.1123
 197        8.1130
 198        8.1144
 199        8.1145
 200        8.1145
 201        9.6405
 202        9.6408
 203        9.6408
 204        9.6411
 205        9.6542
 206        9.6542
 207        9.6560
 208        9.6561
 209        9.6564
 210        9.6565
 211        9.6583
 212        9.6583
 
  0.0000000E+00  0.8333333E-01  0.0000000E+00  0.2314815E-02
   1       -5.6204
   2       -3.4215
   3       -3.0402
   4       -3.0379
   5       -3.0379
   6       -3.0356
   7       -2.6877
   8       -1.5959
   9       -1.5958
  10       -1.5958
  11       -1.5958
  12       -1.4781
  13       -1.4764
  14       -1.4764
  15       -1.4746
  16       -1.3809
  17       -1.3718
  18       -1.3718
  19       -1.2873
  20       -1.2862
  21       -1.2858
  22       -1.2847
  23       -1.0993
  24       -1.0978
  25       -1.0978
  26       -1.0962
  27       -0.9881
  28       -0.9878
  29       -0.9878
  30       -0.7477
  31       -0.7476
  32       -0.7272
  33       -0.7261
  34       -0.7261
  35       -0.7249
  36       -0.4935
  37       -0.4160
  38       -0.4148
  39       -0.4147
  40       -0.4136
  41       -0.3550
  42       -0.3550
  43       -0.3398
  44       -0.2452
  45       -0.2440
  46       -0.2439
  47       -0.2429
  48       -0.2385
  49       -0.2375
  50       -0.2375
  51       -0.2365
  52       -0.2309
  53       -0.2295
  54       -0.2295
  55       -0.2280
  56       -0.2192
  57       -0.2180
  58       -0.2180