       N       E                     dE             d eps       ncg     rms          rms(c)
DAV:   1     0.384042482307E+04    0.38404E+04   -0.18941E+05 83104   0.320E+03
DAV:   2     0.413444160826E+03   -0.34270E+04   -0.33061E+04 83104   0.688E+02
DAV:   3    -0.110804610889E+03   -0.52425E+03   -0.48084E+03 83104   0.256E+02
DAV:   4    -0.143877962122E+03   -0.33073E+02   -0.31939E+02 87376   0.739E+01
DAV:   5    -0.144256179514E+03   -0.37822E+00   -0.37670E+00 88612   0.787E+00    0.386E+01
DAV:   6    -0.129930098906E+03    0.14326E+02   -0.29545E+02 88740   0.966E+01    0.202E+01
DAV:   7    -0.118046971469E+03    0.11883E+02   -0.55189E+01 92520   0.422E+01    0.233E+00
DAV:   8    -0.117918025407E+03    0.12895E+00   -0.10390E+00 86632   0.386E+00    0.242E+00
DAV:   9    -0.117806143158E+03    0.11188E+00   -0.33966E-01 87408   0.346E+00    0.238E-01
DAV:  10    -0.117807733375E+03   -0.15902E-02   -0.26302E-02 92496   0.126E+00    0.184E-01
DAV:  11    -0.117807290130E+03    0.44324E-03   -0.21629E-03 86064   0.305E-01    0.512E-02
DAV:  12    -0.117807252768E+03    0.37362E-04   -0.29940E-04 90876   0.187E-01    0.219E-02
DAV:  13    -0.117807254818E+03   -0.20496E-05   -0.14504E-04 87352   0.962E-02    0.668E-03
DAV:  14    -0.117807252379E+03    0.24383E-05   -0.15837E-05 85832   0.327E-02    0.455E-03
DAV:  15    -0.117807251674E+03    0.70570E-06   -0.25160E-06 90252   0.184E-02    0.360E-03
DAV:  16    -0.117807251017E+03    0.65609E-06   -0.19020E-07100640   0.404E-03    0.260E-03
DAV:  17    -0.117807251472E+03   -0.45456E-06   -0.37684E-07 94092   0.532E-03    0.894E-04
DAV:  18    -0.117807251634E+03   -0.16243E-06   -0.16143E-07 85824   0.438E-03    0.312E-04
DAV:  19    -0.117807251478E+03    0.15672E-06   -0.25129E-08 48412   0.145E-03    0.360E-04
DAV:  20    -0.117807251454E+03    0.24083E-07   -0.64368E-09 43784   0.804E-04    0.207E-04
DAV:  21    -0.117807251464E+03   -0.10485E-07   -0.62541E-09 43732   0.616E-04    0.488E-05
DAV:  22    -0.117807251478E+03   -0.13693E-07   -0.17714E-09 43700   0.210E-04    0.619E-05
DAV:  23    -0.117807251492E+03   -0.14319E-07   -0.39361E-10 43624   0.158E-04    0.283E-05
DAV:  24    -0.117807251501E+03   -0.85493E-08   -0.41980E-10 43652   0.152E-04
   1 F= -.11780725E+03 E0= -.11780673E+03  d E =-.104781E-02
