 vasp.4.6.28 25Jul05 complex 
 executed on             LinuxIFC date 2017.01.11  14:51:23
 running on    4 nodes
 distr:  one band on    1 nodes,    4 groups


--------------------------------------------------------------------------------------------------------


 INCAR:
 POTCAR:   PAW_PBE Cu 05Jan2001                   
 POTCAR:   PAW_PBE Cu 05Jan2001                   
   VRHFIN =Cu: d10 p1                                                           
   LEXCH  = PE                                                                  
   EATOM  =  1390.9800 eV,  102.2341 Ry                                         
                                                                                
   TITEL  = PAW_PBE Cu 05Jan2001                                                
   LULTRA =        F    use ultrasoft PP ?                                      
   IUNSCR =        1    unscreen: 0-lin 1-nonlin 2-no                           
   RPACOR =    2.000    partial core radius                                     
   POMASS =   63.546; ZVAL   =   11.000    mass and valenz                      
   RCORE  =    2.300    outmost cutoff radius                                   
   RWIGS  =    2.480; RWIGS  =    1.312    wigner-seitz radius (au A)           
   ENMAX  =  273.214; ENMIN  =  204.910 eV                                      
   RCLOC  =    1.712    cutoff for local pot                                    
   LCOR   =        T    correct aug charges                                     
   LPAW   =        T    paw PP                                                  
   EAUG   =  516.456                                                            
   DEXC   =    -.008                                                            
   RMAX   =    2.789    core radius for proj-oper                               
   RAUG   =    1.300    factor for augmentation sphere                          
   RDEP   =    2.302    radius for radial grids                                 
   QCUT   =   -4.481; QGAM   =    8.962    optimization parameters              
                                                                                
   Description                                                                  
     l     E      TYP  RCUT    TYP  RCUT                                        
     2   .000     23  2.300                                                     
     2   .000     23  2.300                                                     
     0   .000     23  2.300                                                     
     0   .000     23  2.300                                                     
     1  -.200     23  2.300                                                     
     1   .000     23  2.300                                                     
     3   .000      7   .000                                                     
  local pseudopotential read in
  partial core-charges read in
  atomic valenz-charges read in
  non local Contribution for L=           2  read in
    real space projection operators read in
  non local Contribution for L=           2  read in
    real space projection operators read in
  non local Contribution for L=           0  read in
    real space projection operators read in
  non local Contribution for L=           0  read in
    real space projection operators read in
  non local Contribution for L=           1  read in
    real space projection operators read in
  non local Contribution for L=           1  read in
    real space projection operators read in
    PAW grid and wavefunctions read in
 
   number of l-projection  operators is LMAX  =           6
   number of lm-projection operators is LMMAX =          18
 

 ----------------------------------------------------------------------------- 
|                                                                             |
|  ADVICE TO THIS USER RUNNING 'VASP/VAMP'   (HEAR YOUR MASTER'S VOICE ...):  |
|                                                                             |
|      You have a (more or less) 'large supercell' and for larger cells       |
|      it might be more efficient to use real space projection operators      |
|      So try LREAL= Auto  in the INCAR   file.                               |
|      Mind: If you want to do an extremely accurate calculations keep the    |
|      reciprocal projection scheme          (i.e. LREAL=.FALSE.)             |
|                                                                             |
 ----------------------------------------------------------------------------- 

 PAW_PBE Cu 05Jan2001                   :
 energy of atom  1       EATOM=-1390.9800
 kinetic energy error for atom=    0.0006 (will be added to EATOM!!)
 
 EXHCAR: internal setup
 exchange correlation table for  LEXCH =        8
   RHO(1)=    0.500       N(1)  =     2000
   RHO(2)=  100.500       N(2)  =     4000
 
 POSCAR: Cu                                      
  positions in direct lattice
  No initial velocities read in
 


--------------------------------------------------------------------------------------------------------


 ion  position               nearest neighbor table
   1  0.001  0.000  0.000-   9 2.64  11 2.64  17 2.64  21 2.64  25 2.65  27 2.65  29 2.65  31 2.65
                            10 2.66  18 2.66  12 2.66  22 2.66
   2  0.500  0.000  0.000-   9 2.65  10 2.65  11 2.65  12 2.65  17 2.65  18 2.65  21 2.65  22 2.65
                            26 2.65  28 2.65  30 2.65  32 2.65
   3  0.000  0.500  0.000-   9 2.65  10 2.65  11 2.65  12 2.65  19 2.65  20 2.65  23 2.65  24 2.65
                            25 2.65  27 2.65  29 2.65  31 2.65
   4  0.500  0.500  0.000-   9 2.65  10 2.65  11 2.65  12 2.65  19 2.65  20 2.65  23 2.65  24 2.65
                            26 2.65  28 2.65  30 2.65  32 2.65
   5  0.000  0.000  0.500-  13 2.65  14 2.65  15 2.65  16 2.65  17 2.65  18 2.65  21 2.65  22 2.65
                            25 2.65  27 2.65  29 2.65  31 2.65
   6  0.500  0.000  0.500-  13 2.65  14 2.65  15 2.65  16 2.65  17 2.65  18 2.65  21 2.65  22 2.65
                            26 2.65  28 2.65  30 2.65  32 2.65
   7  0.000  0.500  0.500-  13 2.65  14 2.65  15 2.65  16 2.65  19 2.65  20 2.65  23 2.65  24 2.65
                            25 2.65  27 2.65  29 2.65  31 2.65
   8  0.500  0.500  0.500-  13 2.65  14 2.65  15 2.65  16 2.65  19 2.65  20 2.65  23 2.65  24 2.65
                            26 2.65  28 2.65  30 2.65  32 2.65
   9  0.250  0.250  0.000-   1 2.64   2 2.65   3 2.65   4 2.65  17 2.65  19 2.65  21 2.65  23 2.65
                            25 2.65  26 2.65  29 2.65  30 2.65
  10  0.750  0.250  0.000-   2 2.65   3 2.65   4 2.65  18 2.65  20 2.65  22 2.65  24 2.65  25 2.65
                            26 2.65  29 2.65  30 2.65   1 2.66
  11  0.250  0.750  0.000-   1 2.64   2 2.65   3 2.65   4 2.65  17 2.65  19 2.65  21 2.65  23 2.65
                            27 2.65  28 2.65  31 2.65  32 2.65
  12  0.750  0.750  0.000-   2 2.65   3 2.65   4 2.65  18 2.65  20 2.65  22 2.65  24 2.65  27 2.65
                            28 2.65  31 2.65  32 2.65   1 2.66
  13  0.250  0.250  0.500-   5 2.65   6 2.65   7 2.65   8 2.65  17 2.65  19 2.65  21 2.65  23 2.65
                            25 2.65  26 2.65  29 2.65  30 2.65
  14  0.750  0.250  0.500-   5 2.65   6 2.65   7 2.65   8 2.65  18 2.65  20 2.65  22 2.65  24 2.65
                            25 2.65  26 2.65  29 2.65  30 2.65
  15  0.250  0.750  0.500-   5 2.65   6 2.65   7 2.65   8 2.65  17 2.65  19 2.65  21 2.65  23 2.65
                            27 2.65  28 2.65  31 2.65  32 2.65
  16  0.750  0.750  0.500-   5 2.65   6 2.65   7 2.65   8 2.65  18 2.65  20 2.65  22 2.65  24 2.65
                            27 2.65  28 2.65  31 2.65  32 2.65
  17  0.250  0.000  0.250-   1 2.64   2 2.65   5 2.65   6 2.65   9 2.65  11 2.65  13 2.65  15 2.65
                            25 2.65  26 2.65  27 2.65  28 2.65
  18  0.750  0.000  0.250-   2 2.65   5 2.65   6 2.65  10 2.65  12 2.65  14 2.65  16 2.65  25 2.65
                            26 2.65  27 2.65  28 2.65   1 2.66
  19  0.250  0.500  0.250-   3 2.65   4 2.65   7 2.65   8 2.65   9 2.65  11 2.65  13 2.65  15 2.65
                            25 2.65  26 2.65  27 2.65  28 2.65
  20  0.750  0.500  0.250-   3 2.65   4 2.65   7 2.65   8 2.65  10 2.65  12 2.65  14 2.65  16 2.65
                            25 2.65  26 2.65  27 2.65  28 2.65
  21  0.250  0.000  0.750-   1 2.64   2 2.65   5 2.65   6 2.65   9 2.65  11 2.65  13 2.65  15 2.65
                            29 2.65  30 2.65  31 2.65  32 2.65
  22  0.750  0.000  0.750-   2 2.65   5 2.65   6 2.65  10 2.65  12 2.65  14 2.65  16 2.65  29 2.65
                            30 2.65  31 2.65  32 2.65   1 2.66
  23  0.250  0.500  0.750-   3 2.65   4 2.65   7 2.65   8 2.65   9 2.65  11 2.65  13 2.65  15 2.65
                            29 2.65  30 2.65  31 2.65  32 2.65
  24  0.750  0.500  0.750-   3 2.65   4 2.65   7 2.65   8 2.65  10 2.65  12 2.65  14 2.65  16 2.65
                            29 2.65  30 2.65  31 2.65  32 2.65
  25  0.000  0.250  0.250-   3 2.65   5 2.65   7 2.65   9 2.65  10 2.65  13 2.65  14 2.65  17 2.65
                            18 2.65  19 2.65  20 2.65   1 2.65
  26  0.500  0.250  0.250-   2 2.65   4 2.65   6 2.65   8 2.65   9 2.65  10 2.65  13 2.65  14 2.65
                            17 2.65  18 2.65  19 2.65  20 2.65
  27  0.000  0.750  0.250-   3 2.65   5 2.65   7 2.65  11 2.65  12 2.65  15 2.65  16 2.65  17 2.65
                            18 2.65  19 2.65  20 2.65   1 2.65
  28  0.500  0.750  0.250-   2 2.65   4 2.65   6 2.65   8 2.65  11 2.65  12 2.65  15 2.65  16 2.65
                            17 2.65  18 2.65  19 2.65  20 2.65
  29  0.000  0.250  0.750-   3 2.65   5 2.65   7 2.65   9 2.65  10 2.65  13 2.65  14 2.65  21 2.65
                            22 2.65  23 2.65  24 2.65   1 2.65
  30  0.500  0.250  0.750-   2 2.65   4 2.65   6 2.65   8 2.65   9 2.65  10 2.65  13 2.65  14 2.65
                            21 2.65  22 2.65  23 2.65  24 2.65
  31  0.000  0.750  0.750-   3 2.65   5 2.65   7 2.65  11 2.65  12 2.65  15 2.65  16 2.65  21 2.65
                            22 2.65  23 2.65  24 2.65   1 2.65
  32  0.500  0.750  0.750-   2 2.65   4 2.65   6 2.65   8 2.65  11 2.65  12 2.65  15 2.65  16 2.65
                            21 2.65  22 2.65  23 2.65  24 2.65
 
  LATTYP: Found a simple cubic cell.
 ALAT       =     7.4910165722
  
  Lattice vectors:
  
 A1 = (   7.4910165722,   0.0000000000,   0.0000000000)
 A2 = (   0.0000000000,   7.4910165722,   0.0000000000)
 A3 = (   0.0000000000,   0.0000000000,   7.4910165722)
 Subroutine PRICEL returns:
 Original cell was already a primitive cell.
 

Analysis of symmetry for initial positions (statically):

 Routine SETGRP: Setting up the symmetry group for a 
 simple cubic supercell.


 Subroutine GETGRP returns: Found  8 space group operations
 (whereof  8 operations were pure point group operations)
 out of a pool of 48 trial point group operations.


The static configuration has the point symmetry C_4v.

Analysis of symmetry for dynamics (positions and initial velocities):

 Subroutine DYNSYM returns: Found  8 space group operations
 (whereof  8 operations were pure point group operations)
 out of a pool of  8 trial space group operations
 (whereof  8 operations were pure point group operations)
 and found also     1 'primitive' translations


The dynamic configuration has the point symmetry C_4v.
 
 
 KPOINTS: Automatic mesh                          

Automatic generation of k-mesh.
 
 Subroutine IBZKPT returns following result:
 ===========================================
 
 Found    196 irreducible k-points:
 
 Following reciprocal coordinates:
            Coordinates               Weight
  0.000000  0.000000  0.000000      1.000000
  0.083333  0.000000  0.000000      2.000000
  0.166667  0.000000  0.000000      2.000000
  0.250000  0.000000  0.000000      2.000000
  0.333333  0.000000  0.000000      2.000000
  0.416667  0.000000  0.000000      2.000000
  0.500000  0.000000  0.000000      1.000000
  0.000000  0.083333  0.000000      4.000000
  0.083333  0.083333  0.000000      8.000000
  0.166667  0.083333  0.000000      8.000000
  0.250000  0.083333  0.000000      8.000000
  0.333333  0.083333  0.000000      8.000000
  0.416667  0.083333  0.000000      8.000000
  0.500000  0.083333  0.000000      4.000000
  0.000000  0.166667  0.000000      4.000000
  0.083333  0.166667  0.000000      8.000000
  0.166667  0.166667  0.000000      8.000000
  0.250000  0.166667  0.000000      8.000000
  0.333333  0.166667  0.000000      8.000000
  0.416667  0.166667  0.000000      8.000000
  0.500000  0.166667  0.000000      4.000000
  0.000000  0.250000  0.000000      4.000000
  0.083333  0.250000  0.000000      8.000000
  0.166667  0.250000  0.000000      8.000000
  0.250000  0.250000  0.000000      8.000000
  0.333333  0.250000  0.000000      8.000000
  0.416667  0.250000  0.000000      8.000000
  0.500000  0.250000  0.000000      4.000000
  0.000000  0.333333  0.000000      4.000000
  0.083333  0.333333  0.000000      8.000000
  0.166667  0.333333  0.000000      8.000000
  0.250000  0.333333  0.000000      8.000000
  0.333333  0.333333  0.000000      8.000000
  0.416667  0.333333  0.000000      8.000000
  0.500000  0.333333  0.000000      4.000000
  0.000000  0.416667  0.000000      4.000000
  0.083333  0.416667  0.000000      8.000000
  0.166667  0.416667  0.000000      8.000000
  0.250000  0.416667  0.000000      8.000000
  0.333333  0.416667  0.000000      8.000000
  0.416667  0.416667  0.000000      8.000000
  0.500000  0.416667  0.000000      4.000000
  0.000000  0.500000  0.000000      2.000000
  0.083333  0.500000  0.000000      4.000000
  0.166667  0.500000  0.000000      4.000000
  0.250000  0.500000  0.000000      4.000000
  0.333333  0.500000  0.000000      4.000000
  0.416667  0.500000  0.000000      4.000000
  0.500000  0.500000  0.000000      2.000000
  0.000000  0.083333  0.083333      4.000000
  0.083333  0.083333  0.083333      8.000000
  0.166667  0.083333  0.083333      8.000000
  0.250000  0.083333  0.083333      8.000000
  0.333333  0.083333  0.083333      8.000000
  0.416667  0.083333  0.083333      8.000000
  0.500000  0.083333  0.083333      4.000000
  0.000000  0.166667  0.083333      8.000000
  0.083333  0.166667  0.083333     16.000000
  0.166667  0.166667  0.083333     16.000000
  0.250000  0.166667  0.083333     16.000000
  0.333333  0.166667  0.083333     16.000000
  0.416667  0.166667  0.083333     16.000000
  0.500000  0.166667  0.083333      8.000000
  0.000000  0.250000  0.083333      8.000000
  0.083333  0.250000  0.083333     16.000000
  0.166667  0.250000  0.083333     16.000000
  0.250000  0.250000  0.083333     16.000000
  0.333333  0.250000  0.083333     16.000000
  0.416667  0.250000  0.083333     16.000000
  0.500000  0.250000  0.083333      8.000000
  0.000000  0.333333  0.083333      8.000000
  0.083333  0.333333  0.083333     16.000000
  0.166667  0.333333  0.083333     16.000000
  0.250000  0.333333  0.083333     16.000000
  0.333333  0.333333  0.083333     16.000000
  0.416667  0.333333  0.083333     16.000000
  0.500000  0.333333  0.083333      8.000000
  0.000000  0.416667  0.083333      8.000000
  0.083333  0.416667  0.083333     16.000000
  0.166667  0.416667  0.083333     16.000000
  0.250000  0.416667  0.083333     16.000000
  0.333333  0.416667  0.083333     16.000000
  0.416667  0.416667  0.083333     16.000000
  0.500000  0.416667  0.083333      8.000000
  0.000000  0.500000  0.083333      4.000000
  0.083333  0.500000  0.083333      8.000000
  0.166667  0.500000  0.083333      8.000000
  0.250000  0.500000  0.083333      8.000000
  0.333333  0.500000  0.083333      8.000000
  0.416667  0.500000  0.083333      8.000000
  0.500000  0.500000  0.083333      4.000000
  0.000000  0.166667  0.166667      4.000000
  0.083333  0.166667  0.166667      8.000000
  0.166667  0.166667  0.166667      8.000000
  0.250000  0.166667  0.166667      8.000000
  0.333333  0.166667  0.166667      8.000000
  0.416667  0.166667  0.166667      8.000000
  0.500000  0.166667  0.166667      4.000000
  0.000000  0.250000  0.166667      8.000000
  0.083333  0.250000  0.166667     16.000000
  0.166667  0.250000  0.166667     16.000000
  0.250000  0.250000  0.166667     16.000000
  0.333333  0.250000  0.166667     16.000000
  0.416667  0.250000  0.166667     16.000000
  0.500000  0.250000  0.166667      8.000000
  0.000000  0.333333  0.166667      8.000000
  0.083333  0.333333  0.166667     16.000000
  0.166667  0.333333  0.166667     16.000000
  0.250000  0.333333  0.166667     16.000000
  0.333333  0.333333  0.166667     16.000000
  0.416667  0.333333  0.166667     16.000000
  0.500000  0.333333  0.166667      8.000000
  0.000000  0.416667  0.166667      8.000000
  0.083333  0.416667  0.166667     16.000000
  0.166667  0.416667  0.166667     16.000000
  0.250000  0.416667  0.166667     16.000000
  0.333333  0.416667  0.166667     16.000000
  0.416667  0.416667  0.166667     16.000000
  0.500000  0.416667  0.166667      8.000000
  0.000000  0.500000  0.166667      4.000000
  0.083333  0.500000  0.166667      8.000000
  0.166667  0.500000  0.166667      8.000000
  0.250000  0.500000  0.166667      8.000000
  0.333333  0.500000  0.166667      8.000000
  0.416667  0.500000  0.166667      8.000000
  0.500000  0.500000  0.166667      4.000000
  0.000000  0.250000  0.250000      4.000000
  0.083333  0.250000  0.250000      8.000000
  0.166667  0.250000  0.250000      8.000000
  0.250000  0.250000  0.250000      8.000000
  0.333333  0.250000  0.250000      8.000000
  0.416667  0.250000  0.250000      8.000000
  0.500000  0.250000  0.250000      4.000000
  0.000000  0.333333  0.250000      8.000000
  0.083333  0.333333  0.250000     16.000000
  0.166667  0.333333  0.250000     16.000000
  0.250000  0.333333  0.250000     16.000000
  0.333333  0.333333  0.250000     16.000000
  0.416667  0.333333  0.250000     16.000000
  0.500000  0.333333  0.250000      8.000000
  0.000000  0.416667  0.250000      8.000000
  0.083333  0.416667  0.250000     16.000000
  0.166667  0.416667  0.250000     16.000000
  0.250000  0.416667  0.250000     16.000000
  0.333333  0.416667  0.250000     16.000000
  0.416667  0.416667  0.250000     16.000000
  0.500000  0.416667  0.250000      8.000000
  0.000000  0.500000  0.250000      4.000000
  0.083333  0.500000  0.250000      8.000000
  0.166667  0.500000  0.250000      8.000000
  0.250000  0.500000  0.250000      8.000000
  0.333333  0.500000  0.250000      8.000000
  0.416667  0.500000  0.250000      8.000000
  0.500000  0.500000  0.250000      4.000000
  0.000000  0.333333  0.333333      4.000000
  0.083333  0.333333  0.333333      8.000000
  0.166667  0.333333  0.333333      8.000000
  0.250000  0.333333  0.333333      8.000000
  0.333333  0.333333  0.333333      8.000000
  0.416667  0.333333  0.333333      8.000000
  0.500000  0.333333  0.333333      4.000000
  0.000000  0.416667  0.333333      8.000000
  0.083333  0.416667  0.333333     16.000000
  0.166667  0.416667  0.333333     16.000000
  0.250000  0.416667  0.333333     16.000000
  0.333333  0.416667  0.333333     16.000000
  0.416667  0.416667  0.333333     16.000000
  0.500000  0.416667  0.333333      8.000000
  0.000000  0.500000  0.333333      4.000000
  0.083333  0.500000  0.333333      8.000000
  0.166667  0.500000  0.333333      8.000000
  0.250000  0.500000  0.333333      8.000000
  0.333333  0.500000  0.333333      8.000000
  0.416667  0.500000  0.333333      8.000000
  0.500000  0.500000  0.333333      4.000000
  0.000000  0.416667  0.416667      4.000000
  0.083333  0.416667  0.416667      8.000000
  0.166667  0.416667  0.416667      8.000000
  0.250000  0.416667  0.416667      8.000000
  0.333333  0.416667  0.416667      8.000000
  0.416667  0.416667  0.416667      8.000000
  0.500000  0.416667  0.416667      4.000000
  0.000000  0.500000  0.416667      4.000000
  0.083333  0.500000  0.416667      8.000000
  0.166667  0.500000  0.416667      8.000000
  0.250000  0.500000  0.416667      8.000000
  0.333333  0.500000  0.416667      8.000000
  0.416667  0.500000  0.416667      8.000000
  0.500000  0.500000  0.416667      4.000000
  0.000000  0.500000  0.500000      1.000000
  0.083333  0.500000  0.500000      2.000000
  0.166667  0.500000  0.500000      2.000000
  0.250000  0.500000  0.500000      2.000000
  0.333333  0.500000  0.500000      2.000000
  0.416667  0.500000  0.500000      2.000000
  0.500000  0.500000  0.500000      1.000000
 
 Following cartesian coordinates:
            Coordinates               Weight
  0.000000  0.000000  0.000000      1.000000
  0.011124  0.000000  0.000000      2.000000
  0.022249  0.000000  0.000000      2.000000
  0.033373  0.000000  0.000000      2.000000
  0.044498  0.000000  0.000000      2.000000
  0.055622  0.000000  0.000000      2.000000
  0.066747  0.000000  0.000000      1.000000
  0.000000  0.011124  0.000000      4.000000
  0.011124  0.011124  0.000000      8.000000
  0.022249  0.011124  0.000000      8.000000
  0.033373  0.011124  0.000000      8.000000
  0.044498  0.011124  0.000000      8.000000
  0.055622  0.011124  0.000000      8.000000
  0.066747  0.011124  0.000000      4.000000
  0.000000  0.022249  0.000000      4.000000
  0.011124  0.022249  0.000000      8.000000
  0.022249  0.022249  0.000000      8.000000
  0.033373  0.022249  0.000000      8.000000
  0.044498  0.022249  0.000000      8.000000
  0.055622  0.022249  0.000000      8.000000
  0.066747  0.022249  0.000000      4.000000
  0.000000  0.033373  0.000000      4.000000
  0.011124  0.033373  0.000000      8.000000
  0.022249  0.033373  0.000000      8.000000
  0.033373  0.033373  0.000000      8.000000
  0.044498  0.033373  0.000000      8.000000
  0.055622  0.033373  0.000000      8.000000
  0.066747  0.033373  0.000000      4.000000
  0.000000  0.044498  0.000000      4.000000
  0.011124  0.044498  0.000000      8.000000
  0.022249  0.044498  0.000000      8.000000
  0.033373  0.044498  0.000000      8.000000
  0.044498  0.044498  0.000000      8.000000
  0.055622  0.044498  0.000000      8.000000
  0.066747  0.044498  0.000000      4.000000
  0.000000  0.055622  0.000000      4.000000
  0.011124  0.055622  0.000000      8.000000
  0.022249  0.055622  0.000000      8.000000
  0.033373  0.055622  0.000000      8.000000
  0.044498  0.055622  0.000000      8.000000
  0.055622  0.055622  0.000000      8.000000
  0.066747  0.055622  0.000000      4.000000
  0.000000  0.066747  0.000000      2.000000
  0.011124  0.066747  0.000000      4.000000
  0.022249  0.066747  0.000000      4.000000
  0.033373  0.066747  0.000000      4.000000
  0.044498  0.066747  0.000000      4.000000
  0.055622  0.066747  0.000000      4.000000
  0.066747  0.066747  0.000000      2.000000
  0.000000  0.011124  0.011124      4.000000
  0.011124  0.011124  0.011124      8.000000
  0.022249  0.011124  0.011124      8.000000
  0.033373  0.011124  0.011124      8.000000
  0.044498  0.011124  0.011124      8.000000
  0.055622  0.011124  0.011124      8.000000
  0.066747  0.011124  0.011124      4.000000
  0.000000  0.022249  0.011124      8.000000
  0.011124  0.022249  0.011124     16.000000
  0.022249  0.022249  0.011124     16.000000
  0.033373  0.022249  0.011124     16.000000
  0.044498  0.022249  0.011124     16.000000
  0.055622  0.022249  0.011124     16.000000
  0.066747  0.022249  0.011124      8.000000
  0.000000  0.033373  0.011124      8.000000
  0.011124  0.033373  0.011124     16.000000
  0.022249  0.033373  0.011124     16.000000
  0.033373  0.033373  0.011124     16.000000
  0.044498  0.033373  0.011124     16.000000
  0.055622  0.033373  0.011124     16.000000
  0.066747  0.033373  0.011124      8.000000
  0.000000  0.044498  0.011124      8.000000
  0.011124  0.044498  0.011124     16.000000
  0.022249  0.044498  0.011124     16.000000
  0.033373  0.044498  0.011124     16.000000
  0.044498  0.044498  0.011124     16.000000
  0.055622  0.044498  0.011124     16.000000
  0.066747  0.044498  0.011124      8.000000
  0.000000  0.055622  0.011124      8.000000
  0.011124  0.055622  0.011124     16.000000
  0.022249  0.055622  0.011124     16.000000
  0.033373  0.055622  0.011124     16.000000
  0.044498  0.055622  0.011124     16.000000
  0.055622  0.055622  0.011124     16.000000
  0.066747  0.055622  0.011124      8.000000
  0.000000  0.066747  0.011124      4.000000
  0.011124  0.066747  0.011124      8.000000
  0.022249  0.066747  0.011124      8.000000
  0.033373  0.066747  0.011124      8.000000
  0.044498  0.066747  0.011124      8.000000
  0.055622  0.066747  0.011124      8.000000
  0.066747  0.066747  0.011124      4.000000
  0.000000  0.022249  0.022249      4.000000
  0.011124  0.022249  0.022249      8.000000
  0.022249  0.022249  0.022249      8.000000
  0.033373  0.022249  0.022249      8.000000
  0.044498  0.022249  0.022249      8.000000
  0.055622  0.022249  0.022249      8.000000
  0.066747  0.022249  0.022249      4.000000
  0.000000  0.033373  0.022249      8.000000
  0.011124  0.033373  0.022249     16.000000
  0.022249  0.033373  0.022249     16.000000
  0.033373  0.033373  0.022249     16.000000
  0.044498  0.033373  0.022249     16.000000
  0.055622  0.033373  0.022249     16.000000
  0.066747  0.033373  0.022249      8.000000
  0.000000  0.044498  0.022249      8.000000
  0.011124  0.044498  0.022249     16.000000
  0.022249  0.044498  0.022249     16.000000
  0.033373  0.044498  0.022249     16.000000
  0.044498  0.044498  0.022249     16.000000
  0.055622  0.044498  0.022249     16.000000
  0.066747  0.044498  0.022249      8.000000
  0.000000  0.055622  0.022249      8.000000
  0.011124  0.055622  0.022249     16.000000
  0.022249  0.055622  0.022249     16.000000
  0.033373  0.055622  0.022249     16.000000
  0.044498  0.055622  0.022249     16.000000
  0.055622  0.055622  0.022249     16.000000
  0.066747  0.055622  0.022249      8.000000
  0.000000  0.066747  0.022249      4.000000
  0.011124  0.066747  0.022249      8.000000
  0.022249  0.066747  0.022249      8.000000
  0.033373  0.066747  0.022249      8.000000
  0.044498  0.066747  0.022249      8.000000
  0.055622  0.066747  0.022249      8.000000
  0.066747  0.066747  0.022249      4.000000
  0.000000  0.033373  0.033373      4.000000
  0.011124  0.033373  0.033373      8.000000
  0.022249  0.033373  0.033373      8.000000
  0.033373  0.033373  0.033373      8.000000
  0.044498  0.033373  0.033373      8.000000
  0.055622  0.033373  0.033373      8.000000
  0.066747  0.033373  0.033373      4.000000
  0.000000  0.044498  0.033373      8.000000
  0.011124  0.044498  0.033373     16.000000
  0.022249  0.044498  0.033373     16.000000
  0.033373  0.044498  0.033373     16.000000
  0.044498  0.044498  0.033373     16.000000
  0.055622  0.044498  0.033373     16.000000
  0.066747  0.044498  0.033373      8.000000
  0.000000  0.055622  0.033373      8.000000
  0.011124  0.055622  0.033373     16.000000
  0.022249  0.055622  0.033373     16.000000
  0.033373  0.055622  0.033373     16.000000
  0.044498  0.055622  0.033373     16.000000
  0.055622  0.055622  0.033373     16.000000
  0.066747  0.055622  0.033373      8.000000
  0.000000  0.066747  0.033373      4.000000
  0.011124  0.066747  0.033373      8.000000
  0.022249  0.066747  0.033373      8.000000
  0.033373  0.066747  0.033373      8.000000
  0.044498  0.066747  0.033373      8.000000
  0.055622  0.066747  0.033373      8.000000
  0.066747  0.066747  0.033373      4.000000
  0.000000  0.044498  0.044498      4.000000
  0.011124  0.044498  0.044498      8.000000
  0.022249  0.044498  0.044498      8.000000
  0.033373  0.044498  0.044498      8.000000
  0.044498  0.044498  0.044498      8.000000
  0.055622  0.044498  0.044498      8.000000
  0.066747  0.044498  0.044498      4.000000
  0.000000  0.055622  0.044498      8.000000
  0.011124  0.055622  0.044498     16.000000
  0.022249  0.055622  0.044498     16.000000
  0.033373  0.055622  0.044498     16.000000
  0.044498  0.055622  0.044498     16.000000
  0.055622  0.055622  0.044498     16.000000
  0.066747  0.055622  0.044498      8.000000
  0.000000  0.066747  0.044498      4.000000
  0.011124  0.066747  0.044498      8.000000
  0.022249  0.066747  0.044498      8.000000
  0.033373  0.066747  0.044498      8.000000
  0.044498  0.066747  0.044498      8.000000
  0.055622  0.066747  0.044498      8.000000
  0.066747  0.066747  0.044498      4.000000
  0.000000  0.055622  0.055622      4.000000
  0.011124  0.055622  0.055622      8.000000
  0.022249  0.055622  0.055622      8.000000
  0.033373  0.055622  0.055622      8.000000
  0.044498  0.055622  0.055622      8.000000
  0.055622  0.055622  0.055622      8.000000
  0.066747  0.055622  0.055622      4.000000
  0.000000  0.066747  0.055622      4.000000
  0.011124  0.066747  0.055622      8.000000
  0.022249  0.066747  0.055622      8.000000
  0.033373  0.066747  0.055622      8.000000
  0.044498  0.066747  0.055622      8.000000
  0.055622  0.066747  0.055622      8.000000
  0.066747  0.066747  0.055622      4.000000
  0.000000  0.066747  0.066747      1.000000
  0.011124  0.066747  0.066747      2.000000
  0.022249  0.066747  0.066747      2.000000
  0.033373  0.066747  0.066747      2.000000
  0.044498  0.066747  0.066747      2.000000
  0.055622  0.066747  0.066747      2.000000
  0.066747  0.066747  0.066747      1.000000
 


--------------------------------------------------------------------------------------------------------




 Dimension of arrays:
   k-Points           NKPTS =    196   number of bands    NBANDS=    212
   number of dos      NEDOS =    301   number of ions     NIONS =     32
   non local maximal  LDIM  =      6   non local SUM 2l+1 LMDIM =     18
   total plane-waves  NPLWV = 343000
   max r-space proj   IRMAX =      1   max aug-charges    IRDMAX= 229275
   dimension x,y,z NGX =    70 NGY =   70 NGZ =   70
   dimension x,y,z NGXF=   140 NGYF=  140 NGZF=  140
   support grid    NGXF=   280 NGYF=  280 NGZF=  280
   ions per type =              32
 NGX,Y,Z   is equivalent  to a cutoff of  15.53, 15.53, 15.53 a.u.
 NGXF,Y,Z  is equivalent  to a cutoff of  31.07, 31.07, 31.07 a.u.


 I would recommend the setting:
   dimension x,y,z NGX =    67 NGY =   67 NGZ =   67
 SYSTEM =  unknown system                          
 POSCAR =  Cu                                      

 Startparameter for this run:
   NWRITE =      2    write-flag & timer
   PREC   = accura    medium, high low
   ISTART =      0    job   : 0-new  1-cont  2-samecut
   ICHARG =      2    charge: 1-file 2-atom 10-const
   ISPIN  =      1    spin polarized calculation?
   LNONCOLLINEAR =      F non collinear calculations
   LSORBIT =      F    spin-orbit coupling
   INIWAV =      1    electr: 0-lowe 1-rand  2-diag
   LASPH  =      F    aspherical Exc in radial PAW
   METAGGA=      F    non-selfconsistent MetaGGA calc.

 Electronic Relaxation 1
   ENCUT  =  750.0 eV  55.12 Ry    7.42 a.u.  16.73 16.73 16.73*2*pi/ulx,y,z
   ENINI  =  750.0     initial cutoff
   ENAUG  =  516.5 eV  augmentation charge cutoff
   NELM   =     60;   NELMIN=  2; NELMDL=  0     # of ELM steps 
   EDIFF  = 0.1E-07   stopping-criterion for ELM
   LREAL  =      F    real-space projection
   LCOMPAT=      F    compatible to vasp.4.4
   LREAL_COMPAT= F    compatible to vasp.4.5.1-3
   GGA_COMPAT  = T    GGA compatible to vasp.4.4-vasp.4.6
   LMAXPAW     = -100 max onsite density
   LMAXMIX     =    2 max onsite mixed and CHGCAR
   VOSKOWN=      0    Vosko Wilk Nusair interpolation
   ROPT   =    0.00000
 Ionic relaxation
   EDIFFG = 0.1E-06   stopping-criterion for IOM
   NSW    =      0    number of steps for IOM
   NBLOCK =      1;   KBLOCK =      1    inner block; outer block 
   IBRION =     -1    ionic relax: 0-MD 1-quasi-New 2-CG
   NFREE  =      0    steps in history (QN), initial steepest desc. (CG)
   ISIF   =      2    stress and relaxation
   IWAVPR =     10    prediction:  0-non 1-charg 2-wave 3-comb
   ISYM   =      2    0-nonsym 1-usesym 2-fastsym
   LCORR  =      T    Harris-Foulkes like correction to forces

   POTIM  =   0.50    time-step for ionic-motion
   TEIN   =    0.0    initial temperature
   TEBEG  =    0.0;   TEEND  =   0.0 temperature during run
   SMASS  =  -3.00    Nose mass-parameter (am)
   estimated Nose-frequenzy (Omega)   =  0.10E-29 period in steps =****** mass=  -0.128E-26a.u.
   NPACO  =    256;   APACO  = 16.0  distance and # of slots for P.C.
   PSTRESS=    0.0 pullay stress

  Mass of Ions in am
   POMASS =  63.55
  Ionic Valenz
   ZVAL   =  11.00
  Atomic Wigner-Seitz radii
   RWIGS  =  -1.00
   NELECT =     352.0000    total number of electrons
   NUPDOWN=      -1.0000    fix difference up-down

 DOS related values:
   EMIN   =  10.00;   EMAX   =-10.00  energy-range for DOS
   ISMEAR =     0;   SIGMA  =   0.01  broadening in eV -4-tet -1-fermi 0-gaus

 Electronic relaxation 2 (details)
   IALGO  =     38    algorithm
   LDIAG  =      T    sub-space diagonalisation
   IMIX   =      4    mixing-type and parameters
     AMIX     =   0.40;   BMIX     =  1.00
     AMIX_MAG =   1.60;   BMIX_MAG =  1.00
     AMIN     =   0.10
     WC   =   100.;   INIMIX=   1;  MIXPRE=   1

 Intra band minimization:
   WEIMIN = 0.0000     energy-eigenvalue tresh-hold
   EBREAK =  0.12E-10  absolut break condition
   DEPER  =   0.30     relativ break condition  

   TIME   =   0.10     timestep for ELM

  volume/ion in A,a.u.               =      13.14        88.65
  Fermi-wavevector in a.u.,eV,Ry     =   1.543056 32.395760  2.381021

 Second variation
   LSECVAR=     F    do a second variation
 
 Write flags
   LWAVE  =      F    write WAVECAR
   LCHARG =      F    write CHGCAR
   LVTOT  =      F    write LOCPOT, local potential
   LELF   =      F    write electronic localiz. function (ELF)
   LORBIT =      0    0 simple, 1 ext, 2 COOP (PROOUT)


 Dipole corrections
   IDIPOL =      0    1-x, 2-y, 3-z
   LDIPOL =      F    correct potential



--------------------------------------------------------------------------------------------------------


 Static calculation
 charge density will be updated during run
 non-spin polarized calculation
 Variant of blocked Davidson
 Davidson routine will perform the subspace rotation
 performe sub-space diagonalisation
    after iterative eigenvector-optimisation
 modified Broyden-mixing scheme, WC =      100.0
 initial mixing is a Kerker type mixing with AMIX =  0.4000 and BMIX =      1.0000
 Hartree-type preconditioning will be used
 using additional bands           36
 reciprocal scheme for non local part
 use partial core corrections
 calculate Harris-corrections to forces 
   (improved forces if not selfconsistent)
 use gradient corrections 
 use of overlap-Matrix (Vanderbilt PP)
 Gauss-broadening in eV      SIGMA  =   0.01


--------------------------------------------------------------------------------------------------------


  energy-cutoff  :      750.00
  volume of cell :      420.36
      direct lattice vectors                 reciprocal lattice vectors
     7.491016572  0.000000000  0.000000000     0.133493230  0.000000000  0.000000000
     0.000000000  7.491016572  0.000000000     0.000000000  0.133493230  0.000000000
     0.000000000  0.000000000  7.491016572     0.000000000  0.000000000  0.133493230

  length of vectors
     7.491016572  7.491016572  7.491016572     0.133493230  0.133493230  0.133493230


 
 k-points in units of 2pi/SCALE and weight: Automatic mesh                          
   0.00000000  0.00000000  0.00000000       0.001
   0.01112444  0.00000000  0.00000000       0.001
   0.02224887  0.00000000  0.00000000       0.001
   0.03337331  0.00000000  0.00000000       0.001
   0.04449774  0.00000000  0.00000000       0.001
   0.05562218  0.00000000  0.00000000       0.001
   0.06674662  0.00000000  0.00000000       0.001
   0.00000000  0.01112444  0.00000000       0.002
   0.01112444  0.01112444  0.00000000       0.005
   0.02224887  0.01112444  0.00000000       0.005
   0.03337331  0.01112444  0.00000000       0.005
   0.04449774  0.01112444  0.00000000       0.005
   0.05562218  0.01112444  0.00000000       0.005
   0.06674662  0.01112444  0.00000000       0.002
   0.00000000  0.02224887  0.00000000       0.002
   0.01112444  0.02224887  0.00000000       0.005
   0.02224887  0.02224887  0.00000000       0.005
   0.03337331  0.02224887  0.00000000       0.005
   0.04449774  0.02224887  0.00000000       0.005
   0.05562218  0.02224887  0.00000000       0.005
   0.06674662  0.02224887  0.00000000       0.002
   0.00000000  0.03337331  0.00000000       0.002
   0.01112444  0.03337331  0.00000000       0.005
   0.02224887  0.03337331  0.00000000       0.005
   0.03337331  0.03337331  0.00000000       0.005
   0.04449774  0.03337331  0.00000000       0.005
   0.05562218  0.03337331  0.00000000       0.005
   0.06674662  0.03337331  0.00000000       0.002
   0.00000000  0.04449774  0.00000000       0.002
   0.01112444  0.04449774  0.00000000       0.005
   0.02224887  0.04449774  0.00000000       0.005
   0.03337331  0.04449774  0.00000000       0.005
   0.04449774  0.04449774  0.00000000       0.005
   0.05562218  0.04449774  0.00000000       0.005
   0.06674662  0.04449774  0.00000000       0.002
   0.00000000  0.05562218  0.00000000       0.002
   0.01112444  0.05562218  0.00000000       0.005
   0.02224887  0.05562218  0.00000000       0.005
   0.03337331  0.05562218  0.00000000       0.005
   0.04449774  0.05562218  0.00000000       0.005
   0.05562218  0.05562218  0.00000000       0.005
   0.06674662  0.05562218  0.00000000       0.002
   0.00000000  0.06674662  0.00000000       0.001
   0.01112444  0.06674662  0.00000000       0.002
   0.02224887  0.06674662  0.00000000       0.002
   0.03337331  0.06674662  0.00000000       0.002
   0.04449774  0.06674662  0.00000000       0.002
   0.05562218  0.06674662  0.00000000       0.002
   0.06674662  0.06674662  0.00000000       0.001
   0.00000000  0.01112444  0.01112444       0.002
   0.01112444  0.01112444  0.01112444       0.005
   0.02224887  0.01112444  0.01112444       0.005
   0.03337331  0.01112444  0.01112444       0.005
   0.04449774  0.01112444  0.01112444       0.005
   0.05562218  0.01112444  0.01112444       0.005
   0.06674662  0.01112444  0.01112444       0.002
   0.00000000  0.02224887  0.01112444       0.005
   0.01112444  0.02224887  0.01112444       0.009
   0.02224887  0.02224887  0.01112444       0.009
   0.03337331  0.02224887  0.01112444       0.009
   0.04449774  0.02224887  0.01112444       0.009
   0.05562218  0.02224887  0.01112444       0.009
   0.06674662  0.02224887  0.01112444       0.005
   0.00000000  0.03337331  0.01112444       0.005
   0.01112444  0.03337331  0.01112444       0.009
   0.02224887  0.03337331  0.01112444       0.009
   0.03337331  0.03337331  0.01112444       0.009
   0.04449774  0.03337331  0.01112444       0.009
   0.05562218  0.03337331  0.01112444       0.009
   0.06674662  0.03337331  0.01112444       0.005
   0.00000000  0.04449774  0.01112444       0.005
   0.01112444  0.04449774  0.01112444       0.009
   0.02224887  0.04449774  0.01112444       0.009
   0.03337331  0.04449774  0.01112444       0.009
   0.04449774  0.04449774  0.01112444       0.009
   0.05562218  0.04449774  0.01112444       0.009
   0.06674662  0.04449774  0.01112444       0.005
   0.00000000  0.05562218  0.01112444       0.005
   0.01112444  0.05562218  0.01112444       0.009
   0.02224887  0.05562218  0.01112444       0.009
   0.03337331  0.05562218  0.01112444       0.009
   0.04449774  0.05562218  0.01112444       0.009
   0.05562218  0.05562218  0.01112444       0.009
   0.06674662  0.05562218  0.01112444       0.005
   0.00000000  0.06674662  0.01112444       0.002
   0.01112444  0.06674662  0.01112444       0.005
   0.02224887  0.06674662  0.01112444       0.005
   0.03337331  0.06674662  0.01112444       0.005
   0.04449774  0.06674662  0.01112444       0.005
   0.05562218  0.06674662  0.01112444       0.005
   0.06674662  0.06674662  0.01112444       0.002
   0.00000000  0.02224887  0.02224887       0.002
   0.01112444  0.02224887  0.02224887       0.005
   0.02224887  0.02224887  0.02224887       0.005
   0.03337331  0.02224887  0.02224887       0.005
   0.04449774  0.02224887  0.02224887       0.005
   0.05562218  0.02224887  0.02224887       0.005
   0.06674662  0.02224887  0.02224887       0.002
   0.00000000  0.03337331  0.02224887       0.005
   0.01112444  0.03337331  0.02224887       0.009
   0.02224887  0.03337331  0.02224887       0.009
   0.03337331  0.03337331  0.02224887       0.009
   0.04449774  0.03337331  0.02224887       0.009
   0.05562218  0.03337331  0.02224887       0.009
   0.06674662  0.03337331  0.02224887       0.005
   0.00000000  0.04449774  0.02224887       0.005
   0.01112444  0.04449774  0.02224887       0.009
   0.02224887  0.04449774  0.02224887       0.009
   0.03337331  0.04449774  0.02224887       0.009
   0.04449774  0.04449774  0.02224887       0.009
   0.05562218  0.04449774  0.02224887       0.009
   0.06674662  0.04449774  0.02224887       0.005
   0.00000000  0.05562218  0.02224887       0.005
   0.01112444  0.05562218  0.02224887       0.009
   0.02224887  0.05562218  0.02224887       0.009
   0.03337331  0.05562218  0.02224887       0.009
   0.04449774  0.05562218  0.02224887       0.009
   0.05562218  0.05562218  0.02224887       0.009
   0.06674662  0.05562218  0.02224887       0.005
   0.00000000  0.06674662  0.02224887       0.002
   0.01112444  0.06674662  0.02224887       0.005
   0.02224887  0.06674662  0.02224887       0.005
   0.03337331  0.06674662  0.02224887       0.005
   0.04449774  0.06674662  0.02224887       0.005
   0.05562218  0.06674662  0.02224887       0.005
   0.06674662  0.06674662  0.02224887       0.002
   0.00000000  0.03337331  0.03337331       0.002
   0.01112444  0.03337331  0.03337331       0.005
   0.02224887  0.03337331  0.03337331       0.005
   0.03337331  0.03337331  0.03337331       0.005
   0.04449774  0.03337331  0.03337331       0.005
   0.05562218  0.03337331  0.03337331       0.005
   0.06674662  0.03337331  0.03337331       0.002
   0.00000000  0.04449774  0.03337331       0.005
   0.01112444  0.04449774  0.03337331       0.009
   0.02224887  0.04449774  0.03337331       0.009
   0.03337331  0.04449774  0.03337331       0.009
   0.04449774  0.04449774  0.03337331       0.009
   0.05562218  0.04449774  0.03337331       0.009
   0.06674662  0.04449774  0.03337331       0.005
   0.00000000  0.05562218  0.03337331       0.005
   0.01112444  0.05562218  0.03337331       0.009
   0.02224887  0.05562218  0.03337331       0.009
   0.03337331  0.05562218  0.03337331       0.009
   0.04449774  0.05562218  0.03337331       0.009
   0.05562218  0.05562218  0.03337331       0.009
   0.06674662  0.05562218  0.03337331       0.005
   0.00000000  0.06674662  0.03337331       0.002
   0.01112444  0.06674662  0.03337331       0.005
   0.02224887  0.06674662  0.03337331       0.005
   0.03337331  0.06674662  0.03337331       0.005
   0.04449774  0.06674662  0.03337331       0.005
   0.05562218  0.06674662  0.03337331       0.005
   0.06674662  0.06674662  0.03337331       0.002
   0.00000000  0.04449774  0.04449774       0.002
   0.01112444  0.04449774  0.04449774       0.005
   0.02224887  0.04449774  0.04449774       0.005
   0.03337331  0.04449774  0.04449774       0.005
   0.04449774  0.04449774  0.04449774       0.005
   0.05562218  0.04449774  0.04449774       0.005
   0.06674662  0.04449774  0.04449774       0.002
   0.00000000  0.05562218  0.04449774       0.005
   0.01112444  0.05562218  0.04449774       0.009
   0.02224887  0.05562218  0.04449774       0.009
   0.03337331  0.05562218  0.04449774       0.009
   0.04449774  0.05562218  0.04449774       0.009
   0.05562218  0.05562218  0.04449774       0.009
   0.06674662  0.05562218  0.04449774       0.005
   0.00000000  0.06674662  0.04449774       0.002
   0.01112444  0.06674662  0.04449774       0.005
   0.02224887  0.06674662  0.04449774       0.005
   0.03337331  0.06674662  0.04449774       0.005
   0.04449774  0.06674662  0.04449774       0.005
   0.05562218  0.06674662  0.04449774       0.005
   0.06674662  0.06674662  0.04449774       0.002
   0.00000000  0.05562218  0.05562218       0.002
   0.01112444  0.05562218  0.05562218       0.005
   0.02224887  0.05562218  0.05562218       0.005
   0.03337331  0.05562218  0.05562218       0.005
   0.04449774  0.05562218  0.05562218       0.005
   0.05562218  0.05562218  0.05562218       0.005
   0.06674662  0.05562218  0.05562218       0.002
   0.00000000  0.06674662  0.05562218       0.002
   0.01112444  0.06674662  0.05562218       0.005
   0.02224887  0.06674662  0.05562218       0.005
   0.03337331  0.06674662  0.05562218       0.005
   0.04449774  0.06674662  0.05562218       0.005
   0.05562218  0.06674662  0.05562218       0.005
   0.06674662  0.06674662  0.05562218       0.002
   0.00000000  0.06674662  0.06674662       0.001
   0.01112444  0.06674662  0.06674662       0.001
   0.02224887  0.06674662  0.06674662       0.001
   0.03337331  0.06674662  0.06674662       0.001
   0.04449774  0.06674662  0.06674662       0.001
   0.05562218  0.06674662  0.06674662       0.001
   0.06674662  0.06674662  0.06674662       0.001
 
 k-points in reciprocal lattice and weights: Automatic mesh                          
   0.00000000  0.00000000  0.00000000       0.001
   0.08333333  0.00000000  0.00000000       0.001
   0.16666667  0.00000000  0.00000000       0.001
   0.25000000  0.00000000  0.00000000       0.001
   0.33333333  0.00000000  0.00000000       0.001
   0.41666667  0.00000000  0.00000000       0.001
   0.50000000  0.00000000  0.00000000       0.001
   0.00000000  0.08333333  0.00000000       0.002
   0.08333333  0.08333333  0.00000000       0.005
   0.16666667  0.08333333  0.00000000       0.005
   0.25000000  0.08333333  0.00000000       0.005
   0.33333333  0.08333333  0.00000000       0.005
   0.41666667  0.08333333  0.00000000       0.005
   0.50000000  0.08333333  0.00000000       0.002
   0.00000000  0.16666667  0.00000000       0.002
   0.08333333  0.16666667  0.00000000       0.005
   0.16666667  0.16666667  0.00000000       0.005
   0.25000000  0.16666667  0.00000000       0.005
   0.33333333  0.16666667  0.00000000       0.005
   0.41666667  0.16666667  0.00000000       0.005
   0.50000000  0.16666667  0.00000000       0.002
   0.00000000  0.25000000  0.00000000       0.002
   0.08333333  0.25000000  0.00000000       0.005
   0.16666667  0.25000000  0.00000000       0.005
   0.25000000  0.25000000  0.00000000       0.005
   0.33333333  0.25000000  0.00000000       0.005
   0.41666667  0.25000000  0.00000000       0.005
   0.50000000  0.25000000  0.00000000       0.002
   0.00000000  0.33333333  0.00000000       0.002
   0.08333333  0.33333333  0.00000000       0.005
   0.16666667  0.33333333  0.00000000       0.005
   0.25000000  0.33333333  0.00000000       0.005
   0.33333333  0.33333333  0.00000000       0.005
   0.41666667  0.33333333  0.00000000       0.005
   0.50000000  0.33333333  0.00000000       0.002
   0.00000000  0.41666667  0.00000000       0.002
   0.08333333  0.41666667  0.00000000       0.005
   0.16666667  0.41666667  0.00000000       0.005
   0.25000000  0.41666667  0.00000000       0.005
   0.33333333  0.41666667  0.00000000       0.005
   0.41666667  0.41666667  0.00000000       0.005
   0.50000000  0.41666667  0.00000000       0.002
   0.00000000  0.50000000  0.00000000       0.001
   0.08333333  0.50000000  0.00000000       0.002
   0.16666667  0.50000000  0.00000000       0.002
   0.25000000  0.50000000  0.00000000       0.002
   0.33333333  0.50000000  0.00000000       0.002
   0.41666667  0.50000000  0.00000000       0.002
   0.50000000  0.50000000  0.00000000       0.001
   0.00000000  0.08333333  0.08333333       0.002
   0.08333333  0.08333333  0.08333333       0.005
   0.16666667  0.08333333  0.08333333       0.005
   0.25000000  0.08333333  0.08333333       0.005
   0.33333333  0.08333333  0.08333333       0.005
   0.41666667  0.08333333  0.08333333       0.005
   0.50000000  0.08333333  0.08333333       0.002
   0.00000000  0.16666667  0.08333333       0.005
   0.08333333  0.16666667  0.08333333       0.009
   0.16666667  0.16666667  0.08333333       0.009
   0.25000000  0.16666667  0.08333333       0.009
   0.33333333  0.16666667  0.08333333       0.009
   0.41666667  0.16666667  0.08333333       0.009
   0.50000000  0.16666667  0.08333333       0.005
   0.00000000  0.25000000  0.08333333       0.005
   0.08333333  0.25000000  0.08333333       0.009
   0.16666667  0.25000000  0.08333333       0.009
   0.25000000  0.25000000  0.08333333       0.009
   0.33333333  0.25000000  0.08333333       0.009
   0.41666667  0.25000000  0.08333333       0.009
   0.50000000  0.25000000  0.08333333       0.005
   0.00000000  0.33333333  0.08333333       0.005
   0.08333333  0.33333333  0.08333333       0.009
   0.16666667  0.33333333  0.08333333       0.009
   0.25000000  0.33333333  0.08333333       0.009
   0.33333333  0.33333333  0.08333333       0.009
   0.41666667  0.33333333  0.08333333       0.009
   0.50000000  0.33333333  0.08333333       0.005
   0.00000000  0.41666667  0.08333333       0.005
   0.08333333  0.41666667  0.08333333       0.009
   0.16666667  0.41666667  0.08333333       0.009
   0.25000000  0.41666667  0.08333333       0.009
   0.33333333  0.41666667  0.08333333       0.009
   0.41666667  0.41666667  0.08333333       0.009
   0.50000000  0.41666667  0.08333333       0.005
   0.00000000  0.50000000  0.08333333       0.002
   0.08333333  0.50000000  0.08333333       0.005
   0.16666667  0.50000000  0.08333333       0.005
   0.25000000  0.50000000  0.08333333       0.005
   0.33333333  0.50000000  0.08333333       0.005
   0.41666667  0.50000000  0.08333333       0.005
   0.50000000  0.50000000  0.08333333       0.002
   0.00000000  0.16666667  0.16666667       0.002
   0.08333333  0.16666667  0.16666667       0.005
   0.16666667  0.16666667  0.16666667       0.005
   0.25000000  0.16666667  0.16666667       0.005
   0.33333333  0.16666667  0.16666667       0.005
   0.41666667  0.16666667  0.16666667       0.005
   0.50000000  0.16666667  0.16666667       0.002
   0.00000000  0.25000000  0.16666667       0.005
   0.08333333  0.25000000  0.16666667       0.009
   0.16666667  0.25000000  0.16666667       0.009
   0.25000000  0.25000000  0.16666667       0.009
   0.33333333  0.25000000  0.16666667       0.009
   0.41666667  0.25000000  0.16666667       0.009
   0.50000000  0.25000000  0.16666667       0.005
   0.00000000  0.33333333  0.16666667       0.005
   0.08333333  0.33333333  0.16666667       0.009
   0.16666667  0.33333333  0.16666667       0.009
   0.25000000  0.33333333  0.16666667       0.009
   0.33333333  0.33333333  0.16666667       0.009
   0.41666667  0.33333333  0.16666667       0.009
   0.50000000  0.33333333  0.16666667       0.005
   0.00000000  0.41666667  0.16666667       0.005
   0.08333333  0.41666667  0.16666667       0.009
   0.16666667  0.41666667  0.16666667       0.009
   0.25000000  0.41666667  0.16666667       0.009
   0.33333333  0.41666667  0.16666667       0.009
   0.41666667  0.41666667  0.16666667       0.009
   0.50000000  0.41666667  0.16666667       0.005
   0.00000000  0.50000000  0.16666667       0.002
   0.08333333  0.50000000  0.16666667       0.005
   0.16666667  0.50000000  0.16666667       0.005
   0.25000000  0.50000000  0.16666667       0.005
   0.33333333  0.50000000  0.16666667       0.005
   0.41666667  0.50000000  0.16666667       0.005
   0.50000000  0.50000000  0.16666667       0.002
   0.00000000  0.25000000  0.25000000       0.002
   0.08333333  0.25000000  0.25000000       0.005
   0.16666667  0.25000000  0.25000000       0.005
   0.25000000  0.25000000  0.25000000       0.005
   0.33333333  0.25000000  0.25000000       0.005
   0.41666667  0.25000000  0.25000000       0.005
   0.50000000  0.25000000  0.25000000       0.002
   0.00000000  0.33333333  0.25000000       0.005
   0.08333333  0.33333333  0.25000000       0.009
   0.16666667  0.33333333  0.25000000       0.009
   0.25000000  0.33333333  0.25000000       0.009
   0.33333333  0.33333333  0.25000000       0.009
   0.41666667  0.33333333  0.25000000       0.009
   0.50000000  0.33333333  0.25000000       0.005
   0.00000000  0.41666667  0.25000000       0.005
   0.08333333  0.41666667  0.25000000       0.009
   0.16666667  0.41666667  0.25000000       0.009
   0.25000000  0.41666667  0.25000000       0.009
   0.33333333  0.41666667  0.25000000       0.009
   0.41666667  0.41666667  0.25000000       0.009
   0.50000000  0.41666667  0.25000000       0.005
   0.00000000  0.50000000  0.25000000       0.002
   0.08333333  0.50000000  0.25000000       0.005
   0.16666667  0.50000000  0.25000000       0.005
   0.25000000  0.50000000  0.25000000       0.005
   0.33333333  0.50000000  0.25000000       0.005
   0.41666667  0.50000000  0.25000000       0.005
   0.50000000  0.50000000  0.25000000       0.002
   0.00000000  0.33333333  0.33333333       0.002
   0.08333333  0.33333333  0.33333333       0.005
   0.16666667  0.33333333  0.33333333       0.005
   0.25000000  0.33333333  0.33333333       0.005
   0.33333333  0.33333333  0.33333333       0.005
   0.41666667  0.33333333  0.33333333       0.005
   0.50000000  0.33333333  0.33333333       0.002
   0.00000000  0.41666667  0.33333333       0.005
   0.08333333  0.41666667  0.33333333       0.009
   0.16666667  0.41666667  0.33333333       0.009
   0.25000000  0.41666667  0.33333333       0.009
   0.33333333  0.41666667  0.33333333       0.009
   0.41666667  0.41666667  0.33333333       0.009
   0.50000000  0.41666667  0.33333333       0.005
   0.00000000  0.50000000  0.33333333       0.002
   0.08333333  0.50000000  0.33333333       0.005
   0.16666667  0.50000000  0.33333333       0.005
   0.25000000  0.50000000  0.33333333       0.005
   0.33333333  0.50000000  0.33333333       0.005
   0.41666667  0.50000000  0.33333333       0.005
   0.50000000  0.50000000  0.33333333       0.002
   0.00000000  0.41666667  0.41666667       0.002
   0.08333333  0.41666667  0.41666667       0.005
   0.16666667  0.41666667  0.41666667       0.005
   0.25000000  0.41666667  0.41666667       0.005
   0.33333333  0.41666667  0.41666667       0.005
   0.41666667  0.41666667  0.41666667       0.005
   0.50000000  0.41666667  0.41666667       0.002
   0.00000000  0.50000000  0.41666667       0.002
   0.08333333  0.50000000  0.41666667       0.005
   0.16666667  0.50000000  0.41666667       0.005
   0.25000000  0.50000000  0.41666667       0.005
   0.33333333  0.50000000  0.41666667       0.005
   0.41666667  0.50000000  0.41666667       0.005
   0.50000000  0.50000000  0.41666667       0.002
   0.00000000  0.50000000  0.50000000       0.001
   0.08333333  0.50000000  0.50000000       0.001
   0.16666667  0.50000000  0.50000000       0.001
   0.25000000  0.50000000  0.50000000       0.001
   0.33333333  0.50000000  0.50000000       0.001
   0.41666667  0.50000000  0.50000000       0.001
   0.50000000  0.50000000  0.50000000       0.001
 
 position of ions in fractional coordinates (direct lattice) 
   0.00133493  0.00000000  0.00000000
   0.50000000  0.00000000  0.00000000
   0.00000000  0.50000000  0.00000000
   0.50000000  0.50000000  0.00000000
   0.00000000  0.00000000  0.50000000
   0.50000000  0.00000000  0.50000000
   0.00000000  0.50000000  0.50000000
   0.50000000  0.50000000  0.50000000
   0.25000000  0.25000000  0.00000000
   0.75000000  0.25000000  0.00000000
   0.25000000  0.75000000  0.00000000
   0.75000000  0.75000000  0.00000000
   0.25000000  0.25000000  0.50000000
   0.75000000  0.25000000  0.50000000
   0.25000000  0.75000000  0.50000000
   0.75000000  0.75000000  0.50000000
   0.25000000  0.00000000  0.25000000
   0.75000000  0.00000000  0.25000000
   0.25000000  0.50000000  0.25000000
   0.75000000  0.50000000  0.25000000
   0.25000000  0.00000000  0.75000000
   0.75000000  0.00000000  0.75000000
   0.25000000  0.50000000  0.75000000
   0.75000000  0.50000000  0.75000000
   0.00000000  0.25000000  0.25000000
   0.50000000  0.25000000  0.25000000
   0.00000000  0.75000000  0.25000000
   0.50000000  0.75000000  0.25000000
   0.00000000  0.25000000  0.75000000
   0.50000000  0.25000000  0.75000000
   0.00000000  0.75000000  0.75000000
   0.50000000  0.75000000  0.75000000
 
 position of ions in cartesian coordinates  (Angst):
   0.01000000  0.00000000  0.00000000
   3.74550829  0.00000000  0.00000000
   0.00000000  3.74550829  0.00000000
   3.74550829  3.74550829  0.00000000
   0.00000000  0.00000000  3.74550829
   3.74550829  0.00000000  3.74550829
   0.00000000  3.74550829  3.74550829
   3.74550829  3.74550829  3.74550829
   1.87275414  1.87275414  0.00000000
   5.61826243  1.87275414  0.00000000
   1.87275414  5.61826243  0.00000000
   5.61826243  5.61826243  0.00000000
   1.87275414  1.87275414  3.74550829
   5.61826243  1.87275414  3.74550829
   1.87275414  5.61826243  3.74550829
   5.61826243  5.61826243  3.74550829
   1.87275414  0.00000000  1.87275414
   5.61826243  0.00000000  1.87275414
   1.87275414  3.74550829  1.87275414
   5.61826243  3.74550829  1.87275414
   1.87275414  0.00000000  5.61826243
   5.61826243  0.00000000  5.61826243
   1.87275414  3.74550829  5.61826243
   5.61826243  3.74550829  5.61826243
   0.00000000  1.87275414  1.87275414
   3.74550829  1.87275414  1.87275414
   0.00000000  5.61826243  1.87275414
   3.74550829  5.61826243  1.87275414
   0.00000000  1.87275414  5.61826243
   3.74550829  1.87275414  5.61826243
   0.00000000  5.61826243  5.61826243
   3.74550829  5.61826243  5.61826243
 


--------------------------------------------------------------------------------------------------------


 k-point  1 :  0.00000.00000.0000  plane waves:  19549
 k-point  2 :  0.08330.00000.0000  plane waves:  19613
 k-point  3 :  0.16670.00000.0000  plane waves:  19621
 k-point  4 :  0.25000.00000.0000  plane waves:  19641
 k-point  5 :  0.33330.00000.0000  plane waves:  19654
 k-point  6 :  0.41670.00000.0000  plane waves:  19626
 k-point  7 :  0.50000.00000.0000  plane waves:  19562
 k-point  8 :  0.00000.08330.0000  plane waves:  19613
 k-point  9 :  0.08330.08330.0000  plane waves:  19631
 k-point 10 :  0.16670.08330.0000  plane waves:  19606
 k-point 11 :  0.25000.08330.0000  plane waves:  19609
 k-point 12 :  0.33330.08330.0000  plane waves:  19625
 k-point 13 :  0.41670.08330.0000  plane waves:  19628
 k-point 14 :  0.50000.08330.0000  plane waves:  19626
 k-point 15 :  0.00000.16670.0000  plane waves:  19621
 k-point 16 :  0.08330.16670.0000  plane waves:  19606
 k-point 17 :  0.16670.16670.0000  plane waves:  19615
 k-point 18 :  0.25000.16670.0000  plane waves:  19599
 k-point 19 :  0.33330.16670.0000  plane waves:  19595
 k-point 20 :  0.41670.16670.0000  plane waves:  19614
 k-point 21 :  0.50000.16670.0000  plane waves:  19622
 k-point 22 :  0.00000.25000.0000  plane waves:  19641
 k-point 23 :  0.08330.25000.0000  plane waves:  19609
 k-point 24 :  0.16670.25000.0000  plane waves:  19599
 k-point 25 :  0.25000.25000.0000  plane waves:  19586
 k-point 26 :  0.33330.25000.0000  plane waves:  19585
 k-point 27 :  0.41670.25000.0000  plane waves:  19601
 k-point 28 :  0.50000.25000.0000  plane waves:  19610
 k-point 29 :  0.00000.33330.0000  plane waves:  19654
 k-point 30 :  0.08330.33330.0000  plane waves:  19625
 k-point 31 :  0.16670.33330.0000  plane waves:  19595
 k-point 32 :  0.25000.33330.0000  plane waves:  19585
 k-point 33 :  0.33330.33330.0000  plane waves:  19586
 k-point 34 :  0.41670.33330.0000  plane waves:  19597
 k-point 35 :  0.50000.33330.0000  plane waves:  19612
 k-point 36 :  0.00000.41670.0000  plane waves:  19626
 k-point 37 :  0.08330.41670.0000  plane waves:  19628
 k-point 38 :  0.16670.41670.0000  plane waves:  19614
 k-point 39 :  0.25000.41670.0000  plane waves:  19601
 k-point 40 :  0.33330.41670.0000  plane waves:  19597
 k-point 41 :  0.41670.41670.0000  plane waves:  19586
 k-point 42 :  0.50000.41670.0000  plane waves:  19586
 k-point 43 :  0.00000.50000.0000  plane waves:  19562
 k-point 44 :  0.08330.50000.0000  plane waves:  19626
 k-point 45 :  0.16670.50000.0000  plane waves:  19622
 k-point 46 :  0.25000.50000.0000  plane waves:  19610
 k-point 47 :  0.33330.50000.0000  plane waves:  19612
 k-point 48 :  0.41670.50000.0000  plane waves:  19586
 k-point 49 :  0.50000.50000.0000  plane waves:  19640
 k-point 50 :  0.00000.08330.0833  plane waves:  19631
 k-point 51 :  0.08330.08330.0833  plane waves:  19630
 k-point 52 :  0.16670.08330.0833  plane waves:  19608
 k-point 53 :  0.25000.08330.0833  plane waves:  19610
 k-point 54 :  0.33330.08330.0833  plane waves:  19631
 k-point 55 :  0.41670.08330.0833  plane waves:  19618
 k-point 56 :  0.50000.08330.0833  plane waves:  19614
 k-point 57 :  0.00000.16670.0833  plane waves:  19606
 k-point 58 :  0.08330.16670.0833  plane waves:  19608
 k-point 59 :  0.16670.16670.0833  plane waves:  19620
 k-point 60 :  0.25000.16670.0833  plane waves:  19614
 k-point 61 :  0.33330.16670.0833  plane waves:  19607
 k-point 62 :  0.41670.16670.0833  plane waves:  19607
 k-point 63 :  0.50000.16670.0833  plane waves:  19608
 k-point 64 :  0.00000.25000.0833  plane waves:  19609
 k-point 65 :  0.08330.25000.0833  plane waves:  19610
 k-point 66 :  0.16670.25000.0833  plane waves:  19614
 k-point 67 :  0.25000.25000.0833  plane waves:  19594
 k-point 68 :  0.33330.25000.0833  plane waves:  19590
 k-point 69 :  0.41670.25000.0833  plane waves:  19596
 k-point 70 :  0.50000.25000.0833  plane waves:  19596
 k-point 71 :  0.00000.33330.0833  plane waves:  19625
 k-point 72 :  0.08330.33330.0833  plane waves:  19631
 k-point 73 :  0.16670.33330.0833  plane waves:  19607
 k-point 74 :  0.25000.33330.0833  plane waves:  19590
 k-point 75 :  0.33330.33330.0833  plane waves:  19582
 k-point 76 :  0.41670.33330.0833  plane waves:  19602
 k-point 77 :  0.50000.33330.0833  plane waves:  19594
 k-point 78 :  0.00000.41670.0833  plane waves:  19628
 k-point 79 :  0.08330.41670.0833  plane waves:  19618
 k-point 80 :  0.16670.41670.0833  plane waves:  19607
 k-point 81 :  0.25000.41670.0833  plane waves:  19596
 k-point 82 :  0.33330.41670.0833  plane waves:  19602
 k-point 83 :  0.41670.41670.0833  plane waves:  19591
 k-point 84 :  0.50000.41670.0833  plane waves:  19608
 k-point 85 :  0.00000.50000.0833  plane waves:  19626
 k-point 86 :  0.08330.50000.0833  plane waves:  19614
 k-point 87 :  0.16670.50000.0833  plane waves:  19608
 k-point 88 :  0.25000.50000.0833  plane waves:  19596
 k-point 89 :  0.33330.50000.0833  plane waves:  19594
 k-point 90 :  0.41670.50000.0833  plane waves:  19608
 k-point 91 :  0.50000.50000.0833  plane waves:  19608
 k-point 92 :  0.00000.16670.1667  plane waves:  19615
 k-point 93 :  0.08330.16670.1667  plane waves:  19620
 k-point 94 :  0.16670.16670.1667  plane waves:  19609
 k-point 95 :  0.25000.16670.1667  plane waves:  19611
 k-point 96 :  0.33330.16670.1667  plane waves:  19602
 k-point 97 :  0.41670.16670.1667  plane waves:  19609
 k-point 98 :  0.50000.16670.1667  plane waves:  19596
 k-point 99 :  0.00000.25000.1667  plane waves:  19599
 k-point ** :  0.08330.25000.1667  plane waves:  19614
 k-point ** :  0.16670.25000.1667  plane waves:  19611
 k-point ** :  0.25000.25000.1667  plane waves:  19597
 k-point ** :  0.33330.25000.1667  plane waves:  19589
 k-point ** :  0.41670.25000.1667  plane waves:  19596
 k-point ** :  0.50000.25000.1667  plane waves:  19594
 k-point ** :  0.00000.33330.1667  plane waves:  19595
 k-point ** :  0.08330.33330.1667  plane waves:  19607
 k-point ** :  0.16670.33330.1667  plane waves:  19602
 k-point ** :  0.25000.33330.1667  plane waves:  19589
 k-point ** :  0.33330.33330.1667  plane waves:  19595
 k-point ** :  0.41670.33330.1667  plane waves:  19597
 k-point ** :  0.50000.33330.1667  plane waves:  19604
 k-point ** :  0.00000.41670.1667  plane waves:  19614
 k-point ** :  0.08330.41670.1667  plane waves:  19607
 k-point ** :  0.16670.41670.1667  plane waves:  19609
 k-point ** :  0.25000.41670.1667  plane waves:  19596
 k-point ** :  0.33330.41670.1667  plane waves:  19597
 k-point ** :  0.41670.41670.1667  plane waves:  19587
 k-point ** :  0.50000.41670.1667  plane waves:  19620
 k-point ** :  0.00000.50000.1667  plane waves:  19622
 k-point ** :  0.08330.50000.1667  plane waves:  19608
 k-point ** :  0.16670.50000.1667  plane waves:  19596
 k-point ** :  0.25000.50000.1667  plane waves:  19594
 k-point ** :  0.33330.50000.1667  plane waves:  19604
 k-point ** :  0.41670.50000.1667  plane waves:  19620
 k-point ** :  0.50000.50000.1667  plane waves:  19588
 k-point ** :  0.00000.25000.2500  plane waves:  19586
 k-point ** :  0.08330.25000.2500  plane waves:  19594
 k-point ** :  0.16670.25000.2500  plane waves:  19597
 k-point ** :  0.25000.25000.2500  plane waves:  19627
 k-point ** :  0.33330.25000.2500  plane waves:  19599
 k-point ** :  0.41670.25000.2500  plane waves:  19618
 k-point ** :  0.50000.25000.2500  plane waves:  19586
 k-point ** :  0.00000.33330.2500  plane waves:  19585
 k-point ** :  0.08330.33330.2500  plane waves:  19590
 k-point ** :  0.16670.33330.2500  plane waves:  19589
 k-point ** :  0.25000.33330.2500  plane waves:  19599
 k-point ** :  0.33330.33330.2500  plane waves:  19617
 k-point ** :  0.41670.33330.2500  plane waves:  19612
 k-point ** :  0.50000.33330.2500  plane waves:  19614
 k-point ** :  0.00000.41670.2500  plane waves:  19601
 k-point ** :  0.08330.41670.2500  plane waves:  19596
 k-point ** :  0.16670.41670.2500  plane waves:  19596
 k-point ** :  0.25000.41670.2500  plane waves:  19618
 k-point ** :  0.33330.41670.2500  plane waves:  19612
 k-point ** :  0.41670.41670.2500  plane waves:  19613
 k-point ** :  0.50000.41670.2500  plane waves:  19606
 k-point ** :  0.00000.50000.2500  plane waves:  19610
 k-point ** :  0.08330.50000.2500  plane waves:  19596
 k-point ** :  0.16670.50000.2500  plane waves:  19594
 k-point ** :  0.25000.50000.2500  plane waves:  19586
 k-point ** :  0.33330.50000.2500  plane waves:  19614
 k-point ** :  0.41670.50000.2500  plane waves:  19606
 k-point ** :  0.50000.50000.2500  plane waves:  19608
 k-point ** :  0.00000.33330.3333  plane waves:  19586
 k-point ** :  0.08330.33330.3333  plane waves:  19582
 k-point ** :  0.16670.33330.3333  plane waves:  19595
 k-point ** :  0.25000.33330.3333  plane waves:  19617
 k-point ** :  0.33330.33330.3333  plane waves:  19603
 k-point ** :  0.41670.33330.3333  plane waves:  19614
 k-point ** :  0.50000.33330.3333  plane waves:  19614
 k-point ** :  0.00000.41670.3333  plane waves:  19597
 k-point ** :  0.08330.41670.3333  plane waves:  19602
 k-point ** :  0.16670.41670.3333  plane waves:  19597
 k-point ** :  0.25000.41670.3333  plane waves:  19612
 k-point ** :  0.33330.41670.3333  plane waves:  19614
 k-point ** :  0.41670.41670.3333  plane waves:  19639
 k-point ** :  0.50000.41670.3333  plane waves:  19608
 k-point ** :  0.00000.50000.3333  plane waves:  19612
 k-point ** :  0.08330.50000.3333  plane waves:  19594
 k-point ** :  0.16670.50000.3333  plane waves:  19604
 k-point ** :  0.25000.50000.3333  plane waves:  19614
 k-point ** :  0.33330.50000.3333  plane waves:  19614
 k-point ** :  0.41670.50000.3333  plane waves:  19608
 k-point ** :  0.50000.50000.3333  plane waves:  19584
 k-point ** :  0.00000.41670.4167  plane waves:  19586
 k-point ** :  0.08330.41670.4167  plane waves:  19591
 k-point ** :  0.16670.41670.4167  plane waves:  19587
 k-point ** :  0.25000.41670.4167  plane waves:  19613
 k-point ** :  0.33330.41670.4167  plane waves:  19639
 k-point ** :  0.41670.41670.4167  plane waves:  19607
 k-point ** :  0.50000.41670.4167  plane waves:  19606
 k-point ** :  0.00000.50000.4167  plane waves:  19586
 k-point ** :  0.08330.50000.4167  plane waves:  19608
 k-point ** :  0.16670.50000.4167  plane waves:  19620
 k-point ** :  0.25000.50000.4167  plane waves:  19606
 k-point ** :  0.33330.50000.4167  plane waves:  19608
 k-point ** :  0.41670.50000.4167  plane waves:  19606
 k-point ** :  0.50000.50000.4167  plane waves:  19596
 k-point ** :  0.00000.50000.5000  plane waves:  19640
 k-point ** :  0.08330.50000.5000  plane waves:  19608
 k-point ** :  0.16670.50000.5000  plane waves:  19588
 k-point ** :  0.25000.50000.5000  plane waves:  19608
 k-point ** :  0.33330.50000.5000  plane waves:  19584
 k-point ** :  0.41670.50000.5000  plane waves:  19596
 k-point ** :  0.50000.50000.5000  plane waves:  19640

 maximum and minimum number of plane-waves per node :  19654 19549

 maximum number of plane-waves:  19654
 maximal index in each direction: 
   IXMAX= 16   IYMAX= 16   IZMAX= 16
   IXMIN=-17   IYMIN=-17   IZMIN=-17

 NGX is ok and might be reduce to  68
 NGY is ok and might be reduce to  68
 NGZ is ok and might be reduce to  68

 parallel 3dFFT wavefunction:
    minimum data exchange during FFTs selected (reduces bandwidth)
 parallel 3dFFT charge:
    minimum data exchange during FFTs selected (reduces bandwidth)

 For storing wavefunctions ******* MBYTES are necessary
 For predicting wavefunctions  144.11 MBYTES are necessary
Broyden mixing: mesh for mixing (old mesh)
   NGX = 33   NGY = 33   NGZ = 33
  (NGX  =140   NGY  =140   NGZ  =140)
 gives a total of  35937 points
 initial charge density was supplied:
 charge density of overlapping atoms calculated
 number of electron  352.0000000 magnetization 
 keeping initial charge density in first step


--------------------------------------------------------------------------------------------------------


 Maximum index for augmentation-charges        55639 (set IRDMAX)


--------------------------------------------------------------------------------------------------------


 First call to EWALD:  gamma=   0.237
 Maximum number of real-space cells 3x 3x 3
 Maximum number of reciprocal cells 3x 3x 3

    FEWALD:  VPU time    0.00: CPU time    2.69


----------------------------------------- Iteration    1(   1)  ---------------------------------------


    POTLOK:  VPU time    3.76: CPU time    9.57
    SETDIJ:  VPU time    3.25: CPU time   16.36
    EDDAV :  VPU time 1857.79: CPU time 2914.37
    DOS   :  VPU time   -0.00: CPU time   -0.00
    ------------------------------------------
      LOOP:  VPU time 1865.03: CPU time 2942.83

 eigenvalue-minimisations  : 83104
 total energy-change (2. order) : 0.3840425E+04  (-0.1894127E+05)
 number of electron  352.0000000 magnetization 
 augmentation part   352.0000000 magnetization 

 Free energy of the ion-electron system (eV)
  ---------------------------------------------------
  alpha Z        PSCENC =      3112.29743337
  Ewald energy   TEWEN  =    -34125.31336340
  -1/2 Hartree   DENC   =    -11098.66229063
  -V(xc)+E(xc)   XCENC  =      1395.82442056
  PAW double counting   =     34625.67335558   -39234.46421604
  entropy T*S    EENTRO =        -0.00024190
  eigenvalues    EBANDS =      4653.72932061
  atomic energy  EATOM  =     44511.34040493
  ---------------------------------------------------
  free energy    TOTEN  =      3840.42482307 eV

  energy without entropy =     3840.42506497  energy(sigma->0) =     3840.42494402


--------------------------------------------------------------------------------------------------------




----------------------------------------- Iteration    1(   2)  ---------------------------------------


    EDDAV :  VPU time 2116.78: CPU time 3586.52
    DOS   :  VPU time    0.00: CPU time   -0.00
    ------------------------------------------
      LOOP:  VPU time 2119.78: CPU time 3594.07

 eigenvalue-minimisations  : 83104
 total energy-change (2. order) :-0.3426981E+04  (-0.3306054E+04)
 number of electron  352.0000000 magnetization 
 augmentation part   352.0000000 magnetization 

 Free energy of the ion-electron system (eV)
  ---------------------------------------------------
  alpha Z        PSCENC =      3112.29743337
  Ewald energy   TEWEN  =    -34125.31336340
  -1/2 Hartree   DENC   =    -11098.66229063
  -V(xc)+E(xc)   XCENC  =      1395.82442056
  PAW double counting   =     34625.67335558   -39234.46421604
  entropy T*S    EENTRO =        -0.00037313
  eigenvalues    EBANDS =      1226.74878959
  atomic energy  EATOM  =     44511.34040493
  ---------------------------------------------------
  free energy    TOTEN  =       413.44416083 eV

  energy without entropy =      413.44453396  energy(sigma->0) =      413.44434739


--------------------------------------------------------------------------------------------------------




----------------------------------------- Iteration    1(   3)  ---------------------------------------


    EDDAV :  VPU time 1840.33: CPU time 2869.26
    DOS   :  VPU time    0.00: CPU time   -0.00
    ------------------------------------------
      LOOP:  VPU time 1840.56: CPU time 2869.49

 eigenvalue-minimisations  : 83104
 total energy-change (2. order) :-0.5242488E+03  (-0.4808369E+03)
 number of electron  352.0000000 magnetization 
 augmentation part   352.0000000 magnetization 

 Free energy of the ion-electron system (eV)
  ---------------------------------------------------
  alpha Z        PSCENC =      3112.29743337
  Ewald energy   TEWEN  =    -34125.31336340
  -1/2 Hartree   DENC   =    -11098.66229063
  -V(xc)+E(xc)   XCENC  =      1395.82442056
  PAW double counting   =     34625.67335558   -39234.46421604
  entropy T*S    EENTRO =        -0.00078605
  eigenvalues    EBANDS =       702.50043079
  atomic energy  EATOM  =     44511.34040493
  ---------------------------------------------------
  free energy    TOTEN  =      -110.80461089 eV

  energy without entropy =     -110.80382484  energy(sigma->0) =     -110.80421787


--------------------------------------------------------------------------------------------------------




----------------------------------------- Iteration    1(   4)  ---------------------------------------


    EDDAV :  VPU time 3282.42: CPU time 6413.60
    DOS   :  VPU time   -0.00: CPU time   -0.15
    ------------------------------------------
      LOOP:  VPU time 3283.72: CPU time 6415.19

 eigenvalue-minimisations  : 87376
 total energy-change (2. order) :-0.3307335E+02  (-0.3193880E+02)
 number of electron  352.0000000 magnetization 
 augmentation part   352.0000000 magnetization 

 Free energy of the ion-electron system (eV)
  ---------------------------------------------------
  alpha Z        PSCENC =      3112.29743337
  Ewald energy   TEWEN  =    -34125.31336340
  -1/2 Hartree   DENC   =    -11098.66229063
  -V(xc)+E(xc)   XCENC  =      1395.82442056
  PAW double counting   =     34625.67335558   -39234.46421604
  entropy T*S    EENTRO =        -0.00070565
  eigenvalues    EBANDS =       669.42699917
  atomic energy  EATOM  =     44511.34040493
  ---------------------------------------------------
  free energy    TOTEN  =      -143.87796212 eV

  energy without entropy =     -143.87725647  energy(sigma->0) =     -143.87760930


--------------------------------------------------------------------------------------------------------




----------------------------------------- Iteration    1(   5)  ---------------------------------------


    EDDAV :  VPU time11162.76: CPU time23294.50
    DOS   :  VPU time    0.00: CPU time   -0.01
    CHARGE:  VPU time  229.07: CPU time  764.58
    MIXING:  VPU time   30.60: CPU time   30.93
    ------------------------------------------
      LOOP:  VPU time11423.52: CPU time24182.72

 eigenvalue-minimisations  : 88612
 total energy-change (2. order) :-0.3782174E+00  (-0.3767015E+00)
 number of electron  352.0000010 magnetization 
 augmentation part   214.7056177 magnetization 

 Broyden mixing:
  rms(total) = 0.38593E+01    rms(broyden)= 0.38593E+01
  rms(prec ) = 0.56661E+01
  weight for this iteration     100.00

 Free energy of the ion-electron system (eV)
  ---------------------------------------------------
  alpha Z        PSCENC =      3112.29743337
  Ewald energy   TEWEN  =    -34125.31336340
  -1/2 Hartree   DENC   =    -11098.66229063
  -V(xc)+E(xc)   XCENC  =      1395.82442056
  PAW double counting   =     34625.67335558   -39234.46421604
  entropy T*S    EENTRO =        -0.00067586
  eigenvalues    EBANDS =       669.04875198
  atomic energy  EATOM  =     44511.34040493
  ---------------------------------------------------
  free energy    TOTEN  =      -144.25617951 eV

  energy without entropy =     -144.25550365  energy(sigma->0) =     -144.25584158


--------------------------------------------------------------------------------------------------------




----------------------------------------- Iteration    1(   6)  ---------------------------------------


    POTLOK:  VPU time   24.90: CPU time  137.24
    SETDIJ:  VPU time    2.91: CPU time   25.94
    EDDAV :  VPU time 3719.26: CPU time 7693.85
    DOS   :  VPU time   -0.00: CPU time   -0.85
    CHARGE:  VPU time  127.29: CPU time  205.64
    MIXING:  VPU time    0.06: CPU time    0.56
    ------------------------------------------
      LOOP:  VPU time 3874.74: CPU time 8071.90

 eigenvalue-minimisations  : 88740
 total energy-change (2. order) : 0.1432608E+02  (-0.2954484E+02)
 number of electron  352.0000012 magnetization 
 augmentation part   240.2567965 magnetization 

 Broyden mixing:
  rms(total) = 0.20207E+01    rms(broyden)= 0.20207E+01
  rms(prec ) = 0.27943E+01
  weight for this iteration     100.00

 eigenvalues of (default mixing * dielectric matrix)
  average eigenvalue GAMMA=   0.6573
  0.6573

 Free energy of the ion-electron system (eV)
  ---------------------------------------------------
  alpha Z        PSCENC =      3112.29743337
  Ewald energy   TEWEN  =    -34125.31336340
  -1/2 Hartree   DENC   =    -10287.56469962
  -V(xc)+E(xc)   XCENC  =      1355.21579558
  PAW double counting   =     33634.00993704   -37976.01827340
  entropy T*S    EENTRO =        -0.00052517
  eigenvalues    EBANDS =      -353.89680823
  atomic energy  EATOM  =     44511.34040493
  ---------------------------------------------------
  free energy    TOTEN  =      -129.93009891 eV

  energy without entropy =     -129.92957373  energy(sigma->0) =     -129.92983632


--------------------------------------------------------------------------------------------------------




----------------------------------------- Iteration    1(   7)  ---------------------------------------


    POTLOK:  VPU time    0.47: CPU time    0.49
    SETDIJ:  VPU time    0.54: CPU time   23.93
    EDDAV :  VPU time 2360.84: CPU time 4808.03
    DOS   :  VPU time   -0.06: CPU time   -3.25
    CHARGE:  VPU time   54.40: CPU time   62.35
    MIXING:  VPU time    0.28: CPU time    0.61
    ------------------------------------------
      LOOP:  VPU time 2420.27: CPU time 4902.87

 eigenvalue-minimisations  : 92520
 total energy-change (2. order) : 0.1188313E+02  (-0.5518885E+01)
 number of electron  352.0000011 magnetization 
 augmentation part   230.7266689 magnetization 

 Broyden mixing:
  rms(total) = 0.23337E+00    rms(broyden)= 0.23337E+00
  rms(prec ) = 0.35182E+00
  weight for this iteration     100.00

 eigenvalues of (default mixing * dielectric matrix)
  average eigenvalue GAMMA=   1.2620
  1.8851  0.6388

 Free energy of the ion-electron system (eV)
  ---------------------------------------------------
  alpha Z        PSCENC =      3112.29743337
  Ewald energy   TEWEN  =    -34125.31336340
  -1/2 Hartree   DENC   =    -10535.35802289
  -V(xc)+E(xc)   XCENC  =      1368.17201029
  PAW double counting   =     34280.00009971   -38814.51156016
  entropy T*S    EENTRO =        -0.00112498
  eigenvalues    EBANDS =        85.32715167
  atomic energy  EATOM  =     44511.34040493
[...]
     68       0.2185      2.00000
     69       0.2192      2.00000
     70       0.2201      2.00000
     71       0.2201      2.00000
     72       0.2201      2.00000
     73       0.2202      2.00000
     74       0.2202      2.00000
     75       0.2202      2.00000
     76       0.2202      2.00000
     77       0.2203      2.00000
     78       0.2203      2.00000
     79       0.2203      2.00000
     80       0.2203      2.00000
     81       0.2204      2.00000
     82       0.2204      2.00000
     83       0.2204      2.00000
     84       0.2212      2.00000
     85       0.2219      2.00000
     86       0.2221      2.00000
     87       0.2227      2.00000
     88       0.2227      2.00000
     89       0.3190      2.00000
     90       0.3190      2.00000
     91       0.3193      2.00000
     92       0.3195      2.00000
     93       0.3198      2.00000
     94       0.3198      2.00000
     95       0.3199      2.00000
     96       0.3199      2.00000
     97       0.3202      2.00000
     98       0.3202      2.00000
     99       0.3203      2.00000
    100       0.3203      2.00000
    101       0.3207      2.00000
    102       0.3208      2.00000
    103       0.3211      2.00000
    104       0.3211      2.00000
    105       0.7306      2.00000
    106       0.7313      2.00000
    107       0.7313      2.00000
    108       0.7327      2.00000
    109       0.7329      2.00000
    110       0.7329      2.00000
    111       0.7329      2.00000
    112       0.7330      2.00000
    113       0.7331      2.00000
    114       0.7331      2.00000
    115       0.7331      2.00000
    116       0.7332      2.00000
    117       0.7333      2.00000
    118       0.7333      2.00000
    119       0.7333      2.00000
    120       0.7333      2.00000
    121       0.7334      2.00000
    122       0.7335      2.00000
    123       0.7335      2.00000
    124       0.7336      2.00000
    125       0.7337      2.00000
    126       0.7351      2.00000
    127       0.7351      2.00000
    128       0.7358      2.00000
    129       0.9557      2.00000
    130       0.9567      2.00000
    131       0.9567      2.00000
    132       0.9567      2.00000
    133       0.9572      2.00000
    134       0.9572      2.00000
    135       0.9574      2.00000
    136       0.9574      2.00000
    137       0.9576      2.00000
    138       0.9576      2.00000
    139       0.9578      2.00000
    140       0.9578      2.00000
    141       0.9583      2.00000
    142       0.9583      2.00000
    143       0.9583      2.00000
    144       0.9593      2.00000
    145       1.3987      2.00000
    146       1.3987      2.00000
    147       1.3988      2.00000
    148       1.3988      2.00000
    149       1.3989      2.00000
    150       1.3989      2.00000
    151       1.3989      2.00000
    152       1.3990      2.00000
    153       1.3990      2.00000
    154       1.3991      2.00000
    155       1.3991      2.00000
    156       1.3991      2.00000
    157       1.3992      2.00000
    158       1.3993      2.00000
    159       1.3993      2.00000
    160       1.3993      2.00000
    161       1.3994      2.00000
    162       1.3994      2.00000
    163       1.3994      2.00000
    164       1.3994      2.00000
    165       1.3995      2.00000
    166       1.3995      2.00000
    167       1.3996      2.00000
    168       1.3996      2.00000
    169       3.7702      0.00000
    170       3.7723      0.00000
    171       3.7723      0.00000
    172       3.7748      0.00000
    173       3.7753      0.00000
    174       3.7754      0.00000
    175       3.7754      0.00000
    176       3.7755      0.00000
    177       3.7755      0.00000
    178       3.7755      0.00000
    179       3.7756      0.00000
    180       3.7756      0.00000
    181       3.7757      0.00000
    182       3.7757      0.00000
    183       3.7758      0.00000
    184       3.7758      0.00000
    185       3.7758      0.00000
    186       3.7759      0.00000
    187       3.7759      0.00000
    188       3.7760      0.00000
    189       3.7764      0.00000
    190       3.7790      0.00000
    191       3.7790      0.00000
    192       3.7811      0.00000
    193       9.1201      0.00000
    194       9.1204      0.00000
    195       9.1222      0.00000
    196       9.1254      0.00000
    197       9.1255      0.00000
    198       9.1257      0.00000
    199       9.1258      0.00000
    200       9.1260      0.00000
    201       9.1260      0.00000
    202       9.1261      0.00000
    203       9.1261      0.00000
    204       9.1262      0.00000
    205       9.1262      0.00000
    206       9.1263      0.00000
    207       9.1265      0.00000
    208       9.1266      0.00000
    209       9.1267      0.00000
    210       9.1272      0.00000
    211       9.1275      0.00000
    212       9.1287      0.00000


--------------------------------------------------------------------------------------------------------


 soft charge-density along one line, spin component           1
         0         1         2         3         4         5         6         7         8         9
 total charge-density along one line
 
 pseudopotential strength for first ion, spin component:           1
 -6.891   0.000  -0.000   0.000   0.000  -0.052  -0.000   0.000
  0.000  -6.891  -0.000   0.000  -0.000  -0.000  -0.052   0.000
 -0.000  -0.000  -6.875  -0.000  -0.000   0.000   0.000  -0.060
  0.000   0.000  -0.000  -6.891   0.000  -0.000  -0.000   0.000
  0.000  -0.000  -0.000   0.000  -6.875  -0.000   0.000   0.000
 -0.052  -0.000   0.000  -0.000  -0.000   1.591   0.000  -0.000
 -0.000  -0.052   0.000  -0.000   0.000   0.000   1.591  -0.000
  0.000   0.000  -0.060   0.000   0.000  -0.000  -0.000   1.595
 -0.000  -0.000   0.000  -0.052  -0.000   0.000   0.000  -0.000
 -0.000   0.000   0.000  -0.000  -0.060   0.000  -0.000  -0.000
 -0.000  -0.000   0.000  -0.000  -0.000  -0.000  -0.000  -0.000
  0.000   0.000  -0.000   0.000   0.000  -0.000  -0.000   0.000
 -0.000  -0.000   0.000  -0.000   0.000   0.000   0.000   0.000
 -0.000  -0.000  -0.000  -0.000  -0.000  -0.000   0.000   0.000
 -0.000  -0.000   0.000  -0.000  -0.000  -0.000  -0.000  -0.000
  0.000   0.000  -0.000   0.000   0.000  -0.000  -0.000   0.000
  0.000   0.000  -0.000   0.000   0.000  -0.000  -0.000   0.000
  0.000   0.000  -0.000   0.000   0.000  -0.000  -0.000   0.000
 total augmentation occupancy for first ion, spin component:           1
  1.897  -0.000  -0.003  -0.000  -0.001  -0.029  -0.000   0.001   0.000   0.000   0.006   0.000   0.001   0.000  -0.000  -0.000
 -0.000   1.900  -0.001  -0.001  -0.003  -0.000  -0.032   0.001   0.000   0.001   0.005  -0.000   0.000   0.000  -0.000  -0.000
 -0.003  -0.001   1.917  -0.000  -0.003   0.001   0.001  -0.071   0.001   0.002   0.014   0.002   0.000  -0.000  -0.000  -0.000
 -0.000  -0.001  -0.000   1.904   0.001   0.000   0.000   0.001  -0.036   0.000   0.003  -0.000   0.000   0.001  -0.000  -0.000
 -0.001  -0.003  -0.003   0.001   1.906   0.000   0.001   0.002   0.000  -0.064   0.008   0.001   0.000   0.000   0.000   0.000
 -0.029  -0.000   0.001   0.000   0.000   0.059   0.000   0.001  -0.000  -0.000  -0.001   0.000   0.001  -0.000   0.000  -0.000
 -0.000  -0.032   0.001   0.000   0.001   0.000   0.061  -0.001  -0.000   0.000  -0.000   0.001   0.000  -0.000   0.000   0.000
  0.001   0.001  -0.071   0.001   0.002   0.001  -0.001   0.058  -0.001  -0.001  -0.008   0.000   0.000   0.000  -0.000   0.000
  0.000   0.000   0.001  -0.036   0.000  -0.000  -0.000  -0.001   0.063  -0.001   0.001   0.001  -0.000   0.001   0.000   0.000
  0.000   0.001   0.002   0.000  -0.064  -0.000   0.000  -0.001  -0.001   0.056  -0.004   0.000  -0.000  -0.000   0.000   0.000
  0.006   0.005   0.014   0.003   0.008  -0.001  -0.000  -0.008   0.001  -0.004   1.134  -0.307   0.000  -0.000   0.003   0.000
  0.000  -0.000   0.002  -0.000   0.001   0.000   0.001   0.000   0.001   0.000  -0.307   0.122   0.000  -0.000  -0.001  -0.000
  0.001   0.000   0.000   0.000   0.000   0.001   0.000   0.000  -0.000  -0.000   0.000   0.000   0.157  -0.001   0.001  -0.011
  0.000   0.000  -0.000   0.001   0.000  -0.000  -0.000   0.000   0.001  -0.000  -0.000  -0.000  -0.001   0.161  -0.002  -0.000
 -0.000  -0.000  -0.000  -0.000   0.000   0.000   0.000  -0.000   0.000   0.000   0.003  -0.001   0.001  -0.002   0.159  -0.000
 -0.000  -0.000  -0.000  -0.000   0.000  -0.000   0.000   0.000   0.000   0.000   0.000  -0.000  -0.011  -0.000  -0.000   0.001
 -0.000  -0.000  -0.000  -0.000   0.000   0.000   0.000  -0.000  -0.000   0.000   0.000   0.000  -0.000  -0.011  -0.000   0.000
  0.000  -0.000   0.000   0.000  -0.000  -0.000  -0.000   0.000  -0.000  -0.000  -0.000   0.000  -0.000  -0.000  -0.011   0.000


------------------------ aborting loop because EDIFF is reached ----------------------------------------




--------------------------------------------------------------------------------------------------------


    CHARGE:  VPU time   71.34: CPU time   71.32
    FORLOC:  VPU time    0.09: CPU time    0.11
    FORNL :  VPU time  600.33: CPU time  600.03
    STRESS:  VPU time  822.31: CPU time  821.93
    FORCOR:  VPU time    0.51: CPU time    0.51
    FORHAR:  VPU time    0.16: CPU time    0.16
    MIXING:  VPU time    0.02: CPU time    0.02


--------------------------------------------------------------------------------------------------------



  FREE ENERGIE OF THE ION-ELECTRON SYSTEM (eV)
  ---------------------------------------------------
  free  energy   TOTEN  =      -117.807252 eV

  energy  without entropy=     -117.806204  energy(sigma->0) =     -117.806728
 

  FORCE on cell =-STRESS in cart. coord.  units (eV/reduce length):
  Direction    X        Y        Z        XY       YZ       ZX
  --------------------------------------------------------------------------------------
  Alpha Z   3112.30   3112.30   3112.30
  Ewald   -11375.19 -11375.14 -11375.14      0.00     -0.00     -0.00
  Hartree   3474.13   3474.16   3474.16     -0.00     -0.00     -0.00
  E(xc)    -1999.32  -1999.32  -1999.32      0.00     -0.00     -0.00
  Local     3660.92   3660.83   3660.83      0.00     -0.00      0.00
  n-local  -1199.44  -1202.93  -1195.95      1.47      0.83      0.21
  augment   1804.51   1804.51   1804.51     -0.00     -0.00     -0.00
  Kinetic   2496.67   2492.92   2500.41      0.40     -1.04     -2.48
  -------------------------------------------------------------------------------------
  Total      -25.43    -25.43    -25.43      0.00      0.00     -0.00
  in kB      -96.92    -96.92    -96.92      0.00      0.00     -0.00
  external pressure =      -96.92 kB  Pullay stress =        0.00 kB


 VOLUME and BASIS-vectors are now :
 -----------------------------------------------------------------------------
  energy-cutoff  :      750.00
  volume of cell :      420.36
      direct lattice vectors                 reciprocal lattice vectors
     7.491016572  0.000000000  0.000000000     0.133493230  0.000000000  0.000000000
     0.000000000  7.491016572  0.000000000     0.000000000  0.133493230  0.000000000
     0.000000000  0.000000000  7.491016572     0.000000000  0.000000000  0.133493230

  length of vectors
     7.491016572  7.491016572  7.491016572     0.133493230  0.133493230  0.133493230


 FORCES acting on ions
    electron-ion (+dipol)            ewald-force                    non-local-force                 convergence-correction
 -----------------------------------------------------------------------------------------------
   0.538E+01 -.897E-13 0.909E-06   -.538E+01 0.711E-13 0.711E-14   -.444E-01 -.180E-19 -.259E-19   -.154E-05 0.251E-12 0.550E-12
   -.140E+01 -.550E-13 -.912E-06   0.142E+01 0.853E-13 -.284E-13   -.171E-01 0.483E-20 0.121E-19   -.314E-05 0.252E-12 0.495E-12
   0.446E+00 0.796E-12 0.214E-11   -.450E+00 0.853E-13 0.213E-13   0.345E-02 -.116E-20 0.293E-20   0.108E-05 -.220E-12 0.526E-12
   -.360E+00 -.487E-11 0.547E-11   0.353E+00 0.853E-13 -.284E-13   0.659E-02 0.717E-20 0.378E-21   -.392E-06 -.210E-12 0.488E-12
   0.446E+00 -.105E-12 0.363E-09   -.450E+00 0.924E-13 0.711E-13   0.345E-02 0.971E-20 0.290E-20   0.179E-05 0.272E-12 -.123E-12
   -.360E+00 -.880E-13 0.357E-09   0.353E+00 0.853E-13 0.568E-13   0.659E-02 0.266E-21 0.109E-20   -.501E-06 0.263E-12 -.129E-12
   0.188E+00 0.813E-12 0.349E-10   -.186E+00 0.853E-13 0.426E-13   -.182E-02 0.278E-20 -.131E-19   -.112E-05 -.239E-12 -.145E-12
   -.174E+00 -.466E-11 0.291E-10   0.174E+00 0.114E-12 0.284E-13   -.351E-03 -.620E-20 0.115E-20   0.493E-06 -.226E-12 -.133E-12
   -.685E+00 -.131E+01 -.144E-11   0.682E+00 0.131E+01 0.213E-13   0.738E-02 0.481E-02 0.119E-19   0.487E-05 -.546E-05 0.531E-12
   -.690E+00 0.130E+01 -.311E-11   0.687E+00 -.130E+01 -.355E-13   0.749E-02 -.487E-02 0.662E-20   -.346E-05 -.554E-05 0.478E-12
   -.685E+00 0.131E+01 -.162E-11   0.682E+00 -.131E+01 0.284E-13   0.738E-02 -.481E-02 -.367E-20   0.487E-05 0.546E-05 0.539E-12
   -.690E+00 -.130E+01 -.312E-11   0.687E+00 0.130E+01 0.284E-13   0.749E-02 0.487E-02 -.842E-20   -.346E-05 0.554E-05 0.510E-12
   -.183E-01 -.108E+00 -.735E-10   0.207E-01 0.108E+00 0.426E-13   -.202E-02 0.139E-03 0.188E-20   -.583E-05 -.118E-04 -.549E-13
   -.207E-01 0.108E+00 -.727E-10   0.230E-01 -.108E+00 0.426E-13   -.200E-02 -.142E-03 0.328E-21   0.585E-05 -.104E-04 -.112E-12
   -.183E-01 0.108E+00 -.734E-10   0.207E-01 -.108E+00 0.284E-13   -.202E-02 -.139E-03 -.208E-20   -.583E-05 0.118E-04 -.162E-12
   -.207E-01 -.108E+00 -.694E-10   0.230E-01 0.108E+00 0.284E-13   -.200E-02 0.142E-03 -.434E-21   0.585E-05 0.104E-04 -.209E-12
   -.685E+00 -.720E-13 -.131E+01   0.682E+00 0.000E+00 0.131E+01   0.738E-02 -.392E-20 0.481E-02   0.475E-05 0.272E-12 -.537E-05
   -.690E+00 -.668E-13 0.130E+01   0.687E+00 0.000E+00 -.130E+01   0.749E-02 -.536E-20 -.487E-02   -.358E-05 0.242E-12 -.563E-05
   -.183E-01 0.779E-12 -.108E+00   0.207E-01 0.568E-13 0.108E+00   -.202E-02 0.126E-20 0.139E-03   -.580E-05 -.197E-12 -.117E-04
   -.207E-01 -.206E-11 0.108E+00   0.230E-01 0.568E-13 -.108E+00   -.200E-02 -.302E-20 -.142E-03   0.588E-05 -.173E-12 -.105E-04
   -.685E+00 -.124E-12 0.131E+01   0.682E+00 0.000E+00 -.131E+01   0.738E-02 0.123E-19 -.481E-02   0.475E-05 0.330E-12 0.537E-05
   -.690E+00 -.862E-13 -.130E+01   0.687E+00 0.000E+00 0.130E+01   0.749E-02 -.166E-20 0.487E-02   -.358E-05 0.304E-12 0.563E-05
   -.183E-01 0.822E-12 0.108E+00   0.207E-01 0.568E-13 -.108E+00   -.202E-02 0.903E-21 -.139E-03   -.580E-05 -.255E-12 0.117E-04
   -.207E-01 0.435E-13 -.108E+00   0.230E-01 0.568E-13 0.108E+00   -.200E-02 -.819E-21 0.142E-03   0.588E-05 -.237E-12 0.105E-04
   0.846E+00 0.357E-02 0.357E-02   -.848E+00 -.356E-02 -.356E-02   0.275E-02 -.148E-04 -.148E-04   0.818E-06 -.329E-05 -.329E-05
   -.474E+00 -.104E-02 -.104E-02   0.477E+00 0.107E-02 0.107E-02   -.270E-02 -.158E-04 -.158E-04   -.104E-05 -.133E-04 -.133E-04
   0.846E+00 -.357E-02 0.357E-02   -.848E+00 0.356E-02 -.356E-02   0.275E-02 0.148E-04 -.148E-04   0.818E-06 0.329E-05 -.329E-05
   -.474E+00 0.104E-02 -.104E-02   0.477E+00 -.107E-02 0.107E-02   -.270E-02 0.158E-04 -.158E-04   -.104E-05 0.133E-04 -.133E-04
   0.846E+00 0.357E-02 -.357E-02   -.848E+00 -.356E-02 0.356E-02   0.275E-02 -.148E-04 0.148E-04   0.818E-06 -.329E-05 0.329E-05
   -.474E+00 -.104E-02 0.104E-02   0.477E+00 0.107E-02 -.107E-02   -.270E-02 -.158E-04 0.158E-04   -.104E-05 -.133E-04 0.133E-04
   0.846E+00 -.357E-02 -.357E-02   -.848E+00 0.356E-02 0.356E-02   0.275E-02 0.148E-04 0.148E-04   0.818E-06 0.329E-05 0.329E-05
   -.474E+00 0.104E-02 0.104E-02   0.477E+00 -.107E-02 -.107E-02   -.270E-02 0.158E-04 0.158E-04   -.104E-05 0.133E-04 0.133E-04
 -----------------------------------------------------------------------------------------------
   -.849E-06 -.513E-10 -.253E-08   0.242E-12 0.126E-12 0.212E-12   -.125E-04 -.864E-18 -.708E-18   0.119E-05 0.173E-13 -.115E-11
 
 
 POSITION                                       TOTAL-FORCE (eV/Angst)
 -----------------------------------------------------------------------------------
      0.01000      0.00000      0.00000        -0.042759      0.000000     -0.000000
      3.74551      0.00000      0.00000         0.000953      0.000000      0.000000
      0.00000      3.74551      0.00000        -0.000381     -0.000000     -0.000000
      3.74551      3.74551      0.00000        -0.000347      0.000000     -0.000000
      0.00000      0.00000      3.74551        -0.000381     -0.000000     -0.000000
      3.74551      0.00000      3.74551        -0.000347      0.000000      0.000000
      0.00000      3.74551      3.74551         0.000042     -0.000000     -0.000000
      3.74551      3.74551      3.74551        -0.000265     -0.000000     -0.000000
      1.87275      1.87275      0.00000         0.004982      0.005596      0.000000
      5.61826      1.87275      0.00000         0.004796     -0.005350     -0.000000
      1.87275      5.61826      0.00000         0.004982     -0.005596      0.000000
      5.61826      5.61826      0.00000         0.004796      0.005350     -0.000000
      1.87275      1.87275      3.74551         0.000331      0.000117     -0.000000
      5.61826      1.87275      3.74551         0.000331     -0.000118     -0.000000
      1.87275      5.61826      3.74551         0.000331     -0.000117      0.000000
      5.61826      5.61826      3.74551         0.000331      0.000118     -0.000000
      1.87275      0.00000      1.87275         0.004982     -0.000000      0.005596
      5.61826      0.00000      1.87275         0.004796      0.000000     -0.005350
      1.87275      3.74551      1.87275         0.000331      0.000000      0.000117
      5.61826      3.74551      1.87275         0.000331      0.000000     -0.000118
      1.87275      0.00000      5.61826         0.004982      0.000000     -0.005596
      5.61826      0.00000      5.61826         0.004796     -0.000000      0.005350
      1.87275      3.74551      5.61826         0.000331      0.000000     -0.000117
      5.61826      3.74551      5.61826         0.000331     -0.000000      0.000118
      0.00000      1.87275      1.87275        -0.000166     -0.000009     -0.000009
      3.74551      1.87275      1.87275         0.000596      0.000003      0.000003
      0.00000      5.61826      1.87275        -0.000166      0.000009     -0.000009
      3.74551      5.61826      1.87275         0.000596     -0.000003      0.000003
      0.00000      1.87275      5.61826        -0.000166     -0.000009      0.000009
      3.74551      1.87275      5.61826         0.000596      0.000003     -0.000003
      0.00000      5.61826      5.61826        -0.000166      0.000009      0.000009
      3.74551      5.61826      5.61826         0.000596     -0.000003     -0.000003
 -----------------------------------------------------------------------------------
    total drift:                               -0.000012     -0.000000     -0.000000


--------------------------------------------------------------------------------------------------------



 mean value of Nose-termostat <S>:     1.000 mean value of <T> :     0.000
 mean temperature <T/S>/<1/S>  :     0.000

     LOOP+:  VPU time66683.94: CPU time********
  
  
 General timing and accounting informations for this job:
 ========================================================
  
                  Total CPU time used (sec):    67119.782
                            User time (sec):    45557.953
                          System time (sec):    21561.829
                         Elapsed time (sec):   130089.837
  
                   Maximum memory used (kb):    16064608.
                   Average memory used (kb):           0.
  
                          Minor page faults:      7809444
                          Major page faults:       497599
                 Voluntary context switches:       618776
