   2   2   0   0
  0.1746205E+02  0.2940234E-09  0.2940234E-09  0.4649775E-09  0.5000000E-15
  1.000000000000000E-004
  CAR 
 unknown system                          
     11.09384729    -29.40478553  301      5.78192770      1.00000000
    -29.405  0.0000E+00  0.0000E+00
    -29.270  0.0000E+00  0.0000E+00
    -29.135  0.0000E+00  0.0000E+00
    -29.000  0.0000E+00  0.0000E+00
    -28.865  0.0000E+00  0.0000E+00
    -28.730  0.0000E+00  0.0000E+00
    -28.595  0.0000E+00  0.0000E+00
    -28.460  0.0000E+00  0.0000E+00
    -28.325  0.0000E+00  0.0000E+00
    -28.190  0.0000E+00  0.0000E+00
    -28.055  0.0000E+00  0.0000E+00
    -27.920  0.0000E+00  0.0000E+00
    -27.785  0.0000E+00  0.0000E+00
    -27.650  0.0000E+00  0.0000E+00
    -27.515  0.1227E+00  0.1656E-01
    -27.380  0.6806E+01  0.1063E+01
    -27.245  0.6001E+01  0.3066E+01
    -27.110  0.6791E+01  0.4805E+01
    -26.975  0.1626E+02  0.8164E+01
    -26.840  0.9862E+01  0.1175E+02
    -26.705  0.0000E+00  0.1200E+02
    -26.570  0.0000E+00  0.1200E+02
    -26.435  0.0000E+00  0.1200E+02
    -26.300  0.0000E+00  0.1200E+02
    -26.165  0.0000E+00  0.1200E+02
    -26.030  0.0000E+00  0.1200E+02
    -25.895  0.0000E+00  0.1200E+02
    -25.760  0.0000E+00  0.1200E+02
    -25.625  0.0000E+00  0.1200E+02
    -25.490  0.0000E+00  0.1200E+02
    -25.355  0.0000E+00  0.1200E+02
    -25.220  0.0000E+00  0.1200E+02
    -25.085  0.0000E+00  0.1200E+02
    -24.950  0.0000E+00  0.1200E+02
    -24.815  0.0000E+00  0.1200E+02
    -24.680  0.0000E+00  0.1200E+02
    -24.545  0.0000E+00  0.1200E+02
    -24.410  0.0000E+00  0.1200E+02
    -24.275  0.0000E+00  0.1200E+02
    -24.140  0.0000E+00  0.1200E+02
    -24.005  0.0000E+00  0.1200E+02
    -23.870  0.0000E+00  0.1200E+02
    -23.735  0.0000E+00  0.1200E+02
    -23.600  0.0000E+00  0.1200E+02
    -23.465  0.0000E+00  0.1200E+02
    -23.330  0.0000E+00  0.1200E+02
    -23.195  0.0000E+00  0.1200E+02
    -23.060  0.0000E+00  0.1200E+02
    -22.925  0.0000E+00  0.1200E+02
    -22.790  0.0000E+00  0.1200E+02
    -22.655  0.0000E+00  0.1200E+02
    -22.520  0.0000E+00  0.1200E+02
    -22.385  0.0000E+00  0.1200E+02
    -22.250  0.0000E+00  0.1200E+02
    -22.115  0.0000E+00  0.1200E+02
    -21.980  0.0000E+00  0.1200E+02
    -21.845  0.0000E+00  0.1200E+02
    -21.710  0.0000E+00  0.1200E+02
    -21.575  0.0000E+00  0.1200E+02
    -21.440  0.0000E+00  0.1200E+02
    -21.305  0.0000E+00  0.1200E+02
    -21.170  0.0000E+00  0.1200E+02
    -21.035  0.0000E+00  0.1200E+02
    -20.900  0.0000E+00  0.1200E+02
    -20.765  0.0000E+00  0.1200E+02
    -20.630  0.0000E+00  0.1200E+02
    -20.495  0.0000E+00  0.1200E+02
    -20.360  0.0000E+00  0.1200E+02
    -20.225  0.0000E+00  0.1200E+02
    -20.090  0.0000E+00  0.1200E+02
    -19.955  0.0000E+00  0.1200E+02
    -19.820  0.0000E+00  0.1200E+02
    -19.685  0.0000E+00  0.1200E+02
    -19.550  0.0000E+00  0.1200E+02
    -19.415  0.0000E+00  0.1200E+02
    -19.280  0.0000E+00  0.1200E+02
    -19.145  0.0000E+00  0.1200E+02
    -19.010  0.0000E+00  0.1200E+02
    -18.875  0.0000E+00  0.1200E+02
    -18.740  0.0000E+00  0.1200E+02
    -18.605  0.0000E+00  0.1200E+02
    -18.470  0.0000E+00  0.1200E+02
    -18.335  0.0000E+00  0.1200E+02
    -18.200  0.0000E+00  0.1200E+02
    -18.065  0.0000E+00  0.1200E+02
    -17.930  0.0000E+00  0.1200E+02
    -17.795  0.0000E+00  0.1200E+02
    -17.660  0.0000E+00  0.1200E+02
    -17.525  0.0000E+00  0.1200E+02
    -17.390  0.0000E+00  0.1200E+02
    -17.255  0.0000E+00  0.1200E+02
    -17.120  0.0000E+00  0.1200E+02
    -16.985  0.0000E+00  0.1200E+02
    -16.850  0.0000E+00  0.1200E+02
    -16.715  0.0000E+00  0.1200E+02
    -16.580  0.0000E+00  0.1200E+02
    -16.445  0.0000E+00  0.1200E+02
    -16.310  0.0000E+00  0.1200E+02
    -16.175  0.0000E+00  0.1200E+02
    -16.040  0.0000E+00  0.1200E+02
    -15.905  0.0000E+00  0.1200E+02
    -15.770  0.0000E+00  0.1200E+02
    -15.635  0.0000E+00  0.1200E+02
    -15.500  0.0000E+00  0.1200E+02
    -15.365  0.0000E+00  0.1200E+02
    -15.230  0.0000E+00  0.1200E+02
    -15.095  0.0000E+00  0.1200E+02
    -14.960  0.0000E+00  0.1200E+02
    -14.825  0.0000E+00  0.1200E+02
    -14.690  0.0000E+00  0.1200E+02
    -14.555  0.0000E+00  0.1200E+02
    -14.420  0.0000E+00  0.1200E+02
    -14.285  0.0000E+00  0.1200E+02
    -14.150  0.0000E+00  0.1200E+02
    -14.015  0.0000E+00  0.1200E+02
    -13.880  0.0000E+00  0.1200E+02
    -13.745  0.0000E+00  0.1200E+02
    -13.610  0.0000E+00  0.1200E+02
    -13.475  0.0000E+00  0.1200E+02
    -13.340  0.0000E+00  0.1200E+02
    -13.205  0.0000E+00  0.1200E+02
    -13.070  0.0000E+00  0.1200E+02
    -12.935  0.0000E+00  0.1200E+02
    -12.800  0.0000E+00  0.1200E+02
    -12.665  0.0000E+00  0.1200E+02
    -12.530  0.0000E+00  0.1200E+02
    -12.395  0.0000E+00  0.1200E+02
    -12.260  0.0000E+00  0.1200E+02
    -12.125  0.0000E+00  0.1200E+02
    -11.990  0.0000E+00  0.1200E+02
    -11.855  0.0000E+00  0.1200E+02
    -11.720  0.0000E+00  0.1200E+02
    -11.585  0.0000E+00  0.1200E+02
    -11.450  0.0000E+00  0.1200E+02
    -11.315  0.0000E+00  0.1200E+02
    -11.180  0.0000E+00  0.1200E+02
    -11.045  0.0000E+00  0.1200E+02
    -10.910  0.0000E+00  0.1200E+02
    -10.775  0.0000E+00  0.1200E+02
    -10.640  0.0000E+00  0.1200E+02
    -10.505  0.0000E+00  0.1200E+02
    -10.370  0.0000E+00  0.1200E+02
    -10.235  0.0000E+00  0.1200E+02
    -10.100  0.0000E+00  0.1200E+02
     -9.965  0.0000E+00  0.1200E+02
     -9.830  0.0000E+00  0.1200E+02
     -9.695  0.0000E+00  0.1200E+02
     -9.560  0.0000E+00  0.1200E+02
     -9.425  0.0000E+00  0.1200E+02
     -9.290  0.0000E+00  0.1200E+02
     -9.155  0.0000E+00  0.1200E+02
     -9.020  0.0000E+00  0.1200E+02
     -8.885  0.0000E+00  0.1200E+02
     -8.750  0.0000E+00  0.1200E+02
     -8.615  0.0000E+00  0.1200E+02
     -8.480  0.0000E+00  0.1200E+02
     -8.345  0.0000E+00  0.1200E+02
     -8.211  0.0000E+00  0.1200E+02
     -8.076  0.0000E+00  0.1200E+02
     -7.941  0.0000E+00  0.1200E+02
     -7.806  0.0000E+00  0.1200E+02
     -7.671  0.0000E+00  0.1200E+02
     -7.536  0.0000E+00  0.1200E+02
     -7.401  0.0000E+00  0.1200E+02
     -7.266  0.0000E+00  0.1200E+02
     -7.131  0.0000E+00  0.1200E+02
     -6.996  0.0000E+00  0.1200E+02
     -6.861  0.0000E+00  0.1200E+02
     -6.726  0.0000E+00  0.1200E+02
     -6.591  0.0000E+00  0.1200E+02
     -6.456  0.0000E+00  0.1200E+02
     -6.321  0.0000E+00  0.1200E+02
     -6.186  0.0000E+00  0.1200E+02
     -6.051  0.0000E+00  0.1200E+02
     -5.916  0.0000E+00  0.1200E+02
     -5.781  0.0000E+00  0.1200E+02
     -5.646  0.0000E+00  0.1200E+02
     -5.511  0.0000E+00  0.1200E+02
     -5.376  0.0000E+00  0.1200E+02
     -5.241  0.0000E+00  0.1200E+02
     -5.106  0.0000E+00  0.1200E+02
     -4.971  0.0000E+00  0.1200E+02
     -4.836  0.0000E+00  0.1200E+02
     -4.701  0.0000E+00  0.1200E+02
     -4.566  0.0000E+00  0.1200E+02
     -4.431  0.0000E+00  0.1200E+02
     -4.296  0.0000E+00  0.1200E+02
     -4.161  0.0000E+00  0.1200E+02
     -4.026  0.0000E+00  0.1200E+02
     -3.891  0.0000E+00  0.1200E+02
     -3.756  0.0000E+00  0.1200E+02
     -3.621  0.0000E+00  0.1200E+02
     -3.486  0.0000E+00  0.1200E+02
     -3.351  0.0000E+00  0.1200E+02
     -3.216  0.0000E+00  0.1200E+02
     -3.081  0.0000E+00  0.1200E+02
     -2.946  0.0000E+00  0.1200E+02
     -2.811  0.0000E+00  0.1200E+02
     -2.676  0.0000E+00  0.1200E+02
     -2.541  0.0000E+00  0.1200E+02
     -2.406  0.0000E+00  0.1200E+02
     -2.271  0.0000E+00  0.1200E+02
     -2.136  0.0000E+00  0.1200E+02
     -2.001  0.0000E+00  0.1200E+02
     -1.866  0.0000E+00  0.1200E+02
     -1.731  0.0000E+00  0.1200E+02
     -1.596  0.0000E+00  0.1200E+02
     -1.461  0.0000E+00  0.1200E+02
     -1.326  0.0000E+00  0.1200E+02
     -1.191  0.0000E+00  0.1200E+02
     -1.056  0.0000E+00  0.1200E+02
     -0.921  0.0000E+00  0.1200E+02
     -0.786  0.0000E+00  0.1200E+02
     -0.651  0.0000E+00  0.1200E+02
     -0.516  0.0000E+00  0.1200E+02
     -0.381  0.0000E+00  0.1200E+02
     -0.246  0.1185E+00  0.1202E+02
     -0.111  0.0000E+00  0.1202E+02
      0.024  0.2304E-07  0.1202E+02
      0.159  0.0000E+00  0.1205E+02
      0.294  0.0000E+00  0.1205E+02
      0.429  0.0000E+00  0.1205E+02
      0.564  0.0000E+00  0.1205E+02
      0.699  0.0000E+00  0.1205E+02
      0.834  0.7111E+00  0.1214E+02
      0.969  0.8884E-02  0.1215E+02
      1.104  0.1422E+01  0.1237E+02
      1.239  0.0000E+00  0.1237E+02
      1.374  0.0000E+00  0.1237E+02
      1.509  0.0000E+00  0.1237E+02
      1.644  0.0000E+00  0.1237E+02
      1.779  0.0000E+00  0.1237E+02
      1.914  0.1422E+01  0.1256E+02
      2.049  0.0000E+00  0.1256E+02
      2.184  0.1041E+00  0.1257E+02
      2.319  0.0000E+00  0.1259E+02
      2.454  0.1316E-16  0.1259E+02
      2.589  0.7111E+00  0.1269E+02
      2.724  0.1421E+01  0.1288E+02
      2.859  0.0000E+00  0.1288E+02
      2.994  0.3302E+01  0.1333E+02
      3.129  0.4658E-01  0.1340E+02
      3.264  0.1185E+00  0.1379E+02
      3.399  0.0000E+00  0.1379E+02
      3.534  0.7310E+00  0.1389E+02
      3.669  0.0000E+00  0.1398E+02
      3.804  0.2555E+01  0.1433E+02
      3.939  0.2091E+01  0.1503E+02
      4.074  0.7004E+00  0.1523E+02
      4.209  0.1284E+01  0.1560E+02
      4.344  0.2845E+01  0.1610E+02
      4.479  0.7275E+00  0.1619E+02
      4.614  0.7107E+00  0.1648E+02
      4.749  0.1444E+01  0.1667E+02
      4.884  0.1357E+01  0.1724E+02
      5.019  0.1423E+01  0.1763E+02
      5.154  0.3410E+01  0.1828E+02
      5.289  0.4978E+01  0.1907E+02
      5.424  0.9035E-01  0.1918E+02
      5.559  0.1718E-07  0.1936E+02
      5.694  0.4848E+00  0.1962E+02
      5.829  0.9482E+00  0.2003E+02
      5.964  0.9148E+00  0.2019E+02
      6.099  0.1513E+01  0.2065E+02
      6.234  0.4030E+01  0.2147E+02
      6.369  0.2140E+01  0.2176E+02
      6.504  0.2001E+01  0.2206E+02
      6.639  0.6064E+01  0.2309E+02
      6.774  0.2838E+01  0.2376E+02
      6.909  0.3163E+01  0.2420E+02
      7.044  0.3344E+01  0.2506E+02
      7.179  0.7821E+00  0.2548E+02
      7.314  0.7111E+00  0.2608E+02
      7.449  0.8026E+00  0.2622E+02
      7.584  0.1659E+01  0.2669E+02
      7.719  0.1422E+01  0.2688E+02
      7.854  0.2367E+01  0.2723E+02
      7.989  0.3951E+01  0.2789E+02
      8.124  0.0000E+00  0.2810E+02
      8.259  0.2605E-14  0.2810E+02
      8.394  0.1189E+01  0.2832E+02
      8.529  0.5665E-01  0.2836E+02
      8.664  0.3173E-05  0.2854E+02
      8.799  0.2845E+01  0.2922E+02
      8.934  0.4939E+01  0.3001E+02
      9.069  0.1553E+01  0.3058E+02
      9.204  0.5902E+01  0.3164E+02
      9.339  0.0000E+00  0.3200E+02
      9.474  0.0000E+00  0.3200E+02
      9.609  0.0000E+00  0.3200E+02
      9.744  0.0000E+00  0.3200E+02
      9.879  0.0000E+00  0.3200E+02
     10.014  0.0000E+00  0.3200E+02
     10.149  0.0000E+00  0.3200E+02
     10.284  0.0000E+00  0.3200E+02
     10.419  0.0000E+00  0.3200E+02
     10.554  0.0000E+00  0.3200E+02
     10.689  0.0000E+00  0.3200E+02
     10.824  0.0000E+00  0.3200E+02
     10.959  0.0000E+00  0.3200E+02
     11.094  0.0000E+00  0.3200E+02
