    2    2    1    1
  0.1746205E+02  0.2940234E-09  0.2940234E-09  0.4649775E-09  0.5000000E-15
  1.000000000000000E-004
  CAR 
 unknown system                          
   20   27   16
 
  0.0000000E+00  0.0000000E+00  0.0000000E+00  0.8000000E-02
   1      -27.5639
   2      -26.9138
   3      -26.9074
   4      -26.8640
   5      -26.8102
   6      -26.8090
   7       -0.2731
   8        3.2151
   9        6.6002
  10        6.6647
  11        6.6922
  12        6.7642
  13        7.1184
  14        7.1747
  15        7.4346
  16        7.4903
 
  0.2000000E+00  0.1387779E-16  0.0000000E+00  0.3200000E-01
   1      -27.4829
   2      -27.0681
   3      -26.9691
   4      -26.9593
   5      -26.9020
   6      -26.8304
   7        0.7803
   8        3.9266
   9        5.3435
  10        5.6696
  11        6.6863
  12        7.0008
  13        7.0433
  14        7.4076
  15        7.5411
  16        7.8064
 
  0.4000000E+00  0.2775558E-16  0.0000000E+00  0.3200000E-01
   1      -27.3245
   2      -27.3084
   3      -27.2083
   4      -27.0346
   5      -27.0063
   6      -26.8696
   7        2.9776
   8        3.9924
   9        4.2052
  10        5.2149
  11        6.4320
  12        6.5603
  13        6.8801
  14        8.8958
  15        9.0997
  16        9.1891
 
  0.2000000E+00  0.2000000E+00  0.0000000E+00  0.1600000E-01
   1      -27.3506
   2      -27.1993
   3      -27.1850
   4      -27.0179
   5      -26.9778
   6      -26.9202
   7        2.5126
   8        4.5169
   9        4.5899
  10        4.8379
  11        6.2062
  12        6.7082
  13        6.8505
  14        7.9759
  15        8.6937
  16        9.1937
 
  0.4000000E+00  0.2000000E+00  0.0000000E+00  0.3200000E-01
   1      -27.3209
   2      -27.2147
   3      -27.2034
   4      -27.1292
   5      -27.0775
   6      -26.9798
   7        4.0598
   8        4.1584
   9        4.2479
  10        4.8432
  11        6.1165
  12        6.3063
  13        7.2023
  14        8.8896
  15        9.1548
  16        9.2183
 
 -0.4000000E+00  0.2000000E+00  0.0000000E+00  0.3200000E-01
   1      -27.3510
   2      -27.2074
   3      -27.1916
   4      -27.0179
   5      -26.9755
   6      -26.9186
   7        2.5352
   8        4.4951
   9        4.5914
  10        4.8403
  11        6.1952
  12        6.6982
  13        6.8636
  14        7.9925
  15        8.7008
  16        9.2027
 
 -0.2000000E+00  0.2000000E+00  0.0000000E+00  0.1600000E-01
   1      -27.4828
   2      -27.0670
   3      -26.9697
   4      -26.9654
   5      -26.9009
   6      -26.8332
   7        0.7900
   8        3.9301
   9        5.3270
  10        5.7060
  11        6.7241
  12        6.9575
  13        7.0902
  14        7.3568
  15        7.5425
  16        7.7788
 
  0.4000000E+00  0.4000000E+00  0.0000000E+00  0.1600000E-01
   1      -27.3262
   2      -27.2177
   3      -27.2058
   4      -27.1330
   5      -27.0726
   6      -26.9813
   7        4.0545
   8        4.1413
   9        4.2292
  10        4.8798
  11        6.0720
  12        6.3573
  13        7.2348
  14        8.8929
  15        9.1731
  16        9.2194
 
 -0.4000000E+00  0.4000000E+00  0.0000000E+00  0.1600000E-01
   1      -27.3295
   2      -27.3098
   3      -27.2105
   4      -27.0432
   5      -27.0018
   6      -26.8751
   7        2.9891
   8        3.9832
   9        4.1799
  10        5.2478
  11        6.3790
  12        6.6201
  13        6.9326
  14        8.9010
  15        9.0971
  16        9.1926
 
  0.0000000E+00  0.0000000E+00  0.2000000E+00  0.1600000E-01
   1      -27.5000
   2      -26.9340
   3      -26.9039
   4      -26.8981
   5      -26.8201
   6      -26.8185
   7        0.0610
   8        3.0216
   9        6.1906
  10        6.4808
  11        6.5616
  12        6.5846
  13        6.9476
  14        7.0021
  15        7.7698
  16        7.8279
 
  0.2000000E+00  0.1387779E-16  0.2000000E+00  0.6400000E-01
   1      -27.4422
   2      -27.0587
   3      -27.0286
   4      -26.9471
   5      -26.8956
   6      -26.8428
   7        1.0700
   8        3.7982
   9        5.0822
  10        5.7467
  11        6.4744
  12        6.8752
  13        6.9162
  14        7.5220
  15        7.8353
  16        7.8973
 
  0.4000000E+00  0.2775558E-16  0.2000000E+00  0.6400000E-01
   1      -27.4072
   2      -27.2804
   3      -27.1769
   4      -27.0192
   5      -26.9811
   6      -26.8855
   7        2.9799
   8        3.8922
   9        4.4826
  10        5.1421
  11        6.6302
  12        6.6399
  13        6.9281
  14        8.7698
  15        8.9407
  16        9.0776
 
  0.2000000E+00  0.2000000E+00  0.2000000E+00  0.3200000E-01
   1      -27.3728
   2      -27.2287
   3      -27.1242
   4      -27.0583
   5      -26.9338
   6      -26.9327
   7        2.6823
   8        4.3080
   9        4.7631
  10        4.9579
  11        6.1748
  12        6.5964
  13        6.7691
  14        7.9815
  15        8.7422
  16        8.8832
 
  0.4000000E+00  0.2000000E+00  0.2000000E+00  0.6400000E-01
   1      -27.3684
   2      -27.2824
   3      -27.1943
   4      -27.0629
   5      -27.0444
   6      -26.9707
   7        3.8187
   8        4.3057
   9        4.6855
  10        4.7680
  11        6.0183
  12        6.2901
  13        7.2303
  14        8.7022
  15        8.8901
  16        9.2471
 
 -0.4000000E+00  0.2000000E+00  0.2000000E+00  0.6400000E-01
   1      -27.3734
   2      -27.2346
   3      -27.1307
   4      -27.0580
   5      -26.9335
   6      -26.9315
   7        2.7025
   8        4.2922
   9        4.7661
  10        4.9595
  11        6.1758
  12        6.6208
  13        6.7490
  14        7.9920
  15        8.7389
  16        8.8920
 
 -0.2000000E+00  0.2000000E+00  0.2000000E+00  0.3200000E-01
   1      -27.4417
   2      -27.0583
   3      -27.0271
   4      -26.9529
   5      -26.8962
   6      -26.8459
   7        1.0796
   8        3.8012
   9        5.0775
  10        5.7818
  11        6.5112
  12        6.8726
  13        6.9015
  14        7.4811
  15        7.8019
  16        7.9140
 
  0.4000000E+00  0.4000000E+00  0.2000000E+00  0.3200000E-01
   1      -27.3714
   2      -27.2820
   3      -27.1989
   4      -27.0657
   5      -27.0465
   6      -26.9699
   7        3.8134
   8        4.3007
   9        4.6740
  10        4.7826
  11        5.9863
  12        6.3448
  13        7.2516
  14        8.7007
  15        8.8921
  16        9.2530
 
 -0.4000000E+00  0.4000000E+00  0.2000000E+00  0.3200000E-01
   1      -27.4086
   2      -27.2807
   3      -27.1809
   4      -27.0274
   5      -26.9798
   6      -26.8914
   7        2.9914
   8        3.8920
   9        4.4697
  10        5.1541
  11        6.5797
  12        6.6944
  13        6.9882
  14        8.7601
  15        8.9438
  16        9.0779
 
  0.0000000E+00  0.0000000E+00  0.4000000E+00  0.1600000E-01
   1      -27.3297
   2      -27.1137
   3      -26.8781
   4      -26.8735
   5      -26.8461
   6      -26.8431
   7        0.9818
   8        2.1852
   9        5.8613
  10        6.1638
  11        6.4443
  12        6.5117
  13        6.6345
  14        6.6920
  15        8.3635
  16        8.4093
 
  0.2000000E+00  0.1387779E-16  0.4000000E+00  0.6400000E-01
   1      -27.3319
   2      -27.1847
   3      -26.9866
   4      -26.9267
   5      -26.9150
   6      -26.8752
   7        1.8750
   8        2.9720
   9        5.2149
  10        5.7388
  11        6.1702
  12        6.5521
  13        6.9657
  14        7.2243
  15        8.3474
  16        8.5400
 
  0.4000000E+00  0.2775558E-16  0.4000000E+00  0.6400000E-01
   1      -27.4285
   2      -27.3760
   3      -27.0555
   4      -26.9847
   5      -26.9767
   6      -26.9270
   7        3.1409
   8        3.5298
   9        4.9088
  10        5.2526
  11        6.6196
  12        7.0042
  13        7.1885
  14        7.9888
  15        9.0524
  16        9.1318
 
  0.2000000E+00  0.2000000E+00  0.4000000E+00  0.3200000E-01
   1      -27.3689
   2      -27.3086
   3      -27.0493
   4      -27.0429
   5      -26.9535
   6      -26.9267
   7        3.1488
   8        3.7753
   9        5.1483
  10        5.2591
  11        5.9454
  12        6.0987
  13        7.0970
  14        7.6836
  15        8.8633
  16        9.1756
 
  0.4000000E+00  0.2000000E+00  0.4000000E+00  0.6400000E-01
   1      -27.4053
   2      -27.3739
   3      -27.1430
   4      -27.0810
   5      -26.9737
   6      -26.9424
   7        3.8403
   8        4.1005
   9        5.0533
  10        5.4352
  11        5.6101
  12        6.0705
  13        7.4545
  14        7.9241
  15        8.9744
  16        9.1986
 
 -0.4000000E+00  0.2000000E+00  0.4000000E+00  0.6400000E-01
   1      -27.3698
   2      -27.3108
   3      -27.0518
   4      -27.0491
   5      -26.9519
   6      -26.9277
   7        3.1604
   8        3.7725
   9        5.1541
  10        5.2616
  11        5.9646
  12        6.1250
  13        7.0747
  14        7.6751
  15        8.8538
  16        9.1903
 
 -0.2000000E+00  0.2000000E+00  0.4000000E+00  0.3200000E-01
   1      -27.3304
   2      -27.1829
   3      -26.9870
   4      -26.9280
   5      -26.9200
   6      -26.8792
   7        1.8837
   8        2.9774
   9        5.2249
  10        5.7642
  11        6.1962
  12        6.5808
  13        6.9287
  14        7.1912
  15        8.3136
  16        8.5525
 
  0.4000000E+00  0.4000000E+00  0.4000000E+00  0.3200000E-01
   1      -27.4061
   2      -27.3733
   3      -27.1476
   4      -27.0849
   5      -26.9761
   6      -26.9427
   7        3.8427
   8        4.1108
   9        5.0413
  10        5.4342
  11        5.5971
  12        6.1059
  13        7.4647
  14        7.9256
  15        8.9706
  16        9.1926
 
 -0.4000000E+00  0.4000000E+00  0.4000000E+00  0.3200000E-01
   1      -27.4281
   2      -27.3748
   3      -27.0595
   4      -26.9857
   5      -26.9853
   6      -26.9338
   7        3.1549
   8        3.5440
   9        4.9067
  10        5.2485
  11        6.6611
  12        7.0587
  13        7.1468
  14        7.9614
  15        9.0549
  16        9.1380
