       N       E                     dE             d eps       ncg     rms          rms(c)
DAV:   1     0.153649975076E+03    0.15365E+03   -0.11007E+04   864   0.135E+03
DAV:   2    -0.138970553748E+02   -0.16755E+03   -0.16598E+03   880   0.389E+02
DAV:   3    -0.179661336597E+02   -0.40691E+01   -0.40213E+01  1176   0.662E+01
DAV:   4    -0.180231197358E+02   -0.56986E-01   -0.56953E-01   928   0.852E+00
DAV:   5    -0.180245050830E+02   -0.13853E-02   -0.13853E-02  1112   0.132E+00    0.848E+00
DAV:   6    -0.159012516735E+02    0.21233E+01   -0.68348E+00   984   0.280E+01    0.196E+00
DAV:   7    -0.158018867603E+02    0.99365E-01   -0.57220E-01  1080   0.736E+00    0.768E-01
DAV:   8    -0.157910193177E+02    0.10867E-01   -0.24758E-02   896   0.187E+00    0.148E-01
DAV:   9    -0.157903468474E+02    0.67247E-03   -0.47697E-03  1040   0.688E-01    0.310E-02
DAV:  10    -0.157903319728E+02    0.14875E-04   -0.10695E-04  1168   0.109E-01    0.102E-02
DAV:  11    -0.157903299578E+02    0.20150E-05   -0.89591E-06   976   0.326E-02    0.360E-03
DAV:  12    -0.157903280608E+02    0.18970E-05   -0.97589E-07  1224   0.913E-03    0.361E-04
DAV:  13    -0.157903280884E+02   -0.27668E-07   -0.31348E-08   680   0.214E-03    0.222E-04
DAV:  14    -0.157903281828E+02   -0.94360E-07   -0.33816E-09   480   0.619E-04    0.359E-05
DAV:  15    -0.157903282138E+02   -0.30982E-07   -0.54446E-10   448   0.296E-04    0.101E-05
DAV:  16    -0.157903282129E+02    0.88039E-09   -0.82723E-11   480   0.997E-05
   1 F= -.15790328E+02 E0= -.15790234E+02  d E =-.188354E-03
