 vasp.4.6.28 25Jul05 complex 
 executed on             LinuxIFC date 2016.11.25  11:56:12
 running on    4 nodes
 distr:  one band on    1 nodes,    4 groups


--------------------------------------------------------------------------------------------------------


 INCAR:
 POTCAR:   PAW_PBE Ti_pv 07Sep2000                
 POTCAR:   PAW_PBE Ti_pv 07Sep2000                
   VRHFIN =Ti: d3 s1                                                            
   LEXCH  = PE                                                                  
   EATOM  =  1042.3781 eV,   76.6126 Ry                                         
                                                                                
   TITEL  = PAW_PBE Ti_pv 07Sep2000                                             
   LULTRA =        F    use ultrasoft PP ?                                      
   IUNSCR =        1    unscreen: 0-lin 1-nonlin 2-no                           
   RPACOR =    2.200    partial core radius                                     
   POMASS =   47.880; ZVAL   =   10.000    mass and valenz                      
   RCORE  =    2.500    outmost cutoff radius                                   
   RWIGS  =    2.500; RWIGS  =    1.323    wigner-seitz radius (au A)           
   ENMAX  =  222.338; ENMIN  =  166.753 eV                                      
   RCLOC  =    1.701    cutoff for local pot                                    
   LCOR   =        T    correct aug charges                                     
   LPAW   =        T    paw PP                                                  
   EAUG   =  482.848                                                            
   DEXC   =    -.008                                                            
   RMAX   =    3.092    core radius for proj-oper                               
   RAUG   =    1.300    factor for augmentation sphere                          
   RDEP   =    2.538    radius for radial grids                                 
   QCUT   =   -4.042; QGAM   =    8.085    optimization parameters              
                                                                                
   Description                                                                  
     l     E      TYP  RCUT    TYP  RCUT                                        
     1   .000     23  2.300                                                     
     1  -.100     23  2.300                                                     
     2   .000     23  2.500                                                     
     2   .000     23  2.500                                                     
     0   .000     23  2.500                                                     
     0  1.500     23  2.500                                                     
     3   .000      7   .000                                                     
  local pseudopotential read in
  partial core-charges read in
  atomic valenz-charges read in
  non local Contribution for L=           1  read in
    real space projection operators read in
  non local Contribution for L=           1  read in
    real space projection operators read in
  non local Contribution for L=           2  read in
    real space projection operators read in
  non local Contribution for L=           2  read in
    real space projection operators read in
  non local Contribution for L=           0  read in
    real space projection operators read in
  non local Contribution for L=           0  read in
    real space projection operators read in
    PAW grid and wavefunctions read in
 
   number of l-projection  operators is LMAX  =           6
   number of lm-projection operators is LMMAX =          18
 
 PAW_PBE Ti_pv 07Sep2000                :
 energy of atom  1       EATOM=-1042.3781
 kinetic energy error for atom=    0.0024 (will be added to EATOM!!)
 
 EXHCAR: internal setup
 exchange correlation table for  LEXCH =        8
   RHO(1)=    0.500       N(1)  =     2000
   RHO(2)=  100.500       N(2)  =     4000
 
 POSCAR: Ti-hcp                                  
  positions in direct lattice
  No initial velocities read in
 


--------------------------------------------------------------------------------------------------------


 ion  position               nearest neighbor table
   1  0.332  0.668  0.250-   2 2.88   2 2.88   2 2.88   2 2.88   2 2.88   2 2.88
   2  0.668  0.332  0.750-   1 2.88   1 2.88   1 2.88   1 2.88   1 2.88   1 2.88
 
  LATTYP: Found a base centered orthorhombic cell.
 ALAT       =     2.9545207598
 B/A-ratio  =     1.7208744689
 C/A-ratio  =     1.5737830203
  
  Lattice vectors:
  
 A1 = (   2.9402223666,   0.0082551467,   0.0000000000)
 A2 = (  -1.4629619568,   2.5504348700,   0.0000000000)
 A3 = (   0.0000000000,   0.0000000000,   4.6497746050)
 Subroutine PRICEL returns:
 Original cell was already a primitive cell.
 

Analysis of symmetry for initial positions (statically):

 Routine SETGRP: Setting up the symmetry group for a 
 base centered orthorhombic supercell.


 Subroutine GETGRP returns: Found  8 space group operations
 (whereof  4 operations were pure point group operations)
 out of a pool of  8 trial point group operations.


The static configuration has the point symmetry C_2h.
 The point group associated with its full space group is D_2h.

Analysis of symmetry for dynamics (positions and initial velocities):

 Subroutine DYNSYM returns: Found  8 space group operations
 (whereof  4 operations were pure point group operations)
 out of a pool of  8 trial space group operations
 (whereof  4 operations were pure point group operations)
 and found also     1 'primitive' translations


The dynamic configuration has the point symmetry C_2h.
 The point group associated with its full space group is D_2h.
 
 
 KPOINTS: Automatic mesh                          

Automatic generation of k-mesh.
 
 Subroutine IBZKPT returns following result:
 ===========================================
 
 Found     27 irreducible k-points:
 
 Following reciprocal coordinates:
            Coordinates               Weight
  0.000000  0.000000  0.000000      1.000000
  0.200000  0.000000  0.000000      4.000000
  0.400000  0.000000  0.000000      4.000000
  0.200000  0.200000  0.000000      2.000000
  0.400000  0.200000  0.000000      4.000000
 -0.400000  0.200000  0.000000      4.000000
 -0.200000  0.200000  0.000000      2.000000
  0.400000  0.400000  0.000000      2.000000
 -0.400000  0.400000  0.000000      2.000000
  0.000000  0.000000  0.200000      2.000000
  0.200000  0.000000  0.200000      8.000000
  0.400000  0.000000  0.200000      8.000000
  0.200000  0.200000  0.200000      4.000000
  0.400000  0.200000  0.200000      8.000000
 -0.400000  0.200000  0.200000      8.000000
 -0.200000  0.200000  0.200000      4.000000
  0.400000  0.400000  0.200000      4.000000
 -0.400000  0.400000  0.200000      4.000000
  0.000000  0.000000  0.400000      2.000000
  0.200000  0.000000  0.400000      8.000000
  0.400000  0.000000  0.400000      8.000000
  0.200000  0.200000  0.400000      4.000000
  0.400000  0.200000  0.400000      8.000000
 -0.400000  0.200000  0.400000      8.000000
 -0.200000  0.200000  0.400000      4.000000
  0.400000  0.400000  0.400000      4.000000
 -0.400000  0.400000  0.400000      4.000000
 
 Following cartesian coordinates:
            Coordinates               Weight
  0.000000  0.000000  0.000000      1.000000
  0.067913  0.038956  0.000000      4.000000
  0.135825  0.077911  0.000000      4.000000
  0.067693  0.117247  0.000000      2.000000
  0.135606  0.156203  0.000000      4.000000
 -0.136045  0.000381  0.000000      4.000000
 -0.068133  0.039336  0.000000      2.000000
  0.135386  0.234495  0.000000      2.000000
 -0.136265  0.078673  0.000000      2.000000
  0.000000  0.000000  0.043013      2.000000
  0.067913  0.038956  0.043013      8.000000
  0.135825  0.077911  0.043013      8.000000
  0.067693  0.117247  0.043013      4.000000
  0.135606  0.156203  0.043013      8.000000
 -0.136045  0.000381  0.043013      8.000000
 -0.068133  0.039336  0.043013      4.000000
  0.135386  0.234495  0.043013      4.000000
 -0.136265  0.078673  0.043013      4.000000
  0.000000  0.000000  0.086026      2.000000
  0.067913  0.038956  0.086026      8.000000
  0.135825  0.077911  0.086026      8.000000
  0.067693  0.117247  0.086026      4.000000
  0.135606  0.156203  0.086026      8.000000
 -0.136045  0.000381  0.086026      8.000000
 -0.068133  0.039336  0.086026      4.000000
  0.135386  0.234495  0.086026      4.000000
 -0.136265  0.078673  0.086026      4.000000
 


--------------------------------------------------------------------------------------------------------




 Dimension of arrays:
   k-Points           NKPTS =     27   number of bands    NBANDS=     16
   number of dos      NEDOS =    301   number of ions     NIONS =      2
   non local maximal  LDIM  =      6   non local SUM 2l+1 LMDIM =     18
   total plane-waves  NPLWV =  20736
   max r-space proj   IRMAX =      1   max aug-charges    IRDMAX=  23249
   dimension x,y,z NGX =    24 NGY =   24 NGZ =   36
   dimension x,y,z NGXF=    48 NGYF=   48 NGZF=   72
   support grid    NGXF=    48 NGYF=   48 NGZF=   72
   ions per type =               2
 NGX,Y,Z   is equivalent  to a cutoff of  13.57, 13.57, 12.87 a.u.
 NGXF,Y,Z  is equivalent  to a cutoff of  27.14, 27.14, 25.74 a.u.


 I would recommend the setting:
   dimension x,y,z NGX =    21 NGY =   21 NGZ =   34
 SYSTEM =  unknown system                          
 POSCAR =  Ti-hcp                                  

 Startparameter for this run:
   NWRITE =      2    write-flag & timer
   PREC   = accura    medium, high low
   ISTART =      0    job   : 0-new  1-cont  2-samecut
   ICHARG =      2    charge: 1-file 2-atom 10-const
   ISPIN  =      1    spin polarized calculation?
   LNONCOLLINEAR =      F non collinear calculations
   LSORBIT =      F    spin-orbit coupling
   INIWAV =      1    electr: 0-lowe 1-rand  2-diag
   LASPH  =      F    aspherical Exc in radial PAW
   METAGGA=      F    non-selfconsistent MetaGGA calc.

 Electronic Relaxation 1
   ENCUT  =  500.0 eV  36.75 Ry    6.06 a.u.   5.36  5.36  8.48*2*pi/ulx,y,z
   ENINI  =  500.0     initial cutoff
   ENAUG  =  482.8 eV  augmentation charge cutoff
   NELM   =     60;   NELMIN=  2; NELMDL=  0     # of ELM steps 
   EDIFF  = 0.1E-07   stopping-criterion for ELM
   LREAL  =      F    real-space projection
   LCOMPAT=      F    compatible to vasp.4.4
   LREAL_COMPAT= F    compatible to vasp.4.5.1-3
   GGA_COMPAT  = T    GGA compatible to vasp.4.4-vasp.4.6
   LMAXPAW     = -100 max onsite density
   LMAXMIX     =    2 max onsite mixed and CHGCAR
   VOSKOWN=      0    Vosko Wilk Nusair interpolation
   ROPT   =    0.00000
 Ionic relaxation
   EDIFFG = 0.1E-06   stopping-criterion for IOM
   NSW    =      0    number of steps for IOM
   NBLOCK =      1;   KBLOCK =      1    inner block; outer block 
   IBRION =     -1    ionic relax: 0-MD 1-quasi-New 2-CG
   NFREE  =      0    steps in history (QN), initial steepest desc. (CG)
   ISIF   =      2    stress and relaxation
   IWAVPR =     10    prediction:  0-non 1-charg 2-wave 3-comb
   ISYM   =      2    0-nonsym 1-usesym 2-fastsym
   LCORR  =      T    Harris-Foulkes like correction to forces

   POTIM  =   0.50    time-step for ionic-motion
   TEIN   =    0.0    initial temperature
   TEBEG  =    0.0;   TEEND  =   0.0 temperature during run
   SMASS  =  -3.00    Nose mass-parameter (am)
   estimated Nose-frequenzy (Omega)   =  0.10E-29 period in steps =****** mass=  -0.198E-27a.u.
   NPACO  =    256;   APACO  = 16.0  distance and # of slots for P.C.
   PSTRESS=    0.0 pullay stress

  Mass of Ions in am
   POMASS =  47.88
  Ionic Valenz
   ZVAL   =  10.00
  Atomic Wigner-Seitz radii
   RWIGS  =  -1.00
   NELECT =      20.0000    total number of electrons
   NUPDOWN=      -1.0000    fix difference up-down

 DOS related values:
   EMIN   =  10.00;   EMAX   =-10.00  energy-range for DOS
   ISMEAR =     0;   SIGMA  =   0.01  broadening in eV -4-tet -1-fermi 0-gaus

 Electronic relaxation 2 (details)
   IALGO  =     38    algorithm
   LDIAG  =      T    sub-space diagonalisation
   IMIX   =      4    mixing-type and parameters
     AMIX     =   0.40;   BMIX     =  1.00
     AMIX_MAG =   1.60;   BMIX_MAG =  1.00
     AMIN     =   0.10
     WC   =   100.;   INIMIX=   1;  MIXPRE=   1

 Intra band minimization:
   WEIMIN = 0.0000     energy-eigenvalue tresh-hold
   EBREAK =  0.18E-09  absolut break condition
   DEPER  =   0.30     relativ break condition  

   TIME   =   0.10     timestep for ELM

  volume/ion in A,a.u.               =      17.46       117.84
  Fermi-wavevector in a.u.,eV,Ry     =   1.359491 25.146513  1.848217

 Second variation
   LSECVAR=     F    do a second variation
 
 Write flags
   LWAVE  =      F    write WAVECAR
   LCHARG =      F    write CHGCAR
   LVTOT  =      F    write LOCPOT, local potential
   LELF   =      F    write electronic localiz. function (ELF)
   LORBIT =      0    0 simple, 1 ext, 2 COOP (PROOUT)


 Dipole corrections
   IDIPOL =      0    1-x, 2-y, 3-z
   LDIPOL =      F    correct potential



--------------------------------------------------------------------------------------------------------


 Static calculation
 charge density will be updated during run
 non-spin polarized calculation
 Variant of blocked Davidson
 Davidson routine will perform the subspace rotation
 performe sub-space diagonalisation
    after iterative eigenvector-optimisation
 modified Broyden-mixing scheme, WC =      100.0
 initial mixing is a Kerker type mixing with AMIX =  0.4000 and BMIX =      1.0000
 Hartree-type preconditioning will be used
 using additional bands            6
 reciprocal scheme for non local part
 use partial core corrections
 calculate Harris-corrections to forces 
   (improved forces if not selfconsistent)
 use gradient corrections 
 use of overlap-Matrix (Vanderbilt PP)
 Gauss-broadening in eV      SIGMA  =   0.01


--------------------------------------------------------------------------------------------------------


  energy-cutoff  :      500.00
  volume of cell :       34.92
      direct lattice vectors                 reciprocal lattice vectors
     2.940222367  0.008255147  0.000000000     0.339563460  0.194777930  0.000000000
    -1.462961957  2.550434870  0.000000000    -0.001099086  0.391459547  0.000000000
     0.000000000  0.000000000  4.649774605     0.000000000  0.000000000  0.215064188

  length of vectors
     2.940233955  2.940233956  4.649774605     0.391461090  0.391461090  0.215064188


 
 k-points in units of 2pi/SCALE and weight: Automatic mesh                          
   0.00000000  0.00000000  0.00000000       0.008
   0.06791269  0.03895559  0.00000000       0.032
   0.13582538  0.07791117  0.00000000       0.032
   0.06769287  0.11724750  0.00000000       0.016
   0.13560557  0.15620308  0.00000000       0.032
  -0.13604520  0.00038074  0.00000000       0.032
  -0.06813251  0.03933632  0.00000000       0.016
   0.13538575  0.23449499  0.00000000       0.016
  -0.13626502  0.07867265  0.00000000       0.016
   0.00000000  0.00000000  0.04301284       0.016
   0.06791269  0.03895559  0.04301284       0.064
   0.13582538  0.07791117  0.04301284       0.064
   0.06769287  0.11724750  0.04301284       0.032
   0.13560557  0.15620308  0.04301284       0.064
  -0.13604520  0.00038074  0.04301284       0.064
  -0.06813251  0.03933632  0.04301284       0.032
   0.13538575  0.23449499  0.04301284       0.032
  -0.13626502  0.07867265  0.04301284       0.032
   0.00000000  0.00000000  0.08602568       0.016
   0.06791269  0.03895559  0.08602568       0.064
   0.13582538  0.07791117  0.08602568       0.064
   0.06769287  0.11724750  0.08602568       0.032
   0.13560557  0.15620308  0.08602568       0.064
  -0.13604520  0.00038074  0.08602568       0.064
  -0.06813251  0.03933632  0.08602568       0.032
   0.13538575  0.23449499  0.08602568       0.032
  -0.13626502  0.07867265  0.08602568       0.032
 
 k-points in reciprocal lattice and weights: Automatic mesh                          
   0.00000000  0.00000000  0.00000000       0.008
   0.20000000  0.00000000  0.00000000       0.032
   0.40000000  0.00000000  0.00000000       0.032
   0.20000000  0.20000000  0.00000000       0.016
   0.40000000  0.20000000  0.00000000       0.032
  -0.40000000  0.20000000  0.00000000       0.032
  -0.20000000  0.20000000  0.00000000       0.016
   0.40000000  0.40000000  0.00000000       0.016
  -0.40000000  0.40000000  0.00000000       0.016
   0.00000000  0.00000000  0.20000000       0.016
   0.20000000  0.00000000  0.20000000       0.064
   0.40000000  0.00000000  0.20000000       0.064
   0.20000000  0.20000000  0.20000000       0.032
   0.40000000  0.20000000  0.20000000       0.064
  -0.40000000  0.20000000  0.20000000       0.064
  -0.20000000  0.20000000  0.20000000       0.032
   0.40000000  0.40000000  0.20000000       0.032
  -0.40000000  0.40000000  0.20000000       0.032
   0.00000000  0.00000000  0.40000000       0.016
   0.20000000  0.00000000  0.40000000       0.064
   0.40000000  0.00000000  0.40000000       0.064
   0.20000000  0.20000000  0.40000000       0.032
   0.40000000  0.20000000  0.40000000       0.064
  -0.40000000  0.20000000  0.40000000       0.064
  -0.20000000  0.20000000  0.40000000       0.032
   0.40000000  0.40000000  0.40000000       0.032
  -0.40000000  0.40000000  0.40000000       0.032
 
 position of ions in fractional coordinates (direct lattice) 
   0.33223018  0.66776982  0.25000000
   0.66776982  0.33223018  0.75000000
 
 position of ions in cartesian coordinates  (Angst):
  -0.00009122  1.70584603  1.16244365
   1.47735163  0.85284398  3.48733095
 


--------------------------------------------------------------------------------------------------------


 k-point  1 :  0.00000.00000.0000  plane waves:    889
 k-point  2 :  0.20000.00000.0000  plane waves:    880
 k-point  3 :  0.40000.00000.0000  plane waves:    892
 k-point  4 :  0.20000.20000.0000  plane waves:    887
 k-point  5 :  0.40000.20000.0000  plane waves:    892
 k-point  6 :  -.40000.20000.0000  plane waves:    888
 k-point  7 :  -.20000.20000.0000  plane waves:    887
 k-point  8 :  0.40000.40000.0000  plane waves:    898
 k-point  9 :  -.40000.40000.0000  plane waves:    892
 k-point 10 :  0.00000.00000.2000  plane waves:    911
 k-point 11 :  0.20000.00000.2000  plane waves:    887
 k-point 12 :  0.40000.00000.2000  plane waves:    884
 k-point 13 :  0.20000.20000.2000  plane waves:    885
 k-point 14 :  0.40000.20000.2000  plane waves:    884
 k-point 15 :  -.40000.20000.2000  plane waves:    889
 k-point 16 :  -.20000.20000.2000  plane waves:    887
 k-point 17 :  0.40000.40000.2000  plane waves:    888
 k-point 18 :  -.40000.40000.2000  plane waves:    882
 k-point 19 :  0.00000.00000.4000  plane waves:    895
 k-point 20 :  0.20000.00000.4000  plane waves:    900
 k-point 21 :  0.40000.00000.4000  plane waves:    880
 k-point 22 :  0.20000.20000.4000  plane waves:    880
 k-point 23 :  0.40000.20000.4000  plane waves:    876
 k-point 24 :  -.40000.20000.4000  plane waves:    880
 k-point 25 :  -.20000.20000.4000  plane waves:    903
 k-point 26 :  0.40000.40000.4000  plane waves:    876
 k-point 27 :  -.40000.40000.4000  plane waves:    884

 maximum and minimum number of plane-waves per node :    911   876

 maximum number of plane-waves:    911
 maximal index in each direction: 
   IXMAX=  5   IYMAX=  5   IZMAX=  8
   IXMIN= -5   IYMIN= -5   IZMIN= -8

 NGX is ok and might be reduce to  22
 NGY is ok and might be reduce to  22
 NGZ is ok and might be reduce to  34

 parallel 3dFFT wavefunction:
    minimum data exchange during FFTs selected (reduces bandwidth)
 parallel 3dFFT charge:
    minimum data exchange during FFTs selected (reduces bandwidth)

 For storing wavefunctions    6.14 MBYTES are necessary
 For predicting wavefunctions    0.89 MBYTES are necessary
Broyden mixing: mesh for mixing (old mesh)
   NGX = 11   NGY = 11   NGZ = 17
  (NGX  = 48   NGY  = 48   NGZ  = 72)
 gives a total of   2057 points
 initial charge density was supplied:
 charge density of overlapping atoms calculated
 number of electron   20.0000000 magnetization 
 keeping initial charge density in first step


--------------------------------------------------------------------------------------------------------


 Maximum index for augmentation-charges         5578 (set IRDMAX)


--------------------------------------------------------------------------------------------------------


 First call to EWALD:  gamma=   0.542
 Maximum number of real-space cells 3x 3x 2
 Maximum number of reciprocal cells 3x 3x 4

    FEWALD:  VPU time    0.00: CPU time    0.00


----------------------------------------- Iteration    1(   1)  ---------------------------------------


    POTLOK:  VPU time    0.05: CPU time    0.05
    SETDIJ:  VPU time    0.01: CPU time    0.01
    EDDAV :  VPU time    0.73: CPU time    0.73
    DOS   :  VPU time    0.00: CPU time   -0.00
    ------------------------------------------
      LOOP:  VPU time    0.79: CPU time    0.79

 eigenvalue-minimisations  :   864
 total energy-change (2. order) : 0.1536500E+03  (-0.1100738E+04)
 number of electron   20.0000000 magnetization 
 augmentation part    20.0000000 magnetization 

 Free energy of the ion-electron system (eV)
  ---------------------------------------------------
  alpha Z        PSCENC =       124.89064987
  Ewald energy   TEWEN  =     -1602.77754481
  -1/2 Hartree   DENC   =      -445.22890555
  -V(xc)+E(xc)   XCENC  =        71.79326691
  PAW double counting   =      1428.40628957    -1426.98428199
  entropy T*S    EENTRO =        -0.00014389
  eigenvalues    EBANDS =       -81.20070158
  atomic energy  EATOM  =      2084.75134655
  ---------------------------------------------------
  free energy    TOTEN  =       153.64997508 eV

  energy without entropy =      153.65011897  energy(sigma->0) =      153.65004702


--------------------------------------------------------------------------------------------------------




----------------------------------------- Iteration    1(   2)  ---------------------------------------


    EDDAV :  VPU time    0.58: CPU time    0.58
    DOS   :  VPU time    0.00: CPU time   -0.00
    ------------------------------------------
      LOOP:  VPU time    0.58: CPU time    0.58

 eigenvalue-minimisations  :   880
 total energy-change (2. order) :-0.1675470E+03  (-0.1659802E+03)
 number of electron   20.0000000 magnetization 
 augmentation part    20.0000000 magnetization 

 Free energy of the ion-electron system (eV)
  ---------------------------------------------------
  alpha Z        PSCENC =       124.89064987
  Ewald energy   TEWEN  =     -1602.77754481
  -1/2 Hartree   DENC   =      -445.22890555
  -V(xc)+E(xc)   XCENC  =        71.79326691
  PAW double counting   =      1428.40628957    -1426.98428199
  entropy T*S    EENTRO =        -0.00018632
  eigenvalues    EBANDS =      -248.74768961
  atomic energy  EATOM  =      2084.75134655
  ---------------------------------------------------
  free energy    TOTEN  =       -13.89705537 eV

  energy without entropy =      -13.89686906  energy(sigma->0) =      -13.89696222


--------------------------------------------------------------------------------------------------------




----------------------------------------- Iteration    1(   3)  ---------------------------------------


    EDDAV :  VPU time    0.73: CPU time    0.73
    DOS   :  VPU time    0.00: CPU time   -0.00
    ------------------------------------------
      LOOP:  VPU time    0.73: CPU time    0.73

 eigenvalue-minimisations  :  1176
 total energy-change (2. order) :-0.4069078E+01  (-0.4021318E+01)
 number of electron   20.0000000 magnetization 
 augmentation part    20.0000000 magnetization 

 Free energy of the ion-electron system (eV)
  ---------------------------------------------------
  alpha Z        PSCENC =       124.89064987
  Ewald energy   TEWEN  =     -1602.77754481
  -1/2 Hartree   DENC   =      -445.22890555
  -V(xc)+E(xc)   XCENC  =        71.79326691
  PAW double counting   =      1428.40628957    -1426.98428199
  entropy T*S    EENTRO =        -0.00034327
  eigenvalues    EBANDS =      -252.81661094
  atomic energy  EATOM  =      2084.75134655
  ---------------------------------------------------
  free energy    TOTEN  =       -17.96613366 eV

  energy without entropy =      -17.96579039  energy(sigma->0) =      -17.96596202


--------------------------------------------------------------------------------------------------------




----------------------------------------- Iteration    1(   4)  ---------------------------------------


    EDDAV :  VPU time    0.59: CPU time    0.60
    DOS   :  VPU time    0.00: CPU time   -0.00
    ------------------------------------------
      LOOP:  VPU time    0.60: CPU time    0.60

 eigenvalue-minimisations  :   928
 total energy-change (2. order) :-0.5698608E-01  (-0.5695283E-01)
 number of electron   20.0000000 magnetization 
 augmentation part    20.0000000 magnetization 

 Free energy of the ion-electron system (eV)
  ---------------------------------------------------
  alpha Z        PSCENC =       124.89064987
  Ewald energy   TEWEN  =     -1602.77754481
  -1/2 Hartree   DENC   =      -445.22890555
  -V(xc)+E(xc)   XCENC  =        71.79326691
  PAW double counting   =      1428.40628957    -1426.98428199
  entropy T*S    EENTRO =        -0.00034355
  eigenvalues    EBANDS =      -252.87359673
  atomic energy  EATOM  =      2084.75134655
  ---------------------------------------------------
  free energy    TOTEN  =       -18.02311974 eV

  energy without entropy =      -18.02277618  energy(sigma->0) =      -18.02294796


--------------------------------------------------------------------------------------------------------




----------------------------------------- Iteration    1(   5)  ---------------------------------------


    EDDAV :  VPU time    0.69: CPU time    0.69
    DOS   :  VPU time    0.00: CPU time   -0.00
    CHARGE:  VPU time    0.04: CPU time    0.04
    MIXING:  VPU time    0.00: CPU time    0.00
    ------------------------------------------
      LOOP:  VPU time    0.74: CPU time    0.74

 eigenvalue-minimisations  :  1112
 total energy-change (2. order) :-0.1385347E-02  (-0.1385314E-02)
 number of electron   20.0000005 magnetization 
 augmentation part     8.7271362 magnetization 

 Broyden mixing:
  rms(total) = 0.84843E+00    rms(broyden)= 0.84842E+00
  rms(prec ) = 0.19112E+01
  weight for this iteration     100.00

 Free energy of the ion-electron system (eV)
  ---------------------------------------------------
  alpha Z        PSCENC =       124.89064987
  Ewald energy   TEWEN  =     -1602.77754481
  -1/2 Hartree   DENC   =      -445.22890555
  -V(xc)+E(xc)   XCENC  =        71.79326691
  PAW double counting   =      1428.40628957    -1426.98428199
  entropy T*S    EENTRO =        -0.00034356
  eigenvalues    EBANDS =      -252.87498207
  atomic energy  EATOM  =      2084.75134655
  ---------------------------------------------------
  free energy    TOTEN  =       -18.02450508 eV

  energy without entropy =      -18.02416152  energy(sigma->0) =      -18.02433330


--------------------------------------------------------------------------------------------------------




----------------------------------------- Iteration    1(   6)  ---------------------------------------


    POTLOK:  VPU time    0.05: CPU time    0.05
    SETDIJ:  VPU time    0.01: CPU time    0.01
    EDDAV :  VPU time    0.62: CPU time    0.62
    DOS   :  VPU time    0.00: CPU time   -0.00
    CHARGE:  VPU time    0.04: CPU time    0.04
    MIXING:  VPU time    0.00: CPU time    0.00
    ------------------------------------------
      LOOP:  VPU time    0.73: CPU time    0.73

 eigenvalue-minimisations  :   984
 total energy-change (2. order) : 0.2123253E+01  (-0.6834819E+00)
 number of electron   20.0000005 magnetization 
 augmentation part     9.2827178 magnetization 

 Broyden mixing:
  rms(total) = 0.19598E+00    rms(broyden)= 0.19597E+00
  rms(prec ) = 0.44678E+00
  weight for this iteration     100.00

 eigenvalues of (default mixing * dielectric matrix)
  average eigenvalue GAMMA=   1.2207
  1.2207

 Free energy of the ion-electron system (eV)
  ---------------------------------------------------
  alpha Z        PSCENC =       124.89064987
  Ewald energy   TEWEN  =     -1602.77754481
  -1/2 Hartree   DENC   =      -405.42445637
  -V(xc)+E(xc)   XCENC  =        69.68547688
  PAW double counting   =      1382.86007102    -1385.26378051
  entropy T*S    EENTRO =        -0.00026413
  eigenvalues    EBANDS =      -284.62275017
  atomic energy  EATOM  =      2084.75134655
  ---------------------------------------------------
  free energy    TOTEN  =       -15.90125167 eV

  energy without entropy =      -15.90098754  energy(sigma->0) =      -15.90111961


--------------------------------------------------------------------------------------------------------




----------------------------------------- Iteration    1(   7)  ---------------------------------------


    POTLOK:  VPU time    0.05: CPU time    0.05
    SETDIJ:  VPU time    0.01: CPU time    0.01
    EDDAV :  VPU time    0.67: CPU time    0.67
    DOS   :  VPU time    0.00: CPU time   -0.00
    CHARGE:  VPU time    0.04: CPU time    0.04
    MIXING:  VPU time    0.00: CPU time    0.00
    ------------------------------------------
      LOOP:  VPU time    0.78: CPU time    0.78

 eigenvalue-minimisations  :  1080
 total energy-change (2. order) : 0.9936491E-01  (-0.5721970E-01)
 number of electron   20.0000005 magnetization 
 augmentation part     9.4325950 magnetization 

 Broyden mixing:
  rms(total) = 0.76844E-01    rms(broyden)= 0.76841E-01
  rms(prec ) = 0.12477E+00
  weight for this iteration     100.00

 eigenvalues of (default mixing * dielectric matrix)
  average eigenvalue GAMMA=   1.8148
  1.2707  2.3589

 Free energy of the ion-electron system (eV)
  ---------------------------------------------------
  alpha Z        PSCENC =       124.89064987
  Ewald energy   TEWEN  =     -1602.77754481
  -1/2 Hartree   DENC   =      -395.26567858
  -V(xc)+E(xc)   XCENC  =        69.18795984
  PAW double counting   =      1392.50685668    -1396.79476923
  entropy T*S    EENTRO =        -0.00018567
  eigenvalues    EBANDS =      -292.30052142
  atomic energy  EATOM  =      2084.75134655
  ---------------------------------------------------
  free energy    TOTEN  =       -15.80188676 eV

  energy without entropy =      -15.80170109  energy(sigma->0) =      -15.80179393


--------------------------------------------------------------------------------------------------------




----------------------------------------- Iteration    1(   8)  ---------------------------------------


    POTLOK:  VPU time    0.05: CPU time    0.05
    SETDIJ:  VPU time    0.01: CPU time    0.01
    EDDAV :  VPU time    0.58: CPU time    0.58
    DOS   :  VPU time    0.00: CPU time   -0.00
    CHARGE:  VPU time    0.04: CPU time    0.04
    MIXING:  VPU time    0.00: CPU time    0.00
    ------------------------------------------
      LOOP:  VPU time    0.69: CPU time    0.69

 eigenvalue-minimisations  :   896
 total energy-change (2. order) : 0.1086744E-01  (-0.2475832E-02)
 number of electron   20.0000005 magnetization 
 augmentation part     9.4105308 magnetization 

 Broyden mixing:
  rms(total) = 0.14825E-01    rms(broyden)= 0.14824E-01
  rms(prec ) = 0.34027E-01
  weight for this iteration     100.00

 eigenvalues of (default mixing * dielectric matrix)
  average eigenvalue GAMMA=   1.6106
  1.1356  1.1356  2.5606

 Free energy of the ion-electron system (eV)
  ---------------------------------------------------
  alpha Z        PSCENC =       124.89064987
  Ewald energy   TEWEN  =     -1602.77754481
  -1/2 Hartree   DENC   =      -395.28728675
  -V(xc)+E(xc)   XCENC  =        69.25292807
  PAW double counting   =      1421.67622253    -1427.20693110
  entropy T*S    EENTRO =        -0.00018790
  eigenvalues    EBANDS =      -291.09021578
  atomic energy  EATOM  =      2084.75134655
  ---------------------------------------------------
  free energy    TOTEN  =       -15.79101932 eV

  energy without entropy =      -15.79083142  energy(sigma->0) =      -15.79092537


--------------------------------------------------------------------------------------------------------




----------------------------------------- Iteration    1(   9)  ---------------------------------------


    POTLOK:  VPU time    0.05: CPU time    0.05
    SETDIJ:  VPU time    0.01: CPU time    0.01
    EDDAV :  VPU time    0.65: CPU time    0.65
    DOS   :  VPU time    0.00: CPU time   -0.00
    CHARGE:  VPU time    0.04: CPU time    0.04
    MIXING:  VPU time    0.00: CPU time    0.00
    ------------------------------------------
      LOOP:  VPU time    0.76: CPU time    0.76

 eigenvalue-minimisations  :  1040
 total energy-change (2. order) : 0.6724703E-03  (-0.4769677E-03)
 number of electron   20.0000005 magnetization 
 augmentation part     9.4244651 magnetization 

 Broyden mixing:
  rms(total) = 0.30972E-02    rms(broyden)= 0.30965E-02
  rms(prec ) = 0.56091E-02
  weight for this iteration     100.00

 eigenvalues of (default mixing * dielectric matrix)
  average eigenvalue GAMMA=   1.7836
  1.0372  1.1310  2.4831  2.4831

 Free energy of the ion-electron system (eV)
  ---------------------------------------------------
  alpha Z        PSCENC =       124.89064987
  Ewald energy   TEWEN  =     -1602.77754481
  -1/2 Hartree   DENC   =      -394.36792819
  -V(xc)+E(xc)   XCENC  =        69.21008192
  PAW double counting   =      1422.96341001    -1428.57408917
  entropy T*S    EENTRO =        -0.00018677
  eigenvalues    EBANDS =      -291.88608626
  atomic energy  EATOM  =      2084.75134655
  ---------------------------------------------------
  free energy    TOTEN  =       -15.79034685 eV

  energy without entropy =      -15.79016008  energy(sigma->0) =      -15.79025346


--------------------------------------------------------------------------------------------------------




----------------------------------------- Iteration    1(  10)  ---------------------------------------


    POTLOK:  VPU time    0.05: CPU time    0.05
    SETDIJ:  VPU time    0.01: CPU time    0.01
    EDDAV :  VPU time    0.72: CPU time    0.72
    DOS   :  VPU time    0.00: CPU time   -0.00
    CHARGE:  VPU time    0.04: CPU time    0.04
    MIXING:  VPU time    0.00: CPU time    0.00
    ------------------------------------------
      LOOP:  VPU time    0.83: CPU time    0.83

 eigenvalue-minimisations  :  1168
 total energy-change (2. order) : 0.1487457E-04  (-0.1069523E-04)
 number of electron   20.0000005 magnetization 
 augmentation part     9.4243871 magnetization 

 Broyden mixing:
  rms(total) = 0.10224E-02    rms(broyden)= 0.10224E-02
  rms(prec ) = 0.19595E-02
  weight for this iteration     100.00

 eigenvalues of (default mixing * dielectric matrix)
  average eigenvalue GAMMA=   1.5703
  2.6001  2.3853  1.0937  1.0937  0.6787

 Free energy of the ion-electron system (eV)
  ---------------------------------------------------
  alpha Z        PSCENC =       124.89064987
  Ewald energy   TEWEN  =     -1602.77754481
  -1/2 Hartree   DENC   =      -394.50088897
  -V(xc)+E(xc)   XCENC  =        69.21759451
  PAW double counting   =      1423.45442645    -1428.94584975
  entropy T*S    EENTRO =        -0.00018876
  eigenvalues    EBANDS =      -291.87987707
  atomic energy  EATOM  =      2084.75134655
  ---------------------------------------------------
  free energy    TOTEN  =       -15.79033197 eV

  energy without entropy =      -15.79014321  energy(sigma->0) =      -15.79023759


--------------------------------------------------------------------------------------------------------




----------------------------------------- Iteration    1(  11)  ---------------------------------------


    POTLOK:  VPU time    0.05: CPU time    0.05
    SETDIJ:  VPU time    0.01: CPU time    0.01
    EDDAV :  VPU time    0.62: CPU time    0.62
    DOS   :  VPU time   -0.00: CPU time   -0.00
    CHARGE:  VPU time    0.04: CPU time    0.04
    MIXING:  VPU time    0.00: CPU time    0.00
    ------------------------------------------
      LOOP:  VPU time    0.73: CPU time    0.73

 eigenvalue-minimisations  :   976
 total energy-change (2. order) : 0.2015034E-05  (-0.8959054E-06)
 number of electron   20.0000005 magnetization 
 augmentation part     9.4238414 magnetization 

 Broyden mixing:
  rms(total) = 0.35967E-03    rms(broyden)= 0.35966E-03
  rms(prec ) = 0.62482E-03
  weight for this iteration     100.00

 eigenvalues of (default mixing * dielectric matrix)
  average eigenvalue GAMMA=   1.6830
  2.6695  2.5168  1.0549  1.0673  1.0673  1.7221

 Free energy of the ion-electron system (eV)
  ---------------------------------------------------
  alpha Z        PSCENC =       124.89064987
  Ewald energy   TEWEN  =     -1602.77754481
  -1/2 Hartree   DENC   =      -394.54030945
  -V(xc)+E(xc)   XCENC  =        69.21996358
  PAW double counting   =      1423.60990348    -1429.09483087
  entropy T*S    EENTRO =        -0.00018873
  eigenvalues    EBANDS =      -291.84931957
  atomic energy  EATOM  =      2084.75134655
  ---------------------------------------------------
  free energy    TOTEN  =       -15.79032996 eV

  energy without entropy =      -15.79014122  energy(sigma->0) =      -15.79023559


--------------------------------------------------------------------------------------------------------




----------------------------------------- Iteration    1(  12)  ---------------------------------------


    POTLOK:  VPU time    0.05: CPU time    0.05
    SETDIJ:  VPU time    0.01: CPU time    0.01
    EDDAV :  VPU time    0.76: CPU time    0.76
    DOS   :  VPU time    0.00: CPU time   -0.00
    CHARGE:  VPU time    0.04: CPU time    0.04
    MIXING:  VPU time    0.00: CPU time    0.00
    ------------------------------------------
      LOOP:  VPU time    0.86: CPU time    0.86

 eigenvalue-minimisations  :  1224
 total energy-change (2. order) : 0.1897044E-05  (-0.9758897E-07)
 number of electron   20.0000005 magnetization 
 augmentation part     9.4237672 magnetization 

 Broyden mixing:
  rms(total) = 0.36099E-04    rms(broyden)= 0.36027E-04
  rms(prec ) = 0.68258E-04
  weight for this iteration     100.00

 eigenvalues of (default mixing * dielectric matrix)
  average eigenvalue GAMMA=   1.5967
  2.6820  2.5197  1.7927  1.1048  1.1048  0.9865  0.9865

 Free energy of the ion-electron system (eV)
  ---------------------------------------------------
  alpha Z        PSCENC =       124.89064987
  Ewald energy   TEWEN  =     -1602.77754481
  -1/2 Hartree   DENC   =      -394.55255762
  -V(xc)+E(xc)   XCENC  =        69.22067479
  PAW double counting   =      1423.60316852    -1429.07981386
  entropy T*S    EENTRO =        -0.00018835
  eigenvalues    EBANDS =      -291.84606316
  atomic energy  EATOM  =      2084.75134655
  ---------------------------------------------------
  free energy    TOTEN  =       -15.79032806 eV

  energy without entropy =      -15.79013971  energy(sigma->0) =      -15.79023389


--------------------------------------------------------------------------------------------------------




----------------------------------------- Iteration    1(  13)  ---------------------------------------


    POTLOK:  VPU time    0.05: CPU time    0.05
    SETDIJ:  VPU time    0.01: CPU time    0.01
    EDDAV :  VPU time    0.49: CPU time    0.49
    DOS   :  VPU time    0.00: CPU time   -0.00
    CHARGE:  VPU time    0.04: CPU time    0.04
    MIXING:  VPU time    0.00: CPU time    0.00
    ------------------------------------------
      LOOP:  VPU time    0.60: CPU time    0.60

 eigenvalue-minimisations  :   680
 total energy-change (2. order) :-0.2766774E-07  (-0.3134789E-08)
 number of electron   20.0000005 magnetization 
 augmentation part     9.4237755 magnetization 

 Broyden mixing:
  rms(total) = 0.22198E-04    rms(broyden)= 0.22194E-04
  rms(prec ) = 0.38748E-04
  weight for this iteration     100.00

 eigenvalues of (default mixing * dielectric matrix)
  average eigenvalue GAMMA=   1.7102
  2.7742  2.5474  2.3668  1.6995  0.9830  1.0718  1.1193  1.1193

 Free energy of the ion-electron system (eV)
  ---------------------------------------------------
  alpha Z        PSCENC =       124.89064987
  Ewald energy   TEWEN  =     -1602.77754481
  -1/2 Hartree   DENC   =      -394.55170037
  -V(xc)+E(xc)   XCENC  =        69.22063315
  PAW double counting   =      1423.59843957    -1429.07526439
  entropy T*S    EENTRO =        -0.00018836
  eigenvalues    EBANDS =      -291.84669931
  atomic energy  EATOM  =      2084.75134655
  ---------------------------------------------------
  free energy    TOTEN  =       -15.79032809 eV

  energy without entropy =      -15.79013973  energy(sigma->0) =      -15.79023391


--------------------------------------------------------------------------------------------------------




----------------------------------------- Iteration    1(  14)  ---------------------------------------


    POTLOK:  VPU time    0.05: CPU time    0.05
    SETDIJ:  VPU time    0.01: CPU time    0.01
    EDDAV :  VPU time    0.40: CPU time    0.40
    DOS   :  VPU time    0.00: CPU time   -0.00
    CHARGE:  VPU time    0.04: CPU time    0.04
    MIXING:  VPU time    0.00: CPU time    0.00
    ------------------------------------------
      LOOP:  VPU time    0.51: CPU time    0.51

 eigenvalue-minimisations  :   480
 total energy-change (2. order) :-0.9436008E-07  (-0.3381589E-09)
 number of electron   20.0000005 magnetization 
 augmentation part     9.4237846 magnetization 

 Broyden mixing:
  rms(total) = 0.35904E-05    rms(broyden)= 0.35870E-05
  rms(prec ) = 0.61989E-05
  weight for this iteration     100.00

 eigenvalues of (default mixing * dielectric matrix)
  average eigenvalue GAMMA=   1.6465
  2.7627  2.5335  2.5335  1.8085  1.0774  1.0774  1.0347  1.0347  0.9564

 Free energy of the ion-electron system (eV)
  ---------------------------------------------------
  alpha Z        PSCENC =       124.89064987
  Ewald energy   TEWEN  =     -1602.77754481
  -1/2 Hartree   DENC   =      -394.55049095
  -V(xc)+E(xc)   XCENC  =        69.22056488
  PAW double counting   =      1423.58609723    -1429.06361813
  entropy T*S    EENTRO =        -0.00018835
  eigenvalues    EBANDS =      -291.84714448
  atomic energy  EATOM  =      2084.75134655
  ---------------------------------------------------
  free energy    TOTEN  =       -15.79032818 eV

  energy without entropy =      -15.79013983  energy(sigma->0) =      -15.79023401


--------------------------------------------------------------------------------------------------------




----------------------------------------- Iteration    1(  15)  ---------------------------------------


    POTLOK:  VPU time    0.05: CPU time    0.05
    SETDIJ:  VPU time    0.01: CPU time    0.01
    EDDAV :  VPU time    0.38: CPU time    0.38
    DOS   :  VPU time    0.00: CPU time   -0.00
    CHARGE:  VPU time    0.04: CPU time    0.04
    MIXING:  VPU time    0.00: CPU time    0.00
    ------------------------------------------
      LOOP:  VPU time    0.49: CPU time    0.49

 eigenvalue-minimisations  :   448
 total energy-change (2. order) :-0.3098194E-07  (-0.5444639E-10)
 number of electron   20.0000005 magnetization 
 augmentation part     9.4237818 magnetization 

 Broyden mixing:
  rms(total) = 0.10107E-05    rms(broyden)= 0.10106E-05
  rms(prec ) = 0.20927E-05
  weight for this iteration     100.00

 eigenvalues of (default mixing * dielectric matrix)
  average eigenvalue GAMMA=   1.5912
  2.7541  2.6046  2.4513  1.8498  0.9620  0.9620  1.0810  1.0810  1.0833  1.0833

 Free energy of the ion-electron system (eV)
  ---------------------------------------------------
  alpha Z        PSCENC =       124.89064987
  Ewald energy   TEWEN  =     -1602.77754481
  -1/2 Hartree   DENC   =      -394.55045921
  -V(xc)+E(xc)   XCENC  =        69.22056374
  PAW double counting   =      1423.58560564    -1429.06330153
  entropy T*S    EENTRO =        -0.00018835
  eigenvalues    EBANDS =      -291.84700012
  atomic energy  EATOM  =      2084.75134655
  ---------------------------------------------------
  free energy    TOTEN  =       -15.79032821 eV

  energy without entropy =      -15.79013986  energy(sigma->0) =      -15.79023404


--------------------------------------------------------------------------------------------------------




----------------------------------------- Iteration    1(  16)  ---------------------------------------


    POTLOK:  VPU time    0.05: CPU time    0.05
    SETDIJ:  VPU time    0.01: CPU time    0.01
    EDDAV :  VPU time    0.40: CPU time    0.40
    DOS   :  VPU time    0.00: CPU time   -0.00
    ------------------------------------------
      LOOP:  VPU time    0.46: CPU time    0.46

 eigenvalue-minimisations  :   480
 total energy-change (2. order) : 0.8803909E-09  (-0.8272349E-11)
 number of electron   20.0000005 magnetization 
 augmentation part     9.4237818 magnetization 

 Free energy of the ion-electron system (eV)
  ---------------------------------------------------
  alpha Z        PSCENC =       124.89064987
  Ewald energy   TEWEN  =     -1602.77754481
  -1/2 Hartree   DENC   =      -394.55047840
  -V(xc)+E(xc)   XCENC  =        69.22056440
  PAW double counting   =      1423.58568416    -1429.06337738
  entropy T*S    EENTRO =        -0.00018835
  eigenvalues    EBANDS =      -291.84698424
  atomic energy  EATOM  =      2084.75134655
  ---------------------------------------------------
  free energy    TOTEN  =       -15.79032821 eV

  energy without entropy =      -15.79013986  energy(sigma->0) =      -15.79023404


--------------------------------------------------------------------------------------------------------




 average (electrostatic) potential at core
  the test charge radii are     1.0397
  (the norm of the test charge is              1.0000)
       1 -51.1329       2 -51.1329
 
 
 
 E-fermi :   5.7819     XC(G=0): -11.3746     alpha+bet :-13.6149
   add alpha+bet to get absolut eigen values

 k-point   1 :       0.0000    0.0000    0.0000
  band No.  band energies     occupation 
      1     -27.5639      2.00000
      2     -26.9138      2.00000
      3     -26.9074      2.00000
      4     -26.8640      2.00000
      5     -26.8102      2.00000
      6     -26.8090      2.00000
      7      -0.2731      2.00000
      8       3.2151      2.00000
      9       6.6002      0.00000
     10       6.6647      0.00000
     11       6.6922      0.00000
     12       6.7642      0.00000
     13       7.1184      0.00000
     14       7.1747      0.00000
     15       7.4346      0.00000
     16       7.4903      0.00000

 k-point   2 :       0.2000    0.0000    0.0000
  band No.  band energies     occupation 
      1     -27.4829      2.00000
      2     -27.0681      2.00000
      3     -26.9691      2.00000
      4     -26.9593      2.00000
      5     -26.9020      2.00000
      6     -26.8304      2.00000
      7       0.7803      2.00000
      8       3.9266      2.00000
      9       5.3435      2.00000
     10       5.6696      2.00000
     11       6.6863      0.00000
     12       7.0008      0.00000
     13       7.0433      0.00000
     14       7.4076      0.00000
     15       7.5411      0.00000
     16       7.8064      0.00000

 k-point   3 :       0.4000    0.0000    0.0000
  band No.  band energies     occupation 
      1     -27.3245      2.00000
      2     -27.3084      2.00000
      3     -27.2083      2.00000
      4     -27.0346      2.00000
      5     -27.0063      2.00000
      6     -26.8696      2.00000
      7       2.9776      2.00000
      8       3.9924      2.00000
      9       4.2052      2.00000
     10       5.2149      2.00000
     11       6.4320      0.00000
     12       6.5603      0.00000
     13       6.8801      0.00000
     14       8.8958      0.00000
     15       9.0997      0.00000
     16       9.1891      0.00000

 k-point   4 :       0.2000    0.2000    0.0000
  band No.  band energies     occupation 
      1     -27.3506      2.00000
      2     -27.1993      2.00000
      3     -27.1850      2.00000
      4     -27.0179      2.00000
      5     -26.9778      2.00000
      6     -26.9202      2.00000
      7       2.5126      2.00000
      8       4.5169      2.00000
      9       4.5899      2.00000
     10       4.8379      2.00000
     11       6.2062      0.00000
     12       6.7082      0.00000
     13       6.8505      0.00000
     14       7.9759      0.00000
     15       8.6937      0.00000
     16       9.1937      0.00000

 k-point   5 :       0.4000    0.2000    0.0000
  band No.  band energies     occupation 
      1     -27.3209      2.00000
      2     -27.2147      2.00000
      3     -27.2034      2.00000
      4     -27.1292      2.00000
      5     -27.0775      2.00000
      6     -26.9798      2.00000
      7       4.0598      2.00000
      8       4.1584      2.00000
      9       4.2479      2.00000
     10       4.8432      2.00000
     11       6.1165      0.00000
     12       6.3063      0.00000
     13       7.2023      0.00000
     14       8.8896      0.00000
     15       9.1548      0.00000
     16       9.2183      0.00000

 k-point   6 :      -0.4000    0.2000    0.0000
  band No.  band energies     occupation 
      1     -27.3510      2.00000
      2     -27.2074      2.00000
      3     -27.1916      2.00000
      4     -27.0179      2.00000
      5     -26.9755      2.00000
      6     -26.9186      2.00000
      7       2.5352      2.00000
      8       4.4951      2.00000
      9       4.5914      2.00000
     10       4.8403      2.00000
     11       6.1952      0.00000
     12       6.6982      0.00000
     13       6.8636      0.00000
     14       7.9925      0.00000
     15       8.7008      0.00000
     16       9.2027      0.00000

 k-point   7 :      -0.2000    0.2000    0.0000
  band No.  band energies     occupation 
      1     -27.4828      2.00000
      2     -27.0670      2.00000
      3     -26.9697      2.00000
      4     -26.9654      2.00000
      5     -26.9009      2.00000
      6     -26.8332      2.00000
      7       0.7900      2.00000
      8       3.9301      2.00000
      9       5.3270      2.00000
     10       5.7060      2.00000
     11       6.7241      0.00000
     12       6.9575      0.00000
     13       7.0902      0.00000
     14       7.3568      0.00000
     15       7.5425      0.00000
     16       7.7788      0.00000

 k-point   8 :       0.4000    0.4000    0.0000
  band No.  band energies     occupation 
      1     -27.3262      2.00000
      2     -27.2177      2.00000
      3     -27.2058      2.00000
      4     -27.1330      2.00000
      5     -27.0726      2.00000
      6     -26.9813      2.00000
      7       4.0545      2.00000
      8       4.1413      2.00000
      9       4.2292      2.00000
     10       4.8798      2.00000
     11       6.0720      0.00000
     12       6.3573      0.00000
     13       7.2348      0.00000
     14       8.8929      0.00000
     15       9.1731      0.00000
     16       9.2194      0.00000

 k-point   9 :      -0.4000    0.4000    0.0000
  band No.  band energies     occupation 
      1     -27.3295      2.00000
      2     -27.3098      2.00000
      3     -27.2105      2.00000
      4     -27.0432      2.00000
      5     -27.0018      2.00000
      6     -26.8751      2.00000
      7       2.9891      2.00000
      8       3.9832      2.00000
      9       4.1799      2.00000
     10       5.2478      2.00000
     11       6.3790      0.00000
     12       6.6201      0.00000
     13       6.9326      0.00000
     14       8.9010      0.00000
     15       9.0971      0.00000
     16       9.1926      0.00000

 k-point  10 :       0.0000    0.0000    0.2000
  band No.  band energies     occupation 
      1     -27.5000      2.00000
      2     -26.9340      2.00000
      3     -26.9039      2.00000
      4     -26.8981      2.00000
      5     -26.8201      2.00000
      6     -26.8185      2.00000
      7       0.0610      2.00000
      8       3.0216      2.00000
      9       6.1906      0.00000
     10       6.4808      0.00000
     11       6.5616      0.00000
     12       6.5846      0.00000
     13       6.9476      0.00000
     14       7.0021      0.00000
     15       7.7698      0.00000
     16       7.8279      0.00000

 k-point  11 :       0.2000    0.0000    0.2000
  band No.  band energies     occupation 
      1     -27.4422      2.00000
      2     -27.0587      2.00000
      3     -27.0286      2.00000
      4     -26.9471      2.00000
      5     -26.8956      2.00000
      6     -26.8428      2.00000
      7       1.0700      2.00000
      8       3.7982      2.00000
      9       5.0822      2.00000
     10       5.7467      2.00000
     11       6.4744      0.00000
     12       6.8752      0.00000
     13       6.9162      0.00000
     14       7.5220      0.00000
     15       7.8353      0.00000
     16       7.8973      0.00000

 k-point  12 :       0.4000    0.0000    0.2000
  band No.  band energies     occupation 
      1     -27.4072      2.00000
      2     -27.2804      2.00000
      3     -27.1769      2.00000
      4     -27.0192      2.00000
      5     -26.9811      2.00000
      6     -26.8855      2.00000
      7       2.9799      2.00000
      8       3.8922      2.00000
      9       4.4826      2.00000
     10       5.1421      2.00000
     11       6.6302      0.00000
     12       6.6399      0.00000
     13       6.9281      0.00000
     14       8.7698      0.00000
     15       8.9407      0.00000
     16       9.0776      0.00000

 k-point  13 :       0.2000    0.2000    0.2000
  band No.  band energies     occupation 
      1     -27.3728      2.00000
      2     -27.2287      2.00000
      3     -27.1242      2.00000
      4     -27.0583      2.00000
      5     -26.9338      2.00000
      6     -26.9327      2.00000
      7       2.6823      2.00000
      8       4.3080      2.00000
      9       4.7631      2.00000
     10       4.9579      2.00000
     11       6.1748      0.00000
     12       6.5964      0.00000
     13       6.7691      0.00000
     14       7.9815      0.00000
     15       8.7422      0.00000
     16       8.8832      0.00000

 k-point  14 :       0.4000    0.2000    0.2000
  band No.  band energies     occupation 
      1     -27.3684      2.00000
      2     -27.2824      2.00000
      3     -27.1943      2.00000
      4     -27.0629      2.00000
      5     -27.0444      2.00000
      6     -26.9707      2.00000
      7       3.8187      2.00000
      8       4.3057      2.00000
      9       4.6855      2.00000
     10       4.7680      2.00000
     11       6.0183      0.00000
     12       6.2901      0.00000
     13       7.2303      0.00000
     14       8.7022      0.00000
     15       8.8901      0.00000
     16       9.2471      0.00000

 k-point  15 :      -0.4000    0.2000    0.2000
  band No.  band energies     occupation 
      1     -27.3734      2.00000
      2     -27.2346      2.00000
      3     -27.1307      2.00000
      4     -27.0580      2.00000
      5     -26.9335      2.00000
      6     -26.9315      2.00000
      7       2.7025      2.00000
      8       4.2922      2.00000
      9       4.7661      2.00000
     10       4.9595      2.00000
     11       6.1758      0.00000
     12       6.6208      0.00000
     13       6.7490      0.00000
     14       7.9920      0.00000
     15       8.7389      0.00000
     16       8.8920      0.00000

 k-point  16 :      -0.2000    0.2000    0.2000
  band No.  band energies     occupation 
      1     -27.4417      2.00000
      2     -27.0583      2.00000
      3     -27.0271      2.00000
      4     -26.9529      2.00000
      5     -26.8962      2.00000
      6     -26.8459      2.00000
      7       1.0796      2.00000
      8       3.8012      2.00000
      9       5.0775      2.00000
     10       5.7818      1.01225
     11       6.5112      0.00000
     12       6.8726      0.00000
     13       6.9015      0.00000
     14       7.4811      0.00000
     15       7.8019      0.00000
     16       7.9140      0.00000

 k-point  17 :       0.4000    0.4000    0.2000
  band No.  band energies     occupation 
      1     -27.3714      2.00000
      2     -27.2820      2.00000
      3     -27.1989      2.00000
      4     -27.0657      2.00000
      5     -27.0465      2.00000
      6     -26.9699      2.00000
      7       3.8134      2.00000
      8       4.3007      2.00000
      9       4.6740      2.00000
     10       4.7826      2.00000
     11       5.9863      0.00000
     12       6.3448      0.00000
     13       7.2516      0.00000
     14       8.7007      0.00000
     15       8.8921      0.00000
     16       9.2530      0.00000

 k-point  18 :      -0.4000    0.4000    0.2000
  band No.  band energies     occupation 
      1     -27.4086      2.00000
      2     -27.2807      2.00000
      3     -27.1809      2.00000
      4     -27.0274      2.00000
      5     -26.9798      2.00000
      6     -26.8914      2.00000
      7       2.9914      2.00000
      8       3.8920      2.00000
      9       4.4697      2.00000
     10       5.1541      2.00000
     11       6.5797      0.00000
     12       6.6944      0.00000
     13       6.9882      0.00000
     14       8.7601      0.00000
     15       8.9438      0.00000
     16       9.0779      0.00000

 k-point  19 :       0.0000    0.0000    0.4000
  band No.  band energies     occupation 
      1     -27.3297      2.00000
      2     -27.1137      2.00000
      3     -26.8781      2.00000
      4     -26.8735      2.00000
      5     -26.8461      2.00000
      6     -26.8431      2.00000
      7       0.9818      2.00000
      8       2.1852      2.00000
      9       5.8613      0.00000
     10       6.1638      0.00000
     11       6.4443      0.00000
     12       6.5117      0.00000
     13       6.6345      0.00000
     14       6.6920      0.00000
     15       8.3635      0.00000
     16       8.4093      0.00000

 k-point  20 :       0.2000    0.0000    0.4000
  band No.  band energies     occupation 
      1     -27.3319      2.00000
      2     -27.1847      2.00000
      3     -26.9866      2.00000
      4     -26.9267      2.00000
      5     -26.9150      2.00000
      6     -26.8752      2.00000
      7       1.8750      2.00000
      8       2.9720      2.00000
      9       5.2149      2.00000
     10       5.7388      2.00000
     11       6.1702      0.00000
     12       6.5521      0.00000
     13       6.9657      0.00000
     14       7.2243      0.00000
     15       8.3474      0.00000
     16       8.5400      0.00000

 k-point  21 :       0.4000    0.0000    0.4000
  band No.  band energies     occupation 
      1     -27.4285      2.00000
      2     -27.3760      2.00000
      3     -27.0555      2.00000
      4     -26.9847      2.00000
      5     -26.9767      2.00000
      6     -26.9270      2.00000
      7       3.1409      2.00000
      8       3.5298      2.00000
      9       4.9088      2.00000
     10       5.2526      2.00000
     11       6.6196      0.00000
     12       7.0042      0.00000
     13       7.1885      0.00000
     14       7.9888      0.00000
     15       9.0524      0.00000
     16       9.1318      0.00000

 k-point  22 :       0.2000    0.2000    0.4000
  band No.  band energies     occupation 
      1     -27.3689      2.00000
      2     -27.3086      2.00000
      3     -27.0493      2.00000
      4     -27.0429      2.00000
      5     -26.9535      2.00000
      6     -26.9267      2.00000
      7       3.1488      2.00000
      8       3.7753      2.00000
      9       5.1483      2.00000
     10       5.2591      2.00000
     11       5.9454      0.00000
     12       6.0987      0.00000
     13       7.0970      0.00000
     14       7.6836      0.00000
     15       8.8633      0.00000
     16       9.1756      0.00000

 k-point  23 :       0.4000    0.2000    0.4000
  band No.  band energies     occupation 
      1     -27.4053      2.00000
      2     -27.3739      2.00000
      3     -27.1430      2.00000
      4     -27.0810      2.00000
      5     -26.9737      2.00000
      6     -26.9424      2.00000
      7       3.8403      2.00000
      8       4.1005      2.00000
      9       5.0533      2.00000
     10       5.4352      2.00000
     11       5.6101      2.00000
     12       6.0705      0.00000
     13       7.4545      0.00000
     14       7.9241      0.00000
     15       8.9744      0.00000
     16       9.1986      0.00000

 k-point  24 :      -0.4000    0.2000    0.4000
  band No.  band energies     occupation 
      1     -27.3698      2.00000
      2     -27.3108      2.00000
      3     -27.0518      2.00000
      4     -27.0491      2.00000
      5     -26.9519      2.00000
      6     -26.9277      2.00000
      7       3.1604      2.00000
      8       3.7725      2.00000
      9       5.1541      2.00000
     10       5.2616      2.00000
     11       5.9646      0.00000
     12       6.1250      0.00000
     13       7.0747      0.00000
     14       7.6751      0.00000
     15       8.8538      0.00000
     16       9.1903      0.00000

 k-point  25 :      -0.2000    0.2000    0.4000
  band No.  band energies     occupation 
      1     -27.3304      2.00000
      2     -27.1829      2.00000
      3     -26.9870      2.00000
      4     -26.9280      2.00000
      5     -26.9200      2.00000
      6     -26.8792      2.00000
      7       1.8837      2.00000
      8       2.9774      2.00000
      9       5.2249      2.00000
     10       5.7642      1.98776
     11       6.1962      0.00000
     12       6.5808      0.00000
     13       6.9287      0.00000
     14       7.1912      0.00000
     15       8.3136      0.00000
     16       8.5525      0.00000

 k-point  26 :       0.4000    0.4000    0.4000
  band No.  band energies     occupation 
      1     -27.4061      2.00000
      2     -27.3733      2.00000
      3     -27.1476      2.00000
      4     -27.0849      2.00000
      5     -26.9761      2.00000
      6     -26.9427      2.00000
      7       3.8427      2.00000
      8       4.1108      2.00000
      9       5.0413      2.00000
     10       5.4342      2.00000
     11       5.5971      2.00000
     12       6.1059      0.00000
     13       7.4647      0.00000
     14       7.9256      0.00000
     15       8.9706      0.00000
     16       9.1926      0.00000

 k-point  27 :      -0.4000    0.4000    0.4000
  band No.  band energies     occupation 
      1     -27.4281      2.00000
      2     -27.3748      2.00000
      3     -27.0595      2.00000
      4     -26.9857      2.00000
      5     -26.9853      2.00000
      6     -26.9338      2.00000
      7       3.1549      2.00000
      8       3.5440      2.00000
      9       4.9067      2.00000
     10       5.2485      2.00000
     11       6.6611      0.00000
     12       7.0587      0.00000
     13       7.1468      0.00000
     14       7.9614      0.00000
     15       9.0549      0.00000
     16       9.1380      0.00000


--------------------------------------------------------------------------------------------------------


 soft charge-density along one line, spin component           1
         0         1         2         3         4         5         6         7         8         9
 total charge-density along one line
 
 pseudopotential strength for first ion, spin component:           1
-29.030  -0.000   0.000  12.969   0.000  -0.000   0.001  -0.000
 -0.000 -29.091  -0.000   0.000  13.014   0.000   0.000  -0.000
  0.000  -0.000 -29.030  -0.000   0.000  12.969   0.005   0.000
 12.969   0.000  -0.000  -0.844  -0.000   0.000  -0.000   0.000
  0.000  13.014   0.000  -0.000  -0.873  -0.000  -0.000   0.000
 -0.000   0.000  12.969   0.000  -0.000  -0.845  -0.003  -0.000
  0.001   0.000   0.005  -0.000  -0.000  -0.003  -2.884  -0.000
 -0.000  -0.000   0.000   0.000   0.000  -0.000  -0.000  -2.913
  0.000  -0.000  -0.000  -0.000   0.000   0.000  -0.000  -0.000
  0.000   0.001  -0.000  -0.000  -0.000   0.000  -0.000   0.000
  0.005   0.000   0.001  -0.003  -0.000  -0.000  -0.000   0.000
  0.000   0.000   0.001  -0.000  -0.000  -0.001   0.524  -0.000
 -0.000  -0.000   0.000   0.000   0.000  -0.000  -0.000   0.518
  0.000  -0.000  -0.000  -0.000   0.000   0.000  -0.000  -0.000
  0.000   0.000  -0.000  -0.000  -0.000   0.000  -0.000   0.000
  0.001   0.000   0.000  -0.001  -0.000  -0.000   0.000   0.000
  0.000   0.000  -0.000  -0.000  -0.000   0.000  -0.000   0.000
 -0.000  -0.000   0.000   0.000   0.000  -0.000   0.000  -0.000
 total augmentation occupancy for first ion, spin component:           1
  1.971  -0.000   0.003  -0.018  -0.000   0.012  -0.003  -0.001  -0.011   0.005  -0.010   0.001   0.000   0.004  -0.003   0.005
 -0.000   1.976   0.000  -0.000  -0.000   0.001   0.001  -0.010   0.001  -0.006  -0.006  -0.001   0.004  -0.000   0.002   0.002
  0.003   0.000   1.982   0.012   0.001   0.024  -0.021  -0.009  -0.006   0.003  -0.003   0.009   0.004   0.002  -0.000   0.001
 -0.018  -0.000   0.012   0.126  -0.001   0.034  -0.014  -0.005  -0.049   0.023  -0.039   0.004   0.002   0.017  -0.013   0.012
 -0.000  -0.000   0.001  -0.001   0.164   0.003   0.006  -0.047   0.004  -0.027  -0.027  -0.004   0.017  -0.002   0.010   0.010
  0.012   0.001   0.024   0.034   0.003   0.242  -0.088  -0.042  -0.027   0.011  -0.014   0.027   0.019   0.010  -0.001   0.004
 -0.003   0.001  -0.021  -0.014   0.006  -0.088   0.846   0.027   0.052  -0.014   0.151  -0.384  -0.013  -0.018   0.001  -0.065
 -0.001  -0.010  -0.009  -0.005  -0.047  -0.042   0.027   0.295   0.014   0.105  -0.001  -0.014  -0.142  -0.004  -0.058   0.001
 -0.011   0.001  -0.006  -0.049   0.004  -0.027   0.052   0.014   0.641   0.006   0.092  -0.020  -0.005  -0.284   0.001  -0.036
  0.005  -0.006   0.003   0.023  -0.027   0.011  -0.014   0.105   0.006   0.663  -0.022   0.001  -0.058   0.001  -0.346   0.015
 -0.010  -0.006  -0.003  -0.039  -0.027  -0.014   0.151  -0.001   0.092  -0.022   0.350  -0.065   0.001  -0.033   0.014  -0.162
  0.001  -0.001   0.009   0.004  -0.004   0.027  -0.384  -0.014  -0.020   0.001  -0.065   0.202   0.006   0.006   0.003   0.033
  0.000   0.004   0.004   0.002   0.017   0.019  -0.013  -0.142  -0.005  -0.058   0.001   0.006   0.079  -0.001   0.035  -0.000
  0.004  -0.000   0.002   0.017  -0.002   0.010  -0.018  -0.004  -0.284   0.001  -0.033   0.006  -0.001   0.146  -0.002   0.011
 -0.003   0.002  -0.000  -0.013   0.010  -0.001   0.001  -0.058   0.001  -0.346   0.014   0.003   0.035  -0.002   0.203  -0.009
  0.005   0.002   0.001   0.012   0.010   0.004  -0.065   0.001  -0.036   0.015  -0.162   0.033  -0.000   0.011  -0.009   0.088
 -0.001  -0.002  -0.000  -0.007  -0.009  -0.002  -0.150   0.010   0.043   0.017  -0.259   0.111   0.010  -0.023  -0.004   0.191
  0.000   0.000  -0.001  -0.001   0.000  -0.000   0.005   0.001   0.014   0.000   0.009  -0.004  -0.001  -0.006  -0.000  -0.006


------------------------ aborting loop because EDIFF is reached ----------------------------------------




--------------------------------------------------------------------------------------------------------


    CHARGE:  VPU time    0.04: CPU time    0.04
    FORLOC:  VPU time    0.00: CPU time    0.00
    FORNL :  VPU time    0.06: CPU time    0.06
    STRESS:  VPU time    0.26: CPU time    0.26
    FORCOR:  VPU time    0.05: CPU time    0.05
    FORHAR:  VPU time    0.01: CPU time    0.01
    MIXING:  VPU time    0.00: CPU time    0.00


--------------------------------------------------------------------------------------------------------



  FREE ENERGIE OF THE ION-ELECTRON SYSTEM (eV)
  ---------------------------------------------------
  free  energy   TOTEN  =       -15.790328 eV

  energy  without entropy=      -15.790140  energy(sigma->0) =      -15.790234
 

  FORCE on cell =-STRESS in cart. coord.  units (eV/reduce length):
  Direction    X        Y        Z        XY       YZ       ZX
  --------------------------------------------------------------------------------------
  Alpha Z    124.89    124.89    124.89
  Ewald     -541.39   -542.09   -519.29     -0.61     -0.00     -0.00
  Hartree    128.68    128.38    137.49     -0.26     -0.00     -0.00
  E(xc)      -94.17    -94.17    -94.15     -0.00     -0.00     -0.00
  Local      141.33    142.28    113.96      0.82     -0.00      0.00
  n-local    -52.03    -44.58    -47.45     -2.15      0.14      0.27
  augment    102.21    102.22    100.56      0.01     -0.00     -0.00
  Kinetic    189.19    184.06    183.55      1.53     -0.25      0.44
  -------------------------------------------------------------------------------------
  Total       -0.15     -0.15     -0.45      0.00     -0.00      0.00
  in kB       -6.83     -6.79    -20.68      0.04     -0.00      0.00
  external pressure =      -11.43 kB  Pullay stress =        0.00 kB


 VOLUME and BASIS-vectors are now :
 -----------------------------------------------------------------------------
  energy-cutoff  :      500.00
  volume of cell :       34.92
      direct lattice vectors                 reciprocal lattice vectors
     2.940222367  0.008255147  0.000000000     0.339563460  0.194777930  0.000000000
    -1.462961957  2.550434870  0.000000000    -0.001099086  0.391459547  0.000000000
     0.000000000  0.000000000  4.649774605     0.000000000  0.000000000  0.215064188

  length of vectors
     2.940233955  2.940233956  4.649774605     0.391461090  0.391461090  0.215064188


 FORCES acting on ions
    electron-ion (+dipol)            ewald-force                    non-local-force                 convergence-correction
 -----------------------------------------------------------------------------------------------
   0.151E+00 -.873E-01 -.203E-11   -.116E+00 0.672E-01 -.207E-13   -.347E-01 0.200E-01 -.867E-18   0.974E-06 -.562E-06 -.248E-13
   -.151E+00 0.873E-01 0.291E-11   0.116E+00 -.672E-01 0.207E-13   0.347E-01 -.200E-01 0.867E-18   -.974E-06 0.562E-06 -.109E-13
 -----------------------------------------------------------------------------------------------
   0.357E-12 0.180E-12 0.875E-12   -.222E-15 0.644E-14 0.000E+00   0.139E-16 0.278E-16 0.000E+00   0.255E-13 0.532E-14 -.358E-13
 
 
 POSITION                                       TOTAL-FORCE (eV/Angst)
 -----------------------------------------------------------------------------------
     -0.00009      1.70585      1.16244         0.000103     -0.000060      0.000000
      1.47735      0.85284      3.48733        -0.000103      0.000060     -0.000000
 -----------------------------------------------------------------------------------
    total drift:                                0.000000      0.000000      0.000000


--------------------------------------------------------------------------------------------------------



 mean value of Nose-termostat <S>:     1.000 mean value of <T> :     0.000
 mean temperature <T/S>/<1/S>  :     0.000

     LOOP+:  VPU time   11.32: CPU time   11.34
  
  
 General timing and accounting informations for this job:
 ========================================================
  
                  Total CPU time used (sec):       11.684
                            User time (sec):        8.662
                          System time (sec):        3.023
                         Elapsed time (sec):       11.706
  
                   Maximum memory used (kb):       74816.
                   Average memory used (kb):           0.
  
                          Minor page faults:        16117
                          Major page faults:            0
                 Voluntary context switches:          827
