  32  32   0   0
  0.1850611E+02  0.8397597E-09  0.8397597E-09  0.8397597E-09  0.5000000E-15
  1.000000000000000E-004
  CAR 
 unknown system                          
     11.23988039     -4.21423129  301      6.89064926      1.00000000
     -4.214  0.0000E+00  0.0000E+00
     -4.163  0.0000E+00  0.0000E+00
     -4.111  0.0000E+00  0.0000E+00
     -4.060  0.0000E+00  0.0000E+00
     -4.008  0.0000E+00  0.0000E+00
     -3.957  0.0000E+00  0.0000E+00
     -3.905  0.0000E+00  0.0000E+00
     -3.854  0.0000E+00  0.0000E+00
     -3.802  0.0000E+00  0.0000E+00
     -3.751  0.0000E+00  0.0000E+00
     -3.699  0.0000E+00  0.0000E+00
     -3.648  0.0000E+00  0.0000E+00
     -3.596  0.0000E+00  0.0000E+00
     -3.545  0.3192E-06  0.1645E-07
     -3.493  0.1790E+00  0.9222E-02
     -3.442  0.1031E+01  0.6231E-01
     -3.390  0.1707E+01  0.1503E+00
     -3.338  0.1094E+01  0.2066E+00
     -3.287  0.9733E+00  0.2567E+00
     -3.235  0.1022E+01  0.3094E+00
     -3.184  0.4245E+01  0.5280E+00
     -3.132  0.4309E+01  0.7500E+00
     -3.081  0.8361E-06  0.7500E+00
     -3.029  0.2136E+01  0.8601E+00
     -2.978  0.4982E+01  0.1117E+01
     -2.926  0.3366E+01  0.1290E+01
     -2.875  0.2780E+01  0.1433E+01
     -2.823  0.3034E+01  0.1590E+01
     -2.772  0.1364E+01  0.1660E+01
     -2.720  0.4272E+01  0.1880E+01
     -2.669  0.8622E+01  0.2324E+01
     -2.617  0.7791E-04  0.2324E+01
     -2.566  0.1064E+01  0.2379E+01
     -2.514  0.7824E+01  0.2782E+01
     -2.463  0.5065E+01  0.3043E+01
     -2.411  0.3577E+01  0.3227E+01
     -2.360  0.3313E+01  0.3398E+01
     -2.308  0.4057E+01  0.3607E+01
     -2.257  0.8535E+01  0.4046E+01
     -2.205  0.4310E+01  0.4269E+01
     -2.154  0.6523E-04  0.4269E+01
     -2.102  0.4264E+01  0.4488E+01
     -2.051  0.5014E+01  0.4746E+01
     -1.999  0.9505E+01  0.5236E+01
     -1.948  0.5969E+01  0.5544E+01
     -1.896  0.3648E+01  0.5731E+01
     -1.845  0.2514E+00  0.5744E+01
     -1.793  0.1270E+02  0.6399E+01
     -1.742  0.8614E+01  0.6843E+01
     -1.690  0.2708E-05  0.6843E+01
     -1.639  0.2146E+01  0.6953E+01
     -1.587  0.8254E+01  0.7378E+01
     -1.536  0.7302E+01  0.7755E+01
     -1.484  0.6006E+01  0.8064E+01
     -1.432  0.5418E+01  0.8343E+01
     -1.381  0.4504E+01  0.8575E+01
     -1.329  0.4186E+01  0.8791E+01
     -1.278  0.1287E+02  0.9454E+01
     -1.226  0.6988E-04  0.9454E+01
     -1.175  0.4307E+01  0.9676E+01
     -1.123  0.1700E+02  0.1055E+02
     -1.072  0.8125E+01  0.1097E+02
     -1.020  0.3792E+01  0.1117E+02
     -0.969  0.2932E+01  0.1132E+02
     -0.917  0.4418E+01  0.1154E+02
     -0.866  0.1143E+02  0.1213E+02
     -0.814  0.8390E+01  0.1256E+02
     -0.763  0.2539E-03  0.1256E+02
     -0.711  0.1438E+01  0.1264E+02
     -0.660  0.9683E+01  0.1314E+02
     -0.608  0.1482E+02  0.1390E+02
     -0.557  0.7954E+01  0.1431E+02
     -0.505  0.3848E+01  0.1451E+02
     -0.454  0.6140E+01  0.1483E+02
     -0.402  0.1049E+02  0.1537E+02
     -0.351  0.1501E+02  0.1614E+02
     -0.299  0.3037E-01  0.1614E+02
     -0.248  0.8599E+01  0.1658E+02
     -0.196  0.8625E+01  0.1703E+02
     -0.145  0.4308E+01  0.1725E+02
     -0.093  0.1272E+02  0.1791E+02
     -0.042  0.2239E+00  0.1792E+02
      0.010  0.9334E+01  0.1840E+02
      0.061  0.1106E+02  0.1897E+02
      0.113  0.9803E+01  0.1947E+02
      0.164  0.5862E-01  0.1948E+02
      0.216  0.1157E+01  0.1953E+02
      0.267  0.1713E+02  0.2042E+02
      0.319  0.1724E+02  0.2131E+02
      0.370  0.4311E+01  0.2153E+02
      0.422  0.8580E+01  0.2197E+02
      0.474  0.1665E+02  0.2283E+02
      0.525  0.7847E+01  0.2323E+02
      0.577  0.1433E+01  0.2331E+02
      0.628  0.2201E+01  0.2342E+02
      0.680  0.5288E+01  0.2369E+02
      0.731  0.8224E+01  0.2411E+02
      0.783  0.2100E+02  0.2520E+02
      0.834  0.1003E+02  0.2571E+02
      0.886  0.4313E+01  0.2594E+02
      0.937  0.1724E+02  0.2682E+02
      0.989  0.8562E+01  0.2726E+02
      1.040  0.8237E-01  0.2727E+02
      1.092  0.3646E+01  0.2746E+02
      1.143  0.1166E+02  0.2806E+02
      1.195  0.1093E+02  0.2862E+02
      1.246  0.6991E+01  0.2898E+02
      1.298  0.1130E+02  0.2956E+02
      1.349  0.8401E+01  0.3000E+02
      1.401  0.8568E+01  0.3044E+02
      1.452  0.2154E+02  0.3155E+02
      1.504  0.9839E-03  0.3155E+02
      1.555  0.4280E+01  0.3177E+02
      1.607  0.2510E+02  0.3306E+02
      1.658  0.1988E+02  0.3408E+02
      1.710  0.9555E+01  0.3458E+02
      1.761  0.1582E+01  0.3466E+02
      1.813  0.1637E+01  0.3474E+02
      1.864  0.8590E+01  0.3518E+02
      1.916  0.1566E+02  0.3599E+02
      1.967  0.7961E-02  0.3599E+02
      2.019  0.4310E+01  0.3621E+02
      2.070  0.8623E+01  0.3666E+02
      2.122  0.1939E+02  0.3766E+02
      2.173  0.1280E+02  0.3832E+02
      2.225  0.5306E+01  0.3859E+02
      2.276  0.2667E+02  0.3996E+02
      2.328  0.1047E+02  0.4050E+02
      2.380  0.1929E+01  0.4060E+02
      2.431  0.4746E+01  0.4085E+02
      2.483  0.1347E+02  0.4154E+02
      2.534  0.1243E+02  0.4218E+02
      2.586  0.1255E+02  0.4283E+02
      2.637  0.1376E+02  0.4354E+02
      2.689  0.4191E+01  0.4375E+02
      2.740  0.1686E+02  0.4462E+02
      2.792  0.1831E+02  0.4556E+02
      2.843  0.4333E+01  0.4579E+02
      2.895  0.8207E-03  0.4579E+02
      2.946  0.1503E+02  0.4656E+02
      2.998  0.1025E+02  0.4709E+02
      3.049  0.1243E+02  0.4773E+02
      3.101  0.1271E+02  0.4838E+02
      3.152  0.9587E+01  0.4888E+02
      3.204  0.1880E+02  0.4985E+02
      3.255  0.1177E+02  0.5045E+02
      3.307  0.2597E+00  0.5047E+02
      3.358  0.9443E+01  0.5095E+02
      3.410  0.1760E+02  0.5186E+02
      3.461  0.1371E+02  0.5257E+02
      3.513  0.1123E+02  0.5314E+02
      3.564  0.3501E+01  0.5333E+02
      3.616  0.2259E+02  0.5449E+02
      3.667  0.2164E+02  0.5560E+02
      3.719  0.4641E+01  0.5584E+02
      3.770  0.3749E+00  0.5586E+02
      3.822  0.1070E+02  0.5641E+02
      3.873  0.2138E+02  0.5751E+02
      3.925  0.1289E+02  0.5818E+02
      3.976  0.1376E+02  0.5889E+02
      4.028  0.7752E+01  0.5929E+02
      4.079  0.1737E+02  0.6018E+02
      4.131  0.2116E+02  0.6127E+02
      4.183  0.3063E+00  0.6129E+02
      4.234  0.1214E+02  0.6191E+02
      4.286  0.2185E+02  0.6304E+02
      4.337  0.1136E+02  0.6362E+02
      4.389  0.1088E+02  0.6418E+02
      4.440  0.1566E+02  0.6499E+02
      4.492  0.1834E+02  0.6593E+02
      4.543  0.3304E+01  0.6611E+02
      4.595  0.8386E+01  0.6654E+02
      4.646  0.1837E+01  0.6663E+02
      4.698  0.6621E+01  0.6697E+02
      4.749  0.2876E+02  0.6845E+02
      4.801  0.2748E+02  0.6987E+02
      4.852  0.1399E+01  0.6994E+02
      4.904  0.1043E+01  0.7000E+02
      4.955  0.3130E+02  0.7161E+02
      5.007  0.1513E+02  0.7239E+02
      5.058  0.1086E+00  0.7239E+02
      5.110  0.1306E+02  0.7307E+02
      5.161  0.1579E+02  0.7388E+02
      5.213  0.1385E+02  0.7459E+02
      5.264  0.1424E+02  0.7533E+02
      5.316  0.1479E+02  0.7609E+02
      5.367  0.6544E+01  0.7642E+02
      5.419  0.9269E+01  0.7690E+02
      5.470  0.8164E+01  0.7732E+02
      5.522  0.1975E+01  0.7742E+02
      5.573  0.1918E+02  0.7841E+02
      5.625  0.3009E+02  0.7996E+02
      5.676  0.6229E+01  0.8028E+02
      5.728  0.6869E+01  0.8064E+02
      5.779  0.1269E+02  0.8129E+02
      5.831  0.3133E+02  0.8290E+02
      5.882  0.8727E+01  0.8335E+02
      5.934  0.6319E+01  0.8368E+02
      5.985  0.1008E+02  0.8420E+02
      6.037  0.6327E+01  0.8453E+02
      6.089  0.8863E+01  0.8498E+02
      6.140  0.1961E+02  0.8599E+02
      6.192  0.9019E+01  0.8646E+02
      6.243  0.2279E+02  0.8763E+02
      6.295  0.2295E+02  0.8881E+02
      6.346  0.1277E+02  0.8947E+02
      6.398  0.8178E+01  0.8989E+02
      6.449  0.8558E+01  0.9033E+02
      6.501  0.1054E+02  0.9088E+02
      6.552  0.1581E+02  0.9169E+02
      6.604  0.3536E+01  0.9187E+02
      6.655  0.1439E+02  0.9261E+02
      6.707  0.2673E+02  0.9399E+02
      6.758  0.2238E+02  0.9514E+02
      6.810  0.8550E+01  0.9558E+02
      6.861  0.3487E+01  0.9576E+02
      6.913  0.3009E+02  0.9731E+02
      6.964  0.2674E+02  0.9869E+02
      7.016  0.1634E+01  0.9877E+02
      7.067  0.9970E+01  0.9929E+02
      7.119  0.1680E+02  0.1002E+03
      7.170  0.1645E+02  0.1010E+03
      7.222  0.1683E+02  0.1019E+03
      7.273  0.2025E+01  0.1020E+03
      7.325  0.7704E+01  0.1024E+03
      7.376  0.2501E+02  0.1037E+03
      7.428  0.1663E+02  0.1045E+03
      7.479  0.6284E+00  0.1045E+03
      7.531  0.8625E+01  0.1050E+03
      7.582  0.1297E+02  0.1057E+03
      7.634  0.1980E+02  0.1067E+03
      7.685  0.1358E+02  0.1074E+03
      7.737  0.2785E+02  0.1088E+03
      7.788  0.1944E+02  0.1098E+03
      7.840  0.1554E+02  0.1106E+03
      7.891  0.1114E+02  0.1112E+03
      7.943  0.1254E+02  0.1118E+03
      7.995  0.8448E+01  0.1123E+03
      8.046  0.1889E+02  0.1132E+03
      8.098  0.1687E+02  0.1141E+03
      8.149  0.1289E+02  0.1148E+03
      8.201  0.1492E+02  0.1155E+03
      8.252  0.3994E+02  0.1176E+03
      8.304  0.8708E+01  0.1181E+03
      8.355  0.8501E+01  0.1185E+03
      8.407  0.8688E+01  0.1189E+03
      8.458  0.1722E+02  0.1198E+03
      8.510  0.1290E+02  0.1205E+03
      8.561  0.8697E+01  0.1209E+03
      8.613  0.1503E+02  0.1217E+03
      8.664  0.2725E+02  0.1231E+03
      8.716  0.1438E+02  0.1239E+03
      8.767  0.8977E+01  0.1243E+03
      8.819  0.1823E+02  0.1253E+03
      8.870  0.1746E+02  0.1262E+03
      8.922  0.8893E+01  0.1266E+03
      8.973  0.8112E+01  0.1270E+03
      9.025  0.1649E+02  0.1279E+03
      9.076  0.3515E+02  0.1297E+03
      9.128  0.1048E+02  0.1302E+03
      9.179  0.2114E+02  0.1313E+03
      9.231  0.4380E+00  0.1313E+03
      9.282  0.1705E+02  0.1322E+03
      9.334  0.1471E+02  0.1330E+03
      9.385  0.1708E+02  0.1339E+03
      9.437  0.1288E+02  0.1345E+03
      9.488  0.8572E+01  0.1350E+03
      9.540  0.2795E+02  0.1364E+03
      9.591  0.7672E-01  0.1364E+03
      9.643  0.7543E+01  0.1368E+03
      9.694  0.3343E+02  0.1385E+03
      9.746  0.1621E+02  0.1394E+03
      9.797  0.2802E+02  0.1408E+03
      9.849  0.6025E+01  0.1411E+03
      9.901  0.4346E+01  0.1413E+03
      9.952  0.2146E+02  0.1424E+03
     10.004  0.5100E+00  0.1425E+03
     10.055  0.2204E+00  0.1425E+03
     10.107  0.3143E+01  0.1426E+03
     10.158  0.1411E+02  0.1434E+03
     10.210  0.6264E+01  0.1437E+03
     10.261  0.7042E+00  0.1437E+03
     10.313  0.0000E+00  0.1437E+03
     10.364  0.7465E-02  0.1437E+03
     10.416  0.4306E+01  0.1439E+03
     10.467  0.3629E-03  0.1439E+03
     10.519  0.8240E-02  0.1439E+03
     10.570  0.1070E+01  0.1440E+03
     10.622  0.0000E+00  0.1440E+03
     10.673  0.0000E+00  0.1440E+03
     10.725  0.0000E+00  0.1440E+03
     10.776  0.0000E+00  0.1440E+03
     10.828  0.0000E+00  0.1440E+03
     10.879  0.0000E+00  0.1440E+03
     10.931  0.0000E+00  0.1440E+03
     10.982  0.0000E+00  0.1440E+03
     11.034  0.0000E+00  0.1440E+03
     11.085  0.0000E+00  0.1440E+03
     11.137  0.0000E+00  0.1440E+03
     11.188  0.0000E+00  0.1440E+03
     11.240  0.0000E+00  0.1440E+03
