   32   32    1    1
  0.1850611E+02  0.8397597E-09  0.8397597E-09  0.8397597E-09  0.5000000E-15
  1.000000000000000E-004
  CAR 
 unknown system                          
   96   40   72
 
  0.0000000E+00  0.0000000E+00  0.0000000E+00  0.4629630E-02
   1       -3.5118
   2       -1.4298
   3       -1.4263
   4       -1.4263
   5       -1.4263
   6       -1.4263
   7       -1.4228
   8        0.6259
   9        0.6302
  10        0.6302
  11        0.6317
  12        0.6319
  13        0.6319
  14        0.6319
  15        0.6319
  16        0.6320
  17        0.6336
  18        0.6336
  19        0.6379
  20        2.6202
  21        2.6202
  22        2.6202
  23        2.6202
  24        2.7094
  25        2.7094
  26        2.7094
  27        2.7095
  28        4.2066
  29        4.2066
  30        4.2067
  31        5.2482
  32        5.2482
  33        5.2482
  34        6.1490
  35        6.1490
  36        6.1530
  37        6.1530
  38        6.1531
  39        6.1531
  40        6.1531
  41        6.1532
  42        6.1533
  43        6.1533
  44        6.1573
  45        6.1573
  46        7.2111
  47        7.2149
  48        7.2149
  49        7.2149
  50        7.2149
  51        7.2187
  52        7.3527
  53        7.3535
  54        7.3535
  55        7.3536
  56        7.3536
  57        7.3545
  58        8.0974
  59        8.0974
  60        8.0992
  61        8.1012
  62        8.1013
  63        8.1013
  64        8.1013
  65        8.1014
  66        8.1015
  67        8.1035
  68        8.1053
  69        8.1053
  70        9.2591
  71        9.2611
  72        9.2623
 
  0.1666667E+00  0.0000000E+00  0.0000000E+00  0.9259259E-02
   1       -3.4535
   2       -2.0606
   3       -1.3688
   4       -1.3688
   5       -1.3688
   6       -1.3688
   7       -0.6802
   8        0.0058
   9        0.0058
  10        0.0058
  11        0.0058
  12        0.6887
  13        0.6887
  14        0.6887
  15        0.6887
  16        1.3685
  17        1.3685
  18        1.3685
  19        1.3685
  20        2.0449
  21        2.0449
  22        2.0449
  23        2.0449
  24        3.3395
  25        3.3940
  26        3.3940
  27        3.3940
  28        3.3940
  29        4.2606
  30        4.2606
  31        5.3054
  32        5.3056
  33        5.3273
  34        5.3273
  35        5.3273
  36        5.3275
  37        5.5579
  38        5.5579
  39        6.2072
  40        6.2072
  41        6.2072
  42        6.2072
  43        6.2178
  44        6.6662
  45        6.6662
  46        6.8571
  47        6.8571
  48        7.2992
  49        7.2993
  50        7.2993
  51        7.2993
  52        7.3360
  53        7.3361
  54        7.3361
  55        7.3361
  56        7.5059
  57        7.5059
  58        7.5059
  59        7.5059
  60        8.0039
  61        8.0040
  62        8.2138
  63        8.2138
  64        8.2138
  65        8.2138
  66        8.6642
  67        8.6642
  68        8.6643
  69        8.6644
  70        8.8051
  71        8.8051
  72        8.8051
 
  0.3333333E+00  0.0000000E+00  0.0000000E+00  0.9259259E-02
   1       -3.2787
   2       -2.5815
   3       -1.1964
   4       -1.1963
   5       -1.1963
   6       -1.1963
   7       -0.5084
   8       -0.5083
   9       -0.5083
  10       -0.5083
  11        0.1758
  12        0.8588
  13        0.8589
  14        0.8589
  15        0.8589
  16        1.5379
  17        1.5379
  18        1.5379
  19        1.5379
  20        2.2010
  21        2.2135
  22        2.2135
  23        2.2135
  24        2.2136
  25        4.2108
  26        4.2108
  27        4.2109
  28        4.2109
  29        4.2280
  30        4.2281
  31        4.2281
  32        4.2281
  33        4.4227
  34        4.4227
  35        5.0712
  36        5.0712
  37        5.4775
  38        5.4775
  39        6.1601
  40        6.1602
  41        6.2000
  42        6.2000
  43        6.2001
  44        6.2002
  45        6.3695
  46        6.3695
  47        6.3695
  48        6.3695
  49        7.0188
  50        7.0188
  51        7.0188
  52        7.0188
  53        7.5055
  54        7.5055
  55        7.5055
  56        7.5055
  57        7.6632
  58        7.6699
  59        7.6699
  60        8.1705
  61        8.1705
  62        8.1705
  63        8.1705
  64        8.8121
  65        8.8121
  66        9.6168
  67        9.6170
  68        9.6194
  69        9.6206
  70        9.6228
  71        9.6243
  72        9.6252
 
  0.5000000E+00  0.0000000E+00  0.0000000E+00  0.4629630E-02
   1       -2.9892
   2       -2.9865
   3       -0.9131
   4       -0.9101
   5       -0.9101
   6       -0.9094
   7       -0.9093
   8       -0.9086
   9       -0.9086
  10       -0.9056
  11        1.1355
  12        1.1385
  13        1.1409
  14        1.1409
  15        1.1411
  16        1.1418
  17        1.1425
  18        1.1433
  19        1.1433
  20        1.1459
  21        3.1621
  22        3.1627
  23        3.1627
  24        3.1633
  25        3.1636
  26        3.1642
  27        3.1642
  28        3.1648
  29        4.6914
  30        4.6914
  31        4.6942
  32        4.6942
  33        5.1651
  34        5.1651
  35        5.1658
  36        5.1658
  37        5.1665
  38        5.1666
  39        5.1673
  40        5.1673
  41        5.7613
  42        5.7620
  43        5.7638
  44        5.7646
  45        6.6378
  46        6.6378
  47        6.6388
  48        6.6400
  49        6.6401
  50        6.6412
  51        6.6422
  52        6.6422
  53        7.7813
  54        7.7826
  55        7.7826
  56        7.7827
  57        7.7845
  58        7.7846
  59        7.7846
  60        7.7859
  61        8.5905
  62        8.5905
  63        8.5928
  64        8.5928
  65        9.2356
  66        9.2372
  67        9.6993
  68        9.6999
  69        9.7010
  70        9.7016
  71       10.5363
  72       10.5374
 
  0.0000000E+00  0.1666667E+00  0.0000000E+00  0.1851852E-01
   1       -3.4535
   2       -2.0606
   3       -1.3715
   4       -1.3688
   5       -1.3688
   6       -1.3661
   7       -0.6802
   8        0.0030
   9        0.0058
  10        0.0058
  11        0.0085
  12        0.6865
  13        0.6876
  14        0.6897
  15        0.6908
  16        1.3658
  17        1.3685
  18        1.3685
  19        1.3712
  20        2.0428
  21        2.0438
  22        2.0459
  23        2.0470
  24        3.3395
  25        3.3918
  26        3.3929
  27        3.3950
  28        3.3961
  29        4.2606
  30        4.2607
  31        5.3056
  32        5.3056
  33        5.3244
  34        5.3273
  35        5.3273
  36        5.3301
  37        5.5579
  38        5.5579
  39        6.2047
  40        6.2072
  41        6.2072
  42        6.2098
  43        6.2179
  44        6.6662
  45        6.6662
  46        6.8571
  47        6.8571
  48        7.2969
  49        7.2983
  50        7.3003
  51        7.3017
  52        7.3340
  53        7.3360
  54        7.3360
  55        7.3380
  56        7.5033
  57        7.5059
  58        7.5060
  59        7.5085
  60        8.0039
  61        8.0040
  62        8.2113
  63        8.2138
  64        8.2138
  65        8.2163
  66        8.6623
  67        8.6642
  68        8.6643
  69        8.6662
  70        8.8028
  71        8.8051
  72        8.8057
 
  0.1666667E+00  0.1666667E+00  0.0000000E+00  0.3703704E-01
   1       -3.3952
   2       -2.0039
   3       -2.0017
   4       -1.3113
   5       -1.3113
   6       -0.6247
   7       -0.6229
   8       -0.6211
   9        0.0612
  10        0.0621
  11        0.0634
  12        0.0643
  13        0.7447
  14        0.7458
  15        1.4226
  16        1.4238
  17        1.4249
  18        1.4249
  19        1.4261
  20        1.4273
  21        2.1018
  22        2.7353
  23        2.7354
  24        2.8180
  25        2.8180
  26        3.3945
  27        3.3955
  28        4.1180
  29        4.1180
  30        4.3147
  31        4.7207
  32        4.7230
  33        5.3628
  34        5.3741
  35        5.3742
  36        5.3906
  37        5.3907
  38        5.6107
  39        5.6132
  40        6.0392
  41        6.0404
  42        6.2732
  43        6.2742
  44        6.6969
  45        6.6979
  46        6.6993
  47        6.7001
  48        6.7248
  49        6.7266
  50        6.9087
  51        6.9109
  52        6.9131
  53        7.5974
  54        7.5987
  55        8.0059
  56        8.0070
  57        8.0070
  58        8.0080
  59        8.0615
  60        8.0636
  61        8.0651
  62        8.2087
  63        8.2103
  64        8.2109
  65        8.2117
  66        8.3181
  67        8.3181
  68        8.9147
  69        8.9168
  70        9.3661
  71        9.3663
  72        9.5091
 
  0.3333333E+00  0.1666667E+00  0.0000000E+00  0.3703704E-01
   1       -3.2205
   2       -2.5235
   3       -1.8297
   4       -1.1402
   5       -1.1389
   6       -1.1376
   7       -0.4526
   8       -0.4512
   9       -0.4499
  10        0.2312
  11        0.2335
  12        0.2336
  13        0.2352
  14        0.9154
  15        0.9154
  16        1.5932
  17        1.5944
  18        1.5948
  19        2.2571
  20        2.2683
  21        2.2690
  22        2.2708
  23        2.2716
  24        2.9430
  25        3.5612
  26        3.5992
  27        3.6156
  28        3.6156
  29        4.2252
  30        4.2664
  31        4.2664
  32        4.4767
  33        4.9307
  34        4.9490
  35        4.9491
  36        5.1252
  37        5.5347
  38        5.5473
  39        5.5473
  40        5.5946
  41        5.5946
  42        5.7742
  43        6.2058
  44        6.2058
  45        6.2162
  46        6.4233
  47        6.4411
  48        6.8621
  49        6.8939
  50        6.9128
  51        6.9128
  52        7.0735
  53        7.1072
  54        7.5640
  55        7.7183
  56        7.7218
  57        7.7251
  58        8.2165
  59        8.4266
  60        8.4266
  61        8.8039
  62        8.8198
  63        8.8198
  64        8.8670
  65        8.8775
  66        9.0223
  67        9.0351
  68        9.0820
  69        9.0820
  70        9.6772
  71        9.6796
  72        9.6836
 
  0.5000000E+00  0.1666667E+00  0.0000000E+00  0.1851852E-01
   1       -2.9311
   2       -2.9284
   3       -1.5429
   4       -1.5402
   5       -0.8539
   6       -0.8528
   7       -0.8512
   8       -0.8501
   9       -0.1670
  10       -0.1643
  11        0.5161
  12        0.5173
  13        0.5188
  14        0.5199
  15        1.1942
  16        1.1957
  17        1.8745
  18        1.8756
  19        1.8772
  20        1.8783
  21        2.5465
  22        2.5480
  23        3.2186
  24        3.2186
  25        3.2201
  26        3.2201
  27        3.8367
  28        3.8395
  29        3.8878
  30        3.8892
  31        4.5560
  32        4.5560
  33        4.5575
  34        4.5575
  35        4.7454
  36        4.7483
  37        5.8185
  38        5.8199
  39        5.8211
  40        5.8212
  41        5.8227
  42        5.8240
  43        5.8826
  44        5.8827
  45        5.8841
  46        5.8841
  47        6.0432
  48        6.0460
  49        6.7181
  50        6.7208
  51        7.1727
  52        7.1752
  53        7.3426
  54        7.3455
  55        7.7833
  56        7.7851
  57        8.4927
  58        8.4953
  59        8.6446
  60        8.6468
  61        8.6990
  62        8.6999
  63        8.7017
  64        8.7026
  65        9.2899
  66        9.2915
  67        9.7336
  68        9.7339
  69        9.7354
  70        9.7357
  71        9.7540
  72        9.7546
 
  0.0000000E+00  0.3333333E+00  0.0000000E+00  0.1851852E-01
   1       -3.2787
   2       -2.5815
   3       -1.1991
   4       -1.1963
   5       -1.1963
   6       -1.1936
   7       -0.5111
   8       -0.5083
   9       -0.5083
  10       -0.5056
  11        0.1758
  12        0.8567
  13        0.8578
  14        0.8599
  15        0.8610
  16        1.5357
  17        1.5368
  18        1.5389
  19        1.5400
  20        2.2011
  21        2.2107
  22        2.2135
  23        2.2135
  24        2.2162
  25        4.2081
  26        4.2109
  27        4.2109
  28        4.2137
  29        4.2259
  30        4.2270
  31        4.2291
  32        4.2302
  33        4.4227
  34        4.4227
  35        5.0712
  36        5.0712
  37        5.4775
  38        5.4775
  39        6.1601
  40        6.1602
  41        6.1979
  42        6.1990
  43        6.2011
  44        6.2024
  45        6.3670
  46        6.3695
  47        6.3695
  48        6.3721
  49        7.0162
  50        7.0188
  51        7.0188
  52        7.0214
  53        7.5035
  54        7.5055
  55        7.5055
  56        7.5074
  57        7.6628
  58        7.6699
  59        7.6704
  60        8.1686
  61        8.1705
  62        8.1705
  63        8.1725
  64        8.8121
  65        8.8121
  66        9.6160
  67        9.6170
  68        9.6190
  69        9.6197
  70        9.6227
  71        9.6243
  72        9.6259
 
  0.1666667E+00  0.3333333E+00  0.0000000E+00  0.3703704E-01
   1       -3.2205
   2       -2.5235
   3       -1.8297
   4       -1.1402
   5       -1.1389
   6       -1.1376
   7       -0.4526
   8       -0.4512
   9       -0.4499
  10        0.2313
  11        0.2331
  12        0.2336
  13        0.2354
  14        0.9154
  15        0.9154
  16        1.5925
  17        1.5944
  18        1.5955
  19        2.2571
  20        2.2692
  21        2.2694
  22        2.2703
  23        2.2706
  24        2.9429
  25        3.5612
  26        3.5992
  27        3.6156
  28        3.6156
  29        4.2251
  30        4.2664
  31        4.2665
  32        4.4767
  33        4.9308
  34        4.9491
  35        4.9491
  36        5.1252
  37        5.5345
  38        5.5473
  39        5.5475
  40        5.5946
  41        5.5946
  42        5.7742
  43        6.2057
  44        6.2058
  45        6.2164
  46        6.4233
  47        6.4411
  48        6.8621
  49        6.8939
  50        6.9128
  51        6.9128
  52        7.0735
  53        7.1072
  54        7.5640
  55        7.7183
  56        7.7225
  57        7.7244
  58        8.2165
  59        8.4266
  60        8.4266
  61        8.8040
  62        8.8198
  63        8.8198
  64        8.8671
  65        8.8774
  66        9.0223
  67        9.0351
  68        9.0820
  69        9.0821
  70        9.6766
  71        9.6796
  72        9.6989
 
  0.3333333E+00  0.3333333E+00  0.0000000E+00  0.3703704E-01
   1       -3.0460
   2       -2.3509
   3       -2.3487
   4       -1.6568
   5       -0.9667
   6       -0.9667
   7       -0.2813
   8       -0.2804
   9       -0.2791
  10       -0.2782
  11        0.4017
  12        0.4037
  13        0.4042
  14        0.4056
  15        1.0839
  16        1.0850
  17        2.4249
  18        2.4259
  19        2.4368
  20        2.4376
  21        2.4389
  22        2.4399
  23        3.0793
  24        3.0794
  25        3.0960
  26        3.0983
  27        3.1435
  28        3.1435
  29        3.7798
  30        4.4297
  31        4.4298
  32        4.4360
  33        4.4360
  34        4.6388
  35        5.0960
  36        5.0969
  37        5.0983
  38        5.0992
  39        5.2862
  40        5.2886
  41        5.7059
  42        5.7556
  43        5.7566
  44        5.7763
  45        5.7764
  46        5.9363
  47        6.3881
  48        6.3899
  49        7.0628
  50        7.7118
  51        7.7296
  52        7.7306
  53        7.7307
  54        7.7317
  55        7.8825
  56        7.8836
  57        7.8851
  58        7.8876
  59        8.5339
  60        8.5346
  61        8.5351
  62        8.5365
  63        9.0342
  64        9.0358
  65        9.6636
  66        9.6637
  67        9.6763
  68        9.6765
  69        9.7972
  70        9.7972
  71        9.8377
  72        9.8415
 
  0.5000000E+00  0.3333333E+00  0.0000000E+00  0.1851852E-01
   1       -2.7569
   2       -2.7542
   3       -2.0620
   4       -2.0593
   5       -0.6821
   6       -0.6809
   7       -0.6794
   8       -0.6782
   9        0.0037
  10        0.0048
  11        0.0064
  12        0.0075
  13        0.6862
  14        0.6888
  15        1.3638
  16        1.3653
  17        2.0406
  18        2.0421
  19        2.7043
  20        2.7070
  21        2.7167
  22        2.7178
  23        2.7194
  24        2.7205
  25        3.3862
  26        3.3862
  27        3.3876
  28        3.3877
  29        4.0559
  30        4.0559
  31        4.0573
  32        4.0574
  33        4.7082
  34        4.7094
  35        4.7109
  36        4.7121
  37        4.7196
  38        4.7210
  39        4.9075
  40        4.9104
  41        5.5563
  42        5.5591
  43        5.9885
  44        5.9911
  45        6.6688
  46        6.6713
  47        6.6873
  48        6.6889
  49        6.7054
  50        6.7054
  51        6.7069
  52        6.7069
  53        8.1554
  54        8.1554
  55        8.1581
  56        8.1583
  57        8.6493
  58        8.6494
  59        8.6509
  60        8.6510
  61        8.8069
  62        8.8091
  63        9.2945
  64        9.2972
  65        9.4521
  66        9.4537
  67        9.4556
  68        9.4578
  69        9.9153
  70        9.9160
  71       10.1064
  72       10.1085
 
  0.0000000E+00  0.5000000E+00  0.0000000E+00  0.9259259E-02
   1       -2.9878
   2       -2.9878
   3       -0.9143
   4       -0.9098
   5       -0.9093
   6       -0.9093
   7       -0.9093
   8       -0.9093
   9       -0.9089
  10       -0.9044
  11        1.1362
  12        1.1381
  13        1.1400
  14        1.1402
  15        1.1418
  16        1.1420
  17        1.1423
  18        1.1427
  19        1.1440
  20        1.1464
  21        3.1605
  22        3.1608
  23        3.1634
  24        3.1634
  25        3.1634
  26        3.1634
  27        3.1660
  28        3.1664
  29        4.6928
  30        4.6928
  31        4.6928
  32        4.6928
  33        5.1634
  34        5.1645
  35        5.1649
  36        5.1653
  37        5.1670
  38        5.1674
  39        5.1678
  40        5.1689
  41        5.7629
  42        5.7629
  43        5.7629
  44        5.7629
  45        6.6353
  46        6.6396
  47        6.6400
  48        6.6400
  49        6.6400
  50        6.6401
  51        6.6404
  52        6.6447
  53        7.7800
  54        7.7832
  55        7.7836
  56        7.7836
  57        7.7836
  58        7.7836
  59        7.7840
  60        7.7872
  61        8.5916
  62        8.5916
  63        8.5916
  64        8.5916
  65        9.2365
  66        9.2365
  67        9.7004
  68        9.7004
  69        9.7005
  70        9.7005
  71       10.5344
  72       10.5372
 
  0.1666667E+00  0.5000000E+00  0.0000000E+00  0.1851852E-01
   1       -2.9297
   2       -2.9297
   3       -1.5415
   4       -1.5415
   5       -0.8520
   6       -0.8520
   7       -0.8520
   8       -0.8520
   9       -0.1656
  10       -0.1656
  11        0.5180
  12        0.5180
  13        0.5180
  14        0.5180
  15        1.1949
  16        1.1949
  17        1.8764
  18        1.8764
  19        1.8764
  20        1.8764
  21        2.5472
  22        2.5472
  23        3.2193
  24        3.2193
  25        3.2193
  26        3.2193
  27        3.8381
  28        3.8381
  29        3.8885
  30        3.8885
  31        4.5567
  32        4.5568
  33        4.5568
  34        4.5568
  35        4.7468
  36        4.7468
  37        5.8183
  38        5.8197
  39        5.8219
  40        5.8219
  41        5.8220
  42        5.8234
  43        5.8833
  44        5.8833
  45        5.8834
  46        5.8834
  47        6.0446
  48        6.0446
  49        6.7194
  50        6.7194
  51        7.1739
  52        7.1740
  53        7.3441
  54        7.3441
  55        7.7842
  56        7.7842
  57        8.4940
  58        8.4940
  59        8.6457
  60        8.6457
  61        8.7008
  62        8.7008
  63        8.7008
  64        8.7008
  65        9.2907
  66        9.2907
  67        9.7343
  68        9.7346
  69        9.7346
  70        9.7347
  71        9.7543
  72        9.7546
 
  0.3333333E+00  0.5000000E+00  0.0000000E+00  0.1851852E-01
   1       -2.7556
   2       -2.7555
   3       -2.0607
   4       -2.0607
   5       -0.6802
   6       -0.6801
   7       -0.6801
   8       -0.6801
   9        0.0056
  10        0.0056
  11        0.0056
  12        0.0056
  13        0.6875
  14        0.6875
  15        1.3645
  16        1.3645
  17        2.0413
  18        2.0413
  19        2.7055
  20        2.7056
  21        2.7186
  22        2.7186
  23        2.7186
  24        2.7187
  25        3.3869
  26        3.3869
  27        3.3869
  28        3.3869
  29        4.0566
  30        4.0566
  31        4.0566
  32        4.0566
  33        4.7101
  34        4.7101
  35        4.7102
  36        4.7102
  37        4.7203
  38        4.7203
  39        4.9090
  40        4.9090
  41        5.5577
  42        5.5577
  43        5.9898
  44        5.9898
  45        6.6701
  46        6.6701
  47        6.6880
  48        6.6881
  49        6.7062
  50        6.7062
  51        6.7062
  52        6.7063
  53        8.1568
  54        8.1568
  55        8.1569
  56        8.1569
  57        8.6501
  58        8.6501
  59        8.6501
  60        8.6502
  61        8.8080
  62        8.8080
  63        9.2958
  64        9.2958
  65        9.4529
  66        9.4529
  67        9.4567
  68        9.4567
  69        9.9156
  70        9.9157
  71       10.1072
  72       10.1081
 
  0.5000000E+00  0.5000000E+00  0.0000000E+00  0.9259259E-02
   1       -2.4681
   2       -2.4659
   3       -2.4654
   4       -2.4632
   5       -0.3976
   6       -0.3955
   7       -0.3944
   8       -0.3942
   9       -0.3940
  10       -0.3937
  11       -0.3927
  12       -0.3906
  13        1.6429
  14        1.6450
  15        1.6466
  16        1.6468
  17        1.6469
  18        1.6472
  19        1.6487
  20        1.6508
  21        3.6456
  22        3.6459
  23        3.6467
  24        3.6477
  25        3.6477
  26        3.6485
  27        3.6494
  28        3.6495
  29        3.6821
  30        3.6833
  31        3.6840
  32        3.6845
  33        3.6846
  34        3.6850
  35        3.6859
  36        3.6873
  37        5.1766
  38        5.1790
  39        5.1794
  40        5.1819
  41        5.6533
  42        5.6544
  43        5.6548
  44        5.6559
  45        6.2740
  46        6.2758
  47        6.2765
  48        6.2783
  49        7.6292
  50        7.6302
  51        7.6303
  52        7.6308
  53        7.6313
  54        7.6318
  55        7.6319
  56        7.6329
  57        9.0729
  58        9.0768
  59        9.0781
  60        9.0783
  61        9.0784
  62        9.0786
  63        9.0799
  64        9.0838
  65        9.7169
  66        9.7178
  67        9.7187
  68        9.7193
  69        9.7196
  70        9.7202
  71        9.7211
  72        9.7220
 
  0.0000000E+00  0.1666667E+00  0.1666667E+00  0.1851852E-01
   1       -3.3952
   2       -2.0028
   3       -2.0028
   4       -1.3129
   5       -1.3097
   6       -0.6229
   7       -0.6229
   8       -0.6228
   9        0.0602
  10        0.0622
  11        0.0634
  12        0.0654
  13        0.7452
  14        0.7452
  15        1.4222
  16        1.4235
  17        1.4244
  18        1.4256
  19        1.4262
  20        1.4278
  21        2.1018
  22        2.7353
  23        2.7353
  24        2.8180
  25        2.8180
  26        3.3950
  27        3.3950
  28        4.1164
  29        4.1196
  30        4.3147
  31        4.7218
  32        4.7218
  33        5.3629
  34        5.3740
  35        5.3740
  36        5.3908
  37        5.3908
  38        5.6119
  39        5.6120
  40        6.0398
  41        6.0398
  42        6.2737
  43        6.2737
  44        6.6959
  45        6.6979
  46        6.6993
  47        6.7012
  48        6.7256
  49        6.7257
  50        6.9104
  51        6.9112
  52        6.9113
  53        7.5981
  54        7.5981
  55        8.0049
  56        8.0057
  57        8.0083
  58        8.0091
  59        8.0619
  60        8.0641
  61        8.0641
  62        8.2091
  63        8.2099
  64        8.2109
  65        8.2117
  66        8.3181
  67        8.3181
  68        8.9158
  69        8.9158
  70        9.3662
  71        9.3662
  72        9.5094
 
  0.1666667E+00  0.1666667E+00  0.1666667E+00  0.3703704E-01
   1       -3.3370
   2       -1.9467
   3       -1.9451
   4       -1.9435
   5       -0.5690
   6       -0.5660
   7       -0.5659
   8       -0.5653
   9       -0.5653
  10       -0.5623
  11        0.7987
  12        0.8009
  13        0.8015
  14        0.8020
  15        0.8024
  16        0.8030
  17        0.8052
  18        2.1553
  19        2.1568
  20        2.1572
  21        2.1580
  22        2.1587
  23        2.1604
  24        3.4497
  25        3.4504
  26        3.4511
  27        3.5044
  28        3.5052
  29        3.5059
  30        4.7743
  31        4.7757
  32        4.7770
  33        4.7770
  34        4.7782
  35        4.7796
  36        4.8395
  37        6.0931
  38        6.0934
  39        6.0951
  40        6.0954
  41        6.0957
  42        6.0960
  43        6.0963
  44        6.0978
  45        6.0988
  46        6.3288
  47        6.3296
  48        6.3303
  49        7.4062
  50        7.4069
  51        7.4080
  52        7.4080
  53        7.4091
  54        7.4098
  55        7.6585
  56        7.6588
  57        7.6600
  58        7.6600
  59        7.6611
  60        7.6614
  61        8.7117
  62        8.7125
  63        8.7132
  64        8.9681
  65        8.9697
  66        8.9707
  67        8.9708
  68        8.9713
  69        8.9730
  70        8.9745
  71        8.9754
  72        8.9758
 
  0.3333333E+00  0.1666667E+00  0.1666667E+00  0.3703704E-01
   1       -3.1623
   2       -2.4656
   3       -1.7720
   4       -1.7720
   5       -1.0815
   6       -1.0815
   7       -0.3941
   8       -0.3941
   9       -0.3940
  10        0.2879
  11        0.2904
  12        0.2904
  13        0.2921
  14        0.9720
  15        0.9720
  16        1.6486
  17        1.6493
  18        1.6512
  19        1.6520
  20        2.3133
  21        2.3268
  22        2.9649
  23        2.9989
  24        2.9989
  25        3.0351
  26        3.6166
  27        3.6166
  28        3.6549
  29        3.6550
  30        4.2804
  31        4.2804
  32        4.3387
  33        4.3388
  34        4.9418
  35        4.9419
  36        4.9866
  37        4.9866
  38        4.9873
  39        5.6025
  40        5.6025
  41        5.6673
  42        6.2599
  43        6.2599
  44        6.3095
  45        6.3095
  46        6.4968
  47        6.4968
  48        6.9113
  49        6.9117
  50        6.9169
  51        6.9172
  52        7.1672
  53        7.1672
  54        7.6229
  55        7.7732
  56        7.8262
  57        7.8262
  58        8.2229
  59        8.2229
  60        8.4847
  61        8.4847
  62        8.8582
  63        8.8582
  64        9.0542
  65        9.0542
  66        9.1627
  67        9.1627
  68        9.5227
  69        9.5227
  70        9.7678
  71        9.7705
  72        9.7800
 
  0.5000000E+00  0.1666667E+00  0.1666667E+00  0.1851852E-01
   1       -2.8730
   2       -2.8703
   3       -1.4862
   4       -1.4844
   5       -1.4836
   6       -1.4817
   7       -0.1111
   8       -0.1095
   9       -0.1090
  10       -0.1082
  11       -0.1075
  12       -0.1060
  13        1.2497
  14        1.2517
  15        1.2539
  16        1.2545
  17        1.2563
  18        1.2574
  19        2.6021
  20        2.6029
  21        2.6037
  22        2.6041
  23        2.6061
  24        2.6087
  25        3.8919
  26        3.8922
  27        3.8947
  28        3.8949
  29        3.9432
  30        3.9438
  31        3.9446
  32        3.9449
  33        3.9452
  34        3.9463
  35        5.2153
  36        5.2171
  37        5.2181
  38        5.2199
  39        5.2751
  40        5.2759
  41        5.2766
  42        5.2774
  43        6.5321
  44        6.5327
  45        6.5349
  46        6.5355
  47        6.5970
  48        6.5985
  49        6.7732
  50        6.7737
  51        6.7758
  52        6.7763
  53        7.8379
  54        7.8384
  55        7.8396
  56        7.8401
  57        8.0997
  58        8.1002
  59        8.1023
  60        8.1029
  61        9.1390
  62        9.1399
  63        9.1408
  64        9.1417
  65        9.3439
  66        9.3454
  67        9.3986
  68        9.4005
  69        9.4013
  70        9.4032
  71       10.3828
  72       10.3883
 
  0.0000000E+00  0.3333333E+00  0.1666667E+00  0.3703704E-01
   1       -3.2205
   2       -2.5235
   3       -1.8297
   4       -1.1410
   5       -1.1389
   6       -1.1368
   7       -0.4533
   8       -0.4512
   9       -0.4491
  10        0.2312
  11        0.2331
  12        0.2335
  13        0.2357
  14        0.9138
  15        0.9170
  16        1.5926
  17        1.5937
  18        1.5961
  19        2.2571
  20        2.2679
  21        2.2687
  22        2.2711
  23        2.2719
  24        2.9429
  25        3.5612
  26        3.5992
  27        3.6140
  28        3.6172
  29        4.2252
  30        4.2648
  31        4.2680
  32        4.4767
  33        4.9307
  34        4.9474
  35        4.9507
  36        5.1252
  37        5.5346
  38        5.5457
  39        5.5490
  40        5.5929
  41        5.5962
  42        5.7742
  43        6.2041
  44        6.2075
  45        6.2162
  46        6.4233
  47        6.4411
  48        6.8621
  49        6.8939
  50        6.9111
  51        6.9145
  52        7.0735
  53        7.1073
  54        7.5640
  55        7.7178
  56        7.7229
  57        7.7245
  58        8.2165
  59        8.4251