  32  32   0   0
  0.2352439E+02  0.9096817E-09  0.9096817E-09  0.9096817E-09  0.5000000E-15
  1.000000000000000E-004
  CAR 
 unknown system                          
     10.24205604     -5.35172421  301      2.29084973      1.00000000
     -5.352  0.0000E+00  0.0000E+00
     -5.300  0.0000E+00  0.0000E+00
     -5.248  0.0000E+00  0.0000E+00
     -5.196  0.0000E+00  0.0000E+00
     -5.144  0.0000E+00  0.0000E+00
     -5.092  0.0000E+00  0.0000E+00
     -5.040  0.0000E+00  0.0000E+00
     -4.988  0.0000E+00  0.0000E+00
     -4.936  0.0000E+00  0.0000E+00
     -4.884  0.0000E+00  0.0000E+00
     -4.832  0.0000E+00  0.0000E+00
     -4.780  0.0000E+00  0.0000E+00
     -4.728  0.0000E+00  0.0000E+00
     -4.676  0.3227E-07  0.1677E-08
     -4.624  0.1282E+00  0.6663E-02
     -4.572  0.7137E+00  0.4376E-01
     -4.520  0.1127E+01  0.1024E+00
     -4.468  0.1793E+01  0.1955E+00
     -4.416  0.1809E+01  0.2896E+00
     -4.364  0.1959E+01  0.3914E+00
     -4.312  0.2472E+01  0.5199E+00
     -4.260  0.1598E+01  0.6030E+00
     -4.208  0.3155E+01  0.7670E+00
     -4.156  0.2239E+01  0.8833E+00
     -4.104  0.3443E+01  0.1062E+01
     -4.052  0.2487E+01  0.1192E+01
     -4.000  0.4155E+01  0.1408E+01
     -3.948  0.3208E+01  0.1574E+01
     -3.896  0.3478E+01  0.1755E+01
     -3.844  0.4780E+01  0.2004E+01
     -3.792  0.3249E+01  0.2172E+01
     -3.740  0.4577E+01  0.2410E+01
     -3.688  0.4053E+01  0.2621E+01
     -3.636  0.5347E+01  0.2899E+01
     -3.584  0.3900E+01  0.3102E+01
     -3.532  0.5772E+01  0.3402E+01
     -3.480  0.4323E+01  0.3626E+01
     -3.428  0.5215E+01  0.3897E+01
     -3.377  0.6334E+01  0.4227E+01
     -3.325  0.6150E+01  0.4546E+01
     -3.273  0.4709E+01  0.4791E+01
     -3.221  0.8087E+01  0.5212E+01
     -3.169  0.6684E+01  0.5559E+01
     -3.117  0.6516E+01  0.5898E+01
     -3.065  0.6943E+01  0.6259E+01
     -3.013  0.9402E+01  0.6747E+01
     -2.961  0.6339E+01  0.7077E+01
     -2.909  0.1039E+02  0.7617E+01
     -2.857  0.1105E+02  0.8191E+01
     -2.805  0.9501E+01  0.8685E+01
     -2.753  0.1228E+02  0.9323E+01
     -2.701  0.1625E+02  0.1017E+02
     -2.649  0.1464E+02  0.1093E+02
     -2.597  0.3048E+02  0.1251E+02
     -2.545  0.2893E+02  0.1402E+02
     -2.493  0.3207E+02  0.1568E+02
     -2.441  0.2866E+02  0.1717E+02
     -2.389  0.3088E+02  0.1878E+02
     -2.337  0.4219E+02  0.2097E+02
     -2.285  0.5420E+02  0.2379E+02
     -2.233  0.6144E+02  0.2698E+02
     -2.181  0.7398E+02  0.3083E+02
     -2.129  0.8828E+02  0.3542E+02
     -2.077  0.9473E+02  0.4034E+02
     -2.025  0.1012E+03  0.4560E+02
     -1.973  0.8879E+02  0.5022E+02
     -1.921  0.9200E+02  0.5500E+02
     -1.869  0.8963E+02  0.5966E+02
     -1.817  0.7550E+02  0.6358E+02
     -1.765  0.8771E+02  0.6814E+02
     -1.713  0.6947E+02  0.7175E+02
     -1.661  0.7736E+02  0.7577E+02
     -1.609  0.6508E+02  0.7916E+02
     -1.557  0.5557E+02  0.8204E+02
     -1.505  0.7351E+02  0.8587E+02
     -1.453  0.8420E+02  0.9024E+02
     -1.401  0.1000E+03  0.9544E+02
     -1.349  0.1104E+03  0.1012E+03
     -1.297  0.1226E+03  0.1076E+03
     -1.245  0.1249E+03  0.1140E+03
     -1.193  0.1089E+03  0.1197E+03
     -1.141  0.1053E+03  0.1252E+03
     -1.089  0.1157E+03  0.1312E+03
     -1.037  0.1168E+03  0.1373E+03
     -0.985  0.1256E+03  0.1438E+03
     -0.933  0.1503E+03  0.1516E+03
     -0.882  0.1798E+03  0.1609E+03
     -0.830  0.1903E+03  0.1708E+03
     -0.778  0.1464E+03  0.1784E+03
     -0.726  0.1200E+03  0.1847E+03
     -0.674  0.9558E+02  0.1897E+03
     -0.622  0.9172E+02  0.1944E+03
     -0.570  0.9732E+02  0.1995E+03
     -0.518  0.9443E+02  0.2044E+03
     -0.466  0.9151E+02  0.2091E+03
     -0.414  0.1134E+03  0.2150E+03
     -0.362  0.1173E+03  0.2211E+03
     -0.310  0.1187E+03  0.2273E+03
     -0.258  0.1157E+03  0.2333E+03
     -0.206  0.1411E+03  0.2407E+03
     -0.154  0.1178E+03  0.2468E+03
     -0.102  0.1098E+03  0.2525E+03
     -0.050  0.1043E+03  0.2579E+03
      0.002  0.9812E+02  0.2630E+03
      0.054  0.9839E+02  0.2681E+03
      0.106  0.1000E+03  0.2733E+03
      0.158  0.9152E+02  0.2781E+03
      0.210  0.1088E+03  0.2837E+03
      0.262  0.1027E+03  0.2891E+03
      0.314  0.1215E+03  0.2954E+03
      0.366  0.1271E+03  0.3020E+03
      0.418  0.1862E+03  0.3117E+03
      0.470  0.1795E+03  0.3210E+03
      0.522  0.1052E+03  0.3265E+03
      0.574  0.7510E+02  0.3304E+03
      0.626  0.7401E+02  0.3342E+03
      0.678  0.1168E+02  0.3348E+03
      0.730  0.7174E+01  0.3352E+03
      0.782  0.1894E+02  0.3362E+03
      0.834  0.7147E+01  0.3366E+03
      0.886  0.9735E+01  0.3371E+03
      0.938  0.1681E+02  0.3379E+03
      0.990  0.9771E+01  0.3384E+03
      1.042  0.6853E+01  0.3388E+03
      1.094  0.9648E+01  0.3393E+03
      1.146  0.1658E+02  0.3402E+03
      1.198  0.9932E+01  0.3407E+03
      1.250  0.6515E+01  0.3410E+03
      1.302  0.7711E+01  0.3414E+03
      1.354  0.1766E+02  0.3423E+03
      1.406  0.9653E+01  0.3428E+03
      1.458  0.1111E+02  0.3434E+03
      1.510  0.6147E+01  0.3437E+03
      1.562  0.1260E+02  0.3444E+03
      1.613  0.1180E+02  0.3450E+03
      1.665  0.1130E+02  0.3456E+03
      1.717  0.8389E+01  0.3460E+03
      1.769  0.9213E+01  0.3465E+03
      1.821  0.1216E+02  0.3471E+03
      1.873  0.1033E+02  0.3477E+03
      1.925  0.1236E+02  0.3483E+03
      1.977  0.9597E+01  0.3488E+03
      2.029  0.6756E+01  0.3492E+03
      2.081  0.1328E+02  0.3499E+03
      2.133  0.1289E+02  0.3505E+03
      2.185  0.8514E+01  0.3510E+03
      2.237  0.9238E+01  0.3514E+03
      2.289  0.1020E+02  0.3520E+03
      2.341  0.1132E+02  0.3526E+03
      2.393  0.1377E+02  0.3533E+03
      2.445  0.9383E+01  0.3538E+03
      2.497  0.8841E+01  0.3542E+03
      2.549  0.1302E+02  0.3549E+03
      2.601  0.8750E+01  0.3554E+03
      2.653  0.1399E+02  0.3561E+03
      2.705  0.1034E+02  0.3566E+03
      2.757  0.1000E+02  0.3571E+03
      2.809  0.1142E+02  0.3577E+03
      2.861  0.1232E+02  0.3584E+03
      2.913  0.1077E+02  0.3589E+03
      2.965  0.1112E+02  0.3595E+03
      3.017  0.1250E+02  0.3602E+03
      3.069  0.1032E+02  0.3607E+03
      3.121  0.1301E+02  0.3614E+03
      3.173  0.8871E+01  0.3618E+03
      3.225  0.8661E+01  0.3623E+03
      3.277  0.1582E+02  0.3631E+03
      3.329  0.9559E+01  0.3636E+03
      3.381  0.1085E+02  0.3642E+03
      3.433  0.1078E+02  0.3647E+03
      3.485  0.8888E+01  0.3652E+03
      3.537  0.1255E+02  0.3659E+03
      3.589  0.1543E+02  0.3667E+03
      3.641  0.9437E+01  0.3671E+03
      3.693  0.1027E+02  0.3677E+03
      3.745  0.9628E+01  0.3682E+03
      3.797  0.1375E+02  0.3689E+03
      3.849  0.1027E+02  0.3694E+03
      3.901  0.1033E+02  0.3700E+03
      3.953  0.1419E+02  0.3707E+03
      4.005  0.1495E+02  0.3715E+03
      4.057  0.1225E+02  0.3721E+03
      4.109  0.1926E+02  0.3731E+03
      4.160  0.1688E+02  0.3740E+03
      4.212  0.1579E+02  0.3748E+03
      4.264  0.1438E+02  0.3756E+03
      4.316  0.1112E+02  0.3761E+03
      4.368  0.1616E+02  0.3770E+03
      4.420  0.1671E+02  0.3778E+03
      4.472  0.1378E+02  0.3786E+03
      4.524  0.1182E+02  0.3792E+03
      4.576  0.1250E+02  0.3798E+03
      4.628  0.1202E+02  0.3805E+03
      4.680  0.1321E+02  0.3811E+03
      4.732  0.1069E+02  0.3817E+03
      4.784  0.1626E+02  0.3825E+03
      4.836  0.8010E+01  0.3830E+03
      4.888  0.1240E+02  0.3836E+03
      4.940  0.1086E+02  0.3842E+03
      4.992  0.9851E+01  0.3847E+03
      5.044  0.1037E+02  0.3852E+03
      5.096  0.1254E+02  0.3859E+03
      5.148  0.1171E+02  0.3865E+03
      5.200  0.9779E+01  0.3870E+03
      5.252  0.1078E+02  0.3875E+03
      5.304  0.7478E+01  0.3879E+03
      5.356  0.8327E+01  0.3884E+03
      5.408  0.8742E+01  0.3888E+03
      5.460  0.8284E+01  0.3893E+03
      5.512  0.1136E+02  0.3898E+03
      5.564  0.8534E+01  0.3903E+03
      5.616  0.6174E+01  0.3906E+03
      5.668  0.8342E+01  0.3910E+03
      5.720  0.6525E+01  0.3914E+03
      5.772  0.1045E+02  0.3919E+03
      5.824  0.9687E+01  0.3924E+03
      5.876  0.6343E+01  0.3928E+03
      5.928  0.1018E+02  0.3933E+03
      5.980  0.7504E+01  0.3937E+03
      6.032  0.8832E+01  0.3941E+03
      6.084  0.1278E+02  0.3948E+03
      6.136  0.1563E+02  0.3956E+03
      6.188  0.2103E+02  0.3967E+03
      6.240  0.7051E+01  0.3971E+03
      6.292  0.1321E+02  0.3978E+03
      6.344  0.1484E+02  0.3985E+03
      6.396  0.1095E+02  0.3991E+03
      6.448  0.1651E+02  0.4000E+03
      6.500  0.1215E+02  0.4006E+03
      6.552  0.9344E+01  0.4011E+03
      6.604  0.1410E+02  0.4018E+03
      6.655  0.1181E+02  0.4024E+03
      6.707  0.1890E+02  0.4034E+03
      6.759  0.2355E+02  0.4046E+03
      6.811  0.1284E+02  0.4053E+03
      6.863  0.1188E+02  0.4059E+03
      6.915  0.1012E+02  0.4064E+03
      6.967  0.1618E+02  0.4073E+03
      7.019  0.1214E+02  0.4079E+03
      7.071  0.1394E+02  0.4086E+03
      7.123  0.1027E+02  0.4092E+03
      7.175  0.9307E+01  0.4097E+03
      7.227  0.1178E+02  0.4103E+03
      7.279  0.1289E+02  0.4109E+03
      7.331  0.1803E+02  0.4119E+03
      7.383  0.1815E+02  0.4128E+03
      7.435  0.1309E+02  0.4135E+03
      7.487  0.1078E+02  0.4141E+03
      7.539  0.1221E+02  0.4147E+03
      7.591  0.7875E+01  0.4151E+03
      7.643  0.8145E+01  0.4155E+03
      7.695  0.1203E+02  0.4162E+03
      7.747  0.1202E+02  0.4168E+03
      7.799  0.8972E+01  0.4172E+03
      7.851  0.8841E+01  0.4177E+03
      7.903  0.1492E+02  0.4185E+03
      7.955  0.1262E+02  0.4191E+03
      8.007  0.1139E+02  0.4197E+03
      8.059  0.7524E+01  0.4201E+03
      8.111  0.1399E+02  0.4208E+03
      8.163  0.1627E+02  0.4217E+03
      8.215  0.1125E+02  0.4223E+03
      8.267  0.1087E+02  0.4228E+03
      8.319  0.9138E+01  0.4233E+03
      8.371  0.1548E+02  0.4241E+03
      8.423  0.1790E+02  0.4250E+03
      8.475  0.1090E+02  0.4256E+03
      8.527  0.9249E+01  0.4261E+03
      8.579  0.1356E+02  0.4268E+03
      8.631  0.8877E+01  0.4273E+03
      8.683  0.1321E+02  0.4279E+03
      8.735  0.8831E+01  0.4284E+03
      8.787  0.7048E+01  0.4288E+03
      8.839  0.9477E+01  0.4293E+03
      8.891  0.1516E+02  0.4301E+03
      8.943  0.1019E+02  0.4306E+03
      8.995  0.5664E+01  0.4309E+03
      9.047  0.3880E+01  0.4311E+03
      9.099  0.1506E+01  0.4312E+03
      9.150  0.5674E+01  0.4315E+03
      9.202  0.2214E+01  0.4316E+03
      9.254  0.1222E+01  0.4316E+03
      9.306  0.8954E+00  0.4317E+03
      9.358  0.1067E+01  0.4317E+03
      9.410  0.1572E+01  0.4318E+03
      9.462  0.2364E+01  0.4319E+03
      9.514  0.6357E+00  0.4320E+03
      9.566  0.5317E+00  0.4320E+03
      9.618  0.0000E+00  0.4320E+03
      9.670  0.0000E+00  0.4320E+03
      9.722  0.0000E+00  0.4320E+03
      9.774  0.0000E+00  0.4320E+03
      9.826  0.0000E+00  0.4320E+03
      9.878  0.0000E+00  0.4320E+03
      9.930  0.0000E+00  0.4320E+03
      9.982  0.0000E+00  0.4320E+03
     10.034  0.0000E+00  0.4320E+03
     10.086  0.0000E+00  0.4320E+03
     10.138  0.0000E+00  0.4320E+03
     10.190  0.0000E+00  0.4320E+03
     10.242  0.0000E+00  0.4320E+03
