   32   32    1    1
  0.2352439E+02  0.9096817E-09  0.9096817E-09  0.9096817E-09  0.5000000E-15
  1.000000000000000E-004
  CAR 
 unknown system                          
  352  196  216
 
  0.0000000E+00  0.0000000E+00  0.0000000E+00  0.5787037E-03
   1       -4.6429
   2       -2.7701
   3       -2.7676
   4       -2.7675
   5       -2.7675
   6       -2.7675
   7       -2.7650
   8       -2.6513
   9       -2.6513
  10       -2.6513
  11       -2.6513
  12       -2.4128
  13       -2.4128
  14       -2.4128
  15       -2.2502
  16       -2.2502
  17       -2.2502
  18       -1.8411
  19       -1.8401
  20       -1.8401
  21       -1.8389
  22       -1.8387
  23       -1.8387
  24       -1.8387
  25       -1.8387
  26       -1.8385
  27       -1.8373
  28       -1.8373
  29       -1.8363
  30       -1.7139
  31       -1.7126
  32       -1.7126
  33       -1.7126
  34       -1.7126
  35       -1.7112
  36       -1.6967
  37       -1.6954
  38       -1.6954
  39       -1.6954
  40       -1.6954
  41       -1.6941
  42       -1.3181
  43       -1.3165
  44       -1.3165
  45       -1.3157
  46       -1.3157
  47       -1.3157
  48       -1.3157
  49       -1.3157
  50       -1.3156
  51       -1.3149
  52       -1.3149
  53       -1.3134
  54       -1.2684
  55       -1.2684
  56       -1.2668
  57       -1.2668
  58       -1.2668
  59       -1.2668
  60       -1.2668
  61       -1.2668
  62       -1.2668
  63       -1.2667
  64       -1.2652
  65       -1.2652
  66       -1.0826
  67       -1.0825
  68       -1.0825
  69       -1.0825
  70       -1.0825
  71       -1.0825
  72       -1.0825
  73       -1.0825
  74       -1.0736
  75       -1.0736
  76       -1.0736
  77       -1.0663
  78       -1.0642
  79       -1.0640
  80       -1.0640
  81       -1.0638
  82       -1.0638
  83       -1.0638
  84       -1.0638
  85       -1.0637
  86       -1.0637
  87       -1.0635
  88       -1.0613
  89       -0.5864
  90       -0.5851
  91       -0.5851
  92       -0.5851
  93       -0.5851
  94       -0.5838
  95       -0.5237
  96       -0.5232
  97       -0.5225
  98       -0.5225
  99       -0.5222
 100       -0.5222
 101       -0.5222
 102       -0.5222
 103       -0.5218
 104       -0.5218
 105       -0.5210
 106       -0.5206
 107       -0.3521
 108       -0.3521
 109       -0.3506
 110       -0.3506
 111       -0.3504
 112       -0.3504
 113       -0.3504
 114       -0.3504
 115       -0.3503
 116       -0.3503
 117       -0.3488
 118       -0.3488
 119       -0.2533
 120       -0.2523
 121       -0.2523
 122       -0.2523
 123       -0.2523
 124       -0.2512
 125       -0.2261
 126       -0.2260
 127       -0.2074
 128       -0.2074
 129       -0.2058
 130       -0.2056
 131       -0.2055
 132       -0.2055
 133       -0.2055
 134       -0.2055
 135       -0.2054
 136       -0.2052
 137       -0.2036
 138       -0.2036
 139        0.0869
 140        0.0877
 141        0.0877
 142        0.0877
 143        0.0877
 144        0.0885
 145        0.4195
 146        0.4195
 147        0.4195
 148        0.4499
 149        0.4500
 150        0.4500
 151        0.4500
 152        0.4500
 153        0.4500
 154        0.4500
 155        0.4500
 156        0.6272
 157        0.6274
 158        0.6274
 159        0.6274
 160        0.6274
 161        0.6274
 162        0.6282
 163        0.6282
 164        0.6282
 165        0.6282
 166        0.6282
 167        0.6284
 168        1.7613
 169        1.7625
 170        1.7625
 171        1.7630
 172        1.7633
 173        1.7633
 174        1.7633
 175        1.7633
 176        1.7637
 177        1.7642
 178        1.7642
 179        1.7653
 180        2.6380
 181        2.6380
 182        2.6380
 183        2.6380
 184        3.9655
 185        3.9655
 186        3.9655
 187        3.9655
 188        4.1119
 189        4.1119
 190        4.1119
 191        5.5045
 192        5.5046
 193        5.5046
 194        5.5046
 195        5.5046
 196        5.5047
 197        5.9241
 198        5.9241
 199        5.9241
 200        7.7081
 201        7.7081
 202        7.7107
 203        7.7107
 204        7.7110
 205        7.7110
 206        7.7110
 207        7.7110
 208        7.7112
 209        7.7112
 210        7.7138
 211        7.7138
 212        9.2105
 213        9.2111
 214        9.2113
 215        9.2117
 216        9.2126
 
  0.8333333E-01  0.0000000E+00  0.0000000E+00  0.1157407E-02
   1       -4.6276
   2       -2.9954
   3       -2.7567
   4       -2.7567
   5       -2.7567
   6       -2.7567
   7       -2.6437
   8       -2.6437
   9       -2.6437
  10       -2.6437
  11       -2.5724
  12       -2.4086
  13       -2.4040
  14       -2.4040
  15       -2.2457
  16       -2.2432
  17       -2.2432
  18       -1.9065
  19       -1.9065
  20       -1.9065
  21       -1.9065
  22       -1.8779
  23       -1.8779
  24       -1.8779
  25       -1.8779
  26       -1.7820
  27       -1.7820
  28       -1.7820
  29       -1.7819
  30       -1.7712
  31       -1.7306
  32       -1.7305
  33       -1.7071
  34       -1.7071
  35       -1.7071
  36       -1.7070
  37       -1.6914
  38       -1.6914
  39       -1.6914
  40       -1.6914
  41       -1.6184
  42       -1.4207
  43       -1.4207
  44       -1.3486
  45       -1.3485
  46       -1.3485
  47       -1.3485
  48       -1.2921
  49       -1.2913
  50       -1.2913
  51       -1.2913
  52       -1.2898
  53       -1.2898
  54       -1.2898
  55       -1.2891
  56       -1.2733
  57       -1.2733
  58       -1.2733
  59       -1.2733
  60       -1.2662
  61       -1.2661
  62       -1.2661
  63       -1.2660
  64       -1.1018
  65       -1.1018
  66       -1.0942
  67       -1.0941
  68       -1.0940
  69       -1.0940
  70       -1.0848
  71       -1.0848
  72       -1.0847
  73       -1.0847
  74       -1.0792
  75       -1.0770
  76       -1.0769
  77       -1.0769
  78       -1.0769
  79       -1.0681
  80       -1.0681
  81       -1.0599
  82       -1.0598
  83       -1.0598
  84       -1.0598
  85       -1.0351
  86       -1.0351
  87       -1.0351
  88       -1.0350
  89       -0.6279
  90       -0.6279
  91       -0.6278
  92       -0.6278
  93       -0.6191
  94       -0.5489
  95       -0.5488
  96       -0.5488
  97       -0.5488
  98       -0.5207
  99       -0.5206
 100       -0.5206
 101       -0.5206
 102       -0.4897
 103       -0.4893
 104       -0.4893
 105       -0.4892
 106       -0.4876
 107       -0.4558
 108       -0.4558
 109       -0.3508
 110       -0.3508
 111       -0.3508
 112       -0.3508
 113       -0.3123
 114       -0.3123
 115       -0.3123
 116       -0.3123
 117       -0.2555
 118       -0.2555
 119       -0.2553
 120       -0.2553
 121       -0.2497
 122       -0.2497
 123       -0.2496
 124       -0.2496
 125       -0.2408
 126       -0.2408
 127       -0.2345
 128       -0.2345
 129       -0.2319
 130       -0.2234
 131       -0.1773
 132       -0.1773
 133       -0.1773
 134       -0.1772
 135       -0.1433
 136       -0.1433
 137       -0.1432
 138       -0.1432
 139        0.0458
 140        0.0961
 141        0.0961
 142        0.0961
 143        0.0961
 144        0.1299
 145        0.4114
 146        0.4115
 147        0.4166
 148        0.4279
 149        0.4279
 150        0.4279
 151        0.4279
 152        0.4428
 153        0.4428
 154        0.4428
 155        0.4428
 156        0.5973
 157        0.5973
 158        0.6171
 159        0.6171
 160        0.6171
 161        0.6172
 162        0.6173
 163        0.6173
 164        0.6272
 165        0.6274
 166        0.6282
 167        0.6284
 168        1.5294
 169        1.5294
 170        1.5294
 171        1.5294
 172        1.7674
 173        1.7674
 174        1.7674
 175        1.7674
 176        2.0206
 177        2.0206
 178        2.0206
 179        2.0206
 180        2.5751
 181        2.5751
 182        2.5751
 183        2.5751
 184        3.8771
 185        4.0728
 186        4.0728
 187        4.0728
 188        4.0728
 189        4.1546
 190        4.1546
 191        5.4251
 192        5.4251
 193        5.4251
 194        5.4251
 195        5.5117
 196        5.5117
 197        5.9170
 198        5.9170
 199        6.1863
 200        7.2914
 201        7.2914
 202        7.7106
 203        7.7106
 204        7.7107
 205        7.7107
 206        7.7360
 207        7.7360
 208        7.7360
 209        7.7360
 210        8.1328
 211        8.1328
 212        8.9299
 213        8.9308
 214        8.9317
 215        8.9365
 216        8.9397
 
  0.1666667E+00  0.0000000E+00  0.0000000E+00  0.1157407E-02
   1       -4.5818
   2       -3.2369
   3       -2.7245
   4       -2.7245
   5       -2.7245
   6       -2.7245
   7       -2.6210
   8       -2.6210
   9       -2.6210
  10       -2.6210
  11       -2.4272
  12       -2.3963
  13       -2.3779
  14       -2.3779
  15       -2.2322
  16       -2.2224
  17       -2.2224
  18       -1.9884
  19       -1.9884
  20       -1.9883
  21       -1.9883
  22       -1.9697
  23       -1.9697
  24       -1.9696
  25       -1.9696
  26       -1.8447
  27       -1.7808
  28       -1.7808
  29       -1.7326
  30       -1.7326
  31       -1.7326
  32       -1.7326
  33       -1.6912
  34       -1.6912
  35       -1.6912
  36       -1.6912
  37       -1.6795
  38       -1.6795
  39       -1.6795
  40       -1.6794
  41       -1.5625
  42       -1.5625
  43       -1.5416
  44       -1.3873
  45       -1.3873
  46       -1.3873
  47       -1.3872
  48       -1.2916
  49       -1.2916
  50       -1.2916
  51       -1.2916
  52       -1.2715
  53       -1.2712
  54       -1.2712
  55       -1.2711
  56       -1.2642
  57       -1.2642
  58       -1.2642
  59       -1.2639
  60       -1.2495
  61       -1.2494
  62       -1.2494
  63       -1.2493
  64       -1.1463
  65       -1.1463
  66       -1.1463
  67       -1.1463
  68       -1.0961
  69       -1.0915
  70       -1.0915
  71       -1.0915
  72       -1.0915
  73       -1.0713
  74       -1.0713
  75       -1.0713
  76       -1.0712
  77       -1.0604
  78       -1.0604
  79       -1.0604
  80       -1.0604
  81       -1.0517
  82       -1.0517
  83       -0.9441
  84       -0.9441
  85       -0.9441
  86       -0.9441
  87       -0.9264
  88       -0.9264
  89       -0.7118
  90       -0.7118
  91       -0.7118
  92       -0.7118
  93       -0.6106
  94       -0.6102
  95       -0.6102
  96       -0.6102
  97       -0.6102
  98       -0.5558
  99       -0.5558
 100       -0.4877
 101       -0.4876
 102       -0.4876
 103       -0.4876
 104       -0.4341
 105       -0.4341
 106       -0.4341
 107       -0.4341
 108       -0.3519
 109       -0.3519
 110       -0.3519
 111       -0.3519
 112       -0.3097
 113       -0.2930
 114       -0.2930
 115       -0.2929
 116       -0.2929
 117       -0.2493
 118       -0.2488
 119       -0.2487
 120       -0.2487
 121       -0.2486
 122       -0.2430
 123       -0.2429
 124       -0.2429
 125       -0.2429
 126       -0.2157
 127       -0.1849
 128       -0.1849
 129       -0.1289
 130       -0.1289
 131       -0.1112
 132       -0.1112
 133       -0.1112
 134       -0.1112
 135       -0.0693
 136       -0.0693
 137       -0.0693
 138       -0.0693
 139        0.0049
 140        0.1279
 141        0.1279
 142        0.1279
 143        0.1279
 144        0.1717
 145        0.3623
 146        0.3623
 147        0.3623
 148        0.3623
 149        0.3875
 150        0.3875
 151        0.4079
 152        0.4215
 153        0.4215
 154        0.4215
 155        0.4215
 156        0.5115
 157        0.5115
 158        0.5846
 159        0.5846
 160        0.5846
 161        0.5846
 162        0.5874
 163        0.5874
 164        0.6272
 165        0.6274
 166        0.6281
 167        0.6284
 168        1.3150
 169        1.3150
 170        1.3150
 171        1.3150
 172        1.7799
 173        1.7799
 174        1.7799
 175        1.7799
 176        2.3047
 177        2.3047
 178        2.3047
 179        2.3047
 180        2.4332
 181        2.4332
 182        2.4332
 183        2.4332
 184        3.3803
 185        4.2785
 186        4.2785
 187        4.3471
 188        4.3471
 189        4.3471
 190        4.3471
 191        5.2050
 192        5.2050
 193        5.2050
 194        5.2050
 195        5.5325
 196        5.5325
 197        5.8961
 198        5.8961
 199        6.7658
 200        6.8774
 201        6.8774
 202        7.7176
 203        7.7176
 204        7.7176
 205        7.7176
 206        7.8105
 207        7.8105
 208        7.8105
 209        7.8105
 210        8.4111
 211        8.4111
 212        8.4111
 213        8.4111
 214        8.5534
 215        8.5535
 216        8.6802
 
  0.2500000E+00  0.0000000E+00  0.0000000E+00  0.1157407E-02
   1       -4.5057
   2       -3.4771
   3       -2.6718
   4       -2.6717
   5       -2.6717
   6       -2.6717
   7       -2.5834
   8       -2.5833
   9       -2.5833
  10       -2.5833
  11       -2.3770
  12       -2.3379
  13       -2.3351
  14       -2.3350
  15       -2.2099
  16       -2.1877
  17       -2.1877
  18       -2.0845
  19       -2.0845
  20       -2.0844
  21       -2.0844
  22       -2.0791
  23       -2.0791
  24       -2.0790
  25       -2.0790
  26       -1.9147
  27       -1.8544
  28       -1.8544
  29       -1.6918
  30       -1.6918
  31       -1.6882
  32       -1.6882
  33       -1.6881
  34       -1.6881
  35       -1.6665
  36       -1.6665
  37       -1.6665
  38       -1.6664
  39       -1.6599
  40       -1.6599
  41       -1.6599
  42       -1.6599
  43       -1.4664
  44       -1.4301
  45       -1.4301
  46       -1.4301
  47       -1.4301
  48       -1.3180
  49       -1.3180
  50       -1.3180
  51       -1.3180
  52       -1.2620
  53       -1.2613
  54       -1.2613
  55       -1.2613
  56       -1.2591
  57       -1.2590
  58       -1.2590
  59       -1.2583
  60       -1.2178
  61       -1.2177
  62       -1.2177
  63       -1.2176
  64       -1.2096
  65       -1.2096
  66       -1.2096
  67       -1.2094
  68       -1.1237
  69       -1.1023
  70       -1.1023
  71       -1.1023
  72       -1.1023
  73       -1.0807
  74       -1.0806
  75       -1.0806
  76       -1.0806
  77       -1.0331
  78       -1.0331
  79       -1.0331
  80       -1.0331
  81       -1.0245
  82       -1.0245
  83       -0.8009
  84       -0.8008
  85       -0.8008
  86       -0.8006
  87       -0.7996
  88       -0.7995
  89       -0.7995
  90       -0.7993
  91       -0.7420
  92       -0.7420
  93       -0.6832
  94       -0.6832
  95       -0.6832
  96       -0.6832
  97       -0.6490
  98       -0.6490
  99       -0.5759
 100       -0.4361
 101       -0.4361
 102       -0.4361
 103       -0.4361
 104       -0.3730
 105       -0.3730
 106       -0.3730
 107       -0.3730
 108       -0.3534
 109       -0.3534
 110       -0.3534
 111       -0.3534
 112       -0.3197
 113       -0.3197
 114       -0.3197
 115       -0.3196
 116       -0.2776
 117       -0.2354
 118       -0.2353
 119       -0.2353
 120       -0.2353
 121       -0.2091
 122       -0.2091
 123       -0.2091
 124       -0.2091
 125       -0.2027
 126       -0.1125
 127       -0.1124
 128       -0.0428
 129       -0.0346
 130       -0.0307
 131       -0.0307
 132       -0.0307
 133       -0.0304
 134       -0.0164
 135       -0.0164
 136        0.0144
 137        0.0144
 138        0.0144
 139        0.0144
 140        0.1969
 141        0.1969
 142        0.1969
 143        0.1969
 144        0.2124
 145        0.2557
 146        0.2557
 147        0.2557
 148        0.2557
 149        0.3480
 150        0.3480
 151        0.3808
 152        0.3808
 153        0.3865
 154        0.3865
 155        0.3865
 156        0.3865
 157        0.3935
 158        0.5327
 159        0.5327
 160        0.5327
 161        0.5327
 162        0.5390
 163        0.5390
 164        0.6272
 165        0.6275
 166        0.6281
 167        0.6284
 168        1.1164
 169        1.1164
 170        1.1164
 171        1.1164
 172        1.8017
 173        1.8017
 174        1.8017
 175        1.8017
 176        2.2777
 177        2.2777
 178        2.2777
 179        2.2777
 180        2.6175
 181        2.6175
 182        2.6175
 183        2.6175
 184        2.8174
 185        4.4723
 186        4.4723
 187        4.7204
 188        4.7204
 189        4.7204
 190        4.7204
 191        4.8867
 192        4.8867
 193        4.8867
 194        4.8867
 195        5.5657
 196        5.5657
 197        5.8629
 198        5.8629
 199        6.4722
 200        6.4722
 201        7.4671
 202        7.7439
 203        7.7439
 204        7.7440
 205        7.7440
 206        7.8329
 207        7.8329
 208        7.8329
 209        7.8329
 210        7.9324
 211        7.9324
 212        7.9324
 213        7.9324
 214        8.4611
 215        8.4611
 216        8.4611
 
  0.3333333E+00  0.0000000E+00  0.0000000E+00  0.1157407E-02
   1       -4.3999
   2       -3.7056
   3       -2.6002
   4       -2.6002
   5       -2.6001
   6       -2.6001
   7       -2.5310
   8       -2.5310
   9       -2.5310
  10       -2.5310
  11       -2.3526
  12       -2.2967
  13       -2.2770
  14       -2.2770
  15       -2.1914
  16       -2.1914
  17       -2.1912
  18       -2.1911
  19       -2.1891
  20       -2.1890
  21       -2.1888
  22       -2.1888
  23       -2.1791
  24       -2.1391
  25       -2.1391
  26       -1.9801
  27       -1.9415
  28       -1.9415
  29       -1.8080
  30       -1.8080
  31       -1.6484
  32       -1.6483
  33       -1.6483
  34       -1.6483
  35       -1.6369
  36       -1.6369
  37       -1.6369
  38       -1.6368
  39       -1.6332
  40       -1.6332
  41       -1.6332
  42       -1.6332
  43       -1.4749
  44       -1.4749
  45       -1.4749
  46       -1.4749
  47       -1.3941
  48       -1.3462
  49       -1.3462
  50       -1.3462
  51       -1.3462
  52       -1.2738
  53       -1.2738
  54       -1.2738
  55       -1.2738
  56       -1.2581
  57       -1.2577
  58       -1.2577
  59       -1.2577
  60       -1.2527
  61       -1.2526
  62       -1.2526
  63       -1.2522
  64       -1.1935
  65       -1.1935
  66       -1.1935
  67       -1.1935
  68       -1.1615
  69       -1.1165
  70       -1.1165
  71       -1.1165
  72       -1.1165
  73       -1.0761
  74       -1.0761
  75       -1.0761
  76       -1.0761
  77       -0.9955
  78       -0.9955
  79       -0.9955
  80       -0.9955
  81       -0.9866
  82       -0.9866
  83       -0.8831
  84       -0.8831
  85       -0.8831
  86       -0.8831
  87       -0.7572
  88       -0.7572
  89       -0.7572
  90       -0.7572
  91       -0.7347
  92       -0.7347
  93       -0.6243
  94       -0.6243
  95       -0.6243
  96       -0.6243
  97       -0.5506
  98       -0.5506
  99       -0.5268
 100       -0.3777
 101       -0.3777
 102       -0.3777
 103       -0.3777
 104       -0.3547
 105       -0.3547
 106       -0.3547
 107       -0.3546
 108       -0.3373
 109       -0.3372
 110       -0.3372
 111       -0.3372
 112       -0.3180
 113       -0.3180
 114       -0.3180
 115       -0.3180
 116       -0.3158
 117       -0.2308
 118       -0.2307
 119       -0.2307
 120       -0.2307
 121       -0.2052
 122       -0.2052
 123       -0.2052
 124       -0.2052
 125       -0.1850
 126       -0.0713
 127       -0.0273
 128       -0.0273
 129        0.0531
 130        0.0531
 131        0.0531
 132        0.0531
 133        0.0946
 134        0.0946
 135        0.1052
 136        0.1052
 137        0.1052
 138        0.1052
 139        0.1136
 140        0.1136
 141        0.1136
 142        0.1136
 143        0.2184
 144        0.2184
 145        0.2512
 146        0.2937
 147        0.2938
 148        0.3046
 149        0.3046
 150        0.3046
 151        0.3047
 152        0.3059
 153        0.3389
 154        0.3389
 155        0.3389
 156        0.3389
 157        0.3739
 158        0.4643
 159        0.4643
 160        0.4643
 161        0.4643
 162        0.4738
 163        0.4738
 164        0.6273
 165        0.6276
 166        0.6280
 167        0.6283
 168        0.9306
 169        0.9306
 170        0.9306
 171        0.9306
 172        1.8344
 173        1.8345
 174        1.8345
 175        1.8345
 176        2.1401
 177        2.1402
 178        2.1402
 179        2.1402
 180        2.2518
 181        2.9589
 182        2.9589
 183        2.9589
 184        2.9589
 185        4.5126
 186        4.5126
 187        4.5126
 188        4.5126
 189        4.7227
 190        4.7227
 191        5.1554
 192        5.1554
 193        5.1554
 194        5.1554
 195        5.6090
 196        5.6090
 197        5.8194
 198        5.8194
 199        6.0792
 200        6.0792
 201        7.2540
 202        7.2540
 203        7.2540
 204        7.2540
 205        7.7956
 206        7.7956
 207        7.7956
 208        7.7956
 209        8.0986
 210        8.0986
 211        8.0986
 212        8.0986
 213        8.2289
 214        8.2718
 215        8.2718
 216        8.2718
 
  0.4166667E+00  0.0000000E+00  0.0000000E+00  0.1157407E-02
   1       -4.2654
   2       -3.9158
   3       -2.5122
   4       -2.5122
   5       -2.5122
   6       -2.5122
   7       -2.4645
   8       -2.4645
   9       -2.4645
  10       -2.4645
  11       -2.3264
  12       -2.3024
  13       -2.3024
  14       -2.3024
  15       -2.3024
  16       -2.2922
  17       -2.2920
  18       -2.2920
  19       -2.2920
  20       -2.2894
  21       -2.2053
  22       -2.2053
  23       -2.1402
  24       -2.0768
  25       -2.0768
  26       -2.0400
  27       -2.0332
  28       -2.0332
  29       -1.9111
  30       -1.9111
  31       -1.6168
  32       -1.6166
  33       -1.6166
  34       -1.6166
  35       -1.6107
  36       -1.6107
  37       -1.6107
  38       -1.6106
  39       -1.6002
  40       -1.6002
  41       -1.6002
  42       -1.6002
  43       -1.5195
  44       -1.5195
  45       -1.5195
  46       -1.5195
  47       -1.3660
  48       -1.3660
  49       -1.3660
  50       -1.3660
  51       -1.3289
  52       -1.3289
  53       -1.3289
  54       -1.3289
  55       -1.3261
  56       -1.2547
  57       -1.2542
  58       -1.2542
  59       -1.2542
  60       -1.2505
  61       -1.2505
  62       -1.2505
  63       -1.2500
  64       -1.2085
  65       -1.1722
  66       -1.1722
  67       -1.1722
  68       -1.1722
  69       -1.1334
  70       -1.1334
  71       -1.1334
  72       -1.1334
  73       -1.0533
  74       -1.0533
  75       -1.0533
  76       -1.0533
  77       -0.9549
  78       -0.9548
  79       -0.9548
  80       -0.9547
  81       -0.9481
  82       -0.9480
  83       -0.9480
  84       -0.9479
  85       -0.9383
  86       -0.9383
  87       -0.8276
  88       -0.8276
  89       -0.8276
  90       -0.8276
  91       -0.8118
  92       -0.8118
  93       -0.4714
  94       -0.4346
  95       -0.4346
  96       -0.4346
  97       -0.4346
  98       -0.3624
  99       -0.3552
 100       -0.3552
 101       -0.3549
 102       -0.3549
 103       -0.3543
 104       -0.3543
 105       -0.3478
 106       -0.3477
 107       -0.3477
 108       -0.3477
 109       -0.3200
 110       -0.3200
 111       -0.3200
 112       -0.3200
 113       -0.2755
 114       -0.2755
 115       -0.2755
 116       -0.2755
 117       -0.2337
 118       -0.2336
 119       -0.2336
 120       -0.2336
 121       -0.2283
 122       -0.2283
 123       -0.2282
 124       -0.2282
 125       -0.1626
 126       -0.1053
 127       -0.0555
 128       -0.0555
 129       -0.0555
 130       -0.0555
 131        0.0358
 132        0.0358
 133        0.0617
 134        0.0617
 135        0.1349
 136        0.1349
 137        0.1349
 138        0.1349
 139        0.1995
 140        0.1995
 141        0.1995
 142        0.1995
 143        0.2018
 144        0.2018
 145        0.2264
 146        0.2264
 147        0.2800
 148        0.2800
 149        0.2800
 150        0.2800
 151        0.2874
 152        0.3493
 153        0.3832
 154        0.3832
 155        0.3832
 156        0.3832
 157        0.3941
 158        0.3941
 159        0.4395
 160        0.4395
 161        0.4395
 162        0.4395
 163        0.6273
 164        0.6277
 165        0.6279
 166        0.6283
 167        0.7223
 168        0.7557
 169        0.7557
 170        0.7557
 171        0.7557
 172        1.7062
 173        1.8808
 174        1.8808
 175        1.8808
 176        1.8808
 177        2.0293
 178        2.0293
 179        2.0293
 180        2.0294
 181        3.3265
 182        3.3265
 183        3.3265
 184        3.3265
 185        4.1149
 186        4.1149
 187        4.1149
 188        4.1149
 189        5.0174
 190        5.0174
 191        5.6344
 192        5.6345
 193        5.6345
 194        5.6345
 195        5.6597
 196        5.6597
 197        5.7025
 198        5.7025
 199        5.7686
 200        5.7686
 201        6.6899
 202        6.6899
 203        6.6899
 204        6.6899
 205        7.8739
 206        7.8739
 207        7.8739
 208        7.8739
 209        8.1114
 210        8.1114
 211        8.1114
 212        8.1115
 213        8.3054
 214        8.3054
 215        8.3054
 216        8.3054
 
  0.5000000E+00  0.0000000E+00  0.0000000E+00  0.5787037E-03
   1       -4.1046
   2       -4.1022
   3       -2.4140
   4       -2.4120
   5       -2.4118
   6       -2.4118
   7       -2.4109
   8       -2.4109
   9       -2.4107
  10       -2.4088
  11       -2.3855
  12       -2.3855
  13       -2.3852
  14       -2.3851
  15       -2.3838
  16       -2.3836
  17       -2.3833
  18       -2.3833
  19       -2.3035
  20       -2.3025
  21       -2.1240
  22       -2.1234
  23       -2.1222
  24       -2.1216
  25       -2.0944
  26       -2.0929
  27       -2.0017
  28       -2.0017
  29       -1.9999
  30       -1.9999
  31       -1.6027
  32       -1.6017
  33       -1.6016
  34       -1.6016
  35       -1.6016
  36       -1.6016
  37       -1.6015
  38       -1.6005
  39       -1.5629
  40       -1.5627
  41       -1.5627
  42       -1.5620
  43       -1.5616
  44       -1.5609
  45       -1.5609
  46       -1.5607
  47       -1.3632
  48       -1.3631
  49       -1.3631
  50       -1.3628
  51       -1.3625
  52       -1.3622
  53       -1.3622
  54       -1.3621
  55       -1.2642
  56       -1.2636
  57       -1.2529
  58       -1.2518
  59       -1.2518
  60       -1.2516
  61       -1.2513
  62       -1.2511
  63       -1.2511
  64       -1.2498
  65       -1.1525
  66       -1.1524
  67       -1.1524
  68       -1.1524
  69       -1.1520
  70       -1.1520
  71       -1.1519
  72       -1.1518
  73       -1.0130
  74       -1.0130
  75       -1.0129
  76       -1.0124
  77       -1.0121
  78       -1.0116
  79       -1.0115
  80       -1.0115
  81       -0.8932
  82       -0.8928
  83       -0.8928
  84       -0.8919
  85       -0.8915
  86       -0.8908
  87       -0.8908
  88       -0.8903
  89       -0.8806
  90       -0.8806
  91       -0.8791
  92       -0.8791
  93       -0.4157
  94       -0.4148
  95       -0.3535
  96       -0.3535
  97       -0.3533
  98       -0.3532
  99       -0.3530
 100       -0.3529
 101       -0.3527
 102       -0.3527
 103       -0.2697
 104       -0.2690
 105       -0.2690
 106       -0.2689
 107       -0.2685
 108       -0.2683
 109       -0.2683
 110       -0.2677
 111       -0.2483
 112       -0.2481
 113       -0.2477
 114       -0.2477
 115       -0.2476
 116       -0.2476
 117       -0.2471
 118       -0.2469
 119       -0.2423
 120       -0.2419
 121       -0.2418
 122       -0.2418
 123       -0.2414
 124       -0.2414
 125       -0.2413
 126       -0.2410
 127       -0.1579
 128       -0.1579
 129       -0.1568
 130       -0.1568
 131       -0.1365
 132       -0.1352
 133        0.1477
 134        0.1478
 135        0.1480
 136        0.1481
 137        0.2105
 138        0.2109
 139        0.2109
 140        0.2110
 141        0.2116
 142        0.2117
 143        0.2117
 144        0.2122
 145        0.2925
 146        0.2925
 147        0.2933
 148        0.2934
 149        0.2937
 150        0.2938
 151        0.2945
 152        0.2945
 153        0.3023
 154        0.3023
 155        0.3028
 156        0.3028
 157        0.3202
 158        0.3204
 159        0.5908
 160        0.5912
 161        0.5912
 162        0.5912
 163        0.5918
 164        0.5918
 165        0.5918
 166        0.5922
 167        0.6273
 168        0.6278
 169        0.6278
 170        0.6283
 171        1.1928
 172        1.1931
 173        1.9424
 174        1.9435
 175        1.9438
 176        1.9438
 177        1.9447
 178        1.9447
 179        1.9450
 180        1.9462
 181        3.7135
 182        3.7135
 183        3.7136
 184        3.7147
 185        3.7150
 186        3.7161
 187        3.7162
 188        3.7162
 189        5.3455
 190        5.3455
 191        5.3476
 192        5.3476
 193        5.7139
 194        5.7141
 195        5.7141
 196        5.7143
 197        6.1461
 198        6.1461
 199        6.1477
 200        6.1480
 201        6.1482
 202        6.1485
 203        6.1501
 204        6.1501
 205        7.9766
 206        7.9790
 207        7.9790
 208        7.9790
 209        7.9791
 210        7.9791
 211        7.9791
 212        7.9815
 213        8.5474
 214        8.5482
 215        8.5493
 216        8.5501
 
  0.0000000E+00  0.8333333E-01  0.0000000E+00  0.2314815E-02
   1       -4.6276
   2       -2.9953
   3       -2.7587
   4       -2.7567
   5       -2.7567
   6       -2.7548
   7       -2.6437
   8       -2.6437
   9       -2.6437
  10       -2.6436
  11       -2.5724
  12       -2.4086
  13       -2.4040
  14       -2.4040
  15       -2.2457
  16       -2.2432
  17       -2.2432
  18       -1.9079
  19       -1.9065
  20       -1.9065
  21       -1.9051
  22       -1.8787
  23       -1.8780
  24       -1.8778
  25       -1.8771
  26       -1.7831
  27       -1.7820
  28       -1.7820
  29       -1.7808
  30       -1.7712