       N       E                     dE             d eps       ncg     rms          rms(c)
DAV:   1     0.426658358563E+04    0.42666E+04   -0.20070E+05 84672   0.209E+03
DAV:   2     0.170326710444E+03   -0.40963E+04   -0.38960E+04 84752   0.516E+02
DAV:   3    -0.887470416789E+02   -0.25907E+03   -0.23321E+03 95536   0.130E+02
DAV:   4    -0.988394295338E+02   -0.10092E+02   -0.99216E+01 90224   0.255E+01
DAV:   5    -0.990316482630E+02   -0.19222E+00   -0.19174E+00 91296   0.318E+00    0.134E+01
DAV:   6    -0.931512932476E+02    0.58804E+01   -0.19958E+01 88800   0.146E+01    0.318E+00
DAV:   7    -0.930478312984E+02    0.10346E+00   -0.66746E-01 93856   0.195E+00    0.180E+00
DAV:   8    -0.930299332100E+02    0.17898E-01   -0.50637E-02 88328   0.814E-01    0.138E-01
DAV:   9    -0.930305308806E+02   -0.59767E-03   -0.32477E-03 92456   0.162E-01    0.758E-02
DAV:  10    -0.930306856130E+02   -0.15473E-03   -0.41825E-04 87704   0.566E-02    0.129E-02
DAV:  11    -0.930306948661E+02   -0.92531E-05   -0.14458E-05 92768   0.125E-02    0.290E-03
DAV:  12    -0.930306966647E+02   -0.17986E-05   -0.11189E-06 88176   0.338E-03    0.166E-03
DAV:  13    -0.930306952873E+02    0.13774E-05   -0.10644E-07 88536   0.118E-03    0.415E-04
DAV:  14    -0.930306950633E+02    0.22398E-06   -0.88842E-09 47912   0.396E-04    0.718E-05
DAV:  15    -0.930306951373E+02   -0.73982E-07   -0.84914E-10 47040   0.128E-04    0.501E-05
DAV:  16    -0.930306951281E+02    0.91895E-08    0.28493E-10 46336   0.606E-05
   1 F= -.93030695E+02 E0= -.93030398E+02  d E =-.594262E-03
