 vasp.4.6.28 25Jul05 complex 
 executed on             LinuxIFC date 2017.01.14  12:20:19
 running on    8 nodes
 distr:  one band on    1 nodes,    8 groups


--------------------------------------------------------------------------------------------------------


 INCAR:
 POTCAR:   PAW_PBE Au 06Sep2000                   
 POTCAR:   PAW_PBE Au 06Sep2000                   
   VRHFIN =Au: s1d10                                                            
   LEXCH  = PE                                                                  
   EATOM  =   926.0567 eV,   68.0632 Ry                                         
                                                                                
   TITEL  = PAW_PBE Au 06Sep2000                                                
   LULTRA =        F    use ultrasoft PP ?                                      
   IUNSCR =        1    unscreen: 0-lin 1-nonlin 2-no                           
   RPACOR =    2.330    partial core radius                                     
   POMASS =  196.966; ZVAL   =   11.000    mass and valenz                      
   RCORE  =    2.500    outmost cutoff radius                                   
   RWIGS  =    2.840; RWIGS  =    1.503    wigner-seitz radius (au A)           
   ENMAX  =  229.948; ENMIN  =  172.461 eV                                      
   RCLOC  =    1.964    cutoff for local pot                                    
   LCOR   =        T    correct aug charges                                     
   LPAW   =        T    paw PP                                                  
   EAUG   =  356.670                                                            
   DEXC   =    -.025                                                            
   RMAX   =    3.041    core radius for proj-oper                               
   RAUG   =    1.300    factor for augmentation sphere                          
   RDEP   =    2.598    radius for radial grids                                 
   QCUT   =   -4.111; QGAM   =    8.222    optimization parameters              
                                                                                
   Description                                                                  
     l     E      TYP  RCUT    TYP  RCUT                                        
     2   .000     23  2.500                                                     
     2   .000     23  2.500                                                     
     0   .000     23  2.500                                                     
     0   .000     23  2.500                                                     
     1  -.200     23  2.500                                                     
     1   .000     23  2.500                                                     
     3   .000      7   .000                                                     
  local pseudopotential read in
  partial core-charges read in
  atomic valenz-charges read in
  non local Contribution for L=           2  read in
    real space projection operators read in
  non local Contribution for L=           2  read in
    real space projection operators read in
  non local Contribution for L=           0  read in
    real space projection operators read in
  non local Contribution for L=           0  read in
    real space projection operators read in
  non local Contribution for L=           1  read in
    real space projection operators read in
  non local Contribution for L=           1  read in
    real space projection operators read in
    PAW grid and wavefunctions read in
 
   number of l-projection  operators is LMAX  =           6
   number of lm-projection operators is LMMAX =          18
 

 ----------------------------------------------------------------------------- 
|                                                                             |
|  ADVICE TO THIS USER RUNNING 'VASP/VAMP'   (HEAR YOUR MASTER'S VOICE ...):  |
|                                                                             |
|      You have a (more or less) 'large supercell' and for larger cells       |
|      it might be more efficient to use real space projection operators      |
|      So try LREAL= Auto  in the INCAR   file.                               |
|      Mind: If you want to do an extremely accurate calculations keep the    |
|      reciprocal projection scheme          (i.e. LREAL=.FALSE.)             |
|                                                                             |
 ----------------------------------------------------------------------------- 

 PAW_PBE Au 06Sep2000                   :
 energy of atom  1       EATOM= -926.0567
 kinetic energy error for atom=    0.0008 (will be added to EATOM!!)
 
 EXHCAR: internal setup
 exchange correlation table for  LEXCH =        8
   RHO(1)=    0.500       N(1)  =     2000
   RHO(2)=  100.500       N(2)  =     4000
 
 POSCAR: Au                                      
  positions in direct lattice
  No initial velocities read in
 


--------------------------------------------------------------------------------------------------------


 ion  position               nearest neighbor table
   1  0.001  0.000  0.000-   9 3.21  11 3.21  17 3.21  21 3.21  25 3.22  27 3.22  29 3.22  31 3.22
                            10 3.22  18 3.22  12 3.22  22 3.22
   2  0.500  0.000  0.000-   9 3.22  10 3.22  11 3.22  12 3.22  17 3.22  18 3.22  21 3.22  22 3.22
                            26 3.22  28 3.22  30 3.22  32 3.22
   3  0.000  0.500  0.000-   9 3.22  10 3.22  11 3.22  12 3.22  19 3.22  20 3.22  23 3.22  24 3.22
                            25 3.22  27 3.22  29 3.22  31 3.22
   4  0.500  0.500  0.000-   9 3.22  10 3.22  11 3.22  12 3.22  19 3.22  20 3.22  23 3.22  24 3.22
                            26 3.22  28 3.22  30 3.22  32 3.22
   5  0.000  0.000  0.500-  13 3.22  14 3.22  15 3.22  16 3.22  17 3.22  18 3.22  21 3.22  22 3.22
                            25 3.22  27 3.22  29 3.22  31 3.22
   6  0.500  0.000  0.500-  13 3.22  14 3.22  15 3.22  16 3.22  17 3.22  18 3.22  21 3.22  22 3.22
                            26 3.22  28 3.22  30 3.22  32 3.22
   7  0.000  0.500  0.500-  13 3.22  14 3.22  15 3.22  16 3.22  19 3.22  20 3.22  23 3.22  24 3.22
                            25 3.22  27 3.22  29 3.22  31 3.22
   8  0.500  0.500  0.500-  13 3.22  14 3.22  15 3.22  16 3.22  19 3.22  20 3.22  23 3.22  24 3.22
                            26 3.22  28 3.22  30 3.22  32 3.22
   9  0.250  0.250  0.000-   1 3.21   2 3.22   3 3.22   4 3.22  17 3.22  19 3.22  21 3.22  23 3.22
                            25 3.22  26 3.22  29 3.22  30 3.22
  10  0.750  0.250  0.000-   2 3.22   3 3.22   4 3.22  18 3.22  20 3.22  22 3.22  24 3.22  25 3.22
                            26 3.22  29 3.22  30 3.22   1 3.22
  11  0.250  0.750  0.000-   1 3.21   2 3.22   3 3.22   4 3.22  17 3.22  19 3.22  21 3.22  23 3.22
                            27 3.22  28 3.22  31 3.22  32 3.22
  12  0.750  0.750  0.000-   2 3.22   3 3.22   4 3.22  18 3.22  20 3.22  22 3.22  24 3.22  27 3.22
                            28 3.22  31 3.22  32 3.22   1 3.22
  13  0.250  0.250  0.500-   5 3.22   6 3.22   7 3.22   8 3.22  17 3.22  19 3.22  21 3.22  23 3.22
                            25 3.22  26 3.22  29 3.22  30 3.22
  14  0.750  0.250  0.500-   5 3.22   6 3.22   7 3.22   8 3.22  18 3.22  20 3.22  22 3.22  24 3.22
                            25 3.22  26 3.22  29 3.22  30 3.22
  15  0.250  0.750  0.500-   5 3.22   6 3.22   7 3.22   8 3.22  17 3.22  19 3.22  21 3.22  23 3.22
                            27 3.22  28 3.22  31 3.22  32 3.22
  16  0.750  0.750  0.500-   5 3.22   6 3.22   7 3.22   8 3.22  18 3.22  20 3.22  22 3.22  24 3.22
                            27 3.22  28 3.22  31 3.22  32 3.22
  17  0.250  0.000  0.250-   1 3.21   2 3.22   5 3.22   6 3.22   9 3.22  11 3.22  13 3.22  15 3.22
                            25 3.22  26 3.22  27 3.22  28 3.22
  18  0.750  0.000  0.250-   2 3.22   5 3.22   6 3.22  10 3.22  12 3.22  14 3.22  16 3.22  25 3.22
                            26 3.22  27 3.22  28 3.22   1 3.22
  19  0.250  0.500  0.250-   3 3.22   4 3.22   7 3.22   8 3.22   9 3.22  11 3.22  13 3.22  15 3.22
                            25 3.22  26 3.22  27 3.22  28 3.22
  20  0.750  0.500  0.250-   3 3.22   4 3.22   7 3.22   8 3.22  10 3.22  12 3.22  14 3.22  16 3.22
                            25 3.22  26 3.22  27 3.22  28 3.22
  21  0.250  0.000  0.750-   1 3.21   2 3.22   5 3.22   6 3.22   9 3.22  11 3.22  13 3.22  15 3.22
                            29 3.22  30 3.22  31 3.22  32 3.22
  22  0.750  0.000  0.750-   2 3.22   5 3.22   6 3.22  10 3.22  12 3.22  14 3.22  16 3.22  29 3.22
                            30 3.22  31 3.22  32 3.22   1 3.22
  23  0.250  0.500  0.750-   3 3.22   4 3.22   7 3.22   8 3.22   9 3.22  11 3.22  13 3.22  15 3.22
                            29 3.22  30 3.22  31 3.22  32 3.22
  24  0.750  0.500  0.750-   3 3.22   4 3.22   7 3.22   8 3.22  10 3.22  12 3.22  14 3.22  16 3.22
                            29 3.22  30 3.22  31 3.22  32 3.22
  25  0.000  0.250  0.250-   3 3.22   5 3.22   7 3.22   9 3.22  10 3.22  13 3.22  14 3.22  17 3.22
                            18 3.22  19 3.22  20 3.22   1 3.22
  26  0.500  0.250  0.250-   2 3.22   4 3.22   6 3.22   8 3.22   9 3.22  10 3.22  13 3.22  14 3.22
                            17 3.22  18 3.22  19 3.22  20 3.22
  27  0.000  0.750  0.250-   3 3.22   5 3.22   7 3.22  11 3.22  12 3.22  15 3.22  16 3.22  17 3.22
                            18 3.22  19 3.22  20 3.22   1 3.22
  28  0.500  0.750  0.250-   2 3.22   4 3.22   6 3.22   8 3.22  11 3.22  12 3.22  15 3.22  16 3.22
                            17 3.22  18 3.22  19 3.22  20 3.22
  29  0.000  0.250  0.750-   3 3.22   5 3.22   7 3.22   9 3.22  10 3.22  13 3.22  14 3.22  21 3.22
                            22 3.22  23 3.22  24 3.22   1 3.22
  30  0.500  0.250  0.750-   2 3.22   4 3.22   6 3.22   8 3.22   9 3.22  10 3.22  13 3.22  14 3.22
                            21 3.22  22 3.22  23 3.22  24 3.22
  31  0.000  0.750  0.750-   3 3.22   5 3.22   7 3.22  11 3.22  12 3.22  15 3.22  16 3.22  21 3.22
                            22 3.22  23 3.22  24 3.22   1 3.22
  32  0.500  0.750  0.750-   2 3.22   4 3.22   6 3.22   8 3.22  11 3.22  12 3.22  15 3.22  16 3.22
                            21 3.22  22 3.22  23 3.22  24 3.22
 
  LATTYP: Found a simple cubic cell.
 ALAT       =     9.0968171470
  
  Lattice vectors:
  
 A1 = (   9.0968171470,   0.0000000000,   0.0000000000)
 A2 = (   0.0000000000,   9.0968171470,   0.0000000000)
 A3 = (   0.0000000000,   0.0000000000,   9.0968171470)
 Subroutine PRICEL returns:
 Original cell was already a primitive cell.
 

Analysis of symmetry for initial positions (statically):

 Routine SETGRP: Setting up the symmetry group for a 
 simple cubic supercell.


 Subroutine GETGRP returns: Found  8 space group operations
 (whereof  8 operations were pure point group operations)
 out of a pool of 48 trial point group operations.


The static configuration has the point symmetry C_4v.

Analysis of symmetry for dynamics (positions and initial velocities):

 Subroutine DYNSYM returns: Found  8 space group operations
 (whereof  8 operations were pure point group operations)
 out of a pool of  8 trial space group operations
 (whereof  8 operations were pure point group operations)
 and found also     1 'primitive' translations


The dynamic configuration has the point symmetry C_4v.
 
 
 KPOINTS: Automatic mesh                          

Automatic generation of k-mesh.
 
 Subroutine IBZKPT returns following result:
 ===========================================
 
 Found    196 irreducible k-points:
 
 Following reciprocal coordinates:
            Coordinates               Weight
  0.000000  0.000000  0.000000      1.000000
  0.083333  0.000000  0.000000      2.000000
  0.166667  0.000000  0.000000      2.000000
  0.250000  0.000000  0.000000      2.000000
  0.333333  0.000000  0.000000      2.000000
  0.416667  0.000000  0.000000      2.000000
  0.500000  0.000000  0.000000      1.000000
  0.000000  0.083333  0.000000      4.000000
  0.083333  0.083333  0.000000      8.000000
  0.166667  0.083333  0.000000      8.000000
  0.250000  0.083333  0.000000      8.000000
  0.333333  0.083333  0.000000      8.000000
  0.416667  0.083333  0.000000      8.000000
  0.500000  0.083333  0.000000      4.000000
  0.000000  0.166667  0.000000      4.000000
  0.083333  0.166667  0.000000      8.000000
  0.166667  0.166667  0.000000      8.000000
  0.250000  0.166667  0.000000      8.000000
  0.333333  0.166667  0.000000      8.000000
  0.416667  0.166667  0.000000      8.000000
  0.500000  0.166667  0.000000      4.000000
  0.000000  0.250000  0.000000      4.000000
  0.083333  0.250000  0.000000      8.000000
  0.166667  0.250000  0.000000      8.000000
  0.250000  0.250000  0.000000      8.000000
  0.333333  0.250000  0.000000      8.000000
  0.416667  0.250000  0.000000      8.000000
  0.500000  0.250000  0.000000      4.000000
  0.000000  0.333333  0.000000      4.000000
  0.083333  0.333333  0.000000      8.000000
  0.166667  0.333333  0.000000      8.000000
  0.250000  0.333333  0.000000      8.000000
  0.333333  0.333333  0.000000      8.000000
  0.416667  0.333333  0.000000      8.000000
  0.500000  0.333333  0.000000      4.000000
  0.000000  0.416667  0.000000      4.000000
  0.083333  0.416667  0.000000      8.000000
  0.166667  0.416667  0.000000      8.000000
  0.250000  0.416667  0.000000      8.000000
  0.333333  0.416667  0.000000      8.000000
  0.416667  0.416667  0.000000      8.000000
  0.500000  0.416667  0.000000      4.000000
  0.000000  0.500000  0.000000      2.000000
  0.083333  0.500000  0.000000      4.000000
  0.166667  0.500000  0.000000      4.000000
  0.250000  0.500000  0.000000      4.000000
  0.333333  0.500000  0.000000      4.000000
  0.416667  0.500000  0.000000      4.000000
  0.500000  0.500000  0.000000      2.000000
  0.000000  0.083333  0.083333      4.000000
  0.083333  0.083333  0.083333      8.000000
  0.166667  0.083333  0.083333      8.000000
  0.250000  0.083333  0.083333      8.000000
  0.333333  0.083333  0.083333      8.000000
  0.416667  0.083333  0.083333      8.000000
  0.500000  0.083333  0.083333      4.000000
  0.000000  0.166667  0.083333      8.000000
  0.083333  0.166667  0.083333     16.000000
  0.166667  0.166667  0.083333     16.000000
  0.250000  0.166667  0.083333     16.000000
  0.333333  0.166667  0.083333     16.000000
  0.416667  0.166667  0.083333     16.000000
  0.500000  0.166667  0.083333      8.000000
  0.000000  0.250000  0.083333      8.000000
  0.083333  0.250000  0.083333     16.000000
  0.166667  0.250000  0.083333     16.000000
  0.250000  0.250000  0.083333     16.000000
  0.333333  0.250000  0.083333     16.000000
  0.416667  0.250000  0.083333     16.000000
  0.500000  0.250000  0.083333      8.000000
  0.000000  0.333333  0.083333      8.000000
  0.083333  0.333333  0.083333     16.000000
  0.166667  0.333333  0.083333     16.000000
  0.250000  0.333333  0.083333     16.000000
  0.333333  0.333333  0.083333     16.000000
  0.416667  0.333333  0.083333     16.000000
  0.500000  0.333333  0.083333      8.000000
  0.000000  0.416667  0.083333      8.000000
  0.083333  0.416667  0.083333     16.000000
  0.166667  0.416667  0.083333     16.000000
  0.250000  0.416667  0.083333     16.000000
  0.333333  0.416667  0.083333     16.000000
  0.416667  0.416667  0.083333     16.000000
  0.500000  0.416667  0.083333      8.000000
  0.000000  0.500000  0.083333      4.000000
  0.083333  0.500000  0.083333      8.000000
  0.166667  0.500000  0.083333      8.000000
  0.250000  0.500000  0.083333      8.000000
  0.333333  0.500000  0.083333      8.000000
  0.416667  0.500000  0.083333      8.000000
  0.500000  0.500000  0.083333      4.000000
  0.000000  0.166667  0.166667      4.000000
  0.083333  0.166667  0.166667      8.000000
  0.166667  0.166667  0.166667      8.000000
  0.250000  0.166667  0.166667      8.000000
  0.333333  0.166667  0.166667      8.000000
  0.416667  0.166667  0.166667      8.000000
  0.500000  0.166667  0.166667      4.000000
  0.000000  0.250000  0.166667      8.000000
  0.083333  0.250000  0.166667     16.000000
  0.166667  0.250000  0.166667     16.000000
  0.250000  0.250000  0.166667     16.000000
  0.333333  0.250000  0.166667     16.000000
  0.416667  0.250000  0.166667     16.000000
  0.500000  0.250000  0.166667      8.000000
  0.000000  0.333333  0.166667      8.000000
  0.083333  0.333333  0.166667     16.000000
  0.166667  0.333333  0.166667     16.000000
  0.250000  0.333333  0.166667     16.000000
  0.333333  0.333333  0.166667     16.000000
  0.416667  0.333333  0.166667     16.000000
  0.500000  0.333333  0.166667      8.000000
  0.000000  0.416667  0.166667      8.000000
  0.083333  0.416667  0.166667     16.000000
  0.166667  0.416667  0.166667     16.000000
  0.250000  0.416667  0.166667     16.000000
  0.333333  0.416667  0.166667     16.000000
  0.416667  0.416667  0.166667     16.000000
  0.500000  0.416667  0.166667      8.000000
  0.000000  0.500000  0.166667      4.000000
  0.083333  0.500000  0.166667      8.000000
  0.166667  0.500000  0.166667      8.000000
  0.250000  0.500000  0.166667      8.000000
  0.333333  0.500000  0.166667      8.000000
  0.416667  0.500000  0.166667      8.000000
  0.500000  0.500000  0.166667      4.000000
  0.000000  0.250000  0.250000      4.000000
  0.083333  0.250000  0.250000      8.000000
  0.166667  0.250000  0.250000      8.000000
  0.250000  0.250000  0.250000      8.000000
  0.333333  0.250000  0.250000      8.000000
  0.416667  0.250000  0.250000      8.000000
  0.500000  0.250000  0.250000      4.000000
  0.000000  0.333333  0.250000      8.000000
  0.083333  0.333333  0.250000     16.000000
  0.166667  0.333333  0.250000     16.000000
  0.250000  0.333333  0.250000     16.000000
  0.333333  0.333333  0.250000     16.000000
  0.416667  0.333333  0.250000     16.000000
  0.500000  0.333333  0.250000      8.000000
  0.000000  0.416667  0.250000      8.000000
  0.083333  0.416667  0.250000     16.000000
  0.166667  0.416667  0.250000     16.000000
  0.250000  0.416667  0.250000     16.000000
  0.333333  0.416667  0.250000     16.000000
  0.416667  0.416667  0.250000     16.000000
  0.500000  0.416667  0.250000      8.000000
  0.000000  0.500000  0.250000      4.000000
  0.083333  0.500000  0.250000      8.000000
  0.166667  0.500000  0.250000      8.000000
  0.250000  0.500000  0.250000      8.000000
  0.333333  0.500000  0.250000      8.000000
  0.416667  0.500000  0.250000      8.000000
  0.500000  0.500000  0.250000      4.000000
  0.000000  0.333333  0.333333      4.000000
  0.083333  0.333333  0.333333      8.000000
  0.166667  0.333333  0.333333      8.000000
  0.250000  0.333333  0.333333      8.000000
  0.333333  0.333333  0.333333      8.000000
  0.416667  0.333333  0.333333      8.000000
  0.500000  0.333333  0.333333      4.000000
  0.000000  0.416667  0.333333      8.000000
  0.083333  0.416667  0.333333     16.000000
  0.166667  0.416667  0.333333     16.000000
  0.250000  0.416667  0.333333     16.000000
  0.333333  0.416667  0.333333     16.000000
  0.416667  0.416667  0.333333     16.000000
  0.500000  0.416667  0.333333      8.000000
  0.000000  0.500000  0.333333      4.000000
  0.083333  0.500000  0.333333      8.000000
  0.166667  0.500000  0.333333      8.000000
  0.250000  0.500000  0.333333      8.000000
  0.333333  0.500000  0.333333      8.000000
  0.416667  0.500000  0.333333      8.000000
  0.500000  0.500000  0.333333      4.000000
  0.000000  0.416667  0.416667      4.000000
  0.083333  0.416667  0.416667      8.000000
  0.166667  0.416667  0.416667      8.000000
  0.250000  0.416667  0.416667      8.000000
  0.333333  0.416667  0.416667      8.000000
  0.416667  0.416667  0.416667      8.000000
  0.500000  0.416667  0.416667      4.000000
  0.000000  0.500000  0.416667      4.000000
  0.083333  0.500000  0.416667      8.000000
  0.166667  0.500000  0.416667      8.000000
  0.250000  0.500000  0.416667      8.000000
  0.333333  0.500000  0.416667      8.000000
  0.416667  0.500000  0.416667      8.000000
  0.500000  0.500000  0.416667      4.000000
  0.000000  0.500000  0.500000      1.000000
  0.083333  0.500000  0.500000      2.000000
  0.166667  0.500000  0.500000      2.000000
  0.250000  0.500000  0.500000      2.000000
  0.333333  0.500000  0.500000      2.000000
  0.416667  0.500000  0.500000      2.000000
  0.500000  0.500000  0.500000      1.000000
 
 Following cartesian coordinates:
            Coordinates               Weight
  0.000000  0.000000  0.000000      1.000000
  0.009161  0.000000  0.000000      2.000000
  0.018321  0.000000  0.000000      2.000000
  0.027482  0.000000  0.000000      2.000000
  0.036643  0.000000  0.000000      2.000000
  0.045804  0.000000  0.000000      2.000000
  0.054964  0.000000  0.000000      1.000000
  0.000000  0.009161  0.000000      4.000000
  0.009161  0.009161  0.000000      8.000000
  0.018321  0.009161  0.000000      8.000000
  0.027482  0.009161  0.000000      8.000000
  0.036643  0.009161  0.000000      8.000000
  0.045804  0.009161  0.000000      8.000000
  0.054964  0.009161  0.000000      4.000000
  0.000000  0.018321  0.000000      4.000000
  0.009161  0.018321  0.000000      8.000000
  0.018321  0.018321  0.000000      8.000000
  0.027482  0.018321  0.000000      8.000000
  0.036643  0.018321  0.000000      8.000000
  0.045804  0.018321  0.000000      8.000000
  0.054964  0.018321  0.000000      4.000000
  0.000000  0.027482  0.000000      4.000000
  0.009161  0.027482  0.000000      8.000000
  0.018321  0.027482  0.000000      8.000000
  0.027482  0.027482  0.000000      8.000000
  0.036643  0.027482  0.000000      8.000000
  0.045804  0.027482  0.000000      8.000000
  0.054964  0.027482  0.000000      4.000000
  0.000000  0.036643  0.000000      4.000000
  0.009161  0.036643  0.000000      8.000000
  0.018321  0.036643  0.000000      8.000000
  0.027482  0.036643  0.000000      8.000000
  0.036643  0.036643  0.000000      8.000000
  0.045804  0.036643  0.000000      8.000000
  0.054964  0.036643  0.000000      4.000000
  0.000000  0.045804  0.000000      4.000000
  0.009161  0.045804  0.000000      8.000000
  0.018321  0.045804  0.000000      8.000000
  0.027482  0.045804  0.000000      8.000000
  0.036643  0.045804  0.000000      8.000000
  0.045804  0.045804  0.000000      8.000000
  0.054964  0.045804  0.000000      4.000000
  0.000000  0.054964  0.000000      2.000000
  0.009161  0.054964  0.000000      4.000000
  0.018321  0.054964  0.000000      4.000000
  0.027482  0.054964  0.000000      4.000000
  0.036643  0.054964  0.000000      4.000000
  0.045804  0.054964  0.000000      4.000000
  0.054964  0.054964  0.000000      2.000000
  0.000000  0.009161  0.009161      4.000000
  0.009161  0.009161  0.009161      8.000000
  0.018321  0.009161  0.009161      8.000000
  0.027482  0.009161  0.009161      8.000000
  0.036643  0.009161  0.009161      8.000000
  0.045804  0.009161  0.009161      8.000000
  0.054964  0.009161  0.009161      4.000000
  0.000000  0.018321  0.009161      8.000000
  0.009161  0.018321  0.009161     16.000000
  0.018321  0.018321  0.009161     16.000000
  0.027482  0.018321  0.009161     16.000000
  0.036643  0.018321  0.009161     16.000000
  0.045804  0.018321  0.009161     16.000000
  0.054964  0.018321  0.009161      8.000000
  0.000000  0.027482  0.009161      8.000000
  0.009161  0.027482  0.009161     16.000000
  0.018321  0.027482  0.009161     16.000000
  0.027482  0.027482  0.009161     16.000000
  0.036643  0.027482  0.009161     16.000000
  0.045804  0.027482  0.009161     16.000000
  0.054964  0.027482  0.009161      8.000000
  0.000000  0.036643  0.009161      8.000000
  0.009161  0.036643  0.009161     16.000000
  0.018321  0.036643  0.009161     16.000000
  0.027482  0.036643  0.009161     16.000000
  0.036643  0.036643  0.009161     16.000000
  0.045804  0.036643  0.009161     16.000000
  0.054964  0.036643  0.009161      8.000000
  0.000000  0.045804  0.009161      8.000000
  0.009161  0.045804  0.009161     16.000000
  0.018321  0.045804  0.009161     16.000000
  0.027482  0.045804  0.009161     16.000000
  0.036643  0.045804  0.009161     16.000000
  0.045804  0.045804  0.009161     16.000000
  0.054964  0.045804  0.009161      8.000000
  0.000000  0.054964  0.009161      4.000000
  0.009161  0.054964  0.009161      8.000000
  0.018321  0.054964  0.009161      8.000000
  0.027482  0.054964  0.009161      8.000000
  0.036643  0.054964  0.009161      8.000000
  0.045804  0.054964  0.009161      8.000000
  0.054964  0.054964  0.009161      4.000000
  0.000000  0.018321  0.018321      4.000000
  0.009161  0.018321  0.018321      8.000000
  0.018321  0.018321  0.018321      8.000000
  0.027482  0.018321  0.018321      8.000000
  0.036643  0.018321  0.018321      8.000000
  0.045804  0.018321  0.018321      8.000000
  0.054964  0.018321  0.018321      4.000000
  0.000000  0.027482  0.018321      8.000000
  0.009161  0.027482  0.018321     16.000000
  0.018321  0.027482  0.018321     16.000000
  0.027482  0.027482  0.018321     16.000000
  0.036643  0.027482  0.018321     16.000000
  0.045804  0.027482  0.018321     16.000000
  0.054964  0.027482  0.018321      8.000000
  0.000000  0.036643  0.018321      8.000000
  0.009161  0.036643  0.018321     16.000000
  0.018321  0.036643  0.018321     16.000000
  0.027482  0.036643  0.018321     16.000000
  0.036643  0.036643  0.018321     16.000000
  0.045804  0.036643  0.018321     16.000000
  0.054964  0.036643  0.018321      8.000000
  0.000000  0.045804  0.018321      8.000000
  0.009161  0.045804  0.018321     16.000000
  0.018321  0.045804  0.018321     16.000000
  0.027482  0.045804  0.018321     16.000000
  0.036643  0.045804  0.018321     16.000000
  0.045804  0.045804  0.018321     16.000000
  0.054964  0.045804  0.018321      8.000000
  0.000000  0.054964  0.018321      4.000000
  0.009161  0.054964  0.018321      8.000000
  0.018321  0.054964  0.018321      8.000000
  0.027482  0.054964  0.018321      8.000000
  0.036643  0.054964  0.018321      8.000000
  0.045804  0.054964  0.018321      8.000000
  0.054964  0.054964  0.018321      4.000000
  0.000000  0.027482  0.027482      4.000000
  0.009161  0.027482  0.027482      8.000000
  0.018321  0.027482  0.027482      8.000000
  0.027482  0.027482  0.027482      8.000000
  0.036643  0.027482  0.027482      8.000000
  0.045804  0.027482  0.027482      8.000000
  0.054964  0.027482  0.027482      4.000000
  0.000000  0.036643  0.027482      8.000000
  0.009161  0.036643  0.027482     16.000000
  0.018321  0.036643  0.027482     16.000000
  0.027482  0.036643  0.027482     16.000000
  0.036643  0.036643  0.027482     16.000000
  0.045804  0.036643  0.027482     16.000000
  0.054964  0.036643  0.027482      8.000000
  0.000000  0.045804  0.027482      8.000000
  0.009161  0.045804  0.027482     16.000000
  0.018321  0.045804  0.027482     16.000000
  0.027482  0.045804  0.027482     16.000000
  0.036643  0.045804  0.027482     16.000000
  0.045804  0.045804  0.027482     16.000000
  0.054964  0.045804  0.027482      8.000000
  0.000000  0.054964  0.027482      4.000000
  0.009161  0.054964  0.027482      8.000000
  0.018321  0.054964  0.027482      8.000000
  0.027482  0.054964  0.027482      8.000000
  0.036643  0.054964  0.027482      8.000000
  0.045804  0.054964  0.027482      8.000000
  0.054964  0.054964  0.027482      4.000000
  0.000000  0.036643  0.036643      4.000000
  0.009161  0.036643  0.036643      8.000000
  0.018321  0.036643  0.036643      8.000000
  0.027482  0.036643  0.036643      8.000000
  0.036643  0.036643  0.036643      8.000000
  0.045804  0.036643  0.036643      8.000000
  0.054964  0.036643  0.036643      4.000000
  0.000000  0.045804  0.036643      8.000000
  0.009161  0.045804  0.036643     16.000000
  0.018321  0.045804  0.036643     16.000000
  0.027482  0.045804  0.036643     16.000000
  0.036643  0.045804  0.036643     16.000000
  0.045804  0.045804  0.036643     16.000000
  0.054964  0.045804  0.036643      8.000000
  0.000000  0.054964  0.036643      4.000000
  0.009161  0.054964  0.036643      8.000000
  0.018321  0.054964  0.036643      8.000000
  0.027482  0.054964  0.036643      8.000000
  0.036643  0.054964  0.036643      8.000000
  0.045804  0.054964  0.036643      8.000000
  0.054964  0.054964  0.036643      4.000000
  0.000000  0.045804  0.045804      4.000000
  0.009161  0.045804  0.045804      8.000000
  0.018321  0.045804  0.045804      8.000000
  0.027482  0.045804  0.045804      8.000000
  0.036643  0.045804  0.045804      8.000000
  0.045804  0.045804  0.045804      8.000000
  0.054964  0.045804  0.045804      4.000000
  0.000000  0.054964  0.045804      4.000000
  0.009161  0.054964  0.045804      8.000000
  0.018321  0.054964  0.045804      8.000000
  0.027482  0.054964  0.045804      8.000000
  0.036643  0.054964  0.045804      8.000000
  0.045804  0.054964  0.045804      8.000000
  0.054964  0.054964  0.045804      4.000000
  0.000000  0.054964  0.054964      1.000000
  0.009161  0.054964  0.054964      2.000000
  0.018321  0.054964  0.054964      2.000000
  0.027482  0.054964  0.054964      2.000000
  0.036643  0.054964  0.054964      2.000000
  0.045804  0.054964  0.054964      2.000000
  0.054964  0.054964  0.054964      1.000000
 


--------------------------------------------------------------------------------------------------------




 Dimension of arrays:
   k-Points           NKPTS =    196   number of bands    NBANDS=    216
   number of dos      NEDOS =    301   number of ions     NIONS =     32
   non local maximal  LDIM  =      6   non local SUM 2l+1 LMDIM =     18
   total plane-waves  NPLWV = 592704
   max r-space proj   IRMAX =      1   max aug-charges    IRDMAX= 385347
   dimension x,y,z NGX =    84 NGY =   84 NGZ =   84
   dimension x,y,z NGXF=   168 NGYF=  168 NGZF=  168
   support grid    NGXF=   336 NGYF=  336 NGZF=  336
   ions per type =              32
 NGX,Y,Z   is equivalent  to a cutoff of  15.35, 15.35, 15.35 a.u.
 NGXF,Y,Z  is equivalent  to a cutoff of  30.70, 30.70, 30.70 a.u.


 I would recommend the setting:
   dimension x,y,z NGX =    81 NGY =   81 NGZ =   81
 SYSTEM =  unknown system                          
 POSCAR =  Au                                      

 Startparameter for this run:
   NWRITE =      2    write-flag & timer
   PREC   = accura    medium, high low
   ISTART =      0    job   : 0-new  1-cont  2-samecut
   ICHARG =      2    charge: 1-file 2-atom 10-const
   ISPIN  =      1    spin polarized calculation?
   LNONCOLLINEAR =      F non collinear calculations
   LSORBIT =      F    spin-orbit coupling
   INIWAV =      1    electr: 0-lowe 1-rand  2-diag
   LASPH  =      F    aspherical Exc in radial PAW
   METAGGA=      F    non-selfconsistent MetaGGA calc.

 Electronic Relaxation 1
   ENCUT  =  750.0 eV  55.12 Ry    7.42 a.u.  20.31 20.31 20.31*2*pi/ulx,y,z
   ENINI  =  750.0     initial cutoff
   ENAUG  =  356.7 eV  augmentation charge cutoff
   NELM   =     60;   NELMIN=  2; NELMDL=  0     # of ELM steps 
   EDIFF  = 0.1E-07   stopping-criterion for ELM
   LREAL  =      F    real-space projection
   LCOMPAT=      F    compatible to vasp.4.4
   LREAL_COMPAT= F    compatible to vasp.4.5.1-3
   GGA_COMPAT  = T    GGA compatible to vasp.4.4-vasp.4.6
   LMAXPAW     = -100 max onsite density
   LMAXMIX     =    2 max onsite mixed and CHGCAR
   VOSKOWN=      0    Vosko Wilk Nusair interpolation
   ROPT   =    0.00000
 Ionic relaxation
   EDIFFG = 0.1E-06   stopping-criterion for IOM
   NSW    =      0    number of steps for IOM
   NBLOCK =      1;   KBLOCK =      1    inner block; outer block 
   IBRION =     -1    ionic relax: 0-MD 1-quasi-New 2-CG
   NFREE  =      0    steps in history (QN), initial steepest desc. (CG)
   ISIF   =      2    stress and relaxation
   IWAVPR =     10    prediction:  0-non 1-charg 2-wave 3-comb
   ISYM   =      2    0-nonsym 1-usesym 2-fastsym
   LCORR  =      T    Harris-Foulkes like correction to forces

   POTIM  =   0.50    time-step for ionic-motion
   TEIN   =    0.0    initial temperature
   TEBEG  =    0.0;   TEEND  =   0.0 temperature during run
   SMASS  =  -3.00    Nose mass-parameter (am)
   estimated Nose-frequenzy (Omega)   =  0.10E-29 period in steps =****** mass=  -0.189E-26a.u.
   NPACO  =    256;   APACO  = 16.0  distance and # of slots for P.C.
   PSTRESS=    0.0 pullay stress

  Mass of Ions in am
   POMASS = 196.97
  Ionic Valenz
   ZVAL   =  11.00
  Atomic Wigner-Seitz radii
   RWIGS  =  -1.00
   NELECT =     352.0000    total number of electrons
   NUPDOWN=      -1.0000    fix difference up-down

 DOS related values:
   EMIN   =  10.00;   EMAX   =-10.00  energy-range for DOS
   ISMEAR =     0;   SIGMA  =   0.01  broadening in eV -4-tet -1-fermi 0-gaus

 Electronic relaxation 2 (details)
   IALGO  =     38    algorithm
   LDIAG  =      T    sub-space diagonalisation
   IMIX   =      4    mixing-type and parameters
     AMIX     =   0.40;   BMIX     =  1.00
     AMIX_MAG =   1.60;   BMIX_MAG =  1.00
     AMIN     =   0.10
     WC   =   100.;   INIMIX=   1;  MIXPRE=   1

 Intra band minimization:
   WEIMIN = 0.0000     energy-eigenvalue tresh-hold
   EBREAK =  0.12E-10  absolut break condition
   DEPER  =   0.30     relativ break condition  

   TIME   =   0.10     timestep for ELM

  volume/ion in A,a.u.               =      23.52       158.75
  Fermi-wavevector in a.u.,eV,Ry     =   1.270670 21.968012  1.614603

 Second variation
   LSECVAR=     F    do a second variation
 
 Write flags
   LWAVE  =      F    write WAVECAR
   LCHARG =      F    write CHGCAR
   LVTOT  =      F    write LOCPOT, local potential
   LELF   =      F    write electronic localiz. function (ELF)
   LORBIT =      0    0 simple, 1 ext, 2 COOP (PROOUT)


 Dipole corrections
   IDIPOL =      0    1-x, 2-y, 3-z
   LDIPOL =      F    correct potential



--------------------------------------------------------------------------------------------------------


 Static calculation
 charge density will be updated during run
 non-spin polarized calculation
 Variant of blocked Davidson
 Davidson routine will perform the subspace rotation
 performe sub-space diagonalisation
    after iterative eigenvector-optimisation
 modified Broyden-mixing scheme, WC =      100.0
 initial mixing is a Kerker type mixing with AMIX =  0.4000 and BMIX =      1.0000
 Hartree-type preconditioning will be used
 using additional bands           40
 reciprocal scheme for non local part
 use partial core corrections
 calculate Harris-corrections to forces 
   (improved forces if not selfconsistent)
 use gradient corrections 
 use of overlap-Matrix (Vanderbilt PP)
 Gauss-broadening in eV      SIGMA  =   0.01


--------------------------------------------------------------------------------------------------------


  energy-cutoff  :      750.00
  volume of cell :      752.78
      direct lattice vectors                 reciprocal lattice vectors
     9.096817147  0.000000000  0.000000000     0.109928559  0.000000000  0.000000000
     0.000000000  9.096817147  0.000000000     0.000000000  0.109928559  0.000000000
     0.000000000  0.000000000  9.096817147     0.000000000  0.000000000  0.109928559

  length of vectors
     9.096817147  9.096817147  9.096817147     0.109928559  0.109928559  0.109928559


 
 k-points in units of 2pi/SCALE and weight: Automatic mesh                          
   0.00000000  0.00000000  0.00000000       0.001
   0.00916071  0.00000000  0.00000000       0.001
   0.01832143  0.00000000  0.00000000       0.001
   0.02748214  0.00000000  0.00000000       0.001
   0.03664285  0.00000000  0.00000000       0.001
   0.04580357  0.00000000  0.00000000       0.001
   0.05496428  0.00000000  0.00000000       0.001
   0.00000000  0.00916071  0.00000000       0.002
   0.00916071  0.00916071  0.00000000       0.005
   0.01832143  0.00916071  0.00000000       0.005
   0.02748214  0.00916071  0.00000000       0.005
   0.03664285  0.00916071  0.00000000       0.005
   0.04580357  0.00916071  0.00000000       0.005
   0.05496428  0.00916071  0.00000000       0.002
   0.00000000  0.01832143  0.00000000       0.002
   0.00916071  0.01832143  0.00000000       0.005
   0.01832143  0.01832143  0.00000000       0.005
   0.02748214  0.01832143  0.00000000       0.005
   0.03664285  0.01832143  0.00000000       0.005
   0.04580357  0.01832143  0.00000000       0.005
   0.05496428  0.01832143  0.00000000       0.002
   0.00000000  0.02748214  0.00000000       0.002
   0.00916071  0.02748214  0.00000000       0.005
   0.01832143  0.02748214  0.00000000       0.005
   0.02748214  0.02748214  0.00000000       0.005
   0.03664285  0.02748214  0.00000000       0.005
   0.04580357  0.02748214  0.00000000       0.005
   0.05496428  0.02748214  0.00000000       0.002
   0.00000000  0.03664285  0.00000000       0.002
   0.00916071  0.03664285  0.00000000       0.005
   0.01832143  0.03664285  0.00000000       0.005
   0.02748214  0.03664285  0.00000000       0.005
   0.03664285  0.03664285  0.00000000       0.005
   0.04580357  0.03664285  0.00000000       0.005
   0.05496428  0.03664285  0.00000000       0.002
   0.00000000  0.04580357  0.00000000       0.002
   0.00916071  0.04580357  0.00000000       0.005
   0.01832143  0.04580357  0.00000000       0.005
   0.02748214  0.04580357  0.00000000       0.005
   0.03664285  0.04580357  0.00000000       0.005
   0.04580357  0.04580357  0.00000000       0.005
   0.05496428  0.04580357  0.00000000       0.002
   0.00000000  0.05496428  0.00000000       0.001
   0.00916071  0.05496428  0.00000000       0.002
   0.01832143  0.05496428  0.00000000       0.002
   0.02748214  0.05496428  0.00000000       0.002
   0.03664285  0.05496428  0.00000000       0.002
   0.04580357  0.05496428  0.00000000       0.002
   0.05496428  0.05496428  0.00000000       0.001
   0.00000000  0.00916071  0.00916071       0.002
   0.00916071  0.00916071  0.00916071       0.005
   0.01832143  0.00916071  0.00916071       0.005
   0.02748214  0.00916071  0.00916071       0.005
   0.03664285  0.00916071  0.00916071       0.005
   0.04580357  0.00916071  0.00916071       0.005
   0.05496428  0.00916071  0.00916071       0.002
   0.00000000  0.01832143  0.00916071       0.005
   0.00916071  0.01832143  0.00916071       0.009
   0.01832143  0.01832143  0.00916071       0.009
   0.02748214  0.01832143  0.00916071       0.009
   0.03664285  0.01832143  0.00916071       0.009
   0.04580357  0.01832143  0.00916071       0.009
   0.05496428  0.01832143  0.00916071       0.005
   0.00000000  0.02748214  0.00916071       0.005
   0.00916071  0.02748214  0.00916071       0.009
   0.01832143  0.02748214  0.00916071       0.009
   0.02748214  0.02748214  0.00916071       0.009
   0.03664285  0.02748214  0.00916071       0.009
   0.04580357  0.02748214  0.00916071       0.009
   0.05496428  0.02748214  0.00916071       0.005
   0.00000000  0.03664285  0.00916071       0.005
   0.00916071  0.03664285  0.00916071       0.009
   0.01832143  0.03664285  0.00916071       0.009
   0.02748214  0.03664285  0.00916071       0.009
   0.03664285  0.03664285  0.00916071       0.009
   0.04580357  0.03664285  0.00916071       0.009
   0.05496428  0.03664285  0.00916071       0.005
   0.00000000  0.04580357  0.00916071       0.005
   0.00916071  0.04580357  0.00916071       0.009
   0.01832143  0.04580357  0.00916071       0.009
   0.02748214  0.04580357  0.00916071       0.009
   0.03664285  0.04580357  0.00916071       0.009
   0.04580357  0.04580357  0.00916071       0.009
   0.05496428  0.04580357  0.00916071       0.005
   0.00000000  0.05496428  0.00916071       0.002
   0.00916071  0.05496428  0.00916071       0.005
   0.01832143  0.05496428  0.00916071       0.005
   0.02748214  0.05496428  0.00916071       0.005
   0.03664285  0.05496428  0.00916071       0.005
   0.04580357  0.05496428  0.00916071       0.005
   0.05496428  0.05496428  0.00916071       0.002
   0.00000000  0.01832143  0.01832143       0.002
   0.00916071  0.01832143  0.01832143       0.005
   0.01832143  0.01832143  0.01832143       0.005
   0.02748214  0.01832143  0.01832143       0.005
   0.03664285  0.01832143  0.01832143       0.005
   0.04580357  0.01832143  0.01832143       0.005
   0.05496428  0.01832143  0.01832143       0.002
   0.00000000  0.02748214  0.01832143       0.005
   0.00916071  0.02748214  0.01832143       0.009
   0.01832143  0.02748214  0.01832143       0.009
   0.02748214  0.02748214  0.01832143       0.009
   0.03664285  0.02748214  0.01832143       0.009
   0.04580357  0.02748214  0.01832143       0.009
   0.05496428  0.02748214  0.01832143       0.005
   0.00000000  0.03664285  0.01832143       0.005
   0.00916071  0.03664285  0.01832143       0.009
   0.01832143  0.03664285  0.01832143       0.009
   0.02748214  0.03664285  0.01832143       0.009
   0.03664285  0.03664285  0.01832143       0.009
   0.04580357  0.03664285  0.01832143       0.009
   0.05496428  0.03664285  0.01832143       0.005
   0.00000000  0.04580357  0.01832143       0.005
   0.00916071  0.04580357  0.01832143       0.009
   0.01832143  0.04580357  0.01832143       0.009
   0.02748214  0.04580357  0.01832143       0.009
   0.03664285  0.04580357  0.01832143       0.009
   0.04580357  0.04580357  0.01832143       0.009
   0.05496428  0.04580357  0.01832143       0.005
   0.00000000  0.05496428  0.01832143       0.002
   0.00916071  0.05496428  0.01832143       0.005
   0.01832143  0.05496428  0.01832143       0.005
   0.02748214  0.05496428  0.01832143       0.005
   0.03664285  0.05496428  0.01832143       0.005
   0.04580357  0.05496428  0.01832143       0.005
   0.05496428  0.05496428  0.01832143       0.002
   0.00000000  0.02748214  0.02748214       0.002
   0.00916071  0.02748214  0.02748214       0.005
   0.01832143  0.02748214  0.02748214       0.005
   0.02748214  0.02748214  0.02748214       0.005
   0.03664285  0.02748214  0.02748214       0.005
   0.04580357  0.02748214  0.02748214       0.005
   0.05496428  0.02748214  0.02748214       0.002
   0.00000000  0.03664285  0.02748214       0.005
   0.00916071  0.03664285  0.02748214       0.009
   0.01832143  0.03664285  0.02748214       0.009
   0.02748214  0.03664285  0.02748214       0.009
   0.03664285  0.03664285  0.02748214       0.009
   0.04580357  0.03664285  0.02748214       0.009
   0.05496428  0.03664285  0.02748214       0.005
   0.00000000  0.04580357  0.02748214       0.005
   0.00916071  0.04580357  0.02748214       0.009
   0.01832143  0.04580357  0.02748214       0.009
   0.02748214  0.04580357  0.02748214       0.009
   0.03664285  0.04580357  0.02748214       0.009
   0.04580357  0.04580357  0.02748214       0.009
   0.05496428  0.04580357  0.02748214       0.005
   0.00000000  0.05496428  0.02748214       0.002
   0.00916071  0.05496428  0.02748214       0.005
   0.01832143  0.05496428  0.02748214       0.005
   0.02748214  0.05496428  0.02748214       0.005
   0.03664285  0.05496428  0.02748214       0.005
   0.04580357  0.05496428  0.02748214       0.005
   0.05496428  0.05496428  0.02748214       0.002
   0.00000000  0.03664285  0.03664285       0.002
   0.00916071  0.03664285  0.03664285       0.005
   0.01832143  0.03664285  0.03664285       0.005
   0.02748214  0.03664285  0.03664285       0.005
   0.03664285  0.03664285  0.03664285       0.005
   0.04580357  0.03664285  0.03664285       0.005
   0.05496428  0.03664285  0.03664285       0.002
   0.00000000  0.04580357  0.03664285       0.005
   0.00916071  0.04580357  0.03664285       0.009
   0.01832143  0.04580357  0.03664285       0.009
   0.02748214  0.04580357  0.03664285       0.009
   0.03664285  0.04580357  0.03664285       0.009
   0.04580357  0.04580357  0.03664285       0.009
   0.05496428  0.04580357  0.03664285       0.005
   0.00000000  0.05496428  0.03664285       0.002
   0.00916071  0.05496428  0.03664285       0.005
   0.01832143  0.05496428  0.03664285       0.005
   0.02748214  0.05496428  0.03664285       0.005
   0.03664285  0.05496428  0.03664285       0.005
   0.04580357  0.05496428  0.03664285       0.005
   0.05496428  0.05496428  0.03664285       0.002
   0.00000000  0.04580357  0.04580357       0.002
   0.00916071  0.04580357  0.04580357       0.005
   0.01832143  0.04580357  0.04580357       0.005
   0.02748214  0.04580357  0.04580357       0.005
   0.03664285  0.04580357  0.04580357       0.005
   0.04580357  0.04580357  0.04580357       0.005
   0.05496428  0.04580357  0.04580357       0.002
   0.00000000  0.05496428  0.04580357       0.002
   0.00916071  0.05496428  0.04580357       0.005
   0.01832143  0.05496428  0.04580357       0.005
   0.02748214  0.05496428  0.04580357       0.005
   0.03664285  0.05496428  0.04580357       0.005
   0.04580357  0.05496428  0.04580357       0.005
   0.05496428  0.05496428  0.04580357       0.002
   0.00000000  0.05496428  0.05496428       0.001
   0.00916071  0.05496428  0.05496428       0.001
   0.01832143  0.05496428  0.05496428       0.001
   0.02748214  0.05496428  0.05496428       0.001
   0.03664285  0.05496428  0.05496428       0.001
   0.04580357  0.05496428  0.05496428       0.001
   0.05496428  0.05496428  0.05496428       0.001
 
 k-points in reciprocal lattice and weights: Automatic mesh                          
   0.00000000  0.00000000  0.00000000       0.001
   0.08333333  0.00000000  0.00000000       0.001
   0.16666667  0.00000000  0.00000000       0.001
   0.25000000  0.00000000  0.00000000       0.001
   0.33333333  0.00000000  0.00000000       0.001
   0.41666667  0.00000000  0.00000000       0.001
   0.50000000  0.00000000  0.00000000       0.001
   0.00000000  0.08333333  0.00000000       0.002
   0.08333333  0.08333333  0.00000000       0.005
   0.16666667  0.08333333  0.00000000       0.005
   0.25000000  0.08333333  0.00000000       0.005
   0.33333333  0.08333333  0.00000000       0.005
   0.41666667  0.08333333  0.00000000       0.005
   0.50000000  0.08333333  0.00000000       0.002
   0.00000000  0.16666667  0.00000000       0.002
   0.08333333  0.16666667  0.00000000       0.005
   0.16666667  0.16666667  0.00000000       0.005
   0.25000000  0.16666667  0.00000000       0.005
   0.33333333  0.16666667  0.00000000       0.005
   0.41666667  0.16666667  0.00000000       0.005
   0.50000000  0.16666667  0.00000000       0.002
   0.00000000  0.25000000  0.00000000       0.002
   0.08333333  0.25000000  0.00000000       0.005
   0.16666667  0.25000000  0.00000000       0.005
   0.25000000  0.25000000  0.00000000       0.005
   0.33333333  0.25000000  0.00000000       0.005
   0.41666667  0.25000000  0.00000000       0.005
   0.50000000  0.25000000  0.00000000       0.002
   0.00000000  0.33333333  0.00000000       0.002
   0.08333333  0.33333333  0.00000000       0.005
   0.16666667  0.33333333  0.00000000       0.005
   0.25000000  0.33333333  0.00000000       0.005
   0.33333333  0.33333333  0.00000000       0.005
   0.41666667  0.33333333  0.00000000       0.005
   0.50000000  0.33333333  0.00000000       0.002
   0.00000000  0.41666667  0.00000000       0.002
   0.08333333  0.41666667  0.00000000       0.005
   0.16666667  0.41666667  0.00000000       0.005
   0.25000000  0.41666667  0.00000000       0.005
   0.33333333  0.41666667  0.00000000       0.005
   0.41666667  0.41666667  0.00000000       0.005
   0.50000000  0.41666667  0.00000000       0.002
   0.00000000  0.50000000  0.00000000       0.001
   0.08333333  0.50000000  0.00000000       0.002
   0.16666667  0.50000000  0.00000000       0.002
   0.25000000  0.50000000  0.00000000       0.002
   0.33333333  0.50000000  0.00000000       0.002
   0.41666667  0.50000000  0.00000000       0.002
   0.50000000  0.50000000  0.00000000       0.001
   0.00000000  0.08333333  0.08333333       0.002
   0.08333333  0.08333333  0.08333333       0.005
   0.16666667  0.08333333  0.08333333       0.005
   0.25000000  0.08333333  0.08333333       0.005
   0.33333333  0.08333333  0.08333333       0.005
   0.41666667  0.08333333  0.08333333       0.005
   0.50000000  0.08333333  0.08333333       0.002
   0.00000000  0.16666667  0.08333333       0.005
   0.08333333  0.16666667  0.08333333       0.009
   0.16666667  0.16666667  0.08333333       0.009
   0.25000000  0.16666667  0.08333333       0.009
   0.33333333  0.16666667  0.08333333       0.009
   0.41666667  0.16666667  0.08333333       0.009
   0.50000000  0.16666667  0.08333333       0.005
   0.00000000  0.25000000  0.08333333       0.005
   0.08333333  0.25000000  0.08333333       0.009
   0.16666667  0.25000000  0.08333333       0.009
   0.25000000  0.25000000  0.08333333       0.009
   0.33333333  0.25000000  0.08333333       0.009
   0.41666667  0.25000000  0.08333333       0.009
   0.50000000  0.25000000  0.08333333       0.005
   0.00000000  0.33333333  0.08333333       0.005
   0.08333333  0.33333333  0.08333333       0.009
   0.16666667  0.33333333  0.08333333       0.009
   0.25000000  0.33333333  0.08333333       0.009
   0.33333333  0.33333333  0.08333333       0.009
   0.41666667  0.33333333  0.08333333       0.009
   0.50000000  0.33333333  0.08333333       0.005
   0.00000000  0.41666667  0.08333333       0.005
   0.08333333  0.41666667  0.08333333       0.009
   0.16666667  0.41666667  0.08333333       0.009
   0.25000000  0.41666667  0.08333333       0.009
   0.33333333  0.41666667  0.08333333       0.009
   0.41666667  0.41666667  0.08333333       0.009
   0.50000000  0.41666667  0.08333333       0.005
   0.00000000  0.50000000  0.08333333       0.002
   0.08333333  0.50000000  0.08333333       0.005
   0.16666667  0.50000000  0.08333333       0.005
   0.25000000  0.50000000  0.08333333       0.005
   0.33333333  0.50000000  0.08333333       0.005
   0.41666667  0.50000000  0.08333333       0.005
   0.50000000  0.50000000  0.08333333       0.002
   0.00000000  0.16666667  0.16666667       0.002
   0.08333333  0.16666667  0.16666667       0.005
   0.16666667  0.16666667  0.16666667       0.005
   0.25000000  0.16666667  0.16666667       0.005
   0.33333333  0.16666667  0.16666667       0.005
   0.41666667  0.16666667  0.16666667       0.005
   0.50000000  0.16666667  0.16666667       0.002
   0.00000000  0.25000000  0.16666667       0.005
   0.08333333  0.25000000  0.16666667       0.009
   0.16666667  0.25000000  0.16666667       0.009
   0.25000000  0.25000000  0.16666667       0.009
   0.33333333  0.25000000  0.16666667       0.009
   0.41666667  0.25000000  0.16666667       0.009
   0.50000000  0.25000000  0.16666667       0.005
   0.00000000  0.33333333  0.16666667       0.005
   0.08333333  0.33333333  0.16666667       0.009
   0.16666667  0.33333333  0.16666667       0.009
   0.25000000  0.33333333  0.16666667       0.009
   0.33333333  0.33333333  0.16666667       0.009
   0.41666667  0.33333333  0.16666667       0.009
   0.50000000  0.33333333  0.16666667       0.005
   0.00000000  0.41666667  0.16666667       0.005
   0.08333333  0.41666667  0.16666667       0.009
   0.16666667  0.41666667  0.16666667       0.009
   0.25000000  0.41666667  0.16666667       0.009
   0.33333333  0.41666667  0.16666667       0.009
   0.41666667  0.41666667  0.16666667       0.009
   0.50000000  0.41666667  0.16666667       0.005
   0.00000000  0.50000000  0.16666667       0.002
   0.08333333  0.50000000  0.16666667       0.005
   0.16666667  0.50000000  0.16666667       0.005
   0.25000000  0.50000000  0.16666667       0.005
   0.33333333  0.50000000  0.16666667       0.005
   0.41666667  0.50000000  0.16666667       0.005
   0.50000000  0.50000000  0.16666667       0.002
   0.00000000  0.25000000  0.25000000       0.002
   0.08333333  0.25000000  0.25000000       0.005
   0.16666667  0.25000000  0.25000000       0.005
   0.25000000  0.25000000  0.25000000       0.005
   0.33333333  0.25000000  0.25000000       0.005
   0.41666667  0.25000000  0.25000000       0.005
   0.50000000  0.25000000  0.25000000       0.002
   0.00000000  0.33333333  0.25000000       0.005
   0.08333333  0.33333333  0.25000000       0.009
   0.16666667  0.33333333  0.25000000       0.009
   0.25000000  0.33333333  0.25000000       0.009
   0.33333333  0.33333333  0.25000000       0.009
   0.41666667  0.33333333  0.25000000       0.009
   0.50000000  0.33333333  0.25000000       0.005
   0.00000000  0.41666667  0.25000000       0.005
   0.08333333  0.41666667  0.25000000       0.009
   0.16666667  0.41666667  0.25000000       0.009
   0.25000000  0.41666667  0.25000000       0.009
   0.33333333  0.41666667  0.25000000       0.009
   0.41666667  0.41666667  0.25000000       0.009
   0.50000000  0.41666667  0.25000000       0.005
   0.00000000  0.50000000  0.25000000       0.002
   0.08333333  0.50000000  0.25000000       0.005
   0.16666667  0.50000000  0.25000000       0.005
   0.25000000  0.50000000  0.25000000       0.005
   0.33333333  0.50000000  0.25000000       0.005
   0.41666667  0.50000000  0.25000000       0.005
   0.50000000  0.50000000  0.25000000       0.002
   0.00000000  0.33333333  0.33333333       0.002
   0.08333333  0.33333333  0.33333333       0.005
   0.16666667  0.33333333  0.33333333       0.005
   0.25000000  0.33333333  0.33333333       0.005
   0.33333333  0.33333333  0.33333333       0.005
   0.41666667  0.33333333  0.33333333       0.005
   0.50000000  0.33333333  0.33333333       0.002
   0.00000000  0.41666667  0.33333333       0.005
   0.08333333  0.41666667  0.33333333       0.009
   0.16666667  0.41666667  0.33333333       0.009
   0.25000000  0.41666667  0.33333333       0.009
   0.33333333  0.41666667  0.33333333       0.009
   0.41666667  0.41666667  0.33333333       0.009
   0.50000000  0.41666667  0.33333333       0.005
   0.00000000  0.50000000  0.33333333       0.002
   0.08333333  0.50000000  0.33333333       0.005
   0.16666667  0.50000000  0.33333333       0.005
   0.25000000  0.50000000  0.33333333       0.005
   0.33333333  0.50000000  0.33333333       0.005
   0.41666667  0.50000000  0.33333333       0.005
   0.50000000  0.50000000  0.33333333       0.002
   0.00000000  0.41666667  0.41666667       0.002
   0.08333333  0.41666667  0.41666667       0.005
   0.16666667  0.41666667  0.41666667       0.005
   0.25000000  0.41666667  0.41666667       0.005
   0.33333333  0.41666667  0.41666667       0.005
   0.41666667  0.41666667  0.41666667       0.005
   0.50000000  0.41666667  0.41666667       0.002
   0.00000000  0.50000000  0.41666667       0.002
   0.08333333  0.50000000  0.41666667       0.005
   0.16666667  0.50000000  0.41666667       0.005
   0.25000000  0.50000000  0.41666667       0.005
   0.33333333  0.50000000  0.41666667       0.005
   0.41666667  0.50000000  0.41666667       0.005
   0.50000000  0.50000000  0.41666667       0.002
   0.00000000  0.50000000  0.50000000       0.001
   0.08333333  0.50000000  0.50000000       0.001
   0.16666667  0.50000000  0.50000000       0.001
   0.25000000  0.50000000  0.50000000       0.001
   0.33333333  0.50000000  0.50000000       0.001
   0.41666667  0.50000000  0.50000000       0.001
   0.50000000  0.50000000  0.50000000       0.001
 
 position of ions in fractional coordinates (direct lattice) 
   0.00109929  0.00000000  0.00000000
   0.50000000  0.00000000  0.00000000
   0.00000000  0.50000000  0.00000000
   0.50000000  0.50000000  0.00000000
   0.00000000  0.00000000  0.50000000
   0.50000000  0.00000000  0.50000000
   0.00000000  0.50000000  0.50000000
   0.50000000  0.50000000  0.50000000
   0.25000000  0.25000000  0.00000000
   0.75000000  0.25000000  0.00000000
   0.25000000  0.75000000  0.00000000
   0.75000000  0.75000000  0.00000000
   0.25000000  0.25000000  0.50000000
   0.75000000  0.25000000  0.50000000
   0.25000000  0.75000000  0.50000000
   0.75000000  0.75000000  0.50000000
   0.25000000  0.00000000  0.25000000
   0.75000000  0.00000000  0.25000000
   0.25000000  0.50000000  0.25000000
   0.75000000  0.50000000  0.25000000
   0.25000000  0.00000000  0.75000000
   0.75000000  0.00000000  0.75000000
   0.25000000  0.50000000  0.75000000
   0.75000000  0.50000000  0.75000000
   0.00000000  0.25000000  0.25000000
   0.50000000  0.25000000  0.25000000
   0.00000000  0.75000000  0.25000000
   0.50000000  0.75000000  0.25000000
   0.00000000  0.25000000  0.75000000
   0.50000000  0.25000000  0.75000000
   0.00000000  0.75000000  0.75000000
   0.50000000  0.75000000  0.75000000
 
 position of ions in cartesian coordinates  (Angst):
   0.01000000  0.00000000  0.00000000
   4.54840857  0.00000000  0.00000000
   0.00000000  4.54840857  0.00000000
   4.54840857  4.54840857  0.00000000
   0.00000000  0.00000000  4.54840857
   4.54840857  0.00000000  4.54840857
   0.00000000  4.54840857  4.54840857
   4.54840857  4.54840857  4.54840857
   2.27420429  2.27420429  0.00000000
   6.82261286  2.27420429  0.00000000
   2.27420429  6.82261286  0.00000000
   6.82261286  6.82261286  0.00000000
   2.27420429  2.27420429  4.54840857
   6.82261286  2.27420429  4.54840857
   2.27420429  6.82261286  4.54840857
   6.82261286  6.82261286  4.54840857
   2.27420429  0.00000000  2.27420429
   6.82261286  0.00000000  2.27420429
   2.27420429  4.54840857  2.27420429
   6.82261286  4.54840857  2.27420429
   2.27420429  0.00000000  6.82261286
   6.82261286  0.00000000  6.82261286
   2.27420429  4.54840857  6.82261286
   6.82261286  4.54840857  6.82261286
   0.00000000  2.27420429  2.27420429
   4.54840857  2.27420429  2.27420429
   0.00000000  6.82261286  2.27420429
   4.54840857  6.82261286  2.27420429
   0.00000000  2.27420429  6.82261286
   4.54840857  2.27420429  6.82261286
   0.00000000  6.82261286  6.82261286
   4.54840857  6.82261286  6.82261286
 


--------------------------------------------------------------------------------------------------------


 k-point  1 :  0.00000.00000.0000  plane waves:  35033
 k-point  2 :  0.08330.00000.0000  plane waves:  35161
 k-point  3 :  0.16670.00000.0000  plane waves:  35125
 k-point  4 :  0.25000.00000.0000  plane waves:  35165
 k-point  5 :  0.33330.00000.0000  plane waves:  35132
 k-point  6 :  0.41670.00000.0000  plane waves:  35120
 k-point  7 :  0.50000.00000.0000  plane waves:  35192
 k-point  8 :  0.00000.08330.0000  plane waves:  35161
 k-point  9 :  0.08330.08330.0000  plane waves:  35103
 k-point 10 :  0.16670.08330.0000  plane waves:  35133
 k-point 11 :  0.25000.08330.0000  plane waves:  35133
 k-point 12 :  0.33330.08330.0000  plane waves:  35130
 k-point 13 :  0.41670.08330.0000  plane waves:  35102
 k-point 14 :  0.50000.08330.0000  plane waves:  35114
 k-point 15 :  0.00000.16670.0000  plane waves:  35125
 k-point 16 :  0.08330.16670.0000  plane waves:  35133
 k-point 17 :  0.16670.16670.0000  plane waves:  35147
 k-point 18 :  0.25000.16670.0000  plane waves:  35103
 k-point 19 :  0.33330.16670.0000  plane waves:  35111
 k-point 20 :  0.41670.16670.0000  plane waves:  35104
 k-point 21 :  0.50000.16670.0000  plane waves:  35134
 k-point 22 :  0.00000.25000.0000  plane waves:  35165
 k-point 23 :  0.08330.25000.0000  plane waves:  35133
 k-point 24 :  0.16670.25000.0000  plane waves:  35103
 k-point 25 :  0.25000.25000.0000  plane waves:  35077
 k-point 26 :  0.33330.25000.0000  plane waves:  35101
 k-point 27 :  0.41670.25000.0000  plane waves:  35086
 k-point 28 :  0.50000.25000.0000  plane waves:  35074
 k-point 29 :  0.00000.33330.0000  plane waves:  35132
 k-point 30 :  0.08330.33330.0000  plane waves:  35130
 k-point 31 :  0.16670.33330.0000  plane waves:  35111
 k-point 32 :  0.25000.33330.0000  plane waves:  35101
 k-point 33 :  0.33330.33330.0000  plane waves:  35131
 k-point 34 :  0.41670.33330.0000  plane waves:  35085
 k-point 35 :  0.50000.33330.0000  plane waves:  35084
 k-point 36 :  0.00000.41670.0000  plane waves:  35120
 k-point 37 :  0.08330.41670.0000  plane waves:  35102
 k-point 38 :  0.16670.41670.0000  plane waves:  35104
 k-point 39 :  0.25000.41670.0000  plane waves:  35086
 k-point 40 :  0.33330.41670.0000  plane waves:  35085
 k-point 41 :  0.41670.41670.0000  plane waves:  35086
 k-point 42 :  0.50000.41670.0000  plane waves:  35140
 k-point 43 :  0.00000.50000.0000  plane waves:  35192
 k-point 44 :  0.08330.50000.0000  plane waves:  35114
 k-point 45 :  0.16670.50000.0000  plane waves:  35134
 k-point 46 :  0.25000.50000.0000  plane waves:  35074
 k-point 47 :  0.33330.50000.0000  plane waves:  35084
 k-point 48 :  0.41670.50000.0000  plane waves:  35140
 k-point 49 :  0.50000.50000.0000  plane waves:  35200
 k-point 50 :  0.00000.08330.0833  plane waves:  35103
 k-point 51 :  0.08330.08330.0833  plane waves:  35114
 k-point 52 :  0.16670.08330.0833  plane waves:  35120
 k-point 53 :  0.25000.08330.0833  plane waves:  35127
 k-point 54 :  0.33330.08330.0833  plane waves:  35115
 k-point 55 :  0.41670.08330.0833  plane waves:  35122
 k-point 56 :  0.50000.08330.0833  plane waves:  35146
 k-point 57 :  0.00000.16670.0833  plane waves:  35133
 k-point 58 :  0.08330.16670.0833  plane waves:  35120
 k-point 59 :  0.16670.16670.0833  plane waves:  35133
 k-point 60 :  0.25000.16670.0833  plane waves:  35122
 k-point 61 :  0.33330.16670.0833  plane waves:  35103
 k-point 62 :  0.41670.16670.0833  plane waves:  35121
 k-point 63 :  0.50000.16670.0833  plane waves:  35128
 k-point 64 :  0.00000.25000.0833  plane waves:  35133
 k-point 65 :  0.08330.25000.0833  plane waves:  35127
 k-point 66 :  0.16670.25000.0833  plane waves:  35122
 k-point 67 :  0.25000.25000.0833  plane waves:  35080
 k-point 68 :  0.33330.25000.0833  plane waves:  35079
 k-point 69 :  0.41670.25000.0833  plane waves:  35120
 k-point 70 :  0.50000.25000.0833  plane waves:  35110
 k-point 71 :  0.00000.33330.0833  plane waves:  35130
 k-point 72 :  0.08330.33330.0833  plane waves:  35115
 k-point 73 :  0.16670.33330.0833  plane waves:  35103
 k-point 74 :  0.25000.33330.0833  plane waves:  35079
 k-point 75 :  0.33330.33330.0833  plane waves:  35105
 k-point 76 :  0.41670.33330.0833  plane waves:  35094
 k-point 77 :  0.50000.33330.0833  plane waves:  35096
 k-point 78 :  0.00000.41670.0833  plane waves:  35102
 k-point 79 :  0.08330.41670.0833  plane waves:  35122
 k-point 80 :  0.16670.41670.0833  plane waves:  35121
 k-point 81 :  0.25000.41670.0833  plane waves:  35120
 k-point 82 :  0.33330.41670.0833  plane waves:  35094
 k-point 83 :  0.41670.41670.0833  plane waves:  35091
 k-point 84 :  0.50000.41670.0833  plane waves:  35128
 k-point 85 :  0.00000.50000.0833  plane waves:  35114
 k-point 86 :  0.08330.50000.0833  plane waves:  35146
 k-point 87 :  0.16670.50000.0833  plane waves:  35128
 k-point 88 :  0.25000.50000.0833  plane waves:  35110
 k-point 89 :  0.33330.50000.0833  plane waves:  35096
 k-point 90 :  0.41670.50000.0833  plane waves:  35128
 k-point 91 :  0.50000.50000.0833  plane waves:  35108
 k-point 92 :  0.00000.16670.1667  plane waves:  35147
 k-point 93 :  0.08330.16670.1667  plane waves:  35133
 k-point 94 :  0.16670.16670.1667  plane waves:  35087
 k-point 95 :  0.25000.16670.1667  plane waves:  35096
 k-point 96 :  0.33330.16670.1667  plane waves:  35121
 k-point 97 :  0.41670.16670.1667  plane waves:  35127
 k-point 98 :  0.50000.16670.1667  plane waves:  35126
 k-point 99 :  0.00000.25000.1667  plane waves:  35103
 k-point ** :  0.08330.25000.1667  plane waves:  35122
 k-point ** :  0.16670.25000.1667  plane waves:  35096
 k-point ** :  0.25000.25000.1667  plane waves:  35105
 k-point ** :  0.33330.25000.1667  plane waves:  35110
 k-point ** :  0.41670.25000.1667  plane waves:  35127
 k-point ** :  0.50000.25000.1667  plane waves:  35122
 k-point ** :  0.00000.33330.1667  plane waves:  35111
 k-point ** :  0.08330.33330.1667  plane waves:  35103
 k-point ** :  0.16670.33330.1667  plane waves:  35121
 k-point ** :  0.25000.33330.1667  plane waves:  35110
 k-point ** :  0.33330.33330.1667  plane waves:  35122
 k-point ** :  0.41670.33330.1667  plane waves:  35092
 k-point ** :  0.50000.33330.1667  plane waves:  35116
 k-point ** :  0.00000.41670.1667  plane waves:  35104
 k-point ** :  0.08330.41670.1667  plane waves:  35121
 k-point ** :  0.16670.41670.1667  plane waves:  35127
 k-point ** :  0.25000.41670.1667  plane waves:  35127
 k-point ** :  0.33330.41670.1667  plane waves:  35092
 k-point ** :  0.41670.41670.1667  plane waves:  35096
 k-point ** :  0.50000.41670.1667  plane waves:  35100
 k-point ** :  0.00000.50000.1667  plane waves:  35134
 k-point ** :  0.08330.50000.1667  plane waves:  35128
 k-point ** :  0.16670.50000.1667  plane waves:  35126
 k-point ** :  0.25000.50000.1667  plane waves:  35122
 k-point ** :  0.33330.50000.1667  plane waves:  35116
 k-point ** :  0.41670.50000.1667  plane waves:  35100
 k-point ** :  0.50000.50000.1667  plane waves:  35092
 k-point ** :  0.00000.25000.2500  plane waves:  35077
 k-point ** :  0.08330.25000.2500  plane waves:  35080
 k-point ** :  0.16670.25000.2500  plane waves:  35105
 k-point ** :  0.25000.25000.2500  plane waves:  35093
 k-point ** :  0.33330.25000.2500  plane waves:  35121
 k-point ** :  0.41670.25000.2500  plane waves:  35092
 k-point ** :  0.50000.25000.2500  plane waves:  35064
 k-point ** :  0.00000.33330.2500  plane waves:  35101
 k-point ** :  0.08330.33330.2500  plane waves:  35079
 k-point ** :  0.16670.33330.2500  plane waves:  35110
 k-point ** :  0.25000.33330.2500  plane waves:  35121
 k-point ** :  0.33330.33330.2500  plane waves:  35109
 k-point ** :  0.41670.33330.2500  plane waves:  35093
 k-point ** :  0.50000.33330.2500  plane waves:  35112
 k-point ** :  0.00000.41670.2500  plane waves:  35086
 k-point ** :  0.08330.41670.2500  plane waves:  35120
 k-point ** :  0.16670.41670.2500  plane waves:  35127
 k-point ** :  0.25000.41670.2500  plane waves:  35092
 k-point ** :  0.33330.41670.2500  plane waves:  35093
 k-point ** :  0.41670.41670.2500  plane waves:  35102
 k-point ** :  0.50000.41670.2500  plane waves:  35078
 k-point ** :  0.00000.50000.2500  plane waves:  35074
 k-point ** :  0.08330.50000.2500  plane waves:  35110
 k-point ** :  0.16670.50000.2500  plane waves:  35122
 k-point ** :  0.25000.50000.2500  plane waves:  35064
 k-point ** :  0.33330.50000.2500  plane waves:  35112
 k-point ** :  0.41670.50000.2500  plane waves:  35078
 k-point ** :  0.50000.50000.2500  plane waves:  35124
 k-point ** :  0.00000.33330.3333  plane waves:  35131
 k-point ** :  0.08330.33330.3333  plane waves:  35105
 k-point ** :  0.16670.33330.3333  plane waves:  35122
 k-point ** :  0.25000.33330.3333  plane waves:  35109
 k-point ** :  0.33330.33330.3333  plane waves:  35031
 k-point ** :  0.41670.33330.3333  plane waves:  35114
 k-point ** :  0.50000.33330.3333  plane waves:  35108
 k-point ** :  0.00000.41670.3333  plane waves:  35085
 k-point ** :  0.08330.41670.3333  plane waves:  35094
 k-point ** :  0.16670.41670.3333  plane waves:  35092
 k-point ** :  0.25000.41670.3333  plane waves:  35093
 k-point ** :  0.33330.41670.3333  plane waves:  35114
 k-point ** :  0.41670.41670.3333  plane waves:  35112
 k-point ** :  0.50000.41670.3333  plane waves:  35102
 k-point ** :  0.00000.50000.3333  plane waves:  35084
 k-point ** :  0.08330.50000.3333  plane waves:  35096
 k-point ** :  0.16670.50000.3333  plane waves:  35116
 k-point ** :  0.25000.50000.3333  plane waves:  35112
 k-point ** :  0.33330.50000.3333  plane waves:  35108
 k-point ** :  0.41670.50000.3333  plane waves:  35102
 k-point ** :  0.50000.50000.3333  plane waves:  35116
 k-point ** :  0.00000.41670.4167  plane waves:  35086
 k-point ** :  0.08330.41670.4167  plane waves:  35091
 k-point ** :  0.16670.41670.4167  plane waves:  35096
 k-point ** :  0.25000.41670.4167  plane waves:  35102
 k-point ** :  0.33330.41670.4167  plane waves:  35112
 k-point ** :  0.41670.41670.4167  plane waves:  35091
 k-point ** :  0.50000.41670.4167  plane waves:  35104
 k-point ** :  0.00000.50000.4167  plane waves:  35140
 k-point ** :  0.08330.50000.4167  plane waves:  35128
 k-point ** :  0.16670.50000.4167  plane waves:  35100
 k-point ** :  0.25000.50000.4167  plane waves:  35078
 k-point ** :  0.33330.50000.4167  plane waves:  35102
 k-point ** :  0.41670.50000.4167  plane waves:  35104
 k-point ** :  0.50000.50000.4167  plane waves:  35088
 k-point ** :  0.00000.50000.5000  plane waves:  35200
 k-point ** :  0.08330.50000.5000  plane waves:  35108
 k-point ** :  0.16670.50000.5000  plane waves:  35092
 k-point ** :  0.25000.50000.5000  plane waves:  35124
 k-point ** :  0.33330.50000.5000  plane waves:  35116
 k-point ** :  0.41670.50000.5000  plane waves:  35088
 k-point ** :  0.50000.50000.5000  plane waves:  35016

 maximum and minimum number of plane-waves per node :  35200 35016

 maximum number of plane-waves:  35200
 maximal index in each direction: 
   IXMAX= 20   IYMAX= 20   IZMAX= 20
   IXMIN=-20   IYMIN=-20   IZMIN=-20

 NGX is ok and might be reduce to  82
 NGY is ok and might be reduce to  82
 NGZ is ok and might be reduce to  82

 parallel 3dFFT wavefunction:
    minimum data exchange during FFTs selected (reduces bandwidth)
 parallel 3dFFT charge:
    minimum data exchange during FFTs selected (reduces bandwidth)

 For storing wavefunctions ******* MBYTES are necessary
 For predicting wavefunctions  254.38 MBYTES are necessary
Broyden mixing: mesh for mixing (old mesh)
   NGX = 41   NGY = 41   NGZ = 41
  (NGX  =168   NGY  =168   NGZ  =168)
 gives a total of  68921 points
 initial charge density was supplied:
 charge density of overlapping atoms calculated
 number of electron  352.0000000 magnetization 
 keeping initial charge density in first step


--------------------------------------------------------------------------------------------------------


 Maximum index for augmentation-charges        46847 (set IRDMAX)


--------------------------------------------------------------------------------------------------------


 First call to EWALD:  gamma=   0.195
 Maximum number of real-space cells 3x 3x 3
 Maximum number of reciprocal cells 3x 3x 3

    FEWALD:  VPU time    0.00: CPU time    0.01


----------------------------------------- Iteration    1(   1)  ---------------------------------------


    POTLOK:  VPU time    0.38: CPU time    0.38
    SETDIJ:  VPU time    0.50: CPU time    0.50
    EDDAV :  VPU time 1167.48: CPU time 1167.54
    DOS   :  VPU time    0.00: CPU time   -0.00
    ------------------------------------------
      LOOP:  VPU time 1168.49: CPU time 1168.55

 eigenvalue-minimisations  : 84672
 total energy-change (2. order) : 0.4266584E+04  (-0.2006995E+05)
 number of electron  352.0000000 magnetization 
 augmentation part   352.0000000 magnetization 

 Free energy of the ion-electron system (eV)
  ---------------------------------------------------
  alpha Z        PSCENC =      2547.57918915
  Ewald energy   TEWEN  =    -28101.40609550
  -1/2 Hartree   DENC   =     -5366.66944266
  -V(xc)+E(xc)   XCENC  =       461.72884375
  PAW double counting   =     23920.39735419   -23172.13309131
  entropy T*S    EENTRO =        -0.00106114
  eigenvalues    EBANDS =      4343.29809728
  atomic energy  EATOM  =     29633.78979189
  ---------------------------------------------------
  free energy    TOTEN  =      4266.58358563 eV

  energy without entropy =     4266.58464677  energy(sigma->0) =     4266.58411620


--------------------------------------------------------------------------------------------------------




----------------------------------------- Iteration    1(   2)  ---------------------------------------


    EDDAV :  VPU time 1169.48: CPU time 1169.39
    DOS   :  VPU time    0.00: CPU time   -0.00
    ------------------------------------------
      LOOP:  VPU time 1169.61: CPU time 1169.52

 eigenvalue-minimisations  : 84752
 total energy-change (2. order) :-0.4096257E+04  (-0.3895966E+04)
 number of electron  352.0000000 magnetization 
 augmentation part   352.0000000 magnetization 

 Free energy of the ion-electron system (eV)
  ---------------------------------------------------
  alpha Z        PSCENC =      2547.57918915
  Ewald energy   TEWEN  =    -28101.40609550
  -1/2 Hartree   DENC   =     -5366.66944266
  -V(xc)+E(xc)   XCENC  =       461.72884375
  PAW double counting   =     23920.39735419   -23172.13309131
  entropy T*S    EENTRO =        -0.00066820
  eigenvalues    EBANDS =       247.04082915
  atomic energy  EATOM  =     29633.78979189
  ---------------------------------------------------
  free energy    TOTEN  =       170.32671044 eV

  energy without entropy =      170.32737865  energy(sigma->0) =      170.32704454


--------------------------------------------------------------------------------------------------------




----------------------------------------- Iteration    1(   3)  ---------------------------------------


    EDDAV :  VPU time 1283.51: CPU time 1283.28
    DOS   :  VPU time    0.00: CPU time   -0.00
    ------------------------------------------
      LOOP:  VPU time 1283.64: CPU time 1283.41

 eigenvalue-minimisations  : 95536
 total energy-change (2. order) :-0.2590738E+03  (-0.2332106E+03)
 number of electron  352.0000000 magnetization 
 augmentation part   352.0000000 magnetization 

 Free energy of the ion-electron system (eV)
  ---------------------------------------------------
  alpha Z        PSCENC =      2547.57918915
  Ewald energy   TEWEN  =    -28101.40609550
  -1/2 Hartree   DENC   =     -5366.66944266
  -V(xc)+E(xc)   XCENC  =       461.72884375
  PAW double counting   =     23920.39735419   -23172.13309131
  entropy T*S    EENTRO =        -0.00056362
  eigenvalues    EBANDS =       -12.03302756
  atomic energy  EATOM  =     29633.78979189
  ---------------------------------------------------
  free energy    TOTEN  =       -88.74704168 eV

  energy without entropy =      -88.74647806  energy(sigma->0) =      -88.74675987


--------------------------------------------------------------------------------------------------------




----------------------------------------- Iteration    1(   4)  ---------------------------------------


    EDDAV :  VPU time 1234.13: CPU time 1233.91
    DOS   :  VPU time    0.00: CPU time   -0.00
    ------------------------------------------
      LOOP:  VPU time 1234.26: CPU time 1234.04

 eigenvalue-minimisations  : 90224
 total energy-change (2. order) :-0.1009239E+02  (-0.9921576E+01)
 number of electron  352.0000000 magnetization 
 augmentation part   352.0000000 magnetization 

 Free energy of the ion-electron system (eV)
  ---------------------------------------------------
  alpha Z        PSCENC =      2547.57918915
  Ewald energy   TEWEN  =    -28101.40609550
  -1/2 Hartree   DENC   =     -5366.66944266
  -V(xc)+E(xc)   XCENC  =       461.72884375
  PAW double counting   =     23920.39735419   -23172.13309131
  entropy T*S    EENTRO =        -0.00086711
  eigenvalues    EBANDS =       -22.12511192
  atomic energy  EATOM  =     29633.78979189
  ---------------------------------------------------
  free energy    TOTEN  =       -98.83942953 eV

  energy without entropy =      -98.83856243  energy(sigma->0) =      -98.83899598


--------------------------------------------------------------------------------------------------------




----------------------------------------- Iteration    1(   5)  ---------------------------------------


    EDDAV :  VPU time 1245.39: CPU time 1245.17
    DOS   :  VPU time    0.00: CPU time   -0.00
    CHARGE:  VPU time   54.74: CPU time   54.73
    MIXING:  VPU time    0.01: CPU time    0.01
    ------------------------------------------
      LOOP:  VPU time 1300.28: CPU time 1300.04

 eigenvalue-minimisations  : 91296
 total energy-change (2. order) :-0.1922187E+00  (-0.1917362E+00)
 number of electron  352.0000006 magnetization 
 augmentation part   125.9459768 magnetization 

 Broyden mixing:
  rms(total) = 0.13443E+01    rms(broyden)= 0.13443E+01
  rms(prec ) = 0.20463E+01
  weight for this iteration     100.00

 Free energy of the ion-electron system (eV)
  ---------------------------------------------------
  alpha Z        PSCENC =      2547.57918915
  Ewald energy   TEWEN  =    -28101.40609550
  -1/2 Hartree   DENC   =     -5366.66944266
  -V(xc)+E(xc)   XCENC  =       461.72884375
  PAW double counting   =     23920.39735419   -23172.13309131
  entropy T*S    EENTRO =        -0.00086489
  eigenvalues    EBANDS =       -22.31733287
  atomic energy  EATOM  =     29633.78979189
  ---------------------------------------------------
  free energy    TOTEN  =       -99.03164826 eV

  energy without entropy =      -99.03078337  energy(sigma->0) =      -99.03121582


--------------------------------------------------------------------------------------------------------




----------------------------------------- Iteration    1(   6)  ---------------------------------------


    POTLOK:  VPU time    0.40: CPU time    0.40
    SETDIJ:  VPU time    0.58: CPU time    0.58
    EDDAV :  VPU time 1224.04: CPU time 1223.82
    DOS   :  VPU time    0.00: CPU time   -0.00
    CHARGE:  VPU time   57.02: CPU time   57.00
    MIXING:  VPU time    0.01: CPU time    0.01
    ------------------------------------------
      LOOP:  VPU time 1282.18: CPU time 1281.96

 eigenvalue-minimisations  : 88800
 total energy-change (2. order) : 0.5880355E+01  (-0.1995837E+01)
 number of electron  352.0000006 magnetization 
 augmentation part   130.3550480 magnetization 

 Broyden mixing:
  rms(total) = 0.31766E+00    rms(broyden)= 0.31766E+00
  rms(prec ) = 0.42846E+00
  weight for this iteration     100.00

 eigenvalues of (default mixing * dielectric matrix)
  average eigenvalue GAMMA=   1.0783
  1.0783

 Free energy of the ion-electron system (eV)
  ---------------------------------------------------
  alpha Z        PSCENC =      2547.57918915
  Ewald energy   TEWEN  =    -28101.40609550
  -1/2 Hartree   DENC   =     -5123.23056406
  -V(xc)+E(xc)   XCENC  =       450.84003180
  PAW double counting   =     23407.50211524   -22681.09997408
  entropy T*S    EENTRO =        -0.00057213
  eigenvalues    EBANDS =      -227.12521555
  atomic energy  EATOM  =     29633.78979189
  ---------------------------------------------------
  free energy    TOTEN  =       -93.15129325 eV

  energy without entropy =      -93.15072111  energy(sigma->0) =      -93.15100718


--------------------------------------------------------------------------------------------------------




----------------------------------------- Iteration    1(   7)  ---------------------------------------


    POTLOK:  VPU time    0.37: CPU time    0.38
    SETDIJ:  VPU time    0.55: CPU time    0.55
    EDDAV :  VPU time 1652.29: CPU time 1652.09
    DOS   :  VPU time    0.00: CPU time   -0.00
    CHARGE:  VPU time  103.04: CPU time  103.03
    MIXING:  VPU time    0.02: CPU time    0.02
    ------------------------------------------
      LOOP:  VPU time 1756.42: CPU time 1756.21

 eigenvalue-minimisations  : 93856
 total energy-change (2. order) : 0.1034619E+00  (-0.6674624E-01)
 number of electron  352.0000006 magnetization 
 augmentation part   130.9627388 magnetization 

 Broyden mixing:
  rms(total) = 0.18040E+00    rms(broyden)= 0.18040E+00
  rms(prec ) = 0.21287E+00
  weight for this iteration     100.00

 eigenvalues of (default mixing * dielectric matrix)
  average eigenvalue GAMMA=   1.8117
  1.1166  2.5068

 Free energy of the ion-electron system (eV)
  ---------------------------------------------------
  alpha Z        PSCENC =      2547.57918915
  Ewald energy   TEWEN  =    -28101.40609550
  -1/2 Hartree   DENC   =     -5079.03282777
  -V(xc)+E(xc)   XCENC  =       448.65281801
  PAW double counting   =     23333.00828381   -22617.01037073
  entropy T*S    EENTRO =        -0.00060601
  eigenvalues    EBANDS =      -258.62801415
  atomic energy  EATOM  =     29633.78979189
[...]
     72      -0.9056      2.00000
     73      -0.9054      2.00000
     74      -0.9054      2.00000
     75      -0.9054      2.00000
     76      -0.9053      2.00000
     77      -0.9049      2.00000
     78      -0.9048      2.00000
     79      -0.9046      2.00000
     80      -0.9046      2.00000
     81      -0.7639      2.00000
     82      -0.7639      2.00000
     83      -0.7634      2.00000
     84      -0.7628      2.00000
     85      -0.7617      2.00000
     86      -0.7613      2.00000
     87      -0.7613      2.00000
     88      -0.7613      2.00000
     89      -0.7612      2.00000
     90      -0.7612      2.00000
     91      -0.7612      2.00000
     92      -0.7612      2.00000
     93      -0.7611      2.00000
     94      -0.7611      2.00000
     95      -0.7611      2.00000
     96      -0.7611      2.00000
     97      -0.7611      2.00000
     98      -0.7611      2.00000
     99      -0.7610      2.00000
    100      -0.7606      2.00000
    101      -0.7595      2.00000
    102      -0.7589      2.00000
    103      -0.7583      2.00000
    104      -0.7583      2.00000
    105      -0.3796      2.00000
    106      -0.3787      2.00000
    107      -0.3787      2.00000
    108      -0.3773      2.00000
    109      -0.3772      2.00000
    110      -0.3771      2.00000
    111      -0.3771      2.00000
    112      -0.3769      2.00000
    113      -0.3768      2.00000
    114      -0.3768      2.00000
    115      -0.3768      2.00000
    116      -0.3768      2.00000
    117      -0.3767      2.00000
    118      -0.3767      2.00000
    119      -0.3767      2.00000
    120      -0.3767      2.00000
    121      -0.3766      2.00000
    122      -0.3764      2.00000
    123      -0.3764      2.00000
    124      -0.3763      2.00000
    125      -0.3762      2.00000
    126      -0.3748      2.00000
    127      -0.3748      2.00000
    128      -0.3739      2.00000
    129      -0.1150      2.00000
    130      -0.1139      2.00000
    131      -0.1139      2.00000
    132      -0.1139      2.00000
    133      -0.1132      2.00000
    134      -0.1132      2.00000
    135      -0.1131      2.00000
    136      -0.1130      2.00000
    137      -0.1129      2.00000
    138      -0.1129      2.00000
    139      -0.1127      2.00000
    140      -0.1127      2.00000
    141      -0.1120      2.00000
    142      -0.1120      2.00000
    143      -0.1120      2.00000
    144      -0.1110      2.00000
    145       0.4975      2.00000
    146       0.4975      2.00000
    147       0.4977      2.00000
    148       0.4978      2.00000
    149       0.4978      2.00000
    150       0.4979      2.00000
    151       0.4979      2.00000
    152       0.4979      2.00000
    153       0.4979      2.00000
    154       0.4980      2.00000
    155       0.4980      2.00000
    156       0.4980      2.00000
    157       0.4981      2.00000
    158       0.4982      2.00000
    159       0.4982      2.00000
    160       0.4982      2.00000
    161       0.4983      2.00000
    162       0.4983      2.00000
    163       0.4983      2.00000
    164       0.4984      2.00000
    165       0.4984      2.00000
    166       0.4985      2.00000
    167       0.4987      2.00000
    168       0.4987      2.00000
    169       2.9486      0.00000
    170       2.9526      0.00000
    171       2.9526      0.00000
    172       2.9539      0.00000
    173       2.9542      0.00000
    174       2.9544      0.00000
    175       2.9544      0.00000
    176       2.9544      0.00000
    177       2.9545      0.00000
    178       2.9545      0.00000
    179       2.9545      0.00000
    180       2.9545      0.00000
    181       2.9546      0.00000
    182       2.9547      0.00000
    183       2.9547      0.00000
    184       2.9547      0.00000
    185       2.9547      0.00000
    186       2.9547      0.00000
    187       2.9547      0.00000
    188       2.9549      0.00000
    189       2.9552      0.00000
    190       2.9565      0.00000
    191       2.9565      0.00000
    192       2.9605      0.00000
    193       6.7776      0.00000
    194       6.7776      0.00000
    195       6.7785      0.00000
    196       6.7804      0.00000
    197       6.7807      0.00000
    198       6.7810      0.00000
    199       6.7810      0.00000
    200       6.7813      0.00000
    201       6.7814      0.00000
    202       6.7814      0.00000
    203       6.7815      0.00000
    204       6.7815      0.00000
    205       6.7815      0.00000
    206       6.7815      0.00000
    207       6.7816      0.00000
    208       6.7816      0.00000
    209       6.7817      0.00000
    210       6.7819      0.00000
    211       6.7819      0.00000
    212       6.7822      0.00000
    213       6.7826      0.00000
    214       6.7845      0.00000
    215       6.7853      0.00000
    216       6.7853      0.00000


--------------------------------------------------------------------------------------------------------


 soft charge-density along one line, spin component           1
         0         1         2         3         4         5         6         7         8         9
 total charge-density along one line
 
 pseudopotential strength for first ion, spin component:           1
-10.902  -0.000   0.000  -0.000   0.000   0.054   0.000  -0.000
 -0.000 -10.902   0.000  -0.000   0.000   0.000   0.054  -0.000
  0.000   0.000 -10.892   0.000  -0.000  -0.000  -0.000   0.053
 -0.000  -0.000   0.000 -10.902  -0.000   0.000   0.000  -0.000
  0.000   0.000  -0.000  -0.000 -10.892  -0.000  -0.000   0.000
  0.054   0.000  -0.000   0.000  -0.000   0.263  -0.000   0.000
  0.000   0.054  -0.000   0.000  -0.000  -0.000   0.263   0.000
 -0.000  -0.000   0.053  -0.000   0.000   0.000   0.000   0.263
  0.000   0.000  -0.000   0.054   0.000  -0.000  -0.000   0.000
 -0.000  -0.000   0.000   0.000   0.053   0.000   0.000  -0.000
  0.000   0.000   0.000   0.000  -0.000   0.000   0.000  -0.000
 -0.000  -0.000  -0.000  -0.000   0.000   0.000   0.000   0.000
 -0.000  -0.000   0.000  -0.000  -0.000   0.000   0.000  -0.000
 -0.000  -0.000   0.000  -0.000  -0.000   0.000   0.000   0.000
 -0.000  -0.000   0.000  -0.000  -0.000   0.000   0.000  -0.000
  0.000   0.000  -0.000   0.000   0.000  -0.000  -0.000   0.000
  0.000   0.000  -0.000   0.000   0.000  -0.000  -0.000   0.000
  0.000   0.000  -0.000   0.000   0.000  -0.000  -0.000   0.000
 total augmentation occupancy for first ion, spin component:           1
  1.917   0.000  -0.001  -0.000  -0.001  -0.080   0.000  -0.000   0.000   0.000   0.004  -0.000   0.000   0.000  -0.000  -0.000
  0.000   1.922  -0.001  -0.001  -0.002   0.000  -0.084   0.001   0.000   0.000   0.003  -0.001   0.000   0.000  -0.000  -0.000
 -0.001  -0.001   1.964  -0.000  -0.003  -0.000   0.001  -0.110   0.001   0.002   0.012   0.002   0.000  -0.000   0.000  -0.000
 -0.000  -0.001  -0.000   1.927   0.001   0.000   0.000   0.001  -0.088   0.000   0.002  -0.001   0.000  -0.000  -0.000  -0.000
 -0.001  -0.002  -0.003   0.001   1.954   0.000   0.000   0.002   0.000  -0.104   0.007   0.001   0.000   0.000  -0.000   0.000
 -0.080   0.000  -0.000   0.000   0.000   0.078  -0.000   0.001  -0.000  -0.000  -0.000   0.001   0.001  -0.000   0.000  -0.000
  0.000  -0.084   0.001   0.000   0.000  -0.000   0.080  -0.001  -0.000   0.001   0.000   0.001  -0.000  -0.000   0.000   0.000
 -0.000   0.001  -0.110   0.001   0.002   0.001  -0.001   0.064  -0.001  -0.001  -0.006  -0.001   0.000   0.000  -0.000   0.000
  0.000   0.000   0.001  -0.088   0.000  -0.000  -0.000  -0.001   0.083  -0.001   0.001   0.001  -0.000   0.001   0.000   0.000
  0.000   0.000   0.002   0.000  -0.104  -0.000   0.001  -0.001  -0.001   0.061  -0.004  -0.000  -0.000  -0.000   0.000   0.000
  0.004   0.003   0.012   0.002   0.007  -0.000   0.000  -0.006   0.001  -0.004   0.956  -0.219   0.000  -0.000   0.002  -0.000
 -0.000  -0.001   0.002  -0.001   0.001   0.001   0.001  -0.001   0.001  -0.000  -0.219   0.108   0.000   0.000  -0.001  -0.000
  0.000   0.000   0.000   0.000   0.000   0.001  -0.000   0.000  -0.000  -0.000   0.000   0.000   0.075   0.001   0.002  -0.005
  0.000   0.000  -0.000  -0.000   0.000  -0.000  -0.000   0.000   0.001  -0.000  -0.000   0.000   0.001   0.076  -0.000  -0.000
 -0.000  -0.000   0.000  -0.000  -0.000   0.000   0.000  -0.000   0.000   0.000   0.002  -0.001   0.002  -0.000   0.076  -0.000
 -0.000  -0.000  -0.000  -0.000   0.000  -0.000   0.000   0.000   0.000   0.000  -0.000  -0.000  -0.005  -0.000  -0.000   0.000
 -0.000  -0.000   0.000  -0.000   0.000   0.000   0.000  -0.000  -0.000   0.000   0.000   0.000  -0.000  -0.005  -0.000   0.000
  0.000   0.000   0.000   0.000  -0.000  -0.000  -0.000   0.000  -0.000  -0.000  -0.000   0.000  -0.000  -0.000  -0.005   0.000


------------------------ aborting loop because EDIFF is reached ----------------------------------------




--------------------------------------------------------------------------------------------------------


    CHARGE:  VPU time   87.13: CPU time   87.53
    FORLOC:  VPU time    0.22: CPU time    0.22
    FORNL :  VPU time  564.11: CPU time  564.42
    STRESS:  VPU time 2103.42: CPU time 2103.17
    FORCOR:  VPU time    0.70: CPU time    0.70
    FORHAR:  VPU time    0.23: CPU time    0.24
    MIXING:  VPU time    0.02: CPU time    0.02


--------------------------------------------------------------------------------------------------------



  FREE ENERGIE OF THE ION-ELECTRON SYSTEM (eV)
  ---------------------------------------------------
  free  energy   TOTEN  =       -93.030695 eV

  energy  without entropy=      -93.030101  energy(sigma->0) =      -93.030398
 

  FORCE on cell =-STRESS in cart. coord.  units (eV/reduce length):
  Direction    X        Y        Z        XY       YZ       ZX
  --------------------------------------------------------------------------------------
  Alpha Z   2547.58   2547.58   2547.58
  Ewald    -9367.19  -9367.17  -9367.17     -0.00     -0.00     -0.00
  Hartree   1684.82   1684.84   1684.84     -0.00     -0.00     -0.00
  E(xc)    -1568.33  -1568.33  -1568.33      0.00      0.00      0.00
  Local     2109.52   2109.47   2109.47      0.00      0.00      0.00
  n-local  -1738.88  -1744.84  -1732.93      2.60      1.85      1.11
  augment   1376.94   1376.94   1376.94     -0.00     -0.00     -0.00
  Kinetic   4880.47   4874.98   4885.97      0.38     -0.29     -0.96
  -------------------------------------------------------------------------------------
  Total      -75.08    -75.08    -75.08      0.00      0.00      0.00
  in kB     -159.79   -159.79   -159.79      0.00      0.00      0.00
  external pressure =     -159.79 kB  Pullay stress =        0.00 kB


 VOLUME and BASIS-vectors are now :
 -----------------------------------------------------------------------------
  energy-cutoff  :      750.00
  volume of cell :      752.78
      direct lattice vectors                 reciprocal lattice vectors
     9.096817147  0.000000000  0.000000000     0.109928559  0.000000000  0.000000000
     0.000000000  9.096817147  0.000000000     0.000000000  0.109928559  0.000000000
     0.000000000  0.000000000  9.096817147     0.000000000  0.000000000  0.109928559

  length of vectors
     9.096817147  9.096817147  9.096817147     0.109928559  0.109928559  0.109928559


 FORCES acting on ions
    electron-ion (+dipol)            ewald-force                    non-local-force                 convergence-correction
 -----------------------------------------------------------------------------------------------
   0.304E+01 -.468E-13 0.164E-07   -.301E+01 0.222E-13 0.799E-14   -.355E-01 0.000E+00 0.000E+00   -.470E-04 -.204E-12 -.333E-12
   -.785E+00 -.314E-13 -.165E-07   0.793E+00 0.866E-13 0.133E-14   -.487E-02 0.000E+00 0.000E+00   -.173E-04 -.237E-12 -.507E-12
   0.251E+00 0.418E-12 -.279E-11   -.251E+00 0.906E-13 -.888E-14   0.731E-04 -.593E-20 0.678E-20   0.140E-06 0.214E-12 -.244E-12
   -.202E+00 -.796E-12 -.126E-11   0.197E+00 0.555E-13 0.133E-14   0.281E-02 -.254E-20 0.000E+00   0.109E-05 0.246E-12 -.346E-12
   0.251E+00 -.464E-13 0.472E-11   -.251E+00 0.338E-13 0.533E-14   0.731E-04 -.508E-20 0.000E+00   0.469E-06 -.235E-12 0.402E-12
   -.202E+00 -.575E-13 0.144E-11   0.197E+00 0.582E-13 -.133E-14   0.281E-02 -.339E-20 0.847E-21   0.101E-05 -.293E-12 0.578E-12
   0.105E+00 0.418E-12 -.266E-11   -.104E+00 0.941E-13 0.888E-14   -.784E-03 0.000E+00 0.339E-20   0.133E-05 0.246E-12 0.313E-12
   -.967E-01 -.125E-11 0.718E-11   0.970E-01 0.555E-13 -.133E-14   -.213E-03 0.000E+00 0.000E+00   -.237E-05 0.302E-12 0.417E-12
   -.385E+00 -.735E+00 -.148E-11   0.381E+00 0.732E+00 -.124E-13   0.358E-02 0.249E-02 -.762E-20   0.895E-05 0.349E-05 -.398E-12
   -.387E+00 0.729E+00 -.238E-12   0.383E+00 -.727E+00 -.160E-13   0.348E-02 -.242E-02 0.000E+00   0.837E-05 -.496E-05 -.292E-12
   -.385E+00 0.735E+00 0.205E-11   0.381E+00 -.732E+00 0.133E-14   0.358E-02 -.249E-02 0.678E-20   0.895E-05 -.349E-05 -.403E-12
   -.387E+00 -.729E+00 -.873E-12   0.383E+00 0.727E+00 0.133E-14   0.348E-02 0.242E-02 0.847E-21   0.837E-05 0.496E-05 -.336E-12
   -.114E-01 -.605E-01 -.791E-11   0.117E-01 0.602E-01 0.124E-13   -.981E-04 0.211E-03 0.000E+00   -.121E-05 -.885E-06 0.462E-12
   -.124E-01 0.604E-01 -.331E-11   0.127E-01 -.601E-01 0.160E-13   -.984E-04 -.214E-03 0.847E-21   -.147E-05 -.280E-05 0.368E-12
   -.114E-01 0.605E-01 -.808E-11   0.117E-01 -.602E-01 -.133E-14   -.981E-04 -.211E-03 0.000E+00   -.121E-05 0.885E-06 0.466E-12
   -.124E-01 -.604E-01 -.310E-11   0.127E-01 0.601E-01 -.133E-14   -.984E-04 0.214E-03 0.847E-21   -.147E-05 0.280E-05 0.406E-12
   -.385E+00 -.588E-13 -.735E+00   0.381E+00 -.728E-13 0.732E+00   0.358E-02 -.339E-20 0.249E-02   0.889E-05 -.220E-12 0.355E-05
   -.387E+00 -.367E-14 0.729E+00   0.383E+00 -.373E-13 -.727E+00   0.348E-02 -.339E-20 -.242E-02   0.830E-05 -.250E-12 -.502E-05
   -.114E-01 0.640E-12 -.605E-01   0.117E-01 0.533E-14 0.602E-01   -.981E-04 0.000E+00 0.211E-03   -.119E-05 0.229E-12 -.826E-06
   -.124E-01 -.128E-11 0.604E-01   0.127E-01 -.480E-13 -.601E-01   -.984E-04 -.169E-20 -.214E-03   -.145E-05 0.241E-12 -.286E-05
   -.385E+00 -.554E-13 0.735E+00   0.381E+00 -.555E-13 -.732E+00   0.358E-02 0.339E-20 -.249E-02   0.889E-05 -.223E-12 -.355E-05
   -.387E+00 -.488E-13 -.729E+00   0.383E+00 -.555E-13 0.727E+00   0.348E-02 -.678E-20 0.242E-02   0.830E-05 -.291E-12 0.502E-05
   -.114E-01 0.352E-12 0.605E-01   0.117E-01 -.133E-14 -.602E-01   -.981E-04 0.121E-20 -.211E-03   -.119E-05 0.233E-12 0.826E-06
   -.124E-01 -.128E-11 -.604E-01   0.127E-01 -.298E-13 0.601E-01   -.984E-04 -.339E-20 0.214E-03   -.145E-05 0.281E-12 0.286E-05
   0.471E+00 0.165E-02 0.165E-02   -.474E+00 -.164E-02 -.164E-02   0.182E-02 -.132E-05 -.132E-05   0.441E-05 -.146E-05 -.146E-05
   -.266E+00 -.478E-03 -.478E-03   0.266E+00 0.491E-03 0.491E-03   0.225E-03 -.718E-05 -.718E-05   -.288E-05 -.126E-05 -.126E-05
   0.471E+00 -.165E-02 0.165E-02   -.474E+00 0.164E-02 -.164E-02   0.182E-02 0.132E-05 -.132E-05   0.441E-05 0.146E-05 -.146E-05
   -.266E+00 0.478E-03 -.478E-03   0.266E+00 -.491E-03 0.491E-03   0.225E-03 0.718E-05 -.718E-05   -.288E-05 0.126E-05 -.126E-05
   0.471E+00 0.165E-02 -.165E-02   -.474E+00 -.164E-02 0.164E-02   0.182E-02 -.132E-05 0.132E-05   0.441E-05 -.146E-05 0.146E-05
   -.266E+00 -.478E-03 0.478E-03   0.266E+00 0.491E-03 -.491E-03   0.225E-03 -.718E-05 0.718E-05   -.288E-05 -.126E-05 0.126E-05
   0.471E+00 -.165E-02 -.165E-02   -.474E+00 0.164E-02 0.164E-02   0.182E-02 0.132E-05 0.132E-05   0.441E-05 0.146E-05 0.146E-05
   -.266E+00 0.478E-03 0.478E-03   0.266E+00 -.491E-03 -.491E-03   0.225E-03 0.718E-05 0.718E-05   -.288E-05 0.126E-05 0.126E-05
 -----------------------------------------------------------------------------------------------
   -.217E-05 -.226E-10 -.374E-11   0.311E-13 0.105E-12 0.111E-13   0.172E-05 -.393E-18 0.108E-18   0.181E-05 -.862E-13 0.597E-12
 
 
 POSITION                                       TOTAL-FORCE (eV/Angst)
 -----------------------------------------------------------------------------------
      0.01000      0.00000      0.00000         0.003622      0.000000     -0.000000
      4.54841      0.00000      0.00000         0.002851      0.000000     -0.000000
      0.00000      4.54841      0.00000        -0.000386     -0.000000      0.000000
      4.54841      4.54841      0.00000        -0.001553      0.000000     -0.000000
      0.00000      0.00000      4.54841        -0.000386      0.000000      0.000000
      4.54841      0.00000      4.54841        -0.001553      0.000000      0.000000
      0.00000      4.54841      4.54841         0.000234     -0.000000      0.000000
      4.54841      4.54841      4.54841        -0.000006      0.000000     -0.000000
      2.27420      2.27420      0.00000        -0.000269      0.000103     -0.000000
      6.82261      2.27420      0.00000        -0.000339     -0.000014      0.000000
      2.27420      6.82261      0.00000        -0.000269     -0.000103      0.000000
      6.82261      6.82261      0.00000        -0.000339      0.000014      0.000000
      2.27420      2.27420      4.54841         0.000214     -0.000047      0.000000
      6.82261      2.27420      4.54841         0.000214      0.000049     -0.000000
      2.27420      6.82261      4.54841         0.000214      0.000047      0.000000
      6.82261      6.82261      4.54841         0.000214     -0.000049     -0.000000
      2.27420      0.00000      2.27420        -0.000269     -0.000000      0.000103
      6.82261      0.00000      2.27420        -0.000339      0.000000     -0.000014
      2.27420      4.54841      2.27420         0.000214     -0.000000     -0.000047
      6.82261      4.54841      2.27420         0.000214      0.000000      0.000049
      2.27420      0.00000      6.82261        -0.000269      0.000000     -0.000103
      6.82261      0.00000      6.82261        -0.000339      0.000000      0.000014
      2.27420      4.54841      6.82261         0.000214     -0.000000      0.000047
      6.82261      4.54841      6.82261         0.000214      0.000000     -0.000049
      0.00000      2.27420      2.27420        -0.001039      0.000008      0.000008
      4.54841      2.27420      2.27420         0.000513      0.000004      0.000004
      0.00000      6.82261      2.27420        -0.001039     -0.000008      0.000008
      4.54841      6.82261      2.27420         0.000513     -0.000004      0.000004
      0.00000      2.27420      6.82261        -0.001039      0.000008     -0.000008
      4.54841      2.27420      6.82261         0.000513      0.000004     -0.000004
      0.00000      6.82261      6.82261        -0.001039     -0.000008     -0.000008
      4.54841      6.82261      6.82261         0.000513     -0.000004     -0.000004
 -----------------------------------------------------------------------------------
    total drift:                                0.000001     -0.000000     -0.000000


--------------------------------------------------------------------------------------------------------



 mean value of Nose-termostat <S>:     1.000 mean value of <T> :     0.000
 mean temperature <T/S>/<1/S>  :     0.000

     LOOP+:  VPU time33025.82: CPU time33087.65
  
  
 General timing and accounting informations for this job:
 ========================================================
  
                  Total CPU time used (sec):    33252.260
                            User time (sec):    28686.852
                          System time (sec):     4565.408
                         Elapsed time (sec):    33314.115
  
                   Maximum memory used (kb):     9715356.
                   Average memory used (kb):           0.
  
                          Minor page faults:      2137143
                          Major page faults:        23247
                 Voluntary context switches:        36200
