32   
1    

1    
  0.0100000000000000   0.0000000000000000   0.0000000000000000
  -0.0734790000    0.0000000000    0.0000000000
   0.0040831500   -0.0000000000   -0.0000000000
   0.0007732500    0.0000000000    0.0000000000
   0.0006037400   -0.0000000000    0.0000000000
   0.0007732500    0.0000000000    0.0000000000
   0.0006037400    0.0000000000    0.0000000000
   0.0009528200    0.0000000000    0.0000000000
  -0.0002926800   -0.0000000000   -0.0000000000
  -0.0017272900    0.0000640800   -0.0000640800
  -0.0008992700   -0.0000175800    0.0000175800
  -0.0017272900   -0.0000640800   -0.0000640800
  -0.0008992700    0.0000175800    0.0000175800
  -0.0017272900    0.0000640800    0.0000640800
  -0.0008992700   -0.0000175800   -0.0000175800
  -0.0017272900   -0.0000640800    0.0000640800
  -0.0008992700    0.0000175800   -0.0000175800
   0.0094832300    0.0000000000   -0.0108887200
   0.0096528500    0.0000000000    0.0111793500
  -0.0000318400   -0.0000000000    0.0003110100
   0.0000177600   -0.0000000000   -0.0003247300
   0.0094832300    0.0000000000    0.0108887200
   0.0096528500    0.0000000000   -0.0111793500
  -0.0000318400   -0.0000000000   -0.0003110100
   0.0000177600    0.0000000000    0.0003247300
   0.0094832300    0.0108887200    0.0000000000
   0.0096528500   -0.0111793500   -0.0000000000
   0.0094832300   -0.0108887200   -0.0000000000
   0.0096528500    0.0111793500   -0.0000000000
  -0.0000318400   -0.0003110100   -0.0000000000
   0.0000177600    0.0003247300    0.0000000000
  -0.0000318400    0.0003110100   -0.0000000000
   0.0000177600   -0.0003247300    0.0000000000
