mesh: [    48,    48,    48 ]
nqpoint: 2600   
reciprocal_lattice:
- [   0.25801031,   0.00000000,   0.00000000 ] # a*
- [   0.00000000,   0.25801031,   0.00000000 ] # b*
- [   0.00000000,   0.00000000,   0.25801031 ] # c*
natom:   4      
lattice:
- [     3.875814114885902,     0.000000000000000,     0.000000000000000 ] # a
- [     0.000000000000000,     3.875814114885902,     0.000000000000000 ] # b
- [     0.000000000000000,     0.000000000000000,     3.875814114885902 ] # c
points:
- symbol: Al # 1
  coordinates: [  0.500000000000000,  0.500000000000000,  0.000000000000000 ]
  mass: 26.981539
- symbol: Al # 2
  coordinates: [  0.500000000000000,  0.000000000000000,  0.500000000000000 ]
  mass: 26.981539
- symbol: Al # 3
  coordinates: [  0.000000000000000,  0.500000000000000,  0.500000000000000 ]
  mass: 26.981539
- symbol: Al # 4
  coordinates: [  0.000000000000000,  0.000000000000000,  0.000000000000000 ]
  mass: 26.981539
phonon:
- q-position: [    0.0104167,    0.0104167,    0.0104167 ]
  weight: 8    
  band:
  - # 1
    frequency:     0.1813788985
  - # 2
    frequency:     0.1813788985
  - # 3
    frequency:     0.3969933100
  - # 4
    frequency:     7.0882407377
  - # 5
    frequency:     7.0882407377
  - # 6
    frequency:     7.0882407377
  - # 7
    frequency:     7.0940999768
  - # 8
    frequency:     7.0940999768
  - # 9
    frequency:     7.0940999768
  - # 10
    frequency:    11.7682971468
  - # 11
    frequency:    11.7682971468
  - # 12
    frequency:    11.7682971468

- q-position: [    0.0312500,    0.0104167,    0.0104167 ]
  weight: 24   
  band:
  - # 1
    frequency:     0.3666536024
  - # 2
    frequency:     0.4140278571
  - # 3
    frequency:     0.7160294410
  - # 4
    frequency:     7.0828433190
  - # 5
    frequency:     7.0886878861
  - # 6
    frequency:     7.0943219586
  - # 7
    frequency:     7.0943219586
  - # 8
    frequency:     7.1129082350
  - # 9
    frequency:     7.1129082350
  - # 10
    frequency:    11.7566351820
  - # 11
    frequency:    11.7616334937
  - # 12
    frequency:    11.7616334937

- q-position: [    0.0520833,    0.0104167,    0.0104167 ]
  weight: 24   
  band:
  - # 1
    frequency:     0.6286225948
  - # 2
    frequency:     0.6689316377
  - # 3
    frequency:     1.0782376868
  - # 4
    frequency:     7.0720311494
  - # 5
    frequency:     7.0778463497
  - # 6
    frequency:     7.1110746167
  - # 7
    frequency:     7.1110746167
  - # 8
    frequency:     7.1455419699
  - # 9
    frequency:     7.1455419699
  - # 10
    frequency:    11.7333146856
  - # 11
    frequency:    11.7483060497
  - # 12
    frequency:    11.7483060497

- q-position: [    0.0729167,    0.0104167,    0.0104167 ]
  weight: 24   
  band:
  - # 1
    frequency:     0.8948072466
  - # 2
    frequency:     0.9268649619
  - # 3
    frequency:     1.4548092549
  - # 4
    frequency:     7.0557698688
  - # 5
    frequency:     7.0615409613
  - # 6
    frequency:     7.1374625729
  - # 7
    frequency:     7.1374625729
  - # 8
    frequency:     7.1922658898
  - # 9
    frequency:     7.1922658898
  - # 10
    frequency:    11.6983426142
  - # 11
    frequency:    11.7283147890
  - # 12
    frequency:    11.7283147890

- q-position: [    0.0937500,    0.0104167,    0.0104167 ]
  weight: 24   
  band:
  - # 1
    frequency:     1.1587811407
  - # 2
    frequency:     1.1846169478
  - # 3
    frequency:     1.8370397583
  - # 4
    frequency:     7.0340086930
  - # 5
    frequency:     7.0397208667
  - # 6
    frequency:     7.1725465023
  - # 7
    frequency:     7.1725465023
  - # 8
    frequency:     7.2528953510
  - # 9
    frequency:     7.2528953510
  - # 10
    frequency:    11.6517296287
  - # 11
    frequency:    11.7016602937
  - # 12
    frequency:    11.7016602937

- q-position: [    0.1145833,    0.0104167,    0.0104167 ]
  weight: 24   
  band:
  - # 1
    frequency:     1.4197240885
  - # 2
    frequency:     1.4409478913
  - # 3
    frequency:     2.2210044537
  - # 4
    frequency:     7.0066813056
  - # 5
    frequency:     7.0123196552
  - # 6
    frequency:     7.2154012023
  - # 7
    frequency:     7.2154012023
  - # 8
    frequency:     7.3269160153
  - # 9
    frequency:     7.3269160153
  - # 10
    frequency:    11.5934903615
  - # 11
    frequency:    11.6683444934
  - # 12
    frequency:    11.6683444934

- q-position: [    0.1354167,    0.0104167,    0.0104167 ]
  weight: 24   
  band:
  - # 1
    frequency:     1.6773954915
  - # 2
    frequency:     1.6951051715
  - # 3
    frequency:     2.6045632168
  - # 4
    frequency:     6.9737070241
  - # 5
    frequency:     6.9792565234
  - # 6
    frequency:     7.2650558624
  - # 7
    frequency:     7.2650558624
  - # 8
    frequency:     7.4135885571
  - # 9
    frequency:     7.4135885571
  - # 10
    frequency:    11.5236437675
  - # 11
    frequency:    11.6283716411
  - # 12
    frequency:    11.6283716411

- q-position: [    0.1562500,    0.0104167,    0.0104167 ]
  weight: 24   
  band:
  - # 1
    frequency:     1.9315652375
  - # 2
    frequency:     1.9465099224
  - # 3
    frequency:     2.9863553781
  - # 4
    frequency:     6.9349922178
  - # 5
    frequency:     6.9404376923
  - # 6
    frequency:     7.3204733197
  - # 7
    frequency:     7.3204733197
  - # 8
    frequency:     7.5120194611
  - # 9
    frequency:     7.5120194611
  - # 10
    frequency:    11.4422135555
  - # 11
    frequency:    11.5817495162
  - # 12
    frequency:    11.5817495162

- q-position: [    0.1770833,    0.0104167,    0.0104167 ]
  weight: 24   
  band:
  - # 1
    frequency:     2.1819592777
  - # 2
    frequency:     2.1946639916
  - # 3
    frequency:     3.3654005820
  - # 4
    frequency:     6.8904319567
  - # 5
    frequency:     6.8957580540
  - # 6
    frequency:     7.3805534525
  - # 7
    frequency:     7.3805534525
  - # 8
    frequency:     7.6212098607
  - # 9
    frequency:     7.6212098607
  - # 10
    frequency:    11.3492286924
  - # 11
    frequency:    11.5284908465
  - # 12
    frequency:    11.5284908465

- q-position: [    0.1979167,    0.0104167,    0.0104167 ]
  weight: 24   
  band:
  - # 1
    frequency:     2.4282722197
  - # 2
    frequency:     2.4391163432
  - # 3
    frequency:     3.7409226172
  - # 4
    frequency:     6.8399118618
  - # 5
    frequency:     6.8451030192
  - # 6
    frequency:     7.4441483912
  - # 7
    frequency:     7.4441483912
  - # 8
    frequency:     7.7400921390
  - # 9
    frequency:     7.7400921390
  - # 10
    frequency:    11.2447239752
  - # 11
    frequency:    11.4686149362
  - # 12
    frequency:    11.4686149362

- q-position: [    0.2187500,    0.0104167,    0.0104167 ]
  weight: 24   
  band:
  - # 1
    frequency:     2.6701837452
  - # 2
    frequency:     2.6794494825
  - # 3
    frequency:     4.1122649065
  - # 4
    frequency:     6.7833101290
  - # 5
    frequency:     6.7883505385
  - # 6
    frequency:     7.5100825415
  - # 7
    frequency:     7.5100825415
  - # 8
    frequency:     7.8675591916
  - # 9
    frequency:     7.8675591916
  - # 10
    frequency:    11.1287406638
  - # 11
    frequency:    11.4021494880
  - # 12
    frequency:    11.4021494880

- q-position: [    0.2395833,    0.0104167,    0.0104167 ]
  weight: 24   
  band:
  - # 1
    frequency:     2.9073708599
  - # 2
    frequency:     2.9152737128
  - # 3
    frequency:     4.4788471381
  - # 4
    frequency:     6.7204996941
  - # 5
    frequency:     6.7253732634
  - # 6
    frequency:     7.5771737427
  - # 7
    frequency:     7.5771737427
  - # 8
    frequency:     8.0024884915
  - # 9
    frequency:     8.0024884915
  - # 10
    frequency:    11.0013271660
  - # 11
    frequency:    11.3291326051
  - # 12
    frequency:    11.3291326051

- q-position: [    0.2604167,    0.0104167,    0.0104167 ]
  weight: 24   
  band:
  - # 1
    frequency:     3.1395163405
  - # 2
    frequency:     3.1462247868
  - # 3
    frequency:     4.8401417693
  - # 4
    frequency:     6.6513505066
  - # 5
    frequency:     6.6560408159
  - # 6
    frequency:     7.6442536579
  - # 7
    frequency:     7.6442536579
  - # 8
    frequency:     8.1437618996
  - # 9
    frequency:     8.1437618996
  - # 10
    frequency:    10.8625397663
  - # 11
    frequency:    11.2496149605
  - # 12
    frequency:    11.2496149605

- q-position: [    0.2812500,    0.0104167,    0.0104167 ]
  weight: 24   
  band:
  - # 1
    frequency:     3.3663145703
  - # 2
    frequency:     3.3719631284
  - # 3
    frequency:     5.1956607352
  - # 4
    frequency:     6.5757318798
  - # 5
    frequency:     6.5802221334
  - # 6
    frequency:     7.7101864334
  - # 7
    frequency:     7.7101864334
  - # 8
    frequency:     8.2902817273
  - # 9
    frequency:     8.2902817273
  - # 10
    frequency:    10.7124433902
  - # 11
    frequency:    11.1636621177
  - # 12
    frequency:    11.1636621177

- q-position: [    0.3020833,    0.0104167,    0.0104167 ]
  weight: 24   
  band:
  - # 1
    frequency:     3.5874756632
  - # 2
    frequency:     3.5921737960
  - # 3
    frequency:     5.5449476689
  - # 4
    frequency:     6.4935148830
  - # 5
    frequency:     6.4977878547
  - # 6
    frequency:     7.7738851984
  - # 7
    frequency:     7.7738851984
  - # 8
    frequency:     8.4409834377
  - # 9
    frequency:     8.4409834377
  - # 10
    frequency:    10.5511123940
  - # 11
    frequency:    11.0713569888
  - # 12
    frequency:    11.0713569888

- q-position: [    0.3229167,    0.0104167,    0.0104167 ]
  weight: 24   
  band:
  - # 1
    frequency:     3.8027284511
  - # 2
    frequency:     3.8065667815
  - # 3
    frequency:     5.8875732244
  - # 4
    frequency:     6.4045747464
  - # 5
    frequency:     6.4086127171
  - # 6
    frequency:     7.8343262816
  - # 7
    frequency:     7.8343262816
  - # 8
    frequency:     8.5948453622
  - # 9
    frequency:     8.5948453622
  - # 10
    frequency:    10.3786313714
  - # 11
    frequency:    10.9728024179
  - # 12
    frequency:    10.9728024179

- q-position: [    0.3437500,    0.0104167,    0.0104167 ]
  weight: 24   
  band:
  - # 1
    frequency:     4.0118226864
  - # 2
    frequency:     4.0148774302
  - # 3
    frequency:     6.2231321993
  - # 4
    frequency:     6.3087932452
  - # 5
    frequency:     6.3125779318
  - # 6
    frequency:     7.8905612092
  - # 7
    frequency:     7.8905612092
  - # 8
    frequency:     8.7508958153
  - # 9
    frequency:     8.7508958153
  - # 10
    frequency:    10.1950959662
  - # 11
    frequency:    10.8681238750
  - # 12
    frequency:    10.8681238750

- q-position: [    0.3645833,    0.0104167,    0.0104167 ]
  weight: 24   
  band:
  - # 1
    frequency:     4.2145306719
  - # 2
    frequency:     4.2168668623
  - # 3
    frequency:     6.2060610370
  - # 4
    frequency:     6.2095735098
  - # 5
    frequency:     6.5512417279
  - # 6
    frequency:     7.9417266479
  - # 7
    frequency:     7.9417266479
  - # 8
    frequency:     8.9082179914
  - # 9
    frequency:     8.9082179914
  - # 10
    frequency:    10.0006136834
  - # 11
    frequency:    10.7574722522
  - # 12
    frequency:    10.7574722522

- q-position: [    0.3854167,    0.0104167,    0.0104167 ]
  weight: 24   
  band:
  - # 1
    frequency:     4.4106484493
  - # 2
    frequency:     4.4123223227
  - # 3
    frequency:     6.0962799235
  - # 4
    frequency:     6.0995005107
  - # 5
    frequency:     6.8715401136
  - # 6
    frequency:     7.9870525121
  - # 7
    frequency:     7.9870525121
  - # 8
    frequency:     9.0659530029
  - # 9
    frequency:     9.0659530029
  - # 10
    frequency:     9.7953046879
  - # 11
    frequency:    10.6410267591
  - # 12
    frequency:    10.6410267591

- q-position: [    0.4062500,    0.0104167,    0.0104167 ]
  weight: 24   
  band:
  - # 1
    frequency:     4.5999966270
  - # 2
    frequency:     4.6010574161
  - # 3
    frequency:     5.9793650146
  - # 4
    frequency:     5.9822731896
  - # 5
    frequency:     7.1836860429
  - # 6
    frequency:     8.0258684655
  - # 7
    frequency:     8.0258684655
  - # 8
    frequency:     9.2233013661
  - # 9
    frequency:     9.2233013661
  - # 10
    frequency:     9.5793025836
  - # 11
    frequency:    10.5189979346
  - # 12
    frequency:    10.5189979346

- q-position: [    0.4270833,    0.0104167,    0.0104167 ]
  weight: 24   
  band:
  - # 1
    frequency:     4.7824208962
  - # 2
    frequency:     4.7829121970
  - # 3
    frequency:     5.8552467707
  - # 4
    frequency:     5.8578210204
  - # 5
    frequency:     7.4873580216
  - # 6
    frequency:     8.0576090448
  - # 7
    frequency:     8.0576090448
  - # 8
    frequency:     9.3527551631
  - # 9
    frequency:     9.3795231304
  - # 10
    frequency:     9.3795231304
  - # 11
    frequency:    10.3916308692
  - # 12
    frequency:    10.3916308692

- q-position: [    0.4479167,    0.0104167,    0.0104167 ]
  weight: 24   
  band:
  - # 1
    frequency:     4.9577530948
  - # 2
    frequency:     4.9577922680
  - # 3
    frequency:     5.7238729079
  - # 4
    frequency:     5.7260905745
  - # 5
    frequency:     7.7822539294
  - # 6
    frequency:     8.0818176065
  - # 7
    frequency:     8.0818176065
  - # 8
    frequency:     9.1158251225
  - # 9
    frequency:     9.5339364528
  - # 10
    frequency:     9.5339364528
  - # 11
    frequency:    10.2592090726
  - # 12
    frequency:    10.2592090726

- q-position: [    0.4687500,    0.0104167,    0.0104167 ]
  weight: 24   
  band:
  - # 1
    frequency:     5.1254726614
  - # 2
    frequency:     5.1260070523
  - # 3
    frequency:     5.5852101463
  - # 4
    frequency:     5.5870472393
  - # 5
    frequency:     8.0680906290
  - # 6
    frequency:     8.0981492744
  - # 7
    frequency:     8.0981492744
  - # 8
    frequency:     8.8686907341
  - # 9
    frequency:     9.6859119552
  - # 10
    frequency:     9.6859119552
  - # 11
    frequency:    10.1220618486
  - # 12
    frequency:    10.1220618486

- q-position: [    0.4895833,    0.0104167,    0.0104167 ]
  weight: 24   
  band:
  - # 1
    frequency:     5.2859891316
  - # 2
    frequency:     5.2869865913
  - # 3
    frequency:     5.4392457905
  - # 4
    frequency:     5.4406767598
  - # 5
    frequency:     8.1063730261
  - # 6
    frequency:     8.1063730261
  - # 7
    frequency:     8.3446035857
  - # 8
    frequency:     8.6115464715
  - # 9
    frequency:     9.8348141814
  - # 10
    frequency:     9.8348141814
  - # 11
    frequency:     9.9806240086
  - # 12
    frequency:     9.9806240086

- q-position: [    0.0312500,    0.0312500,    0.0104167 ]
  weight: 24   
  band:
  - # 1
    frequency:     0.3969267375
  - # 2
    frequency:     0.5478268407
  - # 3
    frequency:     0.9772861469
  - # 4
    frequency:     7.0888944303
  - # 5
    frequency:     7.0888944303
  - # 6
    frequency:     7.0897343444
  - # 7
    frequency:     7.1074545067
  - # 8
    frequency:     7.1074545067
  - # 9
    frequency:     7.1421337648
  - # 10
    frequency:    11.7500518856
  - # 11
    frequency:    11.7500518856
  - # 12
    frequency:    11.7549660145

- q-position: [    0.0520833,    0.0312500,    0.0104167 ]
  weight: 48   
  band:
  - # 1
    frequency:     0.5806006407
  - # 2
    frequency:     0.7585808305
  - # 3
    frequency:     1.2980738722
  - # 4
    frequency:     7.0780219048
  - # 5
    frequency:     7.0965301323
  - # 6
    frequency:     7.0965463658
  - # 7
    frequency:     7.1055562974
  - # 8
    frequency:     7.1400360963
  - # 9
    frequency:     7.1842120663
  - # 10
    frequency:    11.7268921525
  - # 11
    frequency:    11.7368854658
  - # 12
    frequency:    11.7416310055

- q-position: [    0.0729167,    0.0312500,    0.0104167 ]
  weight: 48   
  band:
  - # 1
    frequency:     0.8270131443
  - # 2
    frequency:     0.9934016321
  - # 3
    frequency:     1.6416168570
  - # 4
    frequency:     7.0616697354
  - # 5
    frequency:     7.0801015886
  - # 6
    frequency:     7.1144245974
  - # 7
    frequency:     7.1317883978
  - # 8
    frequency:     7.1867028225
  - # 9
    frequency:     7.2387187283
  - # 10
    frequency:    11.6921613545
  - # 11
    frequency:    11.7171365201
  - # 12
    frequency:    11.7216286138

- q-position: [    0.0937500,    0.0312500,    0.0104167 ]
  weight: 48   
  band:
  - # 1
    frequency:     1.0892601745
  - # 2
    frequency:     1.2373348983
  - # 3
    frequency:     1.9972596559
  - # 4
    frequency:     7.0397866749
  - # 5
    frequency:     7.0581193646
  - # 6
    frequency:     7.1425950938
  - # 7
    frequency:     7.1666524572
  - # 8
    frequency:     7.2472705048
  - # 9
    frequency:     7.3053228935
  - # 10
    frequency:    11.6458703152
  - # 11
    frequency:    11.6908065701
  - # 12
    frequency:    11.6949596789

- q-position: [    0.1145833,    0.0312500,    0.0104167 ]
  weight: 48   
  band:
  - # 1
    frequency:     1.3540839366
  - # 2
    frequency:     1.4845821564
  - # 3
    frequency:     2.3597369625
  - # 4
    frequency:     7.0123057275
  - # 5
    frequency:     7.0305188776
  - # 6
    frequency:     7.1800998965
  - # 7
    frequency:     7.2092258308
  - # 8
    frequency:     7.3212240915
  - # 9
    frequency:     7.3835664322
  - # 10
    frequency:    11.5880338987
  - # 11
    frequency:    11.6578988062
  - # 12
    frequency:    11.6616264689

- q-position: [    0.1354167,    0.0312500,    0.0104167 ]
  weight: 48   
  band:
  - # 1
    frequency:     1.6172224550
  - # 2
    frequency:     1.7323581689
  - # 3
    frequency:     2.7257790750
  - # 4
    frequency:     6.9791452601
  - # 5
    frequency:     6.9972216694
  - # 6
    frequency:     7.2258409365
  - # 7
    frequency:     7.2585401479
  - # 8
    frequency:     7.4078238617
  - # 9
    frequency:     7.4728635708
  - # 10
    frequency:    11.5186713739
  - # 11
    frequency:    11.6184190695
  - # 12
    frequency:    11.6216336526

- q-position: [    0.1562500,    0.0312500,    0.0104167 ]
  weight: 48   
  band:
  - # 1
    frequency:     1.8770405407
  - # 2
    frequency:     1.9790612452
  - # 3
    frequency:     3.0931206589
  - # 4
    frequency:     6.9402103532
  - # 5
    frequency:     6.9581368660
  - # 6
    frequency:     7.2786121696
  - # 7
    frequency:     7.3135601947
  - # 8
    frequency:     7.5061764563
  - # 9
    frequency:     7.5725173645
  - # 10
    frequency:    11.4378068618
  - # 11
    frequency:    11.5723770633
  - # 12
    frequency:    11.5749894989

- q-position: [    0.1770833,    0.0312500,    0.0104167 ]
  weight: 48   
  band:
  - # 1
    frequency:     2.1327737302
  - # 2
    frequency:     2.2236278876
  - # 3
    frequency:     3.4600867437
  - # 4
    frequency:     6.8953943675
  - # 5
    frequency:     6.9131628759
  - # 6
    frequency:     7.3371308858
  - # 7
    frequency:     7.3731872863
  - # 8
    frequency:     7.6152835980
  - # 9
    frequency:     7.6817393016
  - # 10
    frequency:    11.3454698600
  - # 11
    frequency:    11.5197877835
  - # 12
    frequency:    11.5217072940

- q-position: [    0.1979167,    0.0312500,    0.0104167 ]
  weight: 48   
  band:
  - # 1
    frequency:     2.3839693850
  - # 2
    frequency:     2.4652710792
  - # 3
    frequency:     3.8253778600
  - # 4
    frequency:     6.8445807010
  - # 5
    frequency:     6.8621892982
  - # 6
    frequency:     7.4000683884
  - # 7
    frequency:     7.4362745001
  - # 8
    frequency:     7.7340785363
  - # 9
    frequency:     7.7996693428
  - # 10
    frequency:    11.2416958394
  - # 11
    frequency:    11.4606731560
  - # 12
    frequency:    11.4618069648

- q-position: [    0.2187500,    0.0312500,    0.0104167 ]
  weight: 48   
  band:
  - # 1
    frequency:     2.6302913526
  - # 2
    frequency:     2.7033619803
  - # 3
    frequency:     4.1879450140
  - # 4
    frequency:     6.7876447096
  - # 5
    frequency:     6.8050990100
  - # 6
    frequency:     7.4660789659
  - # 7
    frequency:     7.5016467050
  - # 8
    frequency:     7.8614551835
  - # 9
    frequency:     7.9253954078
  - # 10
    frequency:    11.1265269052
  - # 11
    frequency:    11.3950638685
  - # 12
    frequency:    11.3953168975

- q-position: [    0.2395833,    0.0312500,    0.0104167 ]
  weight: 48   
  band:
  - # 1
    frequency:     2.8714488681
  - # 2
    frequency:     2.9373717977
  - # 3
    frequency:     4.5469125443
  - # 4
    frequency:     6.7244557665
  - # 5
    frequency:     6.7417703952
  - # 6
    frequency:     7.5338261757
  - # 7
    frequency:     7.5681217105
  - # 8
    frequency:     7.9962920866
  - # 9
    frequency:     8.0579717620
  - # 10
    frequency:    11.0000125158
  - # 11
    frequency:    11.3222759381
  - # 12
    frequency:    11.3230013827

- q-position: [    0.2604167,    0.0312500,    0.0104167 ]
  weight: 48   
  band:
  - # 1
    frequency:     3.1071712508
  - # 2
    frequency:     3.1668413394
  - # 3
    frequency:     4.9015288831
  - # 4
    frequency:     6.6548794357
  - # 5
    frequency:     6.6720796737
  - # 6
    frequency:     7.6020058368
  - # 7
    frequency:     7.6345306426
  - # 8
    frequency:     8.1374721649
  - # 9
    frequency:     8.1964359180
  - # 10
    frequency:    10.8622102506
  - # 11
    frequency:    11.2427355620
  - # 12
    frequency:    11.2445401126

- q-position: [    0.2812500,    0.0312500,    0.0104167 ]
  weight: 48   
  band:
  - # 1
    frequency:     3.3372001776
  - # 2
    frequency:     3.3913642767
  - # 3
    frequency:     5.2511343800
  - # 4
    frequency:     6.5787797409
  - # 5
    frequency:     6.5959032840
  - # 6
    frequency:     7.6693655147
  - # 7
    frequency:     7.6997365946
  - # 8
    frequency:     8.2838987139
  - # 9
    frequency:     8.3398237682
  - # 10
    frequency:    10.7131866202
  - # 11
    frequency:    11.1567622016
  - # 12
    frequency:    11.1597497552

- q-position: [    0.3020833,    0.0312500,    0.0104167 ]
  weight: 48   
  band:
  - # 1
    frequency:     3.5612887115
  - # 2
    frequency:     3.6105775977
  - # 3
    frequency:     5.5951398696
  - # 4
    frequency:     6.4960215157
  - # 5
    frequency:     6.5131202701
  - # 6
    frequency:     7.7347205948
  - # 7
    frequency:     7.7626511277
  - # 8
    frequency:     8.4345080497
  - # 9
    frequency:     8.4871827557
  - # 10
    frequency:    10.5530179087
  - # 11
    frequency:    11.0644397223
  - # 12
    frequency:    11.0687177618

- q-position: [    0.3229167,    0.0312500,    0.0104167 ]
  weight: 48   
  band:
  - # 1
    frequency:     3.7792027755
  - # 2
    frequency:     3.8241560053
  - # 3
    frequency:     5.9330121484
  - # 4
    frequency:     6.4064728227
  - # 5
    frequency:     6.4236146183
  - # 6
    frequency:     7.7969672365
  - # 7
    frequency:     7.8222485032
  - # 8
    frequency:     8.5882791604
  - # 9
    frequency:     8.6375829834
  - # 10
    frequency:    10.3817910422
  - # 11
    frequency:    10.9658720416
  - # 12
    frequency:    10.9715519398

- q-position: [    0.3437500,    0.0312500,    0.0104167 ]
  weight: 48   
  band:
  - # 1
    frequency:     3.9907233187
  - # 2
    frequency:     4.0318085438
  - # 3
    frequency:     6.2642639725
  - # 4
    frequency:     6.3100074301
  - # 5
    frequency:     6.3272774968
  - # 6
    frequency:     7.8550926108
  - # 7
    frequency:     7.8775777125
  - # 8
    frequency:     8.7442407298
  - # 9
    frequency:     8.7901262485
  - # 10
    frequency:    10.1996044735
  - # 11
    frequency:    10.8611858974
  - # 12
    frequency:    10.8683831859

- q-position: [    0.3645833,    0.0312500,    0.0104167 ]
  weight: 48   
  band:
  - # 1
    frequency:     4.1956484762
  - # 2
    frequency:     4.2332765027
  - # 3
    frequency:     6.2065073276
  - # 4
    frequency:     6.2240093567
  - # 5
    frequency:     6.5884470545
  - # 6
    frequency:     7.9081828481
  - # 7
    frequency:     7.9277724741
  - # 8
    frequency:     8.9014758783
  - # 9
    frequency:     8.9439530433
  - # 10
    frequency:    10.0065690769
  - # 11
    frequency:    10.7505337978
  - # 12
    frequency:    10.7593683723

- q-position: [    0.3854167,    0.0312500,    0.0104167 ]
  weight: 48   
  band:
  - # 1
    frequency:     4.3937954572
  - # 2
    frequency:     4.4283320427
  - # 3
    frequency:     6.0958652443
  - # 4
    frequency:     6.1137218796
  - # 5
    frequency:     6.9051470739
  - # 6
    frequency:     7.9554291064
  - # 7
    frequency:     7.9720594176
  - # 8
    frequency:     9.0591248937
  - # 9
    frequency:     9.0982475636
  - # 10
    frequency:     9.8028090468
  - # 11
    frequency:    10.6340972510
  - # 12
    frequency:    10.6446934624

- q-position: [    0.4062500,    0.0312500,    0.0104167 ]
  weight: 48   
  band:
  - # 1
    frequency:     4.5850020815
  - # 2
    frequency:     4.6167772104
  - # 3
    frequency:     5.9779871122
  - # 4
    frequency:     5.9963397774
  - # 5
    frequency:     7.2139800523
  - # 6
    frequency:     7.9961321220
  - # 7
    frequency:     8.0097646935
  - # 8
    frequency:     9.2163860214
  - # 9
    frequency:     9.2522405964
  - # 10
    frequency:     9.5884627934
  - # 11
    frequency:    10.5120905824
  - # 12
    frequency:    10.5245771053

- q-position: [    0.4270833,    0.0312500,    0.0104167 ]
  weight: 48   
  band:
  - # 1
    frequency:     4.7691279620
  - # 2
    frequency:     4.7984431259
  - # 3
    frequency:     5.8527943964
  - # 4
    frequency:     5.8718024817
  - # 5
    frequency:     7.5145896578
  - # 6
    frequency:     8.0297055473
  - # 7
    frequency:     8.0403192403
  - # 8
    frequency:     9.3636838330
  - # 9
    frequency:     9.3725137435
  - # 10
    frequency:     9.4052094295
  - # 11
    frequency:    10.3847663909
  - # 12
    frequency:    10.3992755546

- q-position: [    0.4479167,    0.0312500,    0.0104167 ]
  weight: 48   
  band:
  - # 1
    frequency:     4.9460553542
  - # 2
    frequency:     4.9731892064
  - # 3
    frequency:     5.7202262018
  - # 4
    frequency:     5.7400657708
  - # 5
    frequency:     7.8066451441
  - # 6
    frequency:     8.0556783180
  - # 7
    frequency:     8.0632629210
  - # 8
    frequency:     9.1286416706
  - # 9
    frequency:     9.5268112300
  - # 10
    frequency:     9.5564703994
  - # 11
    frequency:    10.2524272264
  - # 12
    frequency:    10.2690924599

- q-position: [    0.4687500,    0.0312500,    0.0104167 ]
  weight: 48   
  band:
  - # 1
    frequency:     5.1156897080
  - # 2
    frequency:     5.1409023285
  - # 3
    frequency:     5.5802410817
  - # 4
    frequency:     5.6011033774
  - # 5
    frequency:     8.0736962374
  - # 6
    frequency:     8.0782477164
  - # 7
    frequency:     8.0898397221
  - # 8
    frequency:     8.8835226751
  - # 9
    frequency:     9.6785955522
  - # 10
    frequency:     9.7053339002
  - # 11
    frequency:    10.1154738476
  - # 12
    frequency:    10.1344151201

- q-position: [    0.4895833,    0.0312500,    0.0104167 ]
  weight: 48   
  band:
  - # 1
    frequency:     5.2779599476
  - # 2
    frequency:     5.3014958700
  - # 3
    frequency:     5.4328185013
  - # 4
    frequency:     5.4549085955
  - # 5
    frequency:     8.0835229120
  - # 6
    frequency:     8.0850401278
  - # 7
    frequency:     8.3638892224
  - # 8
    frequency:     8.6285309520
  - # 9
    frequency:     9.8268199354
  - # 10
    frequency:     9.8504292417
  - # 11
    frequency:     9.9750828273
  - # 12
    frequency:     9.9960930598

- q-position: [    0.0520833,    0.0520833,    0.0104167 ]
  weight: 24   
  band:
  - # 1
    frequency:     0.6379992336
  - # 2
    frequency:     0.9223052735
  - # 3
    frequency:     1.5877188104
  - # 4
    frequency:     7.0924628892
  - # 5
    frequency:     7.0945016123
  - # 6
    frequency:     7.0945016123
  - # 7
    frequency:     7.1290086343
  - # 8
    frequency:     7.1290086343
  - # 9
    frequency:     7.2362073884
  - # 10
    frequency:    11.7140478488
  - # 11
    frequency:    11.7140478488
  - # 12
    frequency:    11.7282810392

- q-position: [    0.0729167,    0.0520833,    0.0104167 ]
  weight: 48   
  band:
  - # 1
    frequency:     0.8066575165
  - # 2
    frequency:     1.1234119889
  - # 3
    frequency:     1.9048124494
  - # 4
    frequency:     7.0778747546
  - # 5
    frequency:     7.0996820803
  - # 6
    frequency:     7.1124284606
  - # 7
    frequency:     7.1204213422
  - # 8
    frequency:     7.1755626308
  - # 9
    frequency:     7.2999385515
  - # 10
    frequency:    11.6798004001
  - # 11
    frequency:    11.6947835521
  - # 12
    frequency:    11.7082566417

- q-position: [    0.0937500,    0.0520833,    0.0104167 ]
  weight: 48   
  band:
  - # 1
    frequency:     1.0321102117
  - # 2
    frequency:     1.3439770476
  - # 3
    frequency:     2.2367130321
  - # 4
    frequency:     7.0556227265
  - # 5
    frequency:     7.0902496497
  - # 6
    frequency:     7.1177966238
  - # 7
    frequency:     7.1548453013
  - # 8
    frequency:     7.2360085688
  - # 9
    frequency:     7.3747452624
  - # 10
    frequency:    11.6341541689
  - # 11
    frequency:    11.6691025578
  - # 12
    frequency:    11.6815591632

- q-position: [    0.1145833,    0.0520833,    0.0104167 ]
  weight: 48   
  band:
  - # 1
    frequency:     1.2810403540
  - # 2
    frequency:     1.5746089585
  - # 3
    frequency:     2.5776030994
  - # 4
    frequency:     7.0276761870
  - # 5
    frequency:     7.0624123630
  - # 6
    frequency:     7.1460937540
  - # 7
    frequency:     7.1968562059
  - # 8
    frequency:     7.3098298425
  - # 9
    frequency:     7.4599698013
  - # 10
    frequency:    11.5771243467
  - # 11
    frequency:    11.6370104278
  - # 12
    frequency:    11.6481915440

- q-position: [    0.1354167,    0.0520833,    0.0104167 ]
  weight: 48   
  band:
  - # 1
    frequency:     1.5386155424
  - # 2