<?xml version="1.0" encoding="ISO-8859-1"?>
<modeling>
 <generator>
  <i name="program" type="string">vasp</i>
  <i name="version" type="string">4.6.28 </i>
  <i name="subversion" type="string">25Jul05 complex  parallel</i>
  <i name="platform" type="string">LinuxIFC</i>
  <i name="date" type="string">2016 10 21</i>
  <i name="time" type="string">16:37:45</i>
 </generator>
 <incar>
  <i type="string" name="PREC">accurate</i>
  <i type="int" name="IALGO">    38</i>
  <i name="EDIFF">      0.00000001</i>
  <i type="int" name="IBRION">    -1</i>
  <i name="ENCUT">    500.00000000</i>
  <i type="logical" name="LREAL"> F  </i>
  <i type="int" name="ISMEAR">     0</i>
  <i name="SIGMA">      0.01000000</i>
  <i type="logical" name="LWAVE"> F  </i>
  <i type="logical" name="LCHARG"> F  </i>
 </incar>
 <kpoints>
  <generation param="Gamma">
   <v type="int" name="divisions">      12      12      12</v>
   <v name="usershift">      0.00000000      0.00000000      0.00000000</v>
   <v name="genvec1">      0.08333333      0.00000000      0.00000000</v>
   <v name="genvec2">      0.00000000      0.08333333      0.00000000</v>
   <v name="genvec3">      0.00000000      0.00000000      0.08333333</v>
   <v name="shift">      0.00000000      0.00000000      0.00000000</v>
  </generation>
  <varray name="kpointlist" >
   <v>       0.00000000      0.00000000      0.00000000</v>
   <v>       0.08333333      0.00000000      0.00000000</v>
   <v>       0.16666667      0.00000000      0.00000000</v>
   <v>       0.25000000      0.00000000      0.00000000</v>
   <v>       0.33333333      0.00000000      0.00000000</v>
   <v>       0.41666667      0.00000000      0.00000000</v>
   <v>       0.50000000      0.00000000      0.00000000</v>
   <v>       0.00000000      0.08333333      0.00000000</v>
   <v>       0.08333333      0.08333333      0.00000000</v>
   <v>       0.16666667      0.08333333      0.00000000</v>
   <v>       0.25000000      0.08333333      0.00000000</v>
   <v>       0.33333333      0.08333333      0.00000000</v>
   <v>       0.41666667      0.08333333      0.00000000</v>
   <v>       0.50000000      0.08333333      0.00000000</v>
   <v>       0.00000000      0.16666667      0.00000000</v>
   <v>       0.08333333      0.16666667      0.00000000</v>
   <v>       0.16666667      0.16666667      0.00000000</v>
   <v>       0.25000000      0.16666667      0.00000000</v>
   <v>       0.33333333      0.16666667      0.00000000</v>
   <v>       0.41666667      0.16666667      0.00000000</v>
   <v>       0.50000000      0.16666667      0.00000000</v>
   <v>       0.00000000      0.25000000      0.00000000</v>
   <v>       0.08333333      0.25000000      0.00000000</v>
   <v>       0.16666667      0.25000000      0.00000000</v>
   <v>       0.25000000      0.25000000      0.00000000</v>
   <v>       0.33333333      0.25000000      0.00000000</v>
   <v>       0.41666667      0.25000000      0.00000000</v>
   <v>       0.50000000      0.25000000      0.00000000</v>
   <v>       0.00000000      0.33333333      0.00000000</v>
   <v>       0.08333333      0.33333333      0.00000000</v>
   <v>       0.16666667      0.33333333      0.00000000</v>
   <v>       0.25000000      0.33333333      0.00000000</v>
   <v>       0.33333333      0.33333333      0.00000000</v>
   <v>       0.41666667      0.33333333      0.00000000</v>
   <v>       0.50000000      0.33333333      0.00000000</v>
   <v>       0.00000000      0.41666667      0.00000000</v>
   <v>       0.08333333      0.41666667      0.00000000</v>
   <v>       0.16666667      0.41666667      0.00000000</v>
   <v>       0.25000000      0.41666667      0.00000000</v>
   <v>       0.33333333      0.41666667      0.00000000</v>
   <v>       0.41666667      0.41666667      0.00000000</v>
   <v>       0.50000000      0.41666667      0.00000000</v>
   <v>       0.00000000      0.50000000      0.00000000</v>
   <v>       0.08333333      0.50000000      0.00000000</v>
   <v>       0.16666667      0.50000000      0.00000000</v>
   <v>       0.25000000      0.50000000      0.00000000</v>
   <v>       0.33333333      0.50000000      0.00000000</v>
   <v>       0.41666667      0.50000000      0.00000000</v>
   <v>       0.50000000      0.50000000      0.00000000</v>
   <v>       0.00000000      0.08333333      0.08333333</v>
   <v>       0.08333333      0.08333333      0.08333333</v>
   <v>       0.16666667      0.08333333      0.08333333</v>
   <v>       0.25000000      0.08333333      0.08333333</v>
   <v>       0.33333333      0.08333333      0.08333333</v>
   <v>       0.41666667      0.08333333      0.08333333</v>
   <v>       0.50000000      0.08333333      0.08333333</v>
   <v>       0.00000000      0.16666667      0.08333333</v>
   <v>       0.08333333      0.16666667      0.08333333</v>
   <v>       0.16666667      0.16666667      0.08333333</v>
   <v>       0.25000000      0.16666667      0.08333333</v>
   <v>       0.33333333      0.16666667      0.08333333</v>
   <v>       0.41666667      0.16666667      0.08333333</v>
   <v>       0.50000000      0.16666667      0.08333333</v>
   <v>       0.00000000      0.25000000      0.08333333</v>
   <v>       0.08333333      0.25000000      0.08333333</v>
   <v>       0.16666667      0.25000000      0.08333333</v>
   <v>       0.25000000      0.25000000      0.08333333</v>
   <v>       0.33333333      0.25000000      0.08333333</v>
   <v>       0.41666667      0.25000000      0.08333333</v>
   <v>       0.50000000      0.25000000      0.08333333</v>
   <v>       0.00000000      0.33333333      0.08333333</v>
   <v>       0.08333333      0.33333333      0.08333333</v>
   <v>       0.16666667      0.33333333      0.08333333</v>
   <v>       0.25000000      0.33333333      0.08333333</v>
   <v>       0.33333333      0.33333333      0.08333333</v>
   <v>       0.41666667      0.33333333      0.08333333</v>
   <v>       0.50000000      0.33333333      0.08333333</v>
   <v>       0.00000000      0.41666667      0.08333333</v>
   <v>       0.08333333      0.41666667      0.08333333</v>
   <v>       0.16666667      0.41666667      0.08333333</v>
   <v>       0.25000000      0.41666667      0.08333333</v>
   <v>       0.33333333      0.41666667      0.08333333</v>
   <v>       0.41666667      0.41666667      0.08333333</v>
   <v>       0.50000000      0.41666667      0.08333333</v>
   <v>       0.00000000      0.50000000      0.08333333</v>
   <v>       0.08333333      0.50000000      0.08333333</v>
   <v>       0.16666667      0.50000000      0.08333333</v>
   <v>       0.25000000      0.50000000      0.08333333</v>
   <v>       0.33333333      0.50000000      0.08333333</v>
   <v>       0.41666667      0.50000000      0.08333333</v>
   <v>       0.50000000      0.50000000      0.08333333</v>
   <v>       0.00000000      0.16666667      0.16666667</v>
   <v>       0.08333333      0.16666667      0.16666667</v>
   <v>       0.16666667      0.16666667      0.16666667</v>
   <v>       0.25000000      0.16666667      0.16666667</v>
   <v>       0.33333333      0.16666667      0.16666667</v>
   <v>       0.41666667      0.16666667      0.16666667</v>
   <v>       0.50000000      0.16666667      0.16666667</v>
   <v>       0.00000000      0.25000000      0.16666667</v>
   <v>       0.08333333      0.25000000      0.16666667</v>
   <v>       0.16666667      0.25000000      0.16666667</v>
   <v>       0.25000000      0.25000000      0.16666667</v>
   <v>       0.33333333      0.25000000      0.16666667</v>
   <v>       0.41666667      0.25000000      0.16666667</v>
   <v>       0.50000000      0.25000000      0.16666667</v>
   <v>       0.00000000      0.33333333      0.16666667</v>
   <v>       0.08333333      0.33333333      0.16666667</v>
   <v>       0.16666667      0.33333333      0.16666667</v>
   <v>       0.25000000      0.33333333      0.16666667</v>
   <v>       0.33333333      0.33333333      0.16666667</v>
   <v>       0.41666667      0.33333333      0.16666667</v>
   <v>       0.50000000      0.33333333      0.16666667</v>
   <v>       0.00000000      0.41666667      0.16666667</v>
   <v>       0.08333333      0.41666667      0.16666667</v>
   <v>       0.16666667      0.41666667      0.16666667</v>
   <v>       0.25000000      0.41666667      0.16666667</v>
   <v>       0.33333333      0.41666667      0.16666667</v>
   <v>       0.41666667      0.41666667      0.16666667</v>
   <v>       0.50000000      0.41666667      0.16666667</v>
   <v>       0.00000000      0.50000000      0.16666667</v>
   <v>       0.08333333      0.50000000      0.16666667</v>
   <v>       0.16666667      0.50000000      0.16666667</v>
   <v>       0.25000000      0.50000000      0.16666667</v>
   <v>       0.33333333      0.50000000      0.16666667</v>
   <v>       0.41666667      0.50000000      0.16666667</v>
   <v>       0.50000000      0.50000000      0.16666667</v>
   <v>       0.00000000      0.25000000      0.25000000</v>
   <v>       0.08333333      0.25000000      0.25000000</v>
   <v>       0.16666667      0.25000000      0.25000000</v>
   <v>       0.25000000      0.25000000      0.25000000</v>
   <v>       0.33333333      0.25000000      0.25000000</v>
   <v>       0.41666667      0.25000000      0.25000000</v>
   <v>       0.50000000      0.25000000      0.25000000</v>
   <v>       0.00000000      0.33333333      0.25000000</v>
   <v>       0.08333333      0.33333333      0.25000000</v>
   <v>       0.16666667      0.33333333      0.25000000</v>
   <v>       0.25000000      0.33333333      0.25000000</v>
   <v>       0.33333333      0.33333333      0.25000000</v>
   <v>       0.41666667      0.33333333      0.25000000</v>
   <v>       0.50000000      0.33333333      0.25000000</v>
   <v>       0.00000000      0.41666667      0.25000000</v>
   <v>       0.08333333      0.41666667      0.25000000</v>
   <v>       0.16666667      0.41666667      0.25000000</v>
   <v>       0.25000000      0.41666667      0.25000000</v>
   <v>       0.33333333      0.41666667      0.25000000</v>
   <v>       0.41666667      0.41666667      0.25000000</v>
   <v>       0.50000000      0.41666667      0.25000000</v>
   <v>       0.00000000      0.50000000      0.25000000</v>
   <v>       0.08333333      0.50000000      0.25000000</v>
   <v>       0.16666667      0.50000000      0.25000000</v>
   <v>       0.25000000      0.50000000      0.25000000</v>
   <v>       0.33333333      0.50000000      0.25000000</v>
   <v>       0.41666667      0.50000000      0.25000000</v>
   <v>       0.50000000      0.50000000      0.25000000</v>
   <v>       0.00000000      0.33333333      0.33333333</v>
   <v>       0.08333333      0.33333333      0.33333333</v>
   <v>       0.16666667      0.33333333      0.33333333</v>
   <v>       0.25000000      0.33333333      0.33333333</v>
   <v>       0.33333333      0.33333333      0.33333333</v>
   <v>       0.41666667      0.33333333      0.33333333</v>
   <v>       0.50000000      0.33333333      0.33333333</v>
   <v>       0.00000000      0.41666667      0.33333333</v>
   <v>       0.08333333      0.41666667      0.33333333</v>
   <v>       0.16666667      0.41666667      0.33333333</v>
   <v>       0.25000000      0.41666667      0.33333333</v>
   <v>       0.33333333      0.41666667      0.33333333</v>
   <v>       0.41666667      0.41666667      0.33333333</v>
   <v>       0.50000000      0.41666667      0.33333333</v>
   <v>       0.00000000      0.50000000      0.33333333</v>
   <v>       0.08333333      0.50000000      0.33333333</v>
   <v>       0.16666667      0.50000000      0.33333333</v>
   <v>       0.25000000      0.50000000      0.33333333</v>
   <v>       0.33333333      0.50000000      0.33333333</v>
   <v>       0.41666667      0.50000000      0.33333333</v>
   <v>       0.50000000      0.50000000      0.33333333</v>
   <v>       0.00000000      0.41666667      0.41666667</v>
   <v>       0.08333333      0.41666667      0.41666667</v>
   <v>       0.16666667      0.41666667      0.41666667</v>
   <v>       0.25000000      0.41666667      0.41666667</v>
   <v>       0.33333333      0.41666667      0.41666667</v>
   <v>       0.41666667      0.41666667      0.41666667</v>
   <v>       0.50000000      0.41666667      0.41666667</v>
   <v>       0.00000000      0.50000000      0.41666667</v>
   <v>       0.08333333      0.50000000      0.41666667</v>
   <v>       0.16666667      0.50000000      0.41666667</v>
   <v>       0.25000000      0.50000000      0.41666667</v>
   <v>       0.33333333      0.50000000      0.41666667</v>
   <v>       0.41666667      0.50000000      0.41666667</v>
   <v>       0.50000000      0.50000000      0.41666667</v>
   <v>       0.00000000      0.50000000      0.50000000</v>
   <v>       0.08333333      0.50000000      0.50000000</v>
   <v>       0.16666667      0.50000000      0.50000000</v>
   <v>       0.25000000      0.50000000      0.50000000</v>
   <v>       0.33333333      0.50000000      0.50000000</v>
   <v>       0.41666667      0.50000000      0.50000000</v>
   <v>       0.50000000      0.50000000      0.50000000</v>
  </varray>
  <varray name="weights" >
   <v>       0.00057870</v>
   <v>       0.00115741</v>
   <v>       0.00115741</v>
   <v>       0.00115741</v>
   <v>       0.00115741</v>
   <v>       0.00115741</v>
   <v>       0.00057870</v>
   <v>       0.00231481</v>
   <v>       0.00462963</v>
   <v>       0.00462963</v>
   <v>       0.00462963</v>
   <v>       0.00462963</v>
   <v>       0.00462963</v>
   <v>       0.00231481</v>
   <v>       0.00231481</v>
   <v>       0.00462963</v>
   <v>       0.00462963</v>
   <v>       0.00462963</v>
   <v>       0.00462963</v>
   <v>       0.00462963</v>
   <v>       0.00231481</v>
   <v>       0.00231481</v>
   <v>       0.00462963</v>
   <v>       0.00462963</v>
   <v>       0.00462963</v>
   <v>       0.00462963</v>
   <v>       0.00462963</v>
   <v>       0.00231481</v>
   <v>       0.00231481</v>
   <v>       0.00462963</v>
   <v>       0.00462963</v>
   <v>       0.00462963</v>
   <v>       0.00462963</v>
   <v>       0.00462963</v>
   <v>       0.00231481</v>
   <v>       0.00231481</v>
   <v>       0.00462963</v>
   <v>       0.00462963</v>
   <v>       0.00462963</v>
   <v>       0.00462963</v>
   <v>       0.00462963</v>
   <v>       0.00231481</v>
   <v>       0.00115741</v>
   <v>       0.00231481</v>
   <v>       0.00231481</v>
   <v>       0.00231481</v>
   <v>       0.00231481</v>
   <v>       0.00231481</v>
   <v>       0.00115741</v>
   <v>       0.00231481</v>
   <v>       0.00462963</v>
   <v>       0.00462963</v>
   <v>       0.00462963</v>
   <v>       0.00462963</v>
   <v>       0.00462963</v>
   <v>       0.00231481</v>
   <v>       0.00462963</v>
   <v>       0.00925926</v>
   <v>       0.00925926</v>
   <v>       0.00925926</v>
   <v>       0.00925926</v>
   <v>       0.00925926</v>
   <v>       0.00462963</v>
   <v>       0.00462963</v>
   <v>       0.00925926</v>
   <v>       0.00925926</v>
   <v>       0.00925926</v>
   <v>       0.00925926</v>
   <v>       0.00925926</v>
   <v>       0.00462963</v>
   <v>       0.00462963</v>
   <v>       0.00925926</v>
   <v>       0.00925926</v>
   <v>       0.00925926</v>
   <v>       0.00925926</v>
   <v>       0.00925926</v>
   <v>       0.00462963</v>
   <v>       0.00462963</v>
   <v>       0.00925926</v>
   <v>       0.00925926</v>
   <v>       0.00925926</v>
   <v>       0.00925926</v>
   <v>       0.00925926</v>
   <v>       0.00462963</v>
   <v>       0.00231481</v>
   <v>       0.00462963</v>
   <v>       0.00462963</v>
   <v>       0.00462963</v>
   <v>       0.00462963</v>
   <v>       0.00462963</v>
   <v>       0.00231481</v>
   <v>       0.00231481</v>
   <v>       0.00462963</v>
   <v>       0.00462963</v>
   <v>       0.00462963</v>
   <v>       0.00462963</v>
   <v>       0.00462963</v>
   <v>       0.00231481</v>
   <v>       0.00462963</v>
   <v>       0.00925926</v>
   <v>       0.00925926</v>
   <v>       0.00925926</v>
   <v>       0.00925926</v>
   <v>       0.00925926</v>
   <v>       0.00462963</v>
   <v>       0.00462963</v>
   <v>       0.00925926</v>
   <v>       0.00925926</v>
   <v>       0.00925926</v>
   <v>       0.00925926</v>
   <v>       0.00925926</v>
   <v>       0.00462963</v>
   <v>       0.00462963</v>
   <v>       0.00925926</v>
   <v>       0.00925926</v>
   <v>       0.00925926</v>
   <v>       0.00925926</v>
   <v>       0.00925926</v>
   <v>       0.00462963</v>
   <v>       0.00231481</v>
   <v>       0.00462963</v>
   <v>       0.00462963</v>
   <v>       0.00462963</v>
   <v>       0.00462963</v>
   <v>       0.00462963</v>
   <v>       0.00231481</v>
   <v>       0.00231481</v>
   <v>       0.00462963</v>
   <v>       0.00462963</v>
   <v>       0.00462963</v>
   <v>       0.00462963</v>
   <v>       0.00462963</v>
   <v>       0.00231481</v>
   <v>       0.00462963</v>
   <v>       0.00925926</v>
   <v>       0.00925926</v>
   <v>       0.00925926</v>
   <v>       0.00925926</v>
   <v>       0.00925926</v>
   <v>       0.00462963</v>
   <v>       0.00462963</v>
   <v>       0.00925926</v>
   <v>       0.00925926</v>
   <v>       0.00925926</v>
   <v>       0.00925926</v>
   <v>       0.00925926</v>
   <v>       0.00462963</v>
   <v>       0.00231481</v>
   <v>       0.00462963</v>
   <v>       0.00462963</v>
   <v>       0.00462963</v>
   <v>       0.00462963</v>
   <v>       0.00462963</v>
   <v>       0.00231481</v>
   <v>       0.00231481</v>
   <v>       0.00462963</v>
   <v>       0.00462963</v>
   <v>       0.00462963</v>
   <v>       0.00462963</v>
   <v>       0.00462963</v>
   <v>       0.00231481</v>
   <v>       0.00462963</v>
   <v>       0.00925926</v>
   <v>       0.00925926</v>
   <v>       0.00925926</v>
   <v>       0.00925926</v>
   <v>       0.00925926</v>
   <v>       0.00462963</v>
   <v>       0.00231481</v>
   <v>       0.00462963</v>
   <v>       0.00462963</v>
   <v>       0.00462963</v>
   <v>       0.00462963</v>
   <v>       0.00462963</v>
   <v>       0.00231481</v>
   <v>       0.00231481</v>
   <v>       0.00462963</v>
   <v>       0.00462963</v>
   <v>       0.00462963</v>
   <v>       0.00462963</v>
   <v>       0.00462963</v>
   <v>       0.00231481</v>
   <v>       0.00231481</v>
   <v>       0.00462963</v>
   <v>       0.00462963</v>
   <v>       0.00462963</v>
   <v>       0.00462963</v>
   <v>       0.00462963</v>
   <v>       0.00231481</v>
   <v>       0.00057870</v>
   <v>       0.00115741</v>
   <v>       0.00115741</v>
   <v>       0.00115741</v>
   <v>       0.00115741</v>
   <v>       0.00115741</v>
   <v>       0.00057870</v>
  </varray>
 </kpoints>
 <parameters>
  <separator name="general" >
   <i type="string" name="SYSTEM">unknown system</i>
   <i type="logical" name="LCOMPAT"> F  </i>
  </separator>
  <separator name="electronic" >
   <i type="string" name="PREC">accura</i>
   <i name="ENMAX">    500.00000000</i>
   <i name="ENAUG">    291.05200000</i>
   <i name="EDIFF">      0.00000001</i>
   <i type="int" name="IALGO">    38</i>
   <i type="int" name="IWAVPR">    10</i>
   <i type="int" name="NBANDS">    65</i>
   <i name="NELECT">     96.00000000</i>
   <separator name="electronic smearing" >
    <i type="int" name="ISMEAR">     0</i>
    <i name="SIGMA">      0.01000000</i>
   </separator>
   <separator name="electronic projectors" >
    <i type="logical" name="LREAL"> F  </i>
    <v name="ROPT">      0.00000000</v>
    <i type="int" name="LMAXPAW">  -100</i>
    <i type="int" name="LMAXMIX">     2</i>
   </separator>
   <separator name="electronic startup" >
    <i type="int" name="ISTART">     0</i>
    <i type="int" name="ICHARG">     2</i>
    <i type="int" name="INIWAV">     1</i>
   </separator>
   <separator name="electronic spin" >
    <i type="int" name="ISPIN">     1</i>
    <i type="logical" name="LNONCOLLINEAR"> F  </i>
    <v name="MAGMOM">      1.00000000      1.00000000      1.00000000      1.00000000      1.00000000      1.00000000      1.00000000      1.00000000      1.00000000      1.00000000      1.00000000      1.00000000      1.00000000      1.00000000      1.00000000      1.00000000      1.00000000      1.00000000      1.00000000      1.00000000
      1.00000000      1.00000000      1.00000000      1.00000000      1.00000000      1.00000000      1.00000000      1.00000000      1.00000000      1.00000000      1.00000000      1.00000000</v>
    <i name="NUPDOWN">     -1.00000000</i>
    <i type="logical" name="LSORBIT"> F  </i>
    <v name="SAXIS">      0.00000000      0.00000000      1.00000000</v>
    <i type="logical" name="LSPIRAL"> F  </i>
    <v name="QSPIRAL">      0.00000000      0.00000000      0.00000000</v>
    <i type="logical" name="LZEROZ"> F  </i>
   </separator>
   <separator name="electronic exchange-correlation" >
    <i type="string" name="GGA">--</i>
    <i type="int" name="VOSKOWN">     0</i>
    <i type="logical" name="LASPH"> F  </i>
    <i type="logical" name="LMETAGGA"> F  </i>
    <i type="string" name="GGA2">--</i>
   </separator>
   <separator name="electronic convergence" >
    <i type="int" name="NELM">    60</i>
    <i type="int" name="NELMDL">    -5</i>
    <i type="int" name="NELMIN">     2</i>
    <i name="ENINI">    500.00000000</i>
    <separator name="electronic convergence detail" >
     <i type="logical" name="LDIAG"> T  </i>
     <i name="WEIMIN">      0.00000000</i>
     <i name="EBREAK">      0.00000000</i>
     <i name="DEPER">      0.30000000</i>
     <i type="int" name="NRMM">     4</i>
     <i name="TIME">      0.10000000</i>
    </separator>
   </separator>
   <separator name="electronic mixer" >
    <i name="AMIX">      0.40000000</i>
    <i name="BMIX">      1.00000000</i>
    <i name="AMIN">      0.10000000</i>
    <i name="AMIX_MAG">      1.60000000</i>
    <i name="BMIX_MAG">      1.00000000</i>
    <separator name="electronic mixer details" >
     <i type="int" name="IMIX">     4</i>
     <i type="int" name="MAXMIX">   -45</i>
     <i name="WC">    100.00000000</i>
     <i type="int" name="INIMIX">     1</i>
     <i type="int" name="MIXPRE">     1</i>
     <i type="int" name="MREMOVE">     5</i>
    </separator>
   </separator>
   <separator name="electronic dipolcorrection" >
    <i type="int" name="IDIPOL">     0</i>
    <i type="logical" name="LDIPOL"> F  </i>
    <v name="DIPOL">   -100.00000000</v>
    <i name="EFIELD">      0.00000000</i>
   </separator>
  </separator>
  <separator name="grids" >
   <i type="int" name="NGX">    60</i>
   <i type="int" name="NGY">    60</i>
   <i type="int" name="NGZ">    60</i>
   <i type="int" name="NGXF">   120</i>
   <i type="int" name="NGYF">   120</i>
   <i type="int" name="NGZF">   120</i>
   <i type="logical" name="ADDGRID"> F  </i>
  </separator>
  <separator name="ionic" >
   <i type="int" name="NSW">     0</i>
   <i type="int" name="IBRION">    -1</i>
   <i type="int" name="ISIF">     2</i>
   <i name="PSTRESS">      0.00000000</i>
   <i name="EDIFFG">      0.00000010</i>
   <i type="int" name="NFREE">     0</i>
   <i name="POTIM">      0.50000000</i>
   <i name="SMASS">     -3.00000000</i>
  </separator>
  <separator name="ionic md" >
   <i name="TEBEG">      0.00010000</i>
   <i name="TEEND">      0.00010000</i>
   <i type="int" name="NBLOCK">     1</i>
   <i type="int" name="KBLOCK">     1</i>
   <i type="int" name="NPACO">   256</i>
   <i name="APACO">     16.00000000</i>
  </separator>
  <separator name="symmetry" >
   <i type="int" name="ISYM">     2</i>
   <i name="SYMPREC">      0.00001000</i>
  </separator>
  <separator name="dos" >
   <i type="logical" name="LORBIT"> F  </i>
   <v name="RWIGS">     -1.00000000</v>
   <i type="int" name="NEDOS">   301</i>
   <i name="EMIN">     10.00000000</i>
   <i name="EMAX">    -10.00000000</i>
  </separator>
  <separator name="writing" >
   <i type="int" name="NWRITE">     2</i>
   <i type="logical" name="LWAVE"> F  </i>
   <i type="logical" name="LCHARG"> F  </i>
   <i type="logical" name="LPARD"> F  </i>
   <i type="logical" name="LVTOT"> F  </i>
   <i type="logical" name="LELF"> F  </i>
   <i type="logical" name="LOPTICS"> F  </i>
   <i name="STM">      0.00000000</i>
  </separator>
  <separator name="performance" >
   <i type="int" name="NPAR">     4</i>
   <i type="int" name="NSIM">     4</i>
   <i type="int" name="NBLK">   256</i>
   <i type="logical" name="LPLANE"> T  </i>
   <i type="logical" name="LCRITICAL_MEM"> F  </i>
   <i type="logical" name="LSCALAPACK"> F  </i>
   <i type="logical" name="LSCALU"> F  </i>
   <i type="logical" name="LASYNC"> F  </i>
  </separator>
  <separator name="miscellaneous" >
   <i type="int" name="IDIOT">     3</i>
   <i type="logical" name="LMUSIC"> F  </i>
   <v name="POMASS">     26.98200000</v>
   <i type="logical" name="LCORR"> T  </i>
  </separator>
  <i type="logical" name="LREAL_COMPAT"> F  </i>
  <i type="logical" name="GGA_COMPAT"> T  </i>
  <i type="logical" name="LBERRY"> F  </i>
  <i type="int" name="ICORELEVEL">     0</i>
  <i type="logical" name="LDAU"> F  </i>
  <i type="int" name="I_CONSTRAINED_M">     0</i>
 </parameters>
 <atominfo>
  <atoms>      32</atoms>
  <types>       1</types>
  <array name="atoms" >
   <dimension dim="1">ion</dimension>
   <field type="string">element</field>
   <field type="int">atomtype</field>
   <set>
    <rc><c>Al</c><c>   1</c></rc>
    <rc><c>Al</c><c>   1</c></rc>
    <rc><c>Al</c><c>   1</c></rc>
    <rc><c>Al</c><c>   1</c></rc>
    <rc><c>Al</c><c>   1</c></rc>
    <rc><c>Al</c><c>   1</c></rc>
    <rc><c>Al</c><c>   1</c></rc>
    <rc><c>Al</c><c>   1</c></rc>
    <rc><c>Al</c><c>   1</c></rc>
    <rc><c>Al</c><c>   1</c></rc>
    <rc><c>Al</c><c>   1</c></rc>
    <rc><c>Al</c><c>   1</c></rc>
    <rc><c>Al</c><c>   1</c></rc>
    <rc><c>Al</c><c>   1</c></rc>
    <rc><c>Al</c><c>   1</c></rc>
    <rc><c>Al</c><c>   1</c></rc>
    <rc><c>Al</c><c>   1</c></rc>
    <rc><c>Al</c><c>   1</c></rc>
    <rc><c>Al</c><c>   1</c></rc>
    <rc><c>Al</c><c>   1</c></rc>
    <rc><c>Al</c><c>   1</c></rc>
    <rc><c>Al</c><c>   1</c></rc>
    <rc><c>Al</c><c>   1</c></rc>
    <rc><c>Al</c><c>   1</c></rc>
    <rc><c>Al</c><c>   1</c></rc>
    <rc><c>Al</c><c>   1</c></rc>
    <rc><c>Al</c><c>   1</c></rc>
    <rc><c>Al</c><c>   1</c></rc>
    <rc><c>Al</c><c>   1</c></rc>
    <rc><c>Al</c><c>   1</c></rc>
    <rc><c>Al</c><c>   1</c></rc>
    <rc><c>Al</c><c>   1</c></rc>
   </set>
  </array>
  <array name="atomtypes" >
   <dimension dim="1">type</dimension>
   <field type="int">atomspertype</field>
   <field type="string">element</field>
   <field>mass</field>
   <field>valence</field>
   <field type="string">pseudopotential</field>
   <set>
    <rc><c>  32</c><c>Al</c><c>     26.98200000</c><c>      3.00000000</c><c> PAW_PBE Al 04Jan2001                   </c></rc>
   </set>
  </array>
 </atominfo>
 <structure name="initialpos" >
  <crystal>
   <varray name="basis" >
    <v>       7.75162823      0.00000000      0.00000000</v>
    <v>       0.00000000      7.75162823      0.00000000</v>
    <v>       0.00000000      0.00000000      7.75162823</v>
   </varray>
   <i name="volume">    465.77782330</i>
   <varray name="rec_basis" >
    <v>       0.12900515      0.00000000      0.00000000</v>
    <v>       0.00000000      0.12900515      0.00000000</v>
    <v>       0.00000000      0.00000000      0.12900515</v>
   </varray>
  </crystal>
  <varray name="positions" >
   <v>       0.25129005      0.25000000      0.00000000</v>
   <v>       0.75000000      0.25000000      0.00000000</v>
   <v>       0.25000000      0.75000000      0.00000000</v>
   <v>       0.75000000      0.75000000      0.00000000</v>
   <v>       0.25000000      0.25000000      0.50000000</v>
   <v>       0.75000000      0.25000000      0.50000000</v>
   <v>       0.25000000      0.75000000      0.50000000</v>
   <v>       0.75000000      0.75000000      0.50000000</v>
   <v>       0.25000000      0.00000000      0.25000000</v>
   <v>       0.75000000      0.00000000      0.25000000</v>
   <v>       0.25000000      0.50000000      0.25000000</v>
   <v>       0.75000000      0.50000000      0.25000000</v>
   <v>       0.25000000      0.00000000      0.75000000</v>
   <v>       0.75000000      0.00000000      0.75000000</v>
   <v>       0.25000000      0.50000000      0.75000000</v>
   <v>       0.75000000      0.50000000      0.75000000</v>
   <v>       0.00000000      0.25000000      0.25000000</v>
   <v>       0.50000000      0.25000000      0.25000000</v>
   <v>       0.00000000      0.75000000      0.25000000</v>
   <v>       0.50000000      0.75000000      0.25000000</v>
   <v>       0.00000000      0.25000000      0.75000000</v>
   <v>       0.50000000      0.25000000      0.75000000</v>
   <v>       0.00000000      0.75000000      0.75000000</v>
   <v>       0.50000000      0.75000000      0.75000000</v>
   <v>       0.00000000      0.00000000      0.00000000</v>
   <v>       0.50000000      0.00000000      0.00000000</v>
   <v>       0.00000000      0.50000000      0.00000000</v>
   <v>       0.50000000      0.50000000      0.00000000</v>
   <v>       0.00000000      0.00000000      0.50000000</v>
   <v>       0.50000000      0.00000000      0.50000000</v>
   <v>       0.00000000      0.50000000      0.50000000</v>
   <v>       0.50000000      0.50000000      0.50000000</v>
  </varray>
 </structure>
 <calculation>
  <scstep>
   <time name="dav">  150.95  151.22</time>
   <time name="total">  151.25  151.52</time>
   <energy>
    <i name="alphaZ">     -7.38425772</i>
    <i name="ewald">  -2452.91010324</i>
    <i name="hartreedc">     -2.22650109</i>
    <i name="XCdc">   -832.28823291</i>
    <i name="pawpsdc">   1137.73615723</i>
    <i name="pawaedc">   -115.16745734</i>
    <i name="eentropy">     -0.00029641</i>
    <i name="bandstr">    703.28758430</i>
    <i name="atom">   1713.22913220</i>
    <i name="e_fr_energy">    144.27602501</i>
    <i name="e_wo_entrp">    144.27632142</i>
    <i name="e_0_energy">    144.27617321</i>
   </energy>
  </scstep>
  <scstep>
   <time name="dav">  169.99  170.29</time>
   <time name="total">  170.01  170.31</time>
   <energy>
    <i name="e_fr_energy">   -103.95389624</i>
    <i name="e_wo_entrp">   -103.95352226</i>
    <i name="e_0_energy">   -103.95370925</i>
   </energy>
  </scstep>
  <scstep>
   <time name="dav">  175.60  175.91</time>
   <time name="total">  175.62  175.93</time>
   <energy>
    <i name="e_fr_energy">   -118.18304525</i>
    <i name="e_wo_entrp">   -118.18253533</i>
    <i name="e_0_energy">   -118.18279029</i>
   </energy>
  </scstep>
  <scstep>
   <time name="dav">  169.66  169.94</time>
   <time name="total">  169.68  169.96</time>
   <energy>
    <i name="e_fr_energy">   -118.47371875</i>
    <i name="e_wo_entrp">   -118.47321938</i>
    <i name="e_0_energy">   -118.47346906</i>
   </energy>
  </scstep>
  <scstep>
   <time name="dav">  170.63  170.91</time>
   <time name="total">  180.49  180.79</time>
   <energy>
    <i name="e_fr_energy">   -118.47759676</i>
    <i name="e_wo_entrp">   -118.47709790</i>
    <i name="e_0_energy">   -118.47734733</i>
   </energy>
  </scstep>
  <scstep>
   <time name="dav">  167.39  167.73</time>
   <time name="total">  177.61  177.98</time>
   <energy>
    <i name="e_fr_energy">   -118.00081165</i>
    <i name="e_wo_entrp">   -118.00031261</i>
    <i name="e_0_energy">   -118.00056213</i>
   </energy>
  </scstep>
  <scstep>
   <time name="dav">  161.49  161.76</time>
   <time name="total">  171.68  171.96</time>
   <energy>
    <i name="e_fr_energy">   -117.65562099</i>
    <i name="e_wo_entrp">   -117.65503434</i>
    <i name="e_0_energy">   -117.65532766</i>
   </energy>
  </scstep>
  <scstep>
   <time name="dav">  173.43  173.72</time>
   <time name="total">  183.54  183.86</time>
   <energy>
    <i name="e_fr_energy">   -117.65584312</i>
    <i name="e_wo_entrp">   -117.65525248</i>
    <i name="e_0_energy">   -117.65554780</i>
   </energy>
  </scstep>
  <scstep>
   <time name="dav">  168.17  168.45</time>
   <time name="total">  178.26  178.56</time>
   <energy>
    <i name="e_fr_energy">   -117.65588186</i>
    <i name="e_wo_entrp">   -117.65528878</i>
    <i name="e_0_energy">   -117.65558532</i>
   </energy>
  </scstep>
  <scstep>
   <time name="dav">  171.55  171.83</time>
   <time name="total">  181.65  181.95</time>
   <energy>
    <i name="e_fr_energy">   -117.65588522</i>
    <i name="e_wo_entrp">   -117.65529174</i>
    <i name="e_0_energy">   -117.65558848</i>
   </energy>
  </scstep>
  <scstep>
   <time name="dav">  169.96  170.25</time>
   <time name="total">  180.05  180.35</time>
   <energy>
    <i name="e_fr_energy">   -117.65588391</i>
    <i name="e_wo_entrp">   -117.65529048</i>
    <i name="e_0_energy">   -117.65558720</i>
   </energy>
  </scstep>
  <scstep>
   <time name="dav">  129.11  129.44</time>
   <time name="total">  139.73  140.09</time>
   <energy>
    <i name="e_fr_energy">   -117.65588331</i>
    <i name="e_wo_entrp">   -117.65528987</i>
    <i name="e_0_energy">   -117.65558659</i>
   </energy>
  </scstep>
  <scstep>
   <time name="dav">  115.32  115.67</time>
   <time name="total">  122.54  122.92</time>
   <energy>
    <i name="e_fr_energy">   -117.65588318</i>
    <i name="e_wo_entrp">   -117.65528974</i>
    <i name="e_0_energy">   -117.65558646</i>
   </energy>
  </scstep>
  <scstep>
   <time name="dav">   98.56   98.78</time>
   <time name="total">  106.81  107.05</time>
   <energy>
    <i name="e_fr_energy">   -117.65588316</i>
    <i name="e_wo_entrp">   -117.65528972</i>
    <i name="e_0_energy">   -117.65558644</i>
   </energy>
  </scstep>
  <scstep>
   <time name="dav">   86.65   86.79</time>
   <time name="total">   86.93   87.07</time>
   <energy>
    <i name="alphaZ">     -7.38425772</i>
    <i name="ewald">  -2452.91010324</i>
    <i name="hartreedc">     -4.29906974</i>
    <i name="XCdc">   -827.87899584</i>
    <i name="pawpsdc">   1156.27485457</i>
    <i name="pawaedc">   -134.89065580</i>
    <i name="eentropy">     -0.00059344</i>
    <i name="bandstr">    440.20380585</i>
    <i name="atom">   1713.22913220</i>
    <i name="e_fr_energy">   -117.65588317</i>
    <i name="e_wo_entrp">   -117.65528972</i>
    <i name="e_0_energy">   -117.65558644</i>
   </energy>
  </scstep>
  <structure>
   <crystal>
    <varray name="basis" >
     <v>       7.75162823      0.00000000      0.00000000</v>
     <v>       0.00000000      7.75162823      0.00000000</v>
     <v>       0.00000000      0.00000000      7.75162823</v>
    </varray>
    <i name="volume">    465.77782330</i>
    <varray name="rec_basis" >
     <v>       0.12900515      0.00000000      0.00000000</v>
     <v>       0.00000000      0.12900515      0.00000000</v>
     <v>       0.00000000      0.00000000      0.12900515</v>
    </varray>
   </crystal>
   <varray name="positions" >
    <v>       0.25129005      0.25000000      0.00000000</v>
    <v>       0.75000000      0.25000000      0.00000000</v>
    <v>       0.25000000      0.75000000      0.00000000</v>
    <v>       0.75000000      0.75000000      0.00000000</v>
    <v>       0.25000000      0.25000000      0.50000000</v>
    <v>       0.75000000      0.25000000      0.50000000</v>
    <v>       0.25000000      0.75000000      0.50000000</v>
    <v>       0.75000000      0.75000000      0.50000000</v>
    <v>       0.25000000      0.00000000      0.25000000</v>
    <v>       0.75000000      0.00000000      0.25000000</v>
    <v>       0.25000000      0.50000000      0.25000000</v>
    <v>       0.75000000      0.50000000      0.25000000</v>
    <v>       0.25000000      0.00000000      0.75000000</v>
    <v>       0.75000000      0.00000000      0.75000000</v>
    <v>       0.25000000      0.50000000      0.75000000</v>
    <v>       0.75000000      0.50000000      0.75000000</v>
    <v>       0.00000000      0.25000000      0.25000000</v>
    <v>       0.50000000      0.25000000      0.25000000</v>
    <v>       0.00000000      0.75000000      0.25000000</v>
    <v>       0.50000000      0.75000000      0.25000000</v>
    <v>       0.00000000      0.25000000      0.75000000</v>
    <v>       0.50000000      0.25000000      0.75000000</v>
    <v>       0.00000000      0.75000000      0.75000000</v>
    <v>       0.50000000      0.75000000      0.75000000</v>
    <v>       0.00000000      0.00000000      0.00000000</v>
    <v>       0.50000000      0.00000000      0.00000000</v>
    <v>       0.00000000      0.50000000      0.00000000</v>
    <v>       0.50000000      0.50000000      0.00000000</v>
    <v>       0.00000000      0.00000000      0.50000000</v>
    <v>       0.50000000      0.00000000      0.50000000</v>
    <v>       0.00000000      0.50000000      0.50000000</v>
    <v>       0.50000000      0.50000000      0.50000000</v>
   </varray>
  </structure>
  <varray name="forces" >
   <v>      -0.07449095      0.00000000      0.00000000</v>
   <v>       0.00252984     -0.00000000     -0.00000000</v>
   <v>      -0.00016790      0.00000000      0.00000000</v>
   <v>       0.00070110      0.00000000     -0.00000000</v>
   <v>      -0.00016790     -0.00000000     -0.00000000</v>
   <v>       0.00070110     -0.00000000     -0.00000000</v>
   <v>       0.00072737     -0.00000000      0.00000000</v>
   <v>      -0.00064750     -0.00000000     -0.00000000</v>
   <v>      -0.00131928      0.00003515     -0.00003515</v>
   <v>      -0.00040604     -0.00000248      0.00000248</v>
   <v>      -0.00131928     -0.00003515     -0.00003515</v>
   <v>      -0.00040604      0.00000248      0.00000248</v>
   <v>      -0.00131928      0.00003515      0.00003515</v>
   <v>      -0.00040604     -0.00000248     -0.00000248</v>
   <v>      -0.00131928     -0.00003515      0.00003515</v>
   <v>      -0.00040604      0.00000248     -0.00000248</v>
   <v>       0.00960902     -0.00000000     -0.01031153</v>
   <v>       0.00982032     -0.00000000      0.01061971</v>
   <v>      -0.00000270     -0.00000000      0.00000979</v>
   <v>       0.00000238     -0.00000000     -0.00000552</v>
   <v>       0.00960902      0.00000000      0.01031153</v>
   <v>       0.00982032     -0.00000000     -0.01061971</v>
   <v>      -0.00000270     -0.00000000     -0.00000979</v>
   <v>       0.00000238     -0.00000000      0.00000552</v>
   <v>       0.00960902      0.01031153     -0.00000000</v>
   <v>       0.00982032     -0.01061971      0.00000000</v>
   <v>       0.00960902     -0.01031153     -0.00000000</v>
   <v>       0.00982032      0.01061971      0.00000000</v>
   <v>      -0.00000270     -0.00000979      0.00000000</v>
   <v>       0.00000238      0.00000552     -0.00000000</v>
   <v>      -0.00000270      0.00000979      0.00000000</v>
   <v>       0.00000238     -0.00000552     -0.00000000</v>
  </varray>
  <varray name="stress" >
   <v>     127.37183201     -0.00000000      0.00000000</v>
   <v>       0.00000000    127.37137187      0.00000000</v>
   <v>       0.00000000      0.00000000    127.37137187</v>
  </varray>
  <energy>
   <i name="e_fr_energy">   -117.65588317</i>
   <i name="e_wo_entrp">   -117.65558644</i>
   <i name="e_0_energy">     -0.00059344</i>
  </energy>
  <eigenvalues>
   <array>
    <dimension dim="1">band</dimension>
    <dimension dim="2">kpoint</dimension>
    <dimension dim="3">spin</dimension>
    <field>eigene</field>
    <field>occ</field>
    <set>
     <set comment="spin 1">
      <set comment="kpoint 1">
       <r>  -2.6569  1.0000</r>
       <r>  -0.2232  1.0000</r>
       <r>  -0.2192  1.0000</r>
       <r>  -0.2192  1.0000</r>
       <r>  -0.2192  1.0000</r>
       <r>  -0.2192  1.0000</r>
       <r>  -0.2152  1.0000</r>
       <r>   2.1638  1.0000</r>
       <r>   2.1683  1.0000</r>
       <r>   2.1683  1.0000</r>
       <r>   2.1702  1.0000</r>
       <r>   2.1704  1.0000</r>
       <r>   2.1704  1.0000</r>
       <r>   2.1704  1.0000</r>
       <r>   2.1704  1.0000</r>
       <r>   2.1706  1.0000</r>
       <r>   2.1724  1.0000</r>
       <r>   2.1724  1.0000</r>
       <r>   2.1769  1.0000</r>
       <r>   4.2682  1.0000</r>
       <r>   4.2682  1.0000</r>
       <r>   4.2683  1.0000</r>
       <r>   4.2683  1.0000</r>
       <r>   4.8154  1.0000</r>
       <r>   4.8154  1.0000</r>
       <r>   4.8154  1.0000</r>
       <r>   4.8154  1.0000</r>
       <r>   6.1460  1.0000</r>
       <r>   6.1460  1.0000</r>
       <r>   6.1460  1.0000</r>
       <r>   7.7202  1.0000</r>
       <r>   7.7203  1.0000</r>
       <r>   7.7203  1.0000</r>
       <r>   8.3632  1.0000</r>
       <r>   8.3632  1.0000</r>
       <r>   8.3679  1.0000</r>
       <r>   8.3679  1.0000</r>
       <r>   8.3681  1.0000</r>
       <r>   8.3681  1.0000</r>
       <r>   8.3681  1.0000</r>
       <r>   8.3681  1.0000</r>
       <r>   8.3683  1.0000</r>
       <r>   8.3683  1.0000</r>
       <r>   8.3729  1.0000</r>
       <r>   8.3729  1.0000</r>
       <r>   9.3035  1.0000</r>
       <r>   9.3081  1.0000</r>
       <r>   9.3081  1.0000</r>
       <r>   9.3081  1.0000</r>
       <r>   9.3081  1.0000</r>
       <r>   9.3126  1.0000</r>
       <r>  10.5996  0.0000</r>
       <r>  10.5996  0.0000</r>
       <r>  10.6010  0.0000</r>
       <r>  10.6038  0.0000</r>
       <r>  10.6039  0.0000</r>
       <r>  10.6039  0.0000</r>
       <r>  10.6039  0.0000</r>
       <r>  10.6040  0.0000</r>
       <r>  10.6041  0.0000</r>
       <r>  10.6068  0.0000</r>
       <r>  10.6082  0.0000</r>
       <r>  10.6082  0.0000</r>
       <r>  11.2163  0.0000</r>
       <r>  11.2170  0.0000</r>
       <r>  11.2170  0.0000</r>
       <r>  11.2170  0.0000</r>
       <r>  11.2182  0.0000</r>
      </set>
      <set comment="kpoint 2">
       <r>  -2.6399  1.0000</r>
       <r>  -0.6053  1.0000</r>
       <r>  -0.2024  1.0000</r>
       <r>  -0.2024  1.0000</r>
       <r>  -0.2024  1.0000</r>
       <r>  -0.2024  1.0000</r>
       <r>   0.1990  1.0000</r>
       <r>   1.7920  1.0000</r>
       <r>   1.7921  1.0000</r>
       <r>   1.7921  1.0000</r>
       <r>   1.7921  1.0000</r>
       <r>   2.1868  1.0000</r>
       <r>   2.1868  1.0000</r>
       <r>   2.1868  1.0000</r>
       <r>   2.1868  1.0000</r>
       <r>   2.5801  1.0000</r>
       <r>   2.5801  1.0000</r>
       <r>   2.5801  1.0000</r>
       <r>   2.5801  1.0000</r>
       <r>   4.0811  1.0000</r>
       <r>   4.0811  1.0000</r>
       <r>   4.0811  1.0000</r>
       <r>   4.0811  1.0000</r>
       <r>   5.0337  1.0000</r>
       <r>   5.0337  1.0000</r>
       <r>   5.0337  1.0000</r>
       <r>   5.0338  1.0000</r>
       <r>   5.8438  1.0000</r>
       <r>   6.1614  1.0000</r>
       <r>   6.1614  1.0000</r>
       <r>   7.7360  1.0000</r>
       <r>   7.7360  1.0000</r>
       <r>   8.0124  1.0000</r>
       <r>   8.0124  1.0000</r>
       <r>   8.0507  1.0000</r>
       <r>   8.0578  1.0000</r>
       <r>   8.0578  1.0000</r>
       <r>   8.0578  1.0000</r>
       <r>   8.0583  1.0000</r>
       <r>   8.3836  1.0000</r>
       <r>   8.3836  1.0000</r>
       <r>   8.3836  1.0000</r>
       <r>   8.3836  1.0000</r>
       <r>   8.7549  1.0000</r>
       <r>   8.7549  1.0000</r>
       <r>   9.2453  1.0000</r>
       <r>   9.2453  1.0000</r>
       <r>   9.5408  0.0000</r>
       <r>   9.5408  0.0000</r>
       <r>   9.5408  0.0000</r>
       <r>   9.5408  0.0000</r>
       <r>  10.2462  0.0000</r>
       <r>  10.2462  0.0000</r>
       <r>  10.2463  0.0000</r>
       <r>  10.2463  0.0000</r>
       <r>  10.3543  0.0000</r>
       <r>  10.3543  0.0000</r>
       <r>  10.3543  0.0000</r>
       <r>  10.3543  0.0000</r>
       <r>  10.9928  0.0000</r>
       <r>  10.9928  0.0000</r>
       <r>  10.9928  0.0000</r>
       <r>  10.9928  0.0000</r>
       <r>  11.3083  0.0000</r>
       <r>  11.3102  0.0000</r>
       <r>  11.3394  0.0000</r>
       <r>  11.3394  0.0000</r>
       <r>  11.3394  0.0000</r>
      </set>
      <set comment="kpoint 3">
       <r>  -2.5886  1.0000</r>
       <r>  -0.9589  1.0000</r>
       <r>  -0.1522  1.0000</r>
       <r>  -0.1522  1.0000</r>
       <r>  -0.1522  1.0000</r>
       <r>  -0.1522  1.0000</r>
       <r>   0.6489  1.0000</r>
       <r>   1.4455  1.0000</r>
       <r>   1.4455  1.0000</r>
       <r>   1.4455  1.0000</r>
       <r>   1.4455  1.0000</r>
       <r>   2.2360  1.0000</r>
       <r>   2.2360  1.0000</r>
       <r>   2.2360  1.0000</r>
       <r>   2.2360  1.0000</r>
       <r>   3.0206  1.0000</r>
       <r>   3.0206  1.0000</r>
       <r>   3.0206  1.0000</r>
       <r>   3.0206  1.0000</r>
       <r>   3.7782  1.0000</r>
       <r>   3.7782  1.0000</r>
       <r>   3.7782  1.0000</r>
       <r>   3.7782  1.0000</r>
       <r>   5.2548  1.0000</r>
       <r>   5.4303  1.0000</r>
       <r>   5.4303  1.0000</r>
       <r>   5.4303  1.0000</r>
       <r>   5.4304  1.0000</r>
       <r>   6.2076  1.0000</r>
       <r>   6.2076  1.0000</r>
       <r>   7.4887  1.0000</r>
       <r>   7.4887  1.0000</r>
       <r>   7.4887  1.0000</r>
       <r>   7.4887  1.0000</r>
       <r>   7.6879  1.0000</r>
       <r>   7.6879  1.0000</r>
       <r>   7.7832  1.0000</r>
       <r>   7.7832  1.0000</r>
       <r>   8.4301  1.0000</r>
       <r>   8.4301  1.0000</r>
       <r>   8.4301  1.0000</r>
       <r>   8.4301  1.0000</r>
       <r>   8.7264  1.0000</r>
       <r>   9.0863  1.0000</r>
       <r>   9.0863  1.0000</r>
       <r>   9.1730  1.0000</r>
       <r>   9.1730  1.0000</r>
       <r>   9.8252  0.0000</r>
       <r>   9.8253  0.0000</r>
       <r>   9.8253  0.0000</r>
       <r>   9.8253  0.0000</r>
       <r>   9.8749  0.0000</r>
       <r>   9.8749  0.0000</r>
       <r>   9.8749  0.0000</r>
       <r>   9.8751  0.0000</r>
       <r>   9.9199  0.0000</r>
       <r>   9.9199  0.0000</r>
       <r>   9.9200  0.0000</r>
       <r>   9.9200  0.0000</r>
       <r>  11.4129  0.0000</r>
       <r>  11.4129  0.0000</r>
       <r>  11.4130  0.0000</r>
       <r>  11.4130  0.0000</r>
       <r>  11.5529  0.0000</r>
       <r>  11.5529  0.0000</r>
       <r>  11.7090  0.0000</r>
       <r>  11.7091  0.0000</r>
       <r>  11.7097  0.0000</r>
      </set>
      <set comment="kpoint 4">
       <r>  -2.5032  1.0000</r>
       <r>  -1.2797  1.0000</r>
       <r>  -0.0685  1.0000</r>
       <r>  -0.0684  1.0000</r>
       <r>  -0.0684  1.0000</r>
       <r>  -0.0684  1.0000</r>
       <r>   1.1278  1.0000</r>
       <r>   1.1310  1.0000</r>
       <r>   1.1310  1.0000</r>
       <r>   1.1310  1.0000</r>
       <r>   1.1332  1.0000</r>
       <r>   2.3179  1.0000</r>
       <r>   2.3179  1.0000</r>
       <r>   2.3179  1.0000</r>
       <r>   2.3179  1.0000</r>
       <r>   3.4813  1.0000</r>
       <r>   3.4821  1.0000</r>
       <r>   3.4821  1.0000</r>
       <r>   3.4823  1.0000</r>
       <r>   3.4913  1.0000</r>
       <r>   3.4916  1.0000</r>
       <r>   3.4916  1.0000</r>
       <r>   3.4923  1.0000</r>
       <r>   4.6128  1.0000</r>
       <r>   5.8821  1.0000</r>
       <r>   5.8821  1.0000</r>
       <r>   5.8821  1.0000</r>
       <r>   5.8821  1.0000</r>
       <r>   6.2845  1.0000</r>
       <r>   6.2845  1.0000</r>
       <r>   6.8736  1.0000</r>
       <r>   6.8736  1.0000</r>
       <r>   6.8736  1.0000</r>
       <r>   6.8736  1.0000</r>
       <r>   7.3945  1.0000</r>
       <r>   7.3945  1.0000</r>
       <r>   7.8613  1.0000</r>
       <r>   7.8613  1.0000</r>
       <r>   8.5075  1.0000</r>
       <r>   8.5075  1.0000</r>
       <r>   8.5076  1.0000</r>
       <r>   8.5076  1.0000</r>
       <r>   8.8817  1.0000</r>
       <r>   8.8817  1.0000</r>
       <r>   9.2233  1.0000</r>
       <r>   9.2233  1.0000</r>
       <r>   9.2233  1.0000</r>
       <r>   9.2234  1.0000</r>
       <r>   9.5120  0.0000</r>
       <r>   9.6207  0.0000</r>
       <r>   9.6207  0.0000</r>
       <r>   9.6247  0.0000</r>
       <r>   9.6247  0.0000</r>
       <r>   9.6263  0.0000</r>
       <r>   9.6263  0.0000</r>
       <r>  10.1327  0.0000</r>
       <r>  10.1327  0.0000</r>
       <r>  10.1327  0.0000</r>
       <r>  10.1327  0.0000</r>
       <r>  11.5099  0.0000</r>
       <r>  11.5099  0.0000</r>
       <r>  11.5099  0.0000</r>
       <r>  11.5099  0.0000</r>
       <r>  11.8644  0.0000</r>
       <r>  11.8644  0.0000</r>
       <r>  11.8644  0.0000</r>
       <r>  11.8874  0.0000</r>
       <r>  11.8991  0.0000</r>
      </set>
      <set comment="kpoint 5">
       <r>  -2.3837  1.0000</r>
       <r>  -1.5675  1.0000</r>
       <r>   0.0487  1.0000</r>
       <r>   0.0487  1.0000</r>
       <r>   0.0487  1.0000</r>
       <r>   0.0487  1.0000</r>
       <r>   0.8489  1.0000</r>
       <r>   0.8489  1.0000</r>
       <r>   0.8489  1.0000</r>
       <r>   0.8489  1.0000</r>
       <r>   1.6417  1.0000</r>
       <r>   2.4325  1.0000</r>
       <r>   2.4325  1.0000</r>
       <r>   2.4325  1.0000</r>
       <r>   2.4325  1.0000</r>
       <r>   3.2113  1.0000</r>
       <r>   3.2113  1.0000</r>
       <r>   3.2113  1.0000</r>
       <r>   3.2113  1.0000</r>
       <r>   3.9730  1.0000</r>
       <r>   3.9916  1.0000</r>
       <r>   3.9916  1.0000</r>
       <r>   3.9916  1.0000</r>
       <r>   3.9916  1.0000</r>
       <r>   6.2578  1.0000</r>
       <r>   6.2578  1.0000</r>
       <r>   6.2578  1.0000</r>
       <r>   6.2579  1.0000</r>
       <r>   6.3706  1.0000</r>
       <r>   6.3706  1.0000</r>
       <r>   6.3708  1.0000</r>
       <r>   6.3708  1.0000</r>
       <r>   6.3924  1.0000</r>
       <r>   6.3924  1.0000</r>
       <r>   7.1321  1.0000</r>
       <r>   7.1321  1.0000</r>
       <r>   7.9697  1.0000</r>
       <r>   7.9697  1.0000</r>
       <r>   8.6118  1.0000</r>
       <r>   8.6118  1.0000</r>
       <r>   8.6127  1.0000</r>
       <r>   8.6132  1.0000</r>
       <r>   8.6161  1.0000</r>
       <r>   8.6166  1.0000</r>
       <r>   8.6175  1.0000</r>
       <r>   8.6175  1.0000</r>
       <r>   8.6666  1.0000</r>
       <r>   8.6667  1.0000</r>
       <r>   9.3608  0.9998</r>
       <r>   9.3608  0.9998</r>
       <r>   9.3608  0.9998</r>
       <r>   9.3608  0.9998</r>
       <r>  10.1027  0.0000</r>
       <r>  10.1027  0.0000</r>
       <r>  10.3413  0.0000</r>
       <r>  10.3413  0.0000</r>
       <r>  10.3413  0.0000</r>
       <r>  10.3413  0.0000</r>
       <r>  10.3527  0.0000</r>
       <r>  11.2299  0.0000</r>
       <r>  11.2299  0.0000</r>
       <r>  11.2299  0.0000</r>
       <r>  11.2299  0.0000</r>
       <r>  12.3113  0.0000</r>
       <r>  12.3158  0.0000</r>
       <r>  12.3383  0.0000</r>
       <r>  12.3418  0.0000</r>
       <r>  12.3472  0.0000</r>
      </set>
      <set comment="kpoint 6">
       <r>  -2.2302  1.0000</r>
       <r>  -1.8220  1.0000</r>
       <r>   0.1991  1.0000</r>
       <r>   0.1991  1.0000</r>
       <r>   0.1991  1.0000</r>
       <r>   0.1991  1.0000</r>
       <r>   0.5994  1.0000</r>
       <r>   0.5994  1.0000</r>
       <r>   0.5994  1.0000</r>
       <r>   0.5994  1.0000</r>
       <r>   2.1833  1.0000</r>
       <r>   2.5795  1.0000</r>
       <r>   2.5795  1.0000</r>
       <r>   2.5795  1.0000</r>
       <r>   2.5795  1.0000</r>
       <r>   2.9695  1.0000</r>
       <r>   2.9695  1.0000</r>
       <r>   2.9695  1.0000</r>
       <r>   2.9695  1.0000</r>
       <r>   3.3513  1.0000</r>
       <r>   4.5203  1.0000</r>
       <r>   4.5203  1.0000</r>
       <r>   4.5203  1.0000</r>
       <r>   4.5203  1.0000</r>
       <r>   5.6563  1.0000</r>
       <r>   5.6563  1.0000</r>
       <r>   5.6563  1.0000</r>
       <r>   5.6563  1.0000</r>
       <r>   6.5309  1.0000</r>
       <r>   6.5309  1.0000</r>
       <r>   6.8909  1.0000</r>
       <r>   6.8909  1.0000</r>
       <r>   6.8912  1.0000</r>
       <r>   6.8912  1.0000</r>
       <r>   6.9012  1.0000</r>
       <r>   6.9012  1.0000</r>
       <r>   8.0161  1.0000</r>
       <r>   8.0161  1.0000</r>
       <r>   8.0161  1.0000</r>
       <r>   8.0161  1.0000</r>
       <r>   8.1071  1.0000</r>
       <r>   8.1071  1.0000</r>
       <r>   8.4599  1.0000</r>
       <r>   8.4599  1.0000</r>
       <r>   8.7556  1.0000</r>
       <r>   8.7556  1.0000</r>
       <r>   8.7556  1.0000</r>
       <r>   8.7556  1.0000</r>
       <r>   9.1279  1.0000</r>
       <r>   9.1280  1.0000</r>
       <r>   9.1280  1.0000</r>
       <r>   9.1280  1.0000</r>
       <r>  10.5394  0.0000</r>
       <r>  10.5394  0.0000</r>
       <r>  10.5394  0.0000</r>
       <r>  10.5394  0.0000</r>
       <r>  10.6142  0.0000</r>
       <r>  10.6142  0.0000</r>
       <r>  10.9766  0.0000</r>
       <r>  10.9766  0.0000</r>
       <r>  10.9766  0.0000</r>
       <r>  10.9766  0.0000</r>
       <r>  11.2326  0.0000</r>
       <r>  11.7292  0.0000</r>
       <r>  11.7292  0.0000</r>
       <r>  12.7652  0.0000</r>
       <r>  12.7862  0.0000</r>
       <r>  12.8611  0.0000</r>
      </set>
      <set comment="kpoint 7">
       <r>  -2.0444  1.0000</r>
       <r>  -2.0414  1.0000</r>
       <r>   0.3785  1.0000</r>
       <r>   0.3818  1.0000</r>
       <r>   0.3818  1.0000</r>
       <r>   0.3827  1.0000</r>
       <r>   0.3828  1.0000</r>
       <r>   0.3836  1.0000</r>
       <r>   0.3836  1.0000</r>
       <r>   0.3869  1.0000</r>
       <r>   2.7510  1.0000</r>
       <r>   2.7538  1.0000</r>
       <r>   2.7572  1.0000</r>
       <r>   2.7573  1.0000</r>
       <r>   2.7573  1.0000</r>
       <r>   2.7582  1.0000</r>
       <r>   2.7592  1.0000</r>
       <r>   2.7600  1.0000</r>
       <r>   2.7600  1.0000</r>
       <r>   2.7628  1.0000</r>
       <r>   5.0750  1.0000</r>
       <r>   5.0750  1.0000</r>
       <r>   5.0757  1.0000</r>
       <r>   5.0757  1.0000</r>
       <r>   5.0761  1.0000</r>
       <r>   5.0761  1.0000</r>
       <r>   5.0768  1.0000</r>
       <r>   5.0768  1.0000</r>
       <r>   6.6987  1.0000</r>
       <r>   6.6987  1.0000</r>
       <r>   6.7020  1.0000</r>
       <r>   6.7020  1.0000</r>
       <r>   7.4397  1.0000</r>
       <r>   7.4397  1.0000</r>
       <r>   7.4400  1.0000</r>
       <r>   7.4406  1.0000</r>
       <r>   7.4407  1.0000</r>
       <r>   7.4413  1.0000</r>
       <r>   7.4416  1.0000</r>
       <r>   7.4416  1.0000</r>
       <r>   8.2694  1.0000</r>
       <r>   8.2707  1.0000</r>
       <r>   8.2725  1.0000</r>
       <r>   8.2738  1.0000</r>
       <r>   8.9237  1.0000</r>
       <r>   8.9237  1.0000</r>
       <r>   8.9246  1.0000</r>
       <r>   8.9262  1.0000</r>
       <r>   8.9263  1.0000</r>
       <r>   8.9279  1.0000</r>
       <r>   8.9288  1.0000</r>
       <r>   8.9288  1.0000</r>
       <r>  10.7456  0.0000</r>
       <r>  10.7465  0.0000</r>
       <r>  10.7465  0.0000</r>
       <r>  10.7467  0.0000</r>
       <r>  10.7492  0.0000</r>
       <r>  10.7494  0.0000</r>
       <r>  10.7494  0.0000</r>
       <r>  10.7503  0.0000</r>
       <r>  11.1553  0.0000</r>
       <r>  11.1553  0.0000</r>
       <r>  11.1576  0.0000</r>
       <r>  11.1576  0.0000</r>
       <r>  12.1450  0.0000</r>
       <r>  12.1459  0.0000</r>
       <r>  13.2482  0.0000</r>
       <r>  13.2491  0.0000</r>
      </set>
      <set comment="kpoint 8">
       <r>  -2.6399  1.0000</r>
       <r>  -0.6053  1.0000</r>
       <r>  -0.2055  1.0000</r>
       <r>  -0.2024  1.0000</r>
       <r>  -0.2024  1.0000</r>
       <r>  -0.1993  1.0000</r>
       <r>   0.1990  1.0000</r>
       <r>   1.7889  1.0000</r>
       <r>   1.7921  1.0000</r>
       <r>   1.7921  1.0000</r>
       <r>   1.7951  1.0000</r>
       <r>   2.1846  1.0000</r>
       <r>   2.1855  1.0000</r>
       <r>   2.1881  1.0000</r>
       <r>   2.1890  1.0000</r>
       <r>   2.5769  1.0000</r>
       <r>   2.5801  1.0000</r>
       <r>   2.5801  1.0000</r>
       <r>   2.5832  1.0000</r>
       <r>   4.0793  1.0000</r>
       <r>   4.0801  1.0000</r>
       <r>   4.0822  1.0000</r>
       <r>   4.0829  1.0000</r>
       <r>   5.0319  1.0000</r>
       <r>   5.0327  1.0000</r>
       <r>   5.0348  1.0000</r>
       <r>   5.0355  1.0000</r>
       <r>   5.8438  1.0000</r>
       <r>   6.1614  1.0000</r>
       <r>   6.1614  1.0000</r>
       <r>   7.7360  1.0000</r>
       <r>   7.7360  1.0000</r>
       <r>   8.0123  1.0000</r>
       <r>   8.0124  1.0000</r>
       <r>   8.0512  1.0000</r>
       <r>   8.0544  1.0000</r>
       <r>   8.0578  1.0000</r>
       <r>   8.0578  1.0000</r>
       <r>   8.0614  1.0000</r>
       <r>   8.3806  1.0000</r>
       <r>   8.3836  1.0000</r>
       <r>   8.3836  1.0000</r>
       <r>   8.3865  1.0000</r>
       <r>   8.7549  1.0000</r>
       <r>   8.7549  1.0000</r>
       <r>   9.2453  1.0000</r>
       <r>   9.2453  1.0000</r>
       <r>   9.5377  0.0000</r>
       <r>   9.5408  0.0000</r>
       <r>   9.5408  0.0000</r>
       <r>   9.5440  0.0000</r>
       <r>  10.2433  0.0000</r>
       <r>  10.2463  0.0000</r>
       <r>  10.2463  0.0000</r>
       <r>  10.2493  0.0000</r>
       <r>  10.3514  0.0000</r>
       <r>  10.3530  0.0000</r>
       <r>  10.3556  0.0000</r>
       <r>  10.3572  0.0000</r>
       <r>  10.9897  0.0000</r>
       <r>  10.9928  0.0000</r>
       <r>  10.9928  0.0000</r>
       <r>  10.9958  0.0000</r>
       <r>  11.3083  0.0000</r>
       <r>  11.3084  0.0000</r>
       <r>  11.3388  0.0000</r>
       <r>  11.3394  0.0000</r>
       <r>  11.3397  0.0000</r>
      </set>
      <set comment="kpoint 9">
       <r>  -2.6228  1.0000</r>
       <r>  -0.5897  1.0000</r>
       <r>  -0.5872  1.0000</r>
       <r>  -0.1857  1.0000</r>
       <r>  -0.1857  1.0000</r>
       <r>   0.2144  1.0000</r>
       <r>   0.2170  1.0000</r>
       <r>   1.4125  1.0000</r>
       <r>   1.8067  1.0000</r>
       <r>   1.8077  1.0000</r>
       <r>   1.8093  1.0000</r>
       <r>   1.8103  1.0000</r>
       <r>   2.2027  1.0000</r>
       <r>   2.2036  1.0000</r>
       <r>   2.5946  1.0000</r>
       <r>   2.5956  1.0000</r>
       <r>   2.5972  1.0000</r>
       <r>   2.5982  1.0000</r>
       <r>   2.9881  1.0000</r>
       <r>   3.7461  1.0000</r>
       <r>   3.7461  1.0000</r>
       <r>   4.2996  1.0000</r>
       <r>   4.2996  1.0000</r>
       <r>   4.8483  1.0000</r>
       <r>   4.8484  1.0000</r>
       <r>   5.3982  1.0000</r>
       <r>   5.3982  1.0000</r>
       <r>   5.8590  1.0000</r>
       <r>   5.8597  1.0000</r>
       <r>   6.1768  1.0000</r>
       <r>   7.7111  1.0000</r>
       <r>   7.7136  1.0000</r>
       <r>   7.7517  1.0000</r>
       <r>   7.9753  1.0000</r>
       <r>   7.9753  1.0000</r>
       <r>   8.0264  1.0000</r>
       <r>   8.0294  1.0000</r>
       <r>   8.0664  1.0000</r>
       <r>   8.0671  1.0000</r>
       <r>   8.1968  1.0000</r>
       <r>   8.1968  1.0000</r>
       <r>   8.4164  1.0000</r>
       <r>   8.4186  1.0000</r>
       <r>   8.7689  1.0000</r>
       <r>   8.7719  1.0000</r>
       <r>   9.4547  0.0000</r>
       <r>   9.4572  0.0000</r>
       <r>   9.5138  0.0000</r>
       <r>   9.5168  0.0000</r>
       <r>   9.7647  0.0000</r>
       <r>   9.7647  0.0000</r>
       <r>   9.8889  0.0000</r>
       <r>   9.9937  0.0000</r>
       <r>   9.9946  0.0000</r>
       <r>   9.9962  0.0000</r>
       <r>   9.9972  0.0000</r>
       <r>  10.6340  0.0000</r>
       <r>  10.6358  0.0000</r>
       <r>  10.7429  0.0000</r>
       <r>  10.7438  0.0000</r>
       <r>  10.7446  0.0000</r>
       <r>  10.7455  0.0000</r>
       <r>  11.3819  0.0000</r>
       <r>  11.3830  0.0000</r>
       <r>  11.3838  0.0000</r>
       <r>  11.4451  0.0000</r>
       <r>  11.4484  0.0000</r>
       <r>  11.4806  0.0000</r>
      </set>
      <set comment="kpoint 10">
       <r>  -2.5715  1.0000</r>
       <r>  -0.9420  1.0000</r>
       <r>  -0.5380  1.0000</r>
       <r>  -0.1354  1.0000</r>
       <r>  -0.1354  1.0000</r>
       <r>   0.2658  1.0000</r>
       <r>   0.6655  1.0000</r>
       <r>   1.0648  1.0000</r>
       <r>   1.4620  1.0000</r>
       <r>   1.4620  1.0000</r>
       <r>   1.8572  1.0000</r>
       <r>   1.8579  1.0000</r>
       <r>   1.8586  1.0000</r>
       <r>   2.6446  1.0000</r>
       <r>   2.6453  1.0000</r>
       <r>   2.6460  1.0000</r>
       <r>   3.0368  1.0000</r>
       <r>   3.0368  1.0000</r>
       <r>   3.4177  1.0000</r>
       <r>   3.4177  1.0000</r>
       <r>   3.4269  1.0000</r>
       <r>   4.1447  1.0000</r>
       <r>   4.1447  1.0000</r>
       <r>   5.0987  1.0000</r>
       <r>   5.0987  1.0000</r>
       <r>   5.2706  1.0000</r>
       <r>   5.8185  1.0000</r>
       <r>   5.8185  1.0000</r>
       <r>   5.9060  1.0000</r>
       <r>   6.2230  1.0000</r>
       <r>   7.1413  1.0000</r>
       <r>   7.3919  1.0000</r>
       <r>   7.4851  1.0000</r>
       <r>   7.4851  1.0000</r>
       <r>   7.7034  1.0000</r>
       <r>   7.7986  1.0000</r>
       <r>   7.8547  1.0000</r>
       <r>   8.0744  1.0000</r>
       <r>   8.1132  1.0000</r>
       <r>   8.1798  1.0000</r>
       <r>   8.1798  1.0000</r>
       <r>   8.7371  1.0000</r>
       <r>   8.7417  1.0000</r>
       <r>   8.8170  1.0000</r>
       <r>   9.1885  1.0000</r>
       <r>   9.3608  0.9998</r>
       <r>   9.3814  0.7397</r>
       <r>   9.4647  0.0000</r>
       <r>   9.4647  0.0000</r>
       <r>   9.5628  0.0000</r>
       <r>   9.6675  0.0000</r>
       <r>   9.6676  0.0000</r>
       <r>   9.6903  0.0000</r>
       <r>   9.9722  0.0000</r>
       <r>  10.1192  0.0000</r>
       <r>  10.1193  0.0000</r>
       <r>  10.2169  0.0000</r>
       <r>  10.2170  0.0000</r>
       <r>  10.3083  0.0000</r>
       <r>  11.0548  0.0000</r>
       <r>  11.1650  0.0000</r>
       <r>  11.1651  0.0000</r>
       <r>  11.4563  0.0000</r>
       <r>  11.5986  0.0000</r>
       <r>  11.6322  0.0000</r>
       <r>  11.7594  0.0000</r>
       <r>  11.7788  0.0000</r>
       <r>  11.7940  0.0000</r>
      </set>
      <set comment="kpoint 11">
       <r>  -2.4861  1.0000</r>
       <r>  -1.2628  1.0000</r>
       <r>  -0.4540  1.0000</r>
       <r>  -0.0517  1.0000</r>
       <r>  -0.0517  1.0000</r>
       <r>   0.3492  1.0000</r>
       <r>   0.7492  1.0000</r>
       <r>   1.1451  1.0000</r>
       <r>   1.1476  1.0000</r>
       <r>   1.1490  1.0000</r>
       <r>   1.5444  1.0000</r>
       <r>   1.9402  1.0000</r>
       <r>   1.9402  1.0000</r>
       <r>   2.7269  1.0000</r>
       <r>   2.7269  1.0000</r>
       <r>   3.1131  1.0000</r>
       <r>   3.1139  1.0000</r>
       <r>   3.1185  1.0000</r>
       <r>   3.5074  1.0000</r>
       <r>   3.5074  1.0000</r>
       <r>   3.8743  1.0000</r>
       <r>   3.8745  1.0000</r>
       <r>   3.8958  1.0000</r>
       <r>   4.6287  1.0000</r>
       <r>   5.5265  1.0000</r>
       <r>   5.5265  1.0000</r>
       <r>   5.9839  1.0000</r>
       <r>   6.2763  1.0000</r>
       <r>   6.2763  1.0000</r>
       <r>   6.3000  1.0000</r>
       <r>   6.5202  1.0000</r>
       <r>   6.8823  1.0000</r>
       <r>   6.8823  1.0000</r>
       <r>   7.0999  1.0000</r>
       <r>   7.2506  1.0000</r>
       <r>   7.4099  1.0000</r>
       <r>   7.8764  1.0000</r>
       <r>   8.1518  1.0000</r>
       <r>   8.1903  1.0000</r>
       <r>   8.2504  1.0000</r>
       <r>   8.2504  1.0000</r>
       <r>   8.8065  1.0000</r>
       <r>   8.8612  1.0000</r>
       <r>   8.8613  1.0000</r>
       <r>   8.8946  1.0000</r>
       <r>   9.1899  1.0000</r>
       <r>   9.2679  1.0000</r>
       <r>   9.3709  0.9833</r>
       <r>   9.3710  0.9831</r>
       <r>   9.5162  0.0000</r>
       <r>   9.5267  0.0000</r>
       <r>   9.6163  0.0000</r>
       <r>   9.6164  0.0000</r>
       <r>   9.6378  0.0000</r>
       <r>   9.8694  0.0000</r>
       <r>  10.0129  0.0000</r>
       <r>  10.3575  0.0000</r>
       <r>  10.3996  0.0000</r>
       <r>  10.3996  0.0000</r>
       <r>  11.1504  0.0000</r>
       <r>  11.5060  0.0000</r>
       <r>  11.6167  0.0000</r>
       <r>  11.6167  0.0000</r>
       <r>  11.7918  0.0000</r>
       <r>  11.7918  0.0000</r>
       <r>  11.8959  0.0000</r>
       <r>  11.9304  0.0000</r>
       <r>  12.0986  0.0000</r>
      </set>
      <set comment="kpoint 12">
       <r>  -2.3666  1.0000</r>
       <r>  -1.5505  1.0000</r>
       <r>  -0.3365  1.0000</r>
       <r>   0.0654  1.0000</r>
       <r>   0.0654  1.0000</r>
       <r>   0.4654  1.0000</r>
       <r>   0.4667  1.0000</r>
       <r>   0.8655  1.0000</r>
       <r>   0.8655  1.0000</r>
       <r>   1.2633  1.0000</r>
       <r>   1.6582  1.0000</r>
       <r>   2.0553  1.0000</r>
       <r>   2.0553  1.0000</r>
       <r>   2.8388  1.0000</r>
       <r>   2.8391  1.0000</r>
       <r>   2.8409  1.0000</r>
       <r>   2.8412  1.0000</r>
       <r>   3.6115  1.0000</r>
       <r>   3.6115  1.0000</r>
       <r>   3.6200  1.0000</r>
       <r>   3.9891  1.0000</r>
       <r>   4.0075  1.0000</r>
       <r>   4.0075  1.0000</r>
       <r>   4.3935  1.0000</r>
       <r>   5.8991  1.0000</r>
       <r>   6.0089  1.0000</r>
       <r>   6.0089  1.0000</r>
       <r>   6.0928  1.0000</r>
       <r>   6.2705  1.0000</r>
       <r>   6.2705  1.0000</r>
       <r>   6.4077  1.0000</r>
       <r>   6.6430  1.0000</r>
       <r>   6.7669  1.0000</r>
       <r>   6.7669  1.0000</r>
       <r>   6.8374  1.0000</r>
       <r>   7.1476  1.0000</r>
       <r>   7.9840  1.0000</r>
       <r>   8.2498  1.0000</r>
       <r>   8.2500  1.0000</r>
       <r>   8.2604  1.0000</r>
       <r>   8.2971  1.0000</r>
       <r>   8.3575  1.0000</r>
       <r>   8.3575  1.0000</r>
       <r>   8.6539  1.0000</r>
       <r>   8.9818  1.0000</r>
       <r>   9.0022  1.0000</r>
       <r>   9.0044  1.0000</r>
       <r>   9.0075  1.0000</r>
       <r>   9.0082  1.0000</r>
       <r>   9.1056  1.0000</r>
       <r>   9.1056  1.0000</r>
       <r>   9.7486  0.0000</r>
       <r>   9.9223  0.0000</r>
       <r>  10.0341  0.0000</r>
       <r>  10.1182  0.0000</r>
       <r>  10.3669  0.0000</r>
       <r>  10.6195  0.0000</r>
       <r>  10.6195  0.0000</r>
       <r>  10.6447  0.0000</r>
       <r>  10.8733  0.0000</r>
       <r>  11.5130  0.0000</r>
       <r>  11.5130  0.0000</r>
       <r>  11.6123  0.0000</r>
       <r>  11.9885  0.0000</r>
       <r>  12.0961  0.0000</r>
       <r>  12.0989  0.0000</r>
       <r>  12.0993  0.0000</r>
       <r>  12.3359  0.0000</r>
      </set>
      <set comment="kpoint 13">
       <r>  -2.2132  1.0000</r>
       <r>  -1.8050  1.0000</r>
       <r>  -0.1856  1.0000</r>
       <r>   0.2144  1.0000</r>
       <r>   0.2158  1.0000</r>
       <r>   0.2173  1.0000</r>
       <r>   0.6145  1.0000</r>
       <r>   0.6160  1.0000</r>
       <r>   0.6174  1.0000</r>
       <r>   1.0147  1.0000</r>
       <r>   2.1992  1.0000</r>
       <r>   2.2030  1.0000</r>
       <r>   2.2035  1.0000</r>
       <r>   2.5953  1.0000</r>
       <r>   2.5954  1.0000</r>
       <r>   2.9868  1.0000</r>
       <r>   2.9868  1.0000</r>
       <r>   3.3671  1.0000</r>
       <r>   3.3734  1.0000</r>
       <r>   3.3738  1.0000</r>
       <r>   4.1511  1.0000</r>
       <r>   4.5359  1.0000</r>
       <r>   4.5359  1.0000</r>
       <r>   4.9193  1.0000</r>
       <r>   5.2933  1.0000</r>
       <r>   5.6706  1.0000</r>
       <r>   5.6707  1.0000</r>
       <r>   6.0475  1.0000</r>
       <r>   6.2327  1.0000</r>
       <r>   6.5274  1.0000</r>
       <r>   6.5274  1.0000</r>
       <r>   6.5464  1.0000</r>
       <r>   6.6052  1.0000</r>
       <r>   6.9162  1.0000</r>
       <r>   7.2877  1.0000</r>
       <r>   7.2877  1.0000</r>
       <r>   7.6522  1.0000</r>
       <r>   7.6522  1.0000</r>
       <r>   8.1200  1.0000</r>
       <r>   8.3995  1.0000</r>
       <r>   8.4113  1.0000</r>
       <r>   8.4114  1.0000</r>
       <r>   8.4326  1.0000</r>
       <r>   8.4638  1.0000</r>
       <r>   8.4972  1.0000</r>
       <r>   8.4972  1.0000</r>
       <r>   8.7715  1.0000</r>
       <r>   8.7796  1.0000</r>
       <r>   8.8714  1.0000</r>
       <r>   8.8714  1.0000</r>
       <r>   9.1429  1.0000</r>
       <r>   9.5156  0.0000</r>
       <r>  10.2086  0.0000</r>
       <r>  10.4096  0.0000</r>
       <r>  10.6247  0.0000</r>
       <r>  10.6297  0.0000</r>
       <r>  10.8221  0.0000</r>
       <r>  10.8221  0.0000</r>
       <r>  10.8831  0.0000</r>
       <r>  11.2460  0.0000</r>
       <r>  11.2605  0.0000</r>
       <r>  11.2605  0.0000</r>
       <r>  11.3525  0.0000</r>
       <r>  11.5037  0.0000</r>
       <r>  11.7448  0.0000</r>
       <r>  12.5022  0.0000</r>
       <r>  12.6113  0.0000</r>
       <r>  12.6115  0.0000</r>
      </set>
      <set comment="kpoint 14">
       <r>  -2.0274  1.0000</r>
       <r>  -2.0244  1.0000</r>
       <r>  -0.0030  1.0000</r>
       <r>   0.0001  1.0000</r>
       <r>   0.3973  1.0000</r>
       <r>   0.3985  1.0000</r>
       <r>   0.4003  1.0000</r>
       <r>   0.4016  1.0000</r>
       <r>   0.7973  1.0000</r>
       <r>   0.8004  1.0000</r>
       <r>   2.3809  1.0000</r>
       <r>   2.3822  1.0000</r>
       <r>   2.3840  1.0000</r>
       <r>   2.3853  1.0000</r>
       <r>   2.7695  1.0000</r>
       <r>   2.7706  1.0000</r>
       <r>   3.1624  1.0000</r>
       <r>   3.1638  1.0000</r>
       <r>   3.1655  1.0000</r>
       <r>   3.1669  1.0000</r>
       <r>   4.7089  1.0000</r>
       <r>   4.7101  1.0000</r>
       <r>   5.0901  1.0000</r>
       <r>   5.0909  1.0000</r>
       <r>   5.0913  1.0000</r>
       <r>   5.0920  1.0000</r>
       <r>   5.4710  1.0000</r>
       <r>   5.4721  1.0000</r>
       <r>   6.4019  1.0000</r>
       <r>   6.4051  1.0000</r>
       <r>   6.7141  1.0000</r>
       <r>   6.7175  1.0000</r>
       <r>   7.0756  1.0000</r>
       <r>   7.0760  1.0000</r>
       <r>   7.0769  1.0000</r>
       <r>   7.0772  1.0000</r>
       <r>   7.8359  1.0000</r>
       <r>   7.8362  1.0000</r>
       <r>   7.8372  1.0000</r>
       <r>   7.8375  1.0000</r>
       <r>   8.2801  1.0000</r>
       <r>   8.2831  1.0000</r>
       <r>   8.5683  1.0000</r>
       <r>   8.5717  1.0000</r>
       <r>   8.5930  1.0000</r>
       <r>   8.5960  1.0000</r>
       <r>   8.6661  1.0000</r>
       <r>   8.6676  1.0000</r>
       <r>   8.6695  1.0000</r>
       <r>   8.6710  1.0000</r>
       <r>   9.3120  1.0000</r>
       <r>   9.3154  1.0000</r>
       <r>  10.4023  0.0000</r>
       <r>  10.4054  0.0000</r>
       <r>  10.9388  0.0000</r>
       <r>  10.9408  0.0000</r>
       <r>  11.0300  0.0000</r>
       <r>  11.0306  0.0000</r>
       <r>  11.0333  0.0000</r>
       <r>  11.0339  0.0000</r>
       <r>  11.1109  0.0000</r>
       <r>  11.1142  0.0000</r>
       <r>  11.1710  0.0000</r>
       <r>  11.1733  0.0000</r>
       <r>  12.1574  0.0000</r>
       <r>  12.1583  0.0000</r>
       <r>  13.0465  0.0000</r>
       <r>  13.0814  0.0000</r>
      </set>
      <set comment="kpoint 15">
       <r>  -2.5886  1.0000</r>
       <r>  -0.9589  1.0000</r>
       <r>  -0.1552  1.0000</r>
       <r>  -0.1522  1.0000</r>
       <r>  -0.1522  1.0000</r>
       <r>  -0.1491  1.0000</r>
       <r>   0.6489  1.0000</r>
       <r>   1.4424  1.0000</r>
       <r>   1.4455  1.0000</r>
       <r>   1.4455  1.0000</r>
       <r>   1.4486  1.0000</r>
       <r>   2.2339  1.0000</r>
       <r>   2.2347  1.0000</r>
       <r>   2.2373  1.0000</r>
       <r>   2.2382  1.0000</r>
       <r>   3.0174  1.0000</r>
       <r>   3.0206  1.0000</r>
       <r>   3.0206  1.0000</r>
       <r>   3.0237  1.0000</r>
       <r>   3.7761  1.0000</r>
       <r>   3.7770  1.0000</r>
       <r>   3.7794  1.0000</r>
       <r>   3.7802  1.0000</r>
       <r>   5.2548  1.0000</r>
       <r>   5.4282  1.0000</r>
       <r>   5.4291  1.0000</r>
       <r>   5.4316  1.0000</r>
       <r>   5.4324  1.0000</r>
       <r>   6.2076  1.0000</r>
       <r>   6.2076  1.0000</r>
       <r>   7.4852  1.0000</r>
       <r>   7.4887  1.0000</r>
       <r>   7.4887  1.0000</r>
       <r>   7.4921  1.0000</r>
       <r>   7.6879  1.0000</r>
       <r>   7.6879  1.0000</r>
       <r>   7.7832  1.0000</r>
       <r>   7.7832  1.0000</r>
       <r>   8.4271  1.0000</r>
       <r>   8.4301  1.0000</r>
       <r>   8.4301  1.0000</r>
       <r>   8.4330  1.0000</r>
       <r>   8.7264  1.0000</r>
       <r>   9.0863  1.0000</r>
       <r>   9.0863  1.0000</r>
       <r>   9.1730  1.0000</r>
       <r>   9.1730  1.0000</r>
       <r>   9.8227  0.0000</r>
       <r>   9.8240  0.0000</r>
       <r>   9.8266  0.0000</r>
       <r>   9.8280  0.0000</r>
       <r>   9.8719  0.0000</r>
       <r>   9.8749  0.0000</r>
       <r>   9.8749  0.0000</r>
       <r>   9.8779  0.0000</r>
       <r>   9.9169  0.0000</r>
       <r>   9.9199  0.0000</r>
       <r>   9.9200  0.0000</r>
       <r>   9.9229  0.0000</r>
       <r>  11.4099  0.0000</r>
       <r>  11.4130  0.0000</r>
       <r>  11.4130  0.0000</r>
       <r>  11.4160  0.0000</r>
       <r>  11.5529  0.0000</r>
       <r>  11.5529  0.0000</r>
       <r>  11.7080  0.0000</r>
       <r>  11.7092  0.0000</r>
       <r>  11.7112  0.0000</r>
      </set>
      <set comment="kpoint 16">
       <r>  -2.5715  1.0000</r>
       <r>  -0.9420  1.0000</r>
       <r>  -0.5380  1.0000</r>
       <r>  -0.1354  1.0000</r>
       <r>  -0.1354  1.0000</r>
       <r>   0.2658  1.0000</r>
       <r>   0.6655  1.0000</r>
       <r>   1.0647  1.0000</r>
       <r>   1.4620  1.0000</r>
       <r>   1.4620  1.0000</r>
       <r>   1.8565  1.0000</r>
       <r>   1.8579  1.0000</r>
       <r>   1.8593  1.0000</r>
       <r>   2.6439  1.0000</r>
       <r>   2.6453  1.0000</r>
       <r>   2.6467  1.0000</r>
       <r>   3.0368  1.0000</r>
       <r>   3.0368  1.0000</r>
       <r>   3.4177  1.0000</r>
       <r>   3.4177  1.0000</r>
       <r>   3.4269  1.0000</r>
       <r>   4.1447  1.0000</r>
       <r>   4.1447  1.0000</r>
       <r>   5.0987  1.0000</r>
       <r>   5.0987  1.0000</r>
       <r>   5.2706  1.0000</r>
       <r>   5.8185  1.0000</r>
       <r>   5.8185  1.0000</r>
       <r>   5.9061  1.0000</r>
       <r>   6.2230  1.0000</r>
       <r>   7.1412  1.0000</r>
       <r>   7.3919  1.0000</r>
       <r>   7.4851  1.0000</r>
       <r>   7.4851  1.0000</r>
       <r>   7.7034  1.0000</r>
       <r>   7.7986  1.0000</r>
       <r>   7.8548  1.0000</r>
       <r>   8.0743  1.0000</r>
       <r>   8.1132  1.0000</r>
       <r>   8.1798  1.0000</r>
       <r>   8.1798  1.0000</r>
       <r>   8.7369  1.0000</r>
       <r>   8.7419  1.0000</r>
       <r>   8.8170  1.0000</r>
       <r>   9.1885  1.0000</r>
       <r>   9.3608  0.9998</r>
       <r>   9.3814  0.7397</r>
       <r>   9.4647  0.0000</r>
       <r>   9.4647  0.0000</r>
       <r>   9.5628  0.0000</r>
       <r>   9.6676  0.0000</r>
       <r>   9.6676  0.0000</r>
       <r>   9.6903  0.0000</r>
       <r>   9.9722  0.0000</r>
       <r>  10.1193  0.0000</r>
       <r>  10.1193  0.0000</r>
       <r>  10.2169  0.0000</r>
       <r>  10.2169  0.0000</r>
       <r>  10.3083  0.0000</r>
       <r>  11.0548  0.0000</r>
       <r>  11.1651  0.0000</r>
       <r>  11.1651  0.0000</r>
       <r>  11.4563  0.0000</r>
       <r>  11.5986  0.0000</r>
       <r>  11.6322  0.0000</r>
       <r>  11.7612  0.0000</r>
       <r>  11.7788  0.0000</r>
       <r>  11.7814  0.0000</r>
      </set>
      <set comment="kpoint 17">
       <r>  -2.5202  1.0000</r>
       <r>  -0.8927  1.0000</r>
       <r>  -0.8902  1.0000</r>
       <r>  -0.0852  1.0000</r>
       <r>  -0.0852  1.0000</r>
       <r>   0.7136  1.0000</r>
       <r>   0.7157  1.0000</r>
       <r>   0.7175  1.0000</r>
       <r>   1.5098  1.0000</r>
       <r>   1.5108  1.0000</r>
       <r>   1.5124  1.0000</r>
       <r>   1.5134  1.0000</r>
       <r>   2.3009  1.0000</r>
       <r>   2.3018  1.0000</r>
       <r>   3.0806  1.0000</r>
       <r>   3.0811  1.0000</r>
       <r>   3.0842  1.0000</r>
       <r>   3.0848  1.0000</r>
       <r>   3.0864  1.0000</r>
       <r>   3.0875  1.0000</r>
       <r>   3.8635  1.0000</r>
       <r>   4.3935  1.0000</r>
       <r>   4.3935  1.0000</r>
       <r>   4.9471  1.0000</r>
       <r>   4.9471  1.0000</r>
       <r>   5.3175  1.0000</r>
       <r>   5.3183  1.0000</r>
       <r>   6.2447  1.0000</r>
       <r>   6.2448  1.0000</r>
       <r>   6.2692  1.0000</r>
       <r>   6.8178  1.0000</r>
       <r>   6.8204  1.0000</r>
       <r>   7.3724  1.0000</r>
       <r>   7.3724  1.0000</r>
       <r>   7.7483  1.0000</r>
       <r>   7.7512  1.0000</r>
       <r>   7.7947  1.0000</r>
       <r>   7.7948  1.0000</r>
       <r>   7.8449  1.0000</r>
       <r>   8.2187  1.0000</r>
       <r>   8.2211  1.0000</r>
       <r>   8.7864  1.0000</r>
       <r>   8.7874  1.0000</r>
       <r>   9.1332  1.0000</r>
       <r>   9.1342  1.0000</r>
       <r>   9.1359  1.0000</r>
       <r>   9.1369  1.0000</r>
       <r>   9.2330  1.0000</r>
       <r>   9.2357  1.0000</r>
       <r>   9.2384  1.0000</r>
       <r>   9.4952  0.0000</r>
       <r>   9.4970  0.0000</r>
       <r>   9.9347  0.0000</r>
       <r>   9.9376  0.0000</r>
       <r>  10.5591  0.0000</r>
       <r>  10.5592  0.0000</r>
       <r>  10.6379  0.0000</r>
       <r>  10.6388  0.0000</r>
       <r>  10.6394  0.0000</r>
       <r>  10.6404  0.0000</r>
       <r>  10.7270  0.0000</r>
       <r>  10.7289  0.0000</r>
       <r>  11.1232  0.0000</r>
       <r>  11.7510  0.0000</r>
       <r>  11.7517  0.0000</r>
       <r>  12.0176  0.0000</r>
       <r>  12.0176  0.0000</r>
       <r>  12.2317  0.0000</r>
      </set>
      <set comment="kpoint 18">
       <r>  -2.4349  1.0000</r>
       <r>  -1.2121  1.0000</r>
       <r>  -0.8072  1.0000</r>
       <r>  -0.0015  1.0000</r>
       <r>  -0.0015  1.0000</r>
       <r>   0.3995  1.0000</r>
       <r>   0.7985  1.0000</r>
       <r>   1.1948  1.0000</r>
       <r>   1.1973  1.0000</r>
       <r>   1.1987  1.0000</r>
       <r>   1.5941  1.0000</r>
       <r>   1.5941  1.0000</r>
       <r>   1.9892  1.0000</r>
       <r>   2.7727  1.0000</r>
       <r>   2.7740  1.0000</r>
       <r>   2.7767  1.0000</r>
       <r>   3.1664  1.0000</r>
       <r>   3.1664  1.0000</r>
       <r>   3.5557  1.0000</r>
       <r>   3.5557  1.0000</r>
       <r>   4.2716  1.0000</r>
       <r>   4.2717  1.0000</r>
       <r>   4.3300  1.0000</r>
       <r>   4.6766  1.0000</r>
       <r>   5.2283  1.0000</r>
       <r>   5.2283  1.0000</r>
       <r>   5.3968  1.0000</r>
       <r>   6.1939  1.0000</r>
       <r>   6.3461  1.0000</r>
       <r>   6.5250  1.0000</r>
       <r>   6.7044  1.0000</r>
       <r>   6.7044  1.0000</r>
       <r>   6.8950  1.0000</r>
       <r>   6.8950  1.0000</r>
       <r>   7.4563  1.0000</r>
       <r>   7.6429  1.0000</r>
       <r>   7.7427  1.0000</r>
       <r>   7.7427  1.0000</r>
       <r>   7.8271  1.0000</r>
       <r>   7.9211  1.0000</r>
       <r>   8.5126  1.0000</r>
       <r>   8.5304  1.0000</r>
       <r>   8.5304  1.0000</r>
       <r>   8.8367  1.0000</r>
       <r>   8.8367  1.0000</r>
       <r>   8.8620  1.0000</r>
       <r>   8.9422  1.0000</r>
       <r>   9.3128  1.0000</r>
       <r>   9.3990  0.0325</r>
       <r>   9.5708  0.0000</r>
       <r>   9.6140  0.0000</r>
       <r>   9.6844  0.0000</r>
       <r>   9.7985  0.0000</r>
       <r>  10.0399  0.0000</r>
       <r>  10.0399  0.0000</r>
       <r>  10.4323  0.0000</r>
       <r>  10.4772  0.0000</r>
       <r>  10.8191  0.0000</r>
       <r>  10.9319  0.0000</r>
       <r>  10.9319  0.0000</r>
       <r>  11.0916  0.0000</r>
       <r>  11.0916  0.0000</r>
       <r>  11.1789  0.0000</r>
       <r>  12.0310  0.0000</r>
       <r>  12.0595  0.0000</r>
       <r>  12.1935  0.0000</r>
       <r>  12.3069  0.0000</r>
       <r>  12.4109  0.0000</r>
      </set>
      <set comment="kpoint 19">
       <r>  -2.3155  1.0000</r>
       <r>  -1.4997  1.0000</r>
       <r>  -0.6894  1.0000</r>
       <r>   0.1142  1.0000</r>
       <r>   0.1156  1.0000</r>
       <r>   0.1171  1.0000</r>
       <r>   0.9136  1.0000</r>
       <r>   0.9153  1.0000</r>
       <r>   0.9166  1.0000</r>
       <r>   1.7063  1.0000</r>
       <r>   1.7092  1.0000</r>
       <r>   1.7096  1.0000</r>
       <r>   1.7109  1.0000</r>
       <r>   2.4972  1.0000</r>
       <r>   2.4972  1.0000</r>
       <r>   3.2788  1.0000</r>
       <r>   3.2795  1.0000</r>
       <r>   3.2801  1.0000</r>
       <r>   4.0341  1.0000</r>
[...]
       <r>   3.3608  1.0000</r>
       <r>   3.7398  1.0000</r>
       <r>   3.7415  1.0000</r>
       <r>   3.7434  1.0000</r>
       <r>   3.7438  1.0000</r>
       <r>   3.7439  1.0000</r>
       <r>   3.7443  1.0000</r>
       <r>   3.7461  1.0000</r>
       <r>   3.7479  1.0000</r>
       <r>   4.1247  1.0000</r>
       <r>   4.1265  1.0000</r>
       <r>   4.1283  1.0000</r>
       <r>   4.1287  1.0000</r>
       <r>   4.1288  1.0000</r>
       <r>   4.1292  1.0000</r>
       <r>   4.1311  1.0000</r>
       <r>   4.1328  1.0000</r>
       <r>   4.5062  1.0000</r>
       <r>   4.5089  1.0000</r>
       <r>   4.5093  1.0000</r>
       <r>   4.5121  1.0000</r>
       <r>   8.0057  1.0000</r>
       <r>   8.0074  1.0000</r>
       <r>   8.0096  1.0000</r>
       <r>   8.0099  1.0000</r>
       <r>   8.0100  1.0000</r>
       <r>   8.0103  1.0000</r>
       <r>   8.0125  1.0000</r>
       <r>   8.0142  1.0000</r>
       <r>   8.3708  1.0000</r>
       <r>   8.3721  1.0000</r>
       <r>   8.3723  1.0000</r>
       <r>   8.3736  1.0000</r>
       <r>   8.7586  1.0000</r>
       <r>   8.7599  1.0000</r>
       <r>   8.7601  1.0000</r>
       <r>   8.7614  1.0000</r>
       <r>   9.1126  1.0000</r>
       <r>   9.1146  1.0000</r>
       <r>   9.1168  1.0000</r>
       <r>   9.1170  1.0000</r>
       <r>   9.1171  1.0000</r>
       <r>   9.1174  1.0000</r>
       <r>   9.1196  1.0000</r>
       <r>   9.1216  1.0000</r>
       <r>  12.4540  0.0000</r>
       <r>  12.4564  0.0000</r>
       <r>  12.4572  0.0000</r>
       <r>  12.4596  0.0000</r>
       <r>  12.5310  0.0000</r>
       <r>  12.5325  0.0000</r>
       <r>  12.5326  0.0000</r>
       <r>  12.5340  0.0000</r>
       <r>  13.1764  0.0000</r>
       <r>  13.1773  0.0000</r>
       <r>  13.1791  0.0000</r>
       <r>  13.1798  0.0000</r>
      </set>
      <set comment="kpoint 190">
       <r>  -1.4320  1.0000</r>
       <r>  -1.4320  1.0000</r>
       <r>  -1.4320  1.0000</r>
       <r>  -1.4320  1.0000</r>
       <r>   0.9764  1.0000</r>
       <r>   0.9810  1.0000</r>
       <r>   0.9810  1.0000</r>
       <r>   0.9817  1.0000</r>
       <r>   0.9818  1.0000</r>
       <r>   0.9825  1.0000</r>
       <r>   0.9825  1.0000</r>
       <r>   0.9871  1.0000</r>
       <r>   3.3398  1.0000</r>
       <r>   3.3398  1.0000</r>
       <r>   3.3398  1.0000</r>
       <r>   3.3398  1.0000</r>
       <r>   3.3398  1.0000</r>
       <r>   3.3398  1.0000</r>
       <r>   3.3398  1.0000</r>
       <r>   3.3398  1.0000</r>
       <r>   5.3932  1.0000</r>
       <r>   5.3932  1.0000</r>
       <r>   5.3948  1.0000</r>
       <r>   5.3948  1.0000</r>
       <r>   5.3948  1.0000</r>
       <r>   5.3948  1.0000</r>
       <r>   5.3964  1.0000</r>
       <r>   5.3964  1.0000</r>
       <r>   5.9762  1.0000</r>
       <r>   5.9762  1.0000</r>
       <r>   5.9782  1.0000</r>
       <r>   5.9782  1.0000</r>
       <r>   5.9782  1.0000</r>
       <r>   5.9783  1.0000</r>
       <r>   5.9802  1.0000</r>
       <r>   5.9802  1.0000</r>
       <r>   7.2558  1.0000</r>
       <r>   7.2558  1.0000</r>
       <r>   7.2558  1.0000</r>
       <r>   7.2558  1.0000</r>
       <r>   7.7625  1.0000</r>
       <r>   7.7625  1.0000</r>
       <r>   7.7625  1.0000</r>
       <r>   7.7625  1.0000</r>
       <r>   9.2101  1.0000</r>
       <r>   9.2101  1.0000</r>
       <r>   9.2101  1.0000</r>
       <r>   9.2101  1.0000</r>
       <r>  10.2655  0.0000</r>
       <r>  10.2655  0.0000</r>
       <r>  10.2657  0.0000</r>
       <r>  10.2672  0.0000</r>
       <r>  10.2686  0.0000</r>
       <r>  10.2701  0.0000</r>
       <r>  10.2703  0.0000</r>
       <r>  10.2703  0.0000</r>
       <r>  11.7191  0.0000</r>
       <r>  11.7191  0.0000</r>
       <r>  11.7191  0.0000</r>
       <r>  11.7191  0.0000</r>
       <r>  11.7191  0.0000</r>
       <r>  11.7191  0.0000</r>
       <r>  11.7191  0.0000</r>
       <r>  11.7192  0.0000</r>
       <r>  12.4387  0.0000</r>
       <r>  12.4387  0.0000</r>
       <r>  12.4387  0.0000</r>
       <r>  12.4387  0.0000</r>
      </set>
      <set comment="kpoint 191">
       <r>  -1.4151  1.0000</r>
       <r>  -1.4151  1.0000</r>
       <r>  -1.4151  1.0000</r>
       <r>  -1.4151  1.0000</r>
       <r>   0.5995  1.0000</r>
       <r>   0.5995  1.0000</r>
       <r>   0.5995  1.0000</r>
       <r>   0.5995  1.0000</r>
       <r>   1.3957  1.0000</r>
       <r>   1.3957  1.0000</r>
       <r>   1.3957  1.0000</r>
       <r>   1.3957  1.0000</r>
       <r>   3.3560  1.0000</r>
       <r>   3.3560  1.0000</r>
       <r>   3.3560  1.0000</r>
       <r>   3.3560  1.0000</r>
       <r>   3.3560  1.0000</r>
       <r>   3.3560  1.0000</r>
       <r>   3.3560  1.0000</r>
       <r>   3.3560  1.0000</r>
       <r>   5.2176  1.0000</r>
       <r>   5.2176  1.0000</r>
       <r>   5.2185  1.0000</r>
       <r>   5.2185  1.0000</r>
       <r>   5.2185  1.0000</r>
       <r>   5.2185  1.0000</r>
       <r>   5.2194  1.0000</r>
       <r>   5.2194  1.0000</r>
       <r>   6.1840  1.0000</r>
       <r>   6.1840  1.0000</r>
       <r>   6.1853  1.0000</r>
       <r>   6.1853  1.0000</r>
       <r>   6.1853  1.0000</r>
       <r>   6.1853  1.0000</r>
       <r>   6.1866  1.0000</r>
       <r>   6.1866  1.0000</r>
       <r>   6.9404  1.0000</r>
       <r>   6.9404  1.0000</r>
       <r>   6.9404  1.0000</r>
       <r>   6.9404  1.0000</r>
       <r>   7.8729  1.0000</r>
       <r>   7.8729  1.0000</r>
       <r>   7.8729  1.0000</r>
       <r>   7.8729  1.0000</r>
       <r>   9.4595  0.0000</r>
       <r>   9.4596  0.0000</r>
       <r>   9.4596  0.0000</r>
       <r>   9.4596  0.0000</r>
       <r>   9.9047  0.0000</r>
       <r>   9.9047  0.0000</r>
       <r>   9.9047  0.0000</r>
       <r>   9.9047  0.0000</r>
       <r>  10.6616  0.0000</r>
       <r>  10.6616  0.0000</r>
       <r>  10.6616  0.0000</r>
       <r>  10.6616  0.0000</r>
       <r>  11.4334  0.0000</r>
       <r>  11.4334  0.0000</r>
       <r>  11.4343  0.0000</r>
       <r>  11.4343  0.0000</r>
       <r>  11.4343  0.0000</r>
       <r>  11.4344  0.0000</r>
       <r>  11.4352  0.0000</r>
       <r>  11.4352  0.0000</r>
       <r>  12.5760  0.0000</r>
       <r>  12.5768  0.0000</r>
       <r>  12.5770  0.0000</r>
       <r>  12.5779  0.0000</r>
      </set>
      <set comment="kpoint 192">
       <r>  -1.3643  1.0000</r>
       <r>  -1.3643  1.0000</r>
       <r>  -1.3643  1.0000</r>
       <r>  -1.3643  1.0000</r>
       <r>   0.2494  1.0000</r>
       <r>   0.2494  1.0000</r>
       <r>   0.2494  1.0000</r>
       <r>   0.2494  1.0000</r>
       <r>   1.8409  1.0000</r>
       <r>   1.8409  1.0000</r>
       <r>   1.8409  1.0000</r>
       <r>   1.8409  1.0000</r>
       <r>   3.4046  1.0000</r>
       <r>   3.4046  1.0000</r>
       <r>   3.4046  1.0000</r>
       <r>   3.4046  1.0000</r>
       <r>   3.4046  1.0000</r>
       <r>   3.4046  1.0000</r>
       <r>   3.4046  1.0000</r>
       <r>   3.4046  1.0000</r>
       <r>   4.9238  1.0000</r>
       <r>   4.9238  1.0000</r>
       <r>   4.9242  1.0000</r>
       <r>   4.9242  1.0000</r>
       <r>   4.9242  1.0000</r>
       <r>   4.9243  1.0000</r>
       <r>   4.9247  1.0000</r>
       <r>   4.9247  1.0000</r>
       <r>   6.3679  1.0000</r>
       <r>   6.3679  1.0000</r>
       <r>   6.3679  1.0000</r>
       <r>   6.3679  1.0000</r>
       <r>   6.5711  1.0000</r>
       <r>   6.5711  1.0000</r>
       <r>   6.5720  1.0000</r>
       <r>   6.5720  1.0000</r>
       <r>   6.5720  1.0000</r>
       <r>   6.5720  1.0000</r>
       <r>   6.5728  1.0000</r>
       <r>   6.5728  1.0000</r>
       <r>   7.9906  1.0000</r>
       <r>   7.9906  1.0000</r>
       <r>   7.9906  1.0000</r>
       <r>   7.9906  1.0000</r>
       <r>   9.5722  0.0000</r>
       <r>   9.5722  0.0000</r>
       <r>   9.5722  0.0000</r>
       <r>   9.5722  0.0000</r>
       <r>  10.0479  0.0000</r>
       <r>  10.0479  0.0000</r>
       <r>  10.0479  0.0000</r>
       <r>  10.0479  0.0000</r>
       <r>  10.8951  0.0000</r>
       <r>  10.8951  0.0000</r>
       <r>  10.8959  0.0000</r>
       <r>  10.8959  0.0000</r>
       <r>  10.8959  0.0000</r>
       <r>  10.8960  0.0000</r>
       <r>  10.8968  0.0000</r>
       <r>  10.8968  0.0000</r>
       <r>  11.0854  0.0000</r>
       <r>  11.0854  0.0000</r>
       <r>  11.0854  0.0000</r>
       <r>  11.0854  0.0000</r>
       <r>  12.7488  0.0000</r>
       <r>  12.7490  0.0000</r>
       <r>  12.7497  0.0000</r>
       <r>  12.7507  0.0000</r>
      </set>
      <set comment="kpoint 193">
       <r>  -1.2797  1.0000</r>
       <r>  -1.2797  1.0000</r>
       <r>  -1.2797  1.0000</r>
       <r>  -1.2797  1.0000</r>
       <r>  -0.0683  1.0000</r>
       <r>  -0.0683  1.0000</r>
       <r>  -0.0683  1.0000</r>
       <r>  -0.0683  1.0000</r>
       <r>   2.3169  1.0000</r>
       <r>   2.3169  1.0000</r>
       <r>   2.3169  1.0000</r>
       <r>   2.3169  1.0000</r>
       <r>   3.4855  1.0000</r>
       <r>   3.4855  1.0000</r>
       <r>   3.4855  1.0000</r>
       <r>   3.4856  1.0000</r>
       <r>   3.4856  1.0000</r>
       <r>   3.4856  1.0000</r>
       <r>   3.4856  1.0000</r>
       <r>   3.4856  1.0000</r>
       <r>   4.6337  1.0000</r>
       <r>   4.6337  1.0000</r>
       <r>   4.6340  1.0000</r>
       <r>   4.6340  1.0000</r>
       <r>   4.6340  1.0000</r>
       <r>   4.6340  1.0000</r>
       <r>   4.6342  1.0000</r>
       <r>   4.6342  1.0000</r>
       <r>   5.7447  1.0000</r>
       <r>   5.7447  1.0000</r>
       <r>   5.7447  1.0000</r>
       <r>   5.7447  1.0000</r>
       <r>   7.0152  1.0000</r>
       <r>   7.0152  1.0000</r>
       <r>   7.0159  1.0000</r>
       <r>   7.0159  1.0000</r>
       <r>   7.0159  1.0000</r>
       <r>   7.0159  1.0000</r>
       <r>   7.0166  1.0000</r>
       <r>   7.0166  1.0000</r>
       <r>   8.0983  1.0000</r>
       <r>   8.0983  1.0000</r>
       <r>   8.0983  1.0000</r>
       <r>   8.0983  1.0000</r>
       <r>   9.2705  1.0000</r>
       <r>   9.2705  1.0000</r>
       <r>   9.2705  1.0000</r>
       <r>   9.2705  1.0000</r>
       <r>  10.3018  0.0000</r>
       <r>  10.3018  0.0000</r>
       <r>  10.3025  0.0000</r>
       <r>  10.3026  0.0000</r>
       <r>  10.3026  0.0000</r>
       <r>  10.3026  0.0000</r>
       <r>  10.3033  0.0000</r>
       <r>  10.3033  0.0000</r>
       <r>  10.7857  0.0000</r>
       <r>  10.7857  0.0000</r>
       <r>  10.7857  0.0000</r>
       <r>  10.7857  0.0000</r>
       <r>  11.5389  0.0000</r>
       <r>  11.5389  0.0000</r>
       <r>  11.5389  0.0000</r>
       <r>  11.5389  0.0000</r>
       <r>  12.8882  0.0000</r>
       <r>  12.8886  0.0000</r>
       <r>  12.8887  0.0000</r>
       <r>  12.8895  0.0000</r>
      </set>
      <set comment="kpoint 194">
       <r>  -1.1615  1.0000</r>
       <r>  -1.1614  1.0000</r>
       <r>  -1.1614  1.0000</r>
       <r>  -1.1614  1.0000</r>
       <r>  -0.3532  1.0000</r>
       <r>  -0.3532  1.0000</r>
       <r>  -0.3532  1.0000</r>
       <r>  -0.3532  1.0000</r>
       <r>   2.8228  1.0000</r>
       <r>   2.8228  1.0000</r>
       <r>   2.8228  1.0000</r>
       <r>   2.8228  1.0000</r>
       <r>   3.5986  1.0000</r>
       <r>   3.5986  1.0000</r>
       <r>   3.5987  1.0000</r>
       <r>   3.5987  1.0000</r>
       <r>   3.5987  1.0000</r>
       <r>   3.5987  1.0000</r>
       <r>   3.5987  1.0000</r>
       <r>   3.5987  1.0000</r>
       <r>   4.3670  1.0000</r>
       <r>   4.3670  1.0000</r>
       <r>   4.3671  1.0000</r>
       <r>   4.3672  1.0000</r>
       <r>   4.3672  1.0000</r>
       <r>   4.3672  1.0000</r>
       <r>   4.3673  1.0000</r>
       <r>   4.3673  1.0000</r>
       <r>   5.1195  1.0000</r>
       <r>   5.1195  1.0000</r>
       <r>   5.1195  1.0000</r>
       <r>   5.1196  1.0000</r>
       <r>   7.4966  1.0000</r>
       <r>   7.4966  1.0000</r>
       <r>   7.4972  1.0000</r>
       <r>   7.4972  1.0000</r>
       <r>   7.4972  1.0000</r>
       <r>   7.4972  1.0000</r>
       <r>   7.4978  1.0000</r>
       <r>   7.4978  1.0000</r>
       <r>   8.2224  1.0000</r>
       <r>   8.2224  1.0000</r>
       <r>   8.2224  1.0000</r>
       <r>   8.2224  1.0000</r>
       <r>   8.9998  1.0000</r>
       <r>   8.9998  1.0000</r>
       <r>   8.9998  1.0000</r>
       <r>   8.9998  1.0000</r>
       <r>   9.7030  0.0000</r>
       <r>   9.7030  0.0000</r>
       <r>   9.7037  0.0000</r>
       <r>   9.7037  0.0000</r>
       <r>   9.7037  0.0000</r>
       <r>   9.7037  0.0000</r>
       <r>   9.7043  0.0000</r>
       <r>   9.7043  0.0000</r>
       <r>  11.5975  0.0000</r>
       <r>  11.5975  0.0000</r>
       <r>  11.5975  0.0000</r>
       <r>  11.5975  0.0000</r>
       <r>  12.0215  0.0000</r>
       <r>  12.0215  0.0000</r>
       <r>  12.0216  0.0000</r>
       <r>  12.0216  0.0000</r>
       <r>  13.0252  0.0000</r>
       <r>  13.0260  0.0000</r>
       <r>  13.0261  0.0000</r>
       <r>  13.0266  0.0000</r>
      </set>
      <set comment="kpoint 195">
       <r>  -1.0096  1.0000</r>
       <r>  -1.0095  1.0000</r>
       <r>  -1.0095  1.0000</r>
       <r>  -1.0095  1.0000</r>
       <r>  -0.6052  1.0000</r>
       <r>  -0.6052  1.0000</r>
       <r>  -0.6052  1.0000</r>
       <r>  -0.6052  1.0000</r>
       <r>   3.3578  1.0000</r>
       <r>   3.3579  1.0000</r>
       <r>   3.3579  1.0000</r>
       <r>   3.3579  1.0000</r>
       <r>   3.7438  1.0000</r>
       <r>   3.7438  1.0000</r>
       <r>   3.7438  1.0000</r>
       <r>   3.7438  1.0000</r>
       <r>   3.7438  1.0000</r>
       <r>   3.7438  1.0000</r>
       <r>   3.7439  1.0000</r>
       <r>   3.7439  1.0000</r>
       <r>   4.1286  1.0000</r>
       <r>   4.1286  1.0000</r>
       <r>   4.1288  1.0000</r>
       <r>   4.1288  1.0000</r>
       <r>   4.1288  1.0000</r>
       <r>   4.1288  1.0000</r>
       <r>   4.1289  1.0000</r>
       <r>   4.1289  1.0000</r>
       <r>   4.5091  1.0000</r>
       <r>   4.5091  1.0000</r>
       <r>   4.5091  1.0000</r>
       <r>   4.5092  1.0000</r>
       <r>   8.0094  1.0000</r>
       <r>   8.0094  1.0000</r>
       <r>   8.0099  1.0000</r>
       <r>   8.0099  1.0000</r>
       <r>   8.0099  1.0000</r>
       <r>   8.0100  1.0000</r>
       <r>   8.0105  1.0000</r>
       <r>   8.0105  1.0000</r>
       <r>   8.3722  1.0000</r>
       <r>   8.3722  1.0000</r>
       <r>   8.3722  1.0000</r>
       <r>   8.3722  1.0000</r>
       <r>   8.7600  1.0000</r>
       <r>   8.7600  1.0000</r>
       <r>   8.7600  1.0000</r>
       <r>   8.7600  1.0000</r>
       <r>   9.1165  1.0000</r>
       <r>   9.1165  1.0000</r>
       <r>   9.1171  1.0000</r>
       <r>   9.1171  1.0000</r>
       <r>   9.1171  1.0000</r>
       <r>   9.1171  1.0000</r>
       <r>   9.1177  1.0000</r>
       <r>   9.1177  1.0000</r>
       <r>  12.4567  0.0000</r>
       <r>  12.4568  0.0000</r>
       <r>  12.4568  0.0000</r>
       <r>  12.4568  0.0000</r>
       <r>  12.5325  0.0000</r>
       <r>  12.5325  0.0000</r>
       <r>  12.5325  0.0000</r>
       <r>  12.5326  0.0000</r>
       <r>  13.1778  0.0000</r>
       <r>  13.1781  0.0000</r>
       <r>  13.1789  0.0000</r>
       <r>  13.1791  0.0000</r>
      </set>
      <set comment="kpoint 196">
       <r>  -0.8292  1.0000</r>
       <r>  -0.8245  1.0000</r>
       <r>  -0.8245  1.0000</r>
       <r>  -0.8240  1.0000</r>
       <r>  -0.8240  1.0000</r>
       <r>  -0.8235  1.0000</r>
       <r>  -0.8235  1.0000</r>
       <r>  -0.8189  1.0000</r>
       <r>   3.9102  1.0000</r>
       <r>   3.9162  1.0000</r>
       <r>   3.9162  1.0000</r>
       <r>   3.9197  1.0000</r>
       <r>   3.9201  1.0000</r>
       <r>   3.9202  1.0000</r>
       <r>   3.9206  1.0000</r>
       <r>   3.9206  1.0000</r>
       <r>   3.9207  1.0000</r>
       <r>   3.9207  1.0000</r>
       <r>   3.9207  1.0000</r>
       <r>   3.9207  1.0000</r>
       <r>   3.9207  1.0000</r>
       <r>   3.9207  1.0000</r>
       <r>   3.9207  1.0000</r>
       <r>   3.9207  1.0000</r>
       <r>   3.9208  1.0000</r>
       <r>   3.9208  1.0000</r>
       <r>   3.9212  1.0000</r>
       <r>   3.9213  1.0000</r>
       <r>   3.9217  1.0000</r>
       <r>   3.9252  1.0000</r>
       <r>   3.9252  1.0000</r>
       <r>   3.9312  1.0000</r>
       <r>   8.5444  1.0000</r>
       <r>   8.5444  1.0000</r>
       <r>   8.5469  1.0000</r>
       <r>   8.5483  1.0000</r>
       <r>   8.5501  1.0000</r>
       <r>   8.5505  1.0000</r>
       <r>   8.5507  1.0000</r>
       <r>   8.5507  1.0000</r>
       <r>   8.5509  1.0000</r>
       <r>   8.5509  1.0000</r>
       <r>   8.5509  1.0000</r>
       <r>   8.5510  1.0000</r>
       <r>   8.5510  1.0000</r>
       <r>   8.5511  1.0000</r>
       <r>   8.5511  1.0000</r>
       <r>   8.5511  1.0000</r>
       <r>   8.5513  1.0000</r>
       <r>   8.5513  1.0000</r>
       <r>   8.5514  1.0000</r>
       <r>   8.5519  1.0000</r>
       <r>   8.5537  1.0000</r>
       <r>   8.5551  1.0000</r>
       <r>   8.5576  1.0000</r>
       <r>   8.5576  1.0000</r>
       <r>  13.0686  0.0000</r>
       <r>  13.0693  0.0000</r>
       <r>  13.0693  0.0000</r>
       <r>  13.0695  0.0000</r>
       <r>  13.0714  0.0000</r>
       <r>  13.0717  0.0000</r>
       <r>  13.0717  0.0000</r>
       <r>  13.0724  0.0000</r>
       <r>  13.3501  0.0000</r>
       <r>  13.3512  0.0000</r>
       <r>  13.3516  0.0000</r>
       <r>  13.3526  0.0000</r>
      </set>
     </set>
    </set>
   </array>
  </eigenvalues>
 </calculation>
 <structure name="finalpos" >
  <crystal>
   <varray name="basis" >
    <v>       7.75162823      0.00000000      0.00000000</v>
    <v>       0.00000000      7.75162823      0.00000000</v>
    <v>       0.00000000      0.00000000      7.75162823</v>
   </varray>
   <i name="volume">    465.77782330</i>
   <varray name="rec_basis" >
    <v>       0.12900515      0.00000000      0.00000000</v>
    <v>       0.00000000      0.12900515      0.00000000</v>
    <v>       0.00000000      0.00000000      0.12900515</v>
   </varray>
  </crystal>
  <varray name="positions" >
   <v>       0.25129005      0.25000000      0.00000000</v>
   <v>       0.75000000      0.25000000      0.00000000</v>
   <v>       0.25000000      0.75000000      0.00000000</v>
   <v>       0.75000000      0.75000000      0.00000000</v>
   <v>       0.25000000      0.25000000      0.50000000</v>
   <v>       0.75000000      0.25000000      0.50000000</v>
   <v>       0.25000000      0.75000000      0.50000000</v>
   <v>       0.75000000      0.75000000      0.50000000</v>
   <v>       0.25000000      0.00000000      0.25000000</v>
   <v>       0.75000000      0.00000000      0.25000000</v>
   <v>       0.25000000      0.50000000      0.25000000</v>
   <v>       0.75000000      0.50000000      0.25000000</v>
   <v>       0.25000000      0.00000000      0.75000000</v>
   <v>       0.75000000      0.00000000      0.75000000</v>
   <v>       0.25000000      0.50000000      0.75000000</v>
   <v>       0.75000000      0.50000000      0.75000000</v>
   <v>       0.00000000      0.25000000      0.25000000</v>
   <v>       0.50000000      0.25000000      0.25000000</v>
   <v>       0.00000000      0.75000000      0.25000000</v>
   <v>       0.50000000      0.75000000      0.25000000</v>
   <v>       0.00000000      0.25000000      0.75000000</v>
   <v>       0.50000000      0.25000000      0.75000000</v>
   <v>       0.00000000      0.75000000      0.75000000</v>
   <v>       0.50000000      0.75000000      0.75000000</v>
   <v>       0.00000000      0.00000000      0.00000000</v>
   <v>       0.50000000      0.00000000      0.00000000</v>
   <v>       0.00000000      0.50000000      0.00000000</v>
   <v>       0.50000000      0.50000000      0.00000000</v>
   <v>       0.00000000      0.00000000      0.50000000</v>
   <v>       0.50000000      0.00000000      0.50000000</v>
   <v>       0.00000000      0.50000000      0.50000000</v>
   <v>       0.50000000      0.50000000      0.50000000</v>
  </varray>
 </structure>
</modeling>
