   4   4   0   0
  0.1904509E+02  0.4239172E-09  0.4239172E-09  0.4239172E-09  0.5000000E-15
  1.000000000000000E-004
  CAR 
 unknown system                          
     17.59277489     -4.60733522  301      6.60162918      1.00000000
     -4.607  0.0000E+00  0.0000E+00
     -4.533  0.0000E+00  0.0000E+00
     -4.459  0.0000E+00  0.0000E+00
     -4.385  0.0000E+00  0.0000E+00
     -4.311  0.0000E+00  0.0000E+00
     -4.237  0.0000E+00  0.0000E+00
     -4.163  0.0000E+00  0.0000E+00
     -4.089  0.0000E+00  0.0000E+00
     -4.015  0.0000E+00  0.0000E+00
     -3.941  0.0000E+00  0.0000E+00
     -3.867  0.0000E+00  0.0000E+00
     -3.793  0.0000E+00  0.0000E+00
     -3.719  0.0000E+00  0.0000E+00
     -3.645  0.2146E-12  0.1588E-13
     -3.571  0.1564E-01  0.1157E-02
     -3.497  0.9919E-01  0.8498E-02
     -3.423  0.2679E+00  0.2833E-01
     -3.349  0.1332E+00  0.3818E-01
     -3.275  0.3763E+00  0.6604E-01
     -3.201  0.3745E+00  0.9375E-01
     -3.127  0.1832E+00  0.1073E+00
     -3.053  0.4693E+00  0.1424E+00
     -2.979  0.4127E+00  0.1729E+00
     -2.905  0.4469E+00  0.2060E+00
     -2.831  0.3753E+00  0.2349E+00
     -2.757  0.7507E+00  0.2905E+00
     -2.683  0.5861E-01  0.2948E+00
     -2.609  0.7837E+00  0.3528E+00
     -2.535  0.5639E+00  0.3947E+00
     -2.461  0.4997E+00  0.4317E+00
     -2.387  0.9841E+00  0.5045E+00
     -2.313  0.3754E+00  0.5336E+00
     -2.239  0.4830E-01  0.5371E+00
     -2.165  0.7513E+00  0.5927E+00
     -2.091  0.1126E+01  0.6794E+00
     -2.017  0.5005E+00  0.7164E+00
     -1.943  0.8402E+00  0.7786E+00
     -1.869  0.1036E+01  0.8553E+00
     -1.795  0.1474E-02  0.8554E+00
     -1.721  0.5779E+00  0.8982E+00
     -1.647  0.1106E+01  0.9800E+00
     -1.573  0.7514E+00  0.1036E+01
     -1.499  0.5794E+00  0.1079E+01
     -1.425  0.1363E+01  0.1180E+01
     -1.351  0.7528E-04  0.1182E+01
     -1.277  0.6029E+00  0.1226E+01
     -1.203  0.1971E+01  0.1372E+01
     -1.129  0.3754E+00  0.1404E+01
     -1.055  0.4516E+00  0.1437E+01
     -0.981  0.1681E+01  0.1562E+01
     -0.907  0.6917E-06  0.1571E+01
     -0.833  0.1480E+00  0.1582E+01
     -0.759  0.1777E+01  0.1713E+01
     -0.685  0.1109E+01  0.1795E+01
     -0.611  0.3870E+00  0.1824E+01
     -0.537  0.1999E+01  0.1972E+01
     -0.463  0.6171E+00  0.2017E+01
     -0.389  0.7541E+00  0.2073E+01
     -0.315  0.9185E+00  0.2141E+01
     -0.241  0.1322E+01  0.2239E+01
     -0.167  0.1958E-02  0.2240E+01
     -0.093  0.1648E+01  0.2362E+01
     -0.019  0.9775E+00  0.2434E+01
      0.055  0.9499E-01  0.2441E+01
      0.129  0.1916E+01  0.2583E+01
      0.203  0.1452E+01  0.2690E+01
      0.277  0.7514E+00  0.2747E+01
      0.351  0.1665E+01  0.2870E+01
      0.425  0.5869E+00  0.2913E+01
      0.499  0.5632E+00  0.2955E+01
      0.573  0.1086E+01  0.3035E+01
      0.647  0.2372E+01  0.3211E+01
      0.721  0.3756E+00  0.3242E+01
      0.795  0.1611E+01  0.3361E+01
      0.869  0.6415E+00  0.3409E+01
      0.943  0.3756E+00  0.3436E+01
      1.017  0.1737E+01  0.3565E+01
      1.091  0.1676E+01  0.3689E+01
      1.165  0.7509E+00  0.3749E+01
      1.239  0.1070E+01  0.3828E+01
      1.313  0.1558E+01  0.3943E+01
      1.387  0.3757E+00  0.3971E+01
      1.461  0.2573E+01  0.4161E+01
      1.535  0.2286E+01  0.4331E+01
      1.609  0.1230E-03  0.4332E+01
      1.683  0.1076E+01  0.4412E+01
      1.757  0.1177E+01  0.4499E+01
      1.831  0.3760E+00  0.4527E+01
      1.905  0.1172E+01  0.4613E+01
      1.979  0.2364E+01  0.4788E+01
      2.053  0.4806E+00  0.4826E+01
      2.127  0.2986E+01  0.5047E+01
      2.201  0.3814E+00  0.5075E+01
      2.275  0.1159E+01  0.5161E+01
      2.349  0.1980E+01  0.5308E+01
      2.423  0.1795E+01  0.5440E+01
      2.497  0.5996E+00  0.5485E+01
      2.571  0.2421E+01  0.5664E+01
      2.645  0.3752E+00  0.5698E+01
      2.719  0.5625E+00  0.5740E+01
      2.793  0.2022E+01  0.5890E+01
      2.867  0.1687E+01  0.6014E+01
      2.941  0.7469E+00  0.6070E+01
      3.015  0.3006E+01  0.6292E+01
      3.089  0.1881E+00  0.6307E+01
      3.163  0.9836E+00  0.6380E+01
      3.237  0.2184E+01  0.6541E+01
      3.311  0.1423E+01  0.6646E+01
      3.385  0.1021E+01  0.6723E+01
      3.459  0.3106E+01  0.6952E+01
      3.533  0.3754E+00  0.6980E+01
      3.607  0.1172E+01  0.7067E+01
      3.681  0.2480E+01  0.7251E+01
      3.755  0.1779E+01  0.7383E+01
      3.829  0.5707E+00  0.7425E+01
      3.903  0.2327E+01  0.7602E+01
      3.977  0.7889E+00  0.7664E+01
      4.051  0.2062E+01  0.7816E+01
      4.125  0.2362E+01  0.7995E+01
      4.199  0.1128E+01  0.8081E+01
      4.273  0.2276E+01  0.8250E+01
      4.347  0.8767E+00  0.8317E+01
      4.421  0.2635E-01  0.8319E+01
      4.495  0.2783E+01  0.8525E+01
      4.569  0.2752E+01  0.8732E+01
      4.643  0.1251E+00  0.8743E+01
      4.717  0.2830E+01  0.8952E+01
      4.791  0.1126E+01  0.9049E+01
      4.865  0.8397E+00  0.9111E+01
      4.939  0.2182E+01  0.9283E+01
      5.013  0.1746E+01  0.9414E+01
      5.087  0.1618E+01  0.9534E+01
      5.161  0.7928E+00  0.9592E+01
      5.235  0.1151E+01  0.9678E+01
      5.309  0.9077E+00  0.9745E+01
      5.383  0.3145E+01  0.9978E+01
      5.457  0.1145E+01  0.1006E+02
      5.531  0.1353E+01  0.1016E+02
      5.605  0.2777E+01  0.1037E+02
      5.679  0.1126E+01  0.1046E+02
      5.753  0.1311E+01  0.1055E+02
      5.827  0.7629E+00  0.1061E+02
      5.901  0.2381E+01  0.1079E+02
      5.975  0.2117E+01  0.1095E+02
      6.049  0.2670E+01  0.1114E+02
      6.123  0.9798E+00  0.1122E+02
      6.197  0.1074E+01  0.1129E+02
      6.271  0.1561E+01  0.1141E+02
      6.345  0.1055E+01  0.1149E+02
      6.419  0.2468E+01  0.1167E+02
      6.493  0.3585E+01  0.1194E+02
      6.567  0.4811E-02  0.1195E+02
      6.641  0.2150E+01  0.1211E+02
      6.715  0.2962E+01  0.1234E+02
      6.789  0.9388E+00  0.1241E+02
      6.863  0.2622E+01  0.1260E+02
      6.937  0.1811E+01  0.1274E+02
      7.011  0.2127E+00  0.1276E+02
      7.085  0.2313E+01  0.1293E+02
      7.159  0.1770E+01  0.1307E+02
      7.233  0.4392E+00  0.1310E+02
      7.307  0.2324E+01  0.1327E+02
      7.381  0.1769E+01  0.1341E+02
      7.455  0.2212E+01  0.1357E+02
      7.529  0.2948E+01  0.1379E+02
      7.603  0.1127E+01  0.1388E+02
      7.677  0.1798E+01  0.1401E+02
      7.751  0.2366E+01  0.1419E+02
      7.825  0.1871E+01  0.1433E+02
      7.899  0.2164E+01  0.1449E+02
      7.973  0.3187E+01  0.1473E+02
      8.047  0.9937E+00  0.1481E+02
      8.121  0.1553E+01  0.1492E+02
      8.195  0.1873E+01  0.1506E+02
      8.269  0.7997E+00  0.1512E+02
      8.343  0.2145E+01  0.1528E+02
      8.417  0.2679E+01  0.1548E+02
      8.491  0.1084E+01  0.1556E+02
      8.565  0.3256E+01  0.1580E+02
      8.639  0.8861E+00  0.1588E+02
      8.713  0.2151E+01  0.1604E+02
      8.787  0.2892E+01  0.1626E+02
      8.861  0.2156E+01  0.1642E+02
      8.935  0.1234E+01  0.1651E+02
      9.009  0.1911E+01  0.1666E+02
      9.083  0.2281E+01  0.1682E+02
      9.157  0.5323E+00  0.1686E+02
      9.231  0.3263E+01  0.1711E+02
      9.305  0.6538E+00  0.1715E+02
      9.379  0.3924E+01  0.1744E+02
      9.453  0.3858E+01  0.1773E+02
      9.527  0.7618E+00  0.1779E+02
      9.601  0.3192E+01  0.1803E+02
      9.675  0.1085E+01  0.1811E+02
      9.749  0.1802E+00  0.1812E+02
      9.823  0.3861E+01  0.1841E+02
      9.897  0.2465E+01  0.1859E+02
      9.971  0.1508E+01  0.1871E+02
     10.045  0.2539E+01  0.1890E+02
     10.119  0.1117E+01  0.1898E+02
     10.193  0.2217E+01  0.1915E+02
     10.267  0.2920E+01  0.1936E+02
     10.341  0.1944E+01  0.1951E+02
     10.415  0.1233E+01  0.1960E+02
     10.489  0.3679E+01  0.1987E+02
     10.563  0.6186E+00  0.1992E+02
     10.637  0.1571E+01  0.2003E+02
     10.711  0.3653E+01  0.2030E+02
     10.785  0.2161E+01  0.2047E+02
     10.859  0.3109E+01  0.2071E+02
     10.933  0.2320E+01  0.2088E+02
     11.007  0.1109E+01  0.2096E+02
     11.081  0.2705E+01  0.2116E+02
     11.155  0.2509E+01  0.2135E+02
     11.229  0.3294E+01  0.2159E+02
     11.303  0.3203E+01  0.2183E+02
     11.377  0.1170E+01  0.2192E+02
     11.451  0.1337E+01  0.2202E+02
     11.525  0.2446E+01  0.2220E+02
     11.599  0.3836E+01  0.2249E+02
     11.673  0.2522E+01  0.2267E+02
     11.747  0.1943E+01  0.2282E+02
     11.821  0.1125E+01  0.2290E+02
     11.895  0.3927E+01  0.2319E+02
     11.969  0.3682E+01  0.2347E+02
     12.043  0.2119E+01  0.2362E+02
     12.117  0.2859E+01  0.2383E+02
     12.191  0.1827E+01  0.2397E+02
     12.265  0.1121E+01  0.2405E+02
     12.339  0.2734E+01  0.2426E+02
     12.413  0.2708E+01  0.2447E+02
     12.487  0.1546E+01  0.2458E+02
     12.561  0.1634E+01  0.2471E+02
     12.635  0.2837E+01  0.2492E+02
     12.709  0.2690E+01  0.2512E+02
     12.783  0.4243E+01  0.2543E+02
     12.857  0.1593E+01  0.2556E+02
     12.931  0.1529E+01  0.2567E+02
     13.005  0.3900E+01  0.2596E+02
     13.079  0.9309E+00  0.2603E+02
     13.153  0.2973E+01  0.2625E+02
     13.227  0.1717E+01  0.2639E+02
     13.301  0.2840E+01  0.2660E+02
     13.375  0.1734E+01  0.2673E+02
     13.449  0.1849E+01  0.2687E+02
     13.523  0.2243E+01  0.2704E+02
     13.597  0.3069E+01  0.2726E+02
     13.671  0.1403E+01  0.2737E+02
     13.745  0.2114E+01  0.2752E+02
     13.819  0.1966E+01  0.2767E+02
     13.893  0.7553E+00  0.2773E+02
     13.967  0.3766E+01  0.2801E+02
     14.041  0.2426E+01  0.2819E+02
     14.115  0.1087E+01  0.2827E+02
     14.189  0.3304E+01  0.2852E+02
     14.263  0.7854E+00  0.2858E+02
     14.337  0.3809E+01  0.2886E+02
     14.411  0.3406E+01  0.2911E+02
     14.485  0.1313E+01  0.2921E+02
     14.559  0.1907E+01  0.2935E+02
     14.633  0.1746E+01  0.2948E+02
     14.707  0.1471E+01  0.2959E+02
     14.781  0.3784E+01  0.2987E+02
     14.855  0.1501E+01  0.2998E+02
     14.929  0.2362E+01  0.3016E+02
     15.003  0.9138E+00  0.3022E+02
     15.077  0.8766E+00  0.3029E+02
     15.151  0.1774E+01  0.3042E+02
     15.225  0.2766E+01  0.3063E+02
     15.299  0.3115E+01  0.3086E+02
     15.373  0.2127E+01  0.3102E+02
     15.447  0.7396E+00  0.3107E+02
     15.521  0.8100E-01  0.3108E+02
     15.595  0.1723E+01  0.3121E+02
     15.669  0.9469E+00  0.3128E+02
     15.743  0.2522E+00  0.3129E+02
     15.817  0.1453E+01  0.3140E+02
     15.891  0.4632E+00  0.3144E+02
     15.965  0.1226E+01  0.3153E+02
     16.039  0.4228E+00  0.3156E+02
     16.113  0.1445E+01  0.3167E+02
     16.187  0.1742E+00  0.3168E+02
     16.261  0.9531E+00  0.3175E+02
     16.335  0.1171E+01  0.3184E+02
     16.409  0.1704E+01  0.3196E+02
     16.483  0.0000E+00  0.3196E+02
     16.557  0.6309E-01  0.3197E+02
     16.631  0.4374E+00  0.3200E+02
     16.705  0.0000E+00  0.3200E+02
     16.779  0.0000E+00  0.3200E+02
     16.853  0.0000E+00  0.3200E+02
     16.927  0.0000E+00  0.3200E+02
     17.001  0.0000E+00  0.3200E+02
     17.075  0.0000E+00  0.3200E+02
     17.149  0.0000E+00  0.3200E+02
     17.223  0.0000E+00  0.3200E+02
     17.297  0.0000E+00  0.3200E+02
     17.371  0.0000E+00  0.3200E+02
     17.445  0.0000E+00  0.3200E+02
     17.519  0.0000E+00  0.3200E+02
     17.593  0.0000E+00  0.3200E+02
