 vasp.4.6.28 25Jul05 complex 
 executed on             LinuxIFC date 2016.10.19  17:43:07
 running on    8 nodes
 distr:  one band on    1 nodes,    8 groups


--------------------------------------------------------------------------------------------------------


 INCAR:
 POTCAR:   PAW_PBE Al 04Jan2001                   
 POTCAR:   PAW_PBE Al 04Jan2001                   
   VRHFIN =Al: s2p1                                                             
   LEXCH  = PE                                                                  
   EATOM  =    53.5387 eV,    3.9350 Ry                                         
                                                                                
   TITEL  = PAW_PBE Al 04Jan2001                                                
   LULTRA =        F    use ultrasoft PP ?                                      
   IUNSCR =        1    unscreen: 0-lin 1-nonlin 2-no                           
   RPACOR =    1.500    partial core radius                                     
   POMASS =   26.982; ZVAL   =    3.000    mass and valenz                      
   RCORE  =    1.900    outmost cutoff radius                                   
   RWIGS  =    2.650; RWIGS  =    1.402    wigner-seitz radius (au A)           
   ENMAX  =  240.300; ENMIN  =  180.225 eV                                      
   ICORE  =        2    local potential                                         
   LCOR   =        T    correct aug charges                                     
   LPAW   =        T    paw PP                                                  
   EAUG   =  291.052                                                            
   DEXC   =    -.041                                                            
   RMAX   =    2.974    core radius for proj-oper                               
   RAUG   =    1.300    factor for augmentation sphere                          
   RDEP   =    1.966    radius for radial grids                                 
   QCUT   =   -4.203; QGAM   =    8.405    optimization parameters              
                                                                                
   Description                                                                  
     l     E      TYP  RCUT    TYP  RCUT                                        
     0   .000     23  1.900                                                     
     0   .000     23  1.900                                                     
     1   .000     23  1.900                                                     
     1  1.000     23  1.900                                                     
     2   .000      7  1.900                                                     
  local pseudopotential read in
  partial core-charges read in
  atomic valenz-charges read in
  non local Contribution for L=           0  read in
    real space projection operators read in
  non local Contribution for L=           0  read in
    real space projection operators read in
  non local Contribution for L=           1  read in
    real space projection operators read in
  non local Contribution for L=           1  read in
    real space projection operators read in
    PAW grid and wavefunctions read in
 
   number of l-projection  operators is LMAX  =           4
   number of lm-projection operators is LMMAX =           8
 
 PAW_PBE Al 04Jan2001                   :
 energy of atom  1       EATOM=  -53.5387
 kinetic energy error for atom=    0.0003 (will be added to EATOM!!)
 
 EXHCAR: internal setup
 exchange correlation table for  LEXCH =        8
   RHO(1)=    0.500       N(1)  =     2000
   RHO(2)=  100.500       N(2)  =     4000
 
 POSCAR: Al                                      
  positions in direct lattice
  No initial velocities read in
 


--------------------------------------------------------------------------------------------------------


 ion  position               nearest neighbor table
   1  0.500  0.500  0.000-   2 3.00   3 3.00   4 3.00   2 3.00   3 3.00   2 3.00   4 3.00   2 3.00
                             3 3.00   4 3.00   3 3.00   4 3.00
   2  0.500  0.000  0.500-   1 3.00   3 3.00   4 3.00   1 3.00   4 3.00   1 3.00   3 3.00   1 3.00
                             3 3.00   4 3.00   4 3.00   3 3.00
   3  0.000  0.500  0.500-   1 3.00   2 3.00   4 3.00   1 3.00   4 3.00   2 3.00   4 3.00   4 3.00
                             1 3.00   2 3.00   1 3.00   2 3.00
   4  0.000  0.000  0.000-   1 3.00   2 3.00   3 3.00   2 3.00   3 3.00   1 3.00   3 3.00   3 3.00
                             1 3.00   2 3.00   2 3.00   1 3.00
 
  LATTYP: Found a simple cubic cell.
 ALAT       =     4.2391716882
  
  Lattice vectors:
  
 A1 = (   4.2391716882,   0.0000000000,   0.0000000000)
 A2 = (   0.0000000000,   4.2391716882,   0.0000000000)
 A3 = (   0.0000000000,   0.0000000000,   4.2391716882)
 Subroutine PRICEL returns following result:
 
  LATTYP: Found a face centered cubic cell.
 ALAT       =     4.2391716882
  
  Lattice vectors:
  
 A1 = (   2.1195858441,   2.1195858441,   0.0000000000)
 A2 = (   2.1195858441,   0.0000000000,  -2.1195858441)
 A3 = (   0.0000000000,   2.1195858441,  -2.1195858441)
 
   4 primitive cells build up your supercell.
 

Analysis of symmetry for initial positions (statically):

 Routine SETGRP: Setting up the symmetry group for a 
 simple cubic supercell.


 Subroutine GETGRP returns: Found 48 space group operations
 (whereof 48 operations were pure point group operations)
 out of a pool of 48 trial point group operations.


The static configuration has the point symmetry O_h .

Analysis of symmetry for dynamics (positions and initial velocities):

 Subroutine DYNSYM returns: Found 48 space group operations
 (whereof 48 operations were pure point group operations)
 out of a pool of 48 trial space group operations
 (whereof 48 operations were pure point group operations)
 and found also     4 'primitive' translations


The dynamic configuration has the point symmetry O_h .
 
 
 KPOINTS: Automatic mesh                          

Automatic generation of k-mesh.
 generate k-points for:  12  12  12
 
 Subroutine IBZKPT returns following result:
 ===========================================
 
 Found     84 irreducible k-points:
 
 Following reciprocal coordinates:
            Coordinates               Weight
  0.000000  0.000000  0.000000      1.000000
  0.083333  0.000000  0.000000      6.000000
  0.166667  0.000000  0.000000      6.000000
  0.250000  0.000000  0.000000      6.000000
  0.333333  0.000000  0.000000      6.000000
  0.416667  0.000000  0.000000      6.000000
  0.500000  0.000000  0.000000      3.000000
  0.083333  0.083333  0.000000     12.000000
  0.166667  0.083333  0.000000     24.000000
  0.250000  0.083333  0.000000     24.000000
  0.333333  0.083333  0.000000     24.000000
  0.416667  0.083333  0.000000     24.000000
  0.500000  0.083333  0.000000     12.000000
  0.166667  0.166667  0.000000     12.000000
  0.250000  0.166667  0.000000     24.000000
  0.333333  0.166667  0.000000     24.000000
  0.416667  0.166667  0.000000     24.000000
  0.500000  0.166667  0.000000     12.000000
  0.250000  0.250000  0.000000     12.000000
  0.333333  0.250000  0.000000     24.000000
  0.416667  0.250000  0.000000     24.000000
  0.500000  0.250000  0.000000     12.000000
  0.333333  0.333333  0.000000     12.000000
  0.416667  0.333333  0.000000     24.000000
  0.500000  0.333333  0.000000     12.000000
  0.416667  0.416667  0.000000     12.000000
  0.500000  0.416667  0.000000     12.000000
  0.500000  0.500000  0.000000      3.000000
  0.083333  0.083333  0.083333      8.000000
  0.166667  0.083333  0.083333     24.000000
  0.250000  0.083333  0.083333     24.000000
  0.333333  0.083333  0.083333     24.000000
  0.416667  0.083333  0.083333     24.000000
  0.500000  0.083333  0.083333     12.000000
  0.166667  0.166667  0.083333     24.000000
  0.250000  0.166667  0.083333     48.000000
  0.333333  0.166667  0.083333     48.000000
  0.416667  0.166667  0.083333     48.000000
  0.500000  0.166667  0.083333     24.000000
  0.250000  0.250000  0.083333     24.000000
  0.333333  0.250000  0.083333     48.000000
  0.416667  0.250000  0.083333     48.000000
  0.500000  0.250000  0.083333     24.000000
  0.333333  0.333333  0.083333     24.000000
  0.416667  0.333333  0.083333     48.000000
  0.500000  0.333333  0.083333     24.000000
  0.416667  0.416667  0.083333     24.000000
  0.500000  0.416667  0.083333     24.000000
  0.500000  0.500000  0.083333      6.000000
  0.166667  0.166667  0.166667      8.000000
  0.250000  0.166667  0.166667     24.000000
  0.333333  0.166667  0.166667     24.000000
  0.416667  0.166667  0.166667     24.000000
  0.500000  0.166667  0.166667     12.000000
  0.250000  0.250000  0.166667     24.000000
  0.333333  0.250000  0.166667     48.000000
  0.416667  0.250000  0.166667     48.000000
  0.500000  0.250000  0.166667     24.000000
  0.333333  0.333333  0.166667     24.000000
  0.416667  0.333333  0.166667     48.000000
  0.500000  0.333333  0.166667     24.000000
  0.416667  0.416667  0.166667     24.000000
  0.500000  0.416667  0.166667     24.000000
  0.500000  0.500000  0.166667      6.000000
  0.250000  0.250000  0.250000      8.000000
  0.333333  0.250000  0.250000     24.000000
  0.416667  0.250000  0.250000     24.000000
  0.500000  0.250000  0.250000     12.000000
  0.333333  0.333333  0.250000     24.000000
  0.416667  0.333333  0.250000     48.000000
  0.500000  0.333333  0.250000     24.000000
  0.416667  0.416667  0.250000     24.000000
  0.500000  0.416667  0.250000     24.000000
  0.500000  0.500000  0.250000      6.000000
  0.333333  0.333333  0.333333      8.000000
  0.416667  0.333333  0.333333     24.000000
  0.500000  0.333333  0.333333     12.000000
  0.416667  0.416667  0.333333     24.000000
  0.500000  0.416667  0.333333     24.000000
  0.500000  0.500000  0.333333      6.000000
  0.416667  0.416667  0.416667      8.000000
  0.500000  0.416667  0.416667     12.000000
  0.500000  0.500000  0.416667      6.000000
  0.500000  0.500000  0.500000      1.000000
 
 Following cartesian coordinates:
            Coordinates               Weight
  0.000000  0.000000  0.000000      1.000000
  0.020641  0.000000  0.000000      6.000000
  0.041282  0.000000  0.000000      6.000000
  0.061922  0.000000  0.000000      6.000000
  0.082563  0.000000  0.000000      6.000000
  0.103204  0.000000  0.000000      6.000000
  0.123845  0.000000  0.000000      3.000000
  0.020641  0.020641  0.000000     12.000000
  0.041282  0.020641  0.000000     24.000000
  0.061922  0.020641  0.000000     24.000000
  0.082563  0.020641  0.000000     24.000000
  0.103204  0.020641  0.000000     24.000000
  0.123845  0.020641  0.000000     12.000000
  0.041282  0.041282  0.000000     12.000000
  0.061922  0.041282  0.000000     24.000000
  0.082563  0.041282  0.000000     24.000000
  0.103204  0.041282  0.000000     24.000000
  0.123845  0.041282  0.000000     12.000000
  0.061922  0.061922  0.000000     12.000000
  0.082563  0.061922  0.000000     24.000000
  0.103204  0.061922  0.000000     24.000000
  0.123845  0.061922  0.000000     12.000000
  0.082563  0.082563  0.000000     12.000000
  0.103204  0.082563  0.000000     24.000000
  0.123845  0.082563  0.000000     12.000000
  0.103204  0.103204  0.000000     12.000000
  0.123845  0.103204  0.000000     12.000000
  0.123845  0.123845  0.000000      3.000000
  0.020641  0.020641  0.020641      8.000000
  0.041282  0.020641  0.020641     24.000000
  0.061922  0.020641  0.020641     24.000000
  0.082563  0.020641  0.020641     24.000000
  0.103204  0.020641  0.020641     24.000000
  0.123845  0.020641  0.020641     12.000000
  0.041282  0.041282  0.020641     24.000000
  0.061922  0.041282  0.020641     48.000000
  0.082563  0.041282  0.020641     48.000000
  0.103204  0.041282  0.020641     48.000000
  0.123845  0.041282  0.020641     24.000000
  0.061922  0.061922  0.020641     24.000000
  0.082563  0.061922  0.020641     48.000000
  0.103204  0.061922  0.020641     48.000000
  0.123845  0.061922  0.020641     24.000000
  0.082563  0.082563  0.020641     24.000000
  0.103204  0.082563  0.020641     48.000000
  0.123845  0.082563  0.020641     24.000000
  0.103204  0.103204  0.020641     24.000000
  0.123845  0.103204  0.020641     24.000000
  0.123845  0.123845  0.020641      6.000000
  0.041282  0.041282  0.041282      8.000000
  0.061922  0.041282  0.041282     24.000000
  0.082563  0.041282  0.041282     24.000000
  0.103204  0.041282  0.041282     24.000000
  0.123845  0.041282  0.041282     12.000000
  0.061922  0.061922  0.041282     24.000000
  0.082563  0.061922  0.041282     48.000000
  0.103204  0.061922  0.041282     48.000000
  0.123845  0.061922  0.041282     24.000000
  0.082563  0.082563  0.041282     24.000000
  0.103204  0.082563  0.041282     48.000000
  0.123845  0.082563  0.041282     24.000000
  0.103204  0.103204  0.041282     24.000000
  0.123845  0.103204  0.041282     24.000000
  0.123845  0.123845  0.041282      6.000000
  0.061922  0.061922  0.061922      8.000000
  0.082563  0.061922  0.061922     24.000000
  0.103204  0.061922  0.061922     24.000000
  0.123845  0.061922  0.061922     12.000000
  0.082563  0.082563  0.061922     24.000000
  0.103204  0.082563  0.061922     48.000000
  0.123845  0.082563  0.061922     24.000000
  0.103204  0.103204  0.061922     24.000000
  0.123845  0.103204  0.061922     24.000000
  0.123845  0.123845  0.061922      6.000000
  0.082563  0.082563  0.082563      8.000000
  0.103204  0.082563  0.082563     24.000000
  0.123845  0.082563  0.082563     12.000000
  0.103204  0.103204  0.082563     24.000000
  0.123845  0.103204  0.082563     24.000000
  0.123845  0.123845  0.082563      6.000000
  0.103204  0.103204  0.103204      8.000000
  0.123845  0.103204  0.103204     12.000000
  0.123845  0.123845  0.103204      6.000000
  0.123845  0.123845  0.123845      1.000000
 


--------------------------------------------------------------------------------------------------------




 Dimension of arrays:
   k-Points           NKPTS =     84   number of bands    NBANDS=     16
   number of dos      NEDOS =    301   number of ions     NIONS =      4
   non local maximal  LDIM  =      4   non local SUM 2l+1 LMDIM =      8
   total plane-waves  NPLWV =  32768
   max r-space proj   IRMAX =      1   max aug-charges    IRDMAX=  16938
   dimension x,y,z NGX =    32 NGY =   32 NGZ =   32
   dimension x,y,z NGXF=    64 NGYF=   64 NGZF=   64
   support grid    NGXF=    64 NGYF=   64 NGZF=   64
   ions per type =               4
 NGX,Y,Z   is equivalent  to a cutoff of  12.55, 12.55, 12.55 a.u.
 NGXF,Y,Z  is equivalent  to a cutoff of  25.10, 25.10, 25.10 a.u.


 I would recommend the setting:
   dimension x,y,z NGX =    31 NGY =   31 NGZ =   31
 SYSTEM =  unknown system                          
 POSCAR =  Al                                      

 Startparameter for this run:
   NWRITE =      2    write-flag & timer
   PREC   = accura    medium, high low
   ISTART =      0    job   : 0-new  1-cont  2-samecut
   ICHARG =      2    charge: 1-file 2-atom 10-const
   ISPIN  =      1    spin polarized calculation?
   LNONCOLLINEAR =      F non collinear calculations
   LSORBIT =      F    spin-orbit coupling
   INIWAV =      1    electr: 0-lowe 1-rand  2-diag
   LASPH  =      F    aspherical Exc in radial PAW
   METAGGA=      F    non-selfconsistent MetaGGA calc.

 Electronic Relaxation 1
   ENCUT  =  500.0 eV  36.75 Ry    6.06 a.u.   7.73  7.73  7.73*2*pi/ulx,y,z
   ENINI  =  500.0     initial cutoff
   ENAUG  =  291.1 eV  augmentation charge cutoff
   NELM   =     60;   NELMIN=  2; NELMDL=  0     # of ELM steps 
   EDIFF  = 0.1E-07   stopping-criterion for ELM
   LREAL  =      F    real-space projection
   LCOMPAT=      F    compatible to vasp.4.4
   LREAL_COMPAT= F    compatible to vasp.4.5.1-3
   GGA_COMPAT  = T    GGA compatible to vasp.4.4-vasp.4.6
   LMAXPAW     = -100 max onsite density
   LMAXMIX     =    2 max onsite mixed and CHGCAR
   VOSKOWN=      0    Vosko Wilk Nusair interpolation
   ROPT   =    0.00000
 Ionic relaxation
   EDIFFG = 0.1E-06   stopping-criterion for IOM
   NSW    =      0    number of steps for IOM
   NBLOCK =      1;   KBLOCK =      1    inner block; outer block 
   IBRION =     -1    ionic relax: 0-MD 1-quasi-New 2-CG
   NFREE  =      0    steps in history (QN), initial steepest desc. (CG)
   ISIF   =      2    stress and relaxation
   IWAVPR =     10    prediction:  0-non 1-charg 2-wave 3-comb
   ISYM   =      2    0-nonsym 1-usesym 2-fastsym
   LCORR  =      T    Harris-Foulkes like correction to forces

   POTIM  =   0.50    time-step for ionic-motion
   TEIN   =    0.0    initial temperature
   TEBEG  =    0.0;   TEEND  =   0.0 temperature during run
   SMASS  =  -3.00    Nose mass-parameter (am)
   estimated Nose-frequenzy (Omega)   =  0.10E-29 period in steps =****** mass=  -0.411E-27a.u.
   NPACO  =    256;   APACO  = 16.0  distance and # of slots for P.C.
   PSTRESS=    0.0 pullay stress

  Mass of Ions in am
   POMASS =  26.98
  Ionic Valenz
   ZVAL   =   3.00
  Atomic Wigner-Seitz radii
   RWIGS  =  -1.00
   NELECT =      12.0000    total number of electrons
   NUPDOWN=      -1.0000    fix difference up-down

 DOS related values:
   EMIN   =  10.00;   EMAX   =-10.00  energy-range for DOS
   ISMEAR =     0;   SIGMA  =   0.01  broadening in eV -4-tet -1-fermi 0-gaus

 Electronic relaxation 2 (details)
   IALGO  =     38    algorithm
   LDIAG  =      T    sub-space diagonalisation
   IMIX   =      4    mixing-type and parameters
     AMIX     =   0.40;   BMIX     =  1.00
     AMIX_MAG =   1.60;   BMIX_MAG =  1.00
     AMIN     =   0.10
     WC   =   100.;   INIMIX=   1;  MIXPRE=   1

 Intra band minimization:
   WEIMIN = 0.0000     energy-eigenvalue tresh-hold
   EBREAK =  0.25E-09  absolut break condition
   DEPER  =   0.30     relativ break condition  

   TIME   =   0.10     timestep for ELM

  volume/ion in A,a.u.               =      19.05       128.52
  Fermi-wavevector in a.u.,eV,Ry     =   0.884140 10.635716  0.781703

 Second variation
   LSECVAR=     F    do a second variation
 
 Write flags
   LWAVE  =      F    write WAVECAR
   LCHARG =      F    write CHGCAR
   LVTOT  =      F    write LOCPOT, local potential
   LELF   =      F    write electronic localiz. function (ELF)
   LORBIT =      0    0 simple, 1 ext, 2 COOP (PROOUT)


 Dipole corrections
   IDIPOL =      0    1-x, 2-y, 3-z
   LDIPOL =      F    correct potential



--------------------------------------------------------------------------------------------------------


 Static calculation
 charge density will be updated during run
 non-spin polarized calculation
 Variant of blocked Davidson
 Davidson routine will perform the subspace rotation
 performe sub-space diagonalisation
    after iterative eigenvector-optimisation
 modified Broyden-mixing scheme, WC =      100.0
 initial mixing is a Kerker type mixing with AMIX =  0.4000 and BMIX =      1.0000
 Hartree-type preconditioning will be used
 using additional bands           10
 reciprocal scheme for non local part
 use partial core corrections
 calculate Harris-corrections to forces 
   (improved forces if not selfconsistent)
 use gradient corrections 
 use of overlap-Matrix (Vanderbilt PP)
 Gauss-broadening in eV      SIGMA  =   0.01


--------------------------------------------------------------------------------------------------------


  energy-cutoff  :      500.00
  volume of cell :       76.18
      direct lattice vectors                 reciprocal lattice vectors
     4.239171688  0.000000000  0.000000000     0.235895140  0.000000000  0.000000000
     0.000000000  4.239171688  0.000000000     0.000000000  0.235895140  0.000000000
     0.000000000  0.000000000  4.239171688     0.000000000  0.000000000  0.235895140

  length of vectors
     4.239171688  4.239171688  4.239171688     0.235895140  0.235895140  0.235895140


 
 k-points in units of 2pi/SCALE and weight: Automatic mesh                          
   0.00000000  0.00000000  0.00000000       0.001
   0.02064082  0.00000000  0.00000000       0.003
   0.04128165  0.00000000  0.00000000       0.003
   0.06192247  0.00000000  0.00000000       0.003
   0.08256330  0.00000000  0.00000000       0.003
   0.10320412  0.00000000  0.00000000       0.003
   0.12384495  0.00000000  0.00000000       0.002
   0.02064082  0.02064082  0.00000000       0.007
   0.04128165  0.02064082  0.00000000       0.014
   0.06192247  0.02064082  0.00000000       0.014
   0.08256330  0.02064082  0.00000000       0.014
   0.10320412  0.02064082  0.00000000       0.014
   0.12384495  0.02064082  0.00000000       0.007
   0.04128165  0.04128165  0.00000000       0.007
   0.06192247  0.04128165  0.00000000       0.014
   0.08256330  0.04128165  0.00000000       0.014
   0.10320412  0.04128165  0.00000000       0.014
   0.12384495  0.04128165  0.00000000       0.007
   0.06192247  0.06192247  0.00000000       0.007
   0.08256330  0.06192247  0.00000000       0.014
   0.10320412  0.06192247  0.00000000       0.014
   0.12384495  0.06192247  0.00000000       0.007
   0.08256330  0.08256330  0.00000000       0.007
   0.10320412  0.08256330  0.00000000       0.014
   0.12384495  0.08256330  0.00000000       0.007
   0.10320412  0.10320412  0.00000000       0.007
   0.12384495  0.10320412  0.00000000       0.007
   0.12384495  0.12384495  0.00000000       0.002
   0.02064082  0.02064082  0.02064082       0.005
   0.04128165  0.02064082  0.02064082       0.014
   0.06192247  0.02064082  0.02064082       0.014
   0.08256330  0.02064082  0.02064082       0.014
   0.10320412  0.02064082  0.02064082       0.014
   0.12384495  0.02064082  0.02064082       0.007
   0.04128165  0.04128165  0.02064082       0.014
   0.06192247  0.04128165  0.02064082       0.028
   0.08256330  0.04128165  0.02064082       0.028
   0.10320412  0.04128165  0.02064082       0.028
   0.12384495  0.04128165  0.02064082       0.014
   0.06192247  0.06192247  0.02064082       0.014
   0.08256330  0.06192247  0.02064082       0.028
   0.10320412  0.06192247  0.02064082       0.028
   0.12384495  0.06192247  0.02064082       0.014
   0.08256330  0.08256330  0.02064082       0.014
   0.10320412  0.08256330  0.02064082       0.028
   0.12384495  0.08256330  0.02064082       0.014
   0.10320412  0.10320412  0.02064082       0.014
   0.12384495  0.10320412  0.02064082       0.014
   0.12384495  0.12384495  0.02064082       0.003
   0.04128165  0.04128165  0.04128165       0.005
   0.06192247  0.04128165  0.04128165       0.014
   0.08256330  0.04128165  0.04128165       0.014
   0.10320412  0.04128165  0.04128165       0.014
   0.12384495  0.04128165  0.04128165       0.007
   0.06192247  0.06192247  0.04128165       0.014
   0.08256330  0.06192247  0.04128165       0.028
   0.10320412  0.06192247  0.04128165       0.028
   0.12384495  0.06192247  0.04128165       0.014
   0.08256330  0.08256330  0.04128165       0.014
   0.10320412  0.08256330  0.04128165       0.028
   0.12384495  0.08256330  0.04128165       0.014
   0.10320412  0.10320412  0.04128165       0.014
   0.12384495  0.10320412  0.04128165       0.014
   0.12384495  0.12384495  0.04128165       0.003
   0.06192247  0.06192247  0.06192247       0.005
   0.08256330  0.06192247  0.06192247       0.014
   0.10320412  0.06192247  0.06192247       0.014
   0.12384495  0.06192247  0.06192247       0.007
   0.08256330  0.08256330  0.06192247       0.014
   0.10320412  0.08256330  0.06192247       0.028
   0.12384495  0.08256330  0.06192247       0.014
   0.10320412  0.10320412  0.06192247       0.014
   0.12384495  0.10320412  0.06192247       0.014
   0.12384495  0.12384495  0.06192247       0.003
   0.08256330  0.08256330  0.08256330       0.005
   0.10320412  0.08256330  0.08256330       0.014
   0.12384495  0.08256330  0.08256330       0.007
   0.10320412  0.10320412  0.08256330       0.014
   0.12384495  0.10320412  0.08256330       0.014
   0.12384495  0.12384495  0.08256330       0.003
   0.10320412  0.10320412  0.10320412       0.005
   0.12384495  0.10320412  0.10320412       0.007
   0.12384495  0.12384495  0.10320412       0.003
   0.12384495  0.12384495  0.12384495       0.001
 
 k-points in reciprocal lattice and weights: Automatic mesh                          
   0.00000000  0.00000000  0.00000000       0.001
   0.08333333  0.00000000  0.00000000       0.003
   0.16666667  0.00000000  0.00000000       0.003
   0.25000000  0.00000000  0.00000000       0.003
   0.33333333  0.00000000  0.00000000       0.003
   0.41666667  0.00000000  0.00000000       0.003
   0.50000000  0.00000000  0.00000000       0.002
   0.08333333  0.08333333  0.00000000       0.007
   0.16666667  0.08333333  0.00000000       0.014
   0.25000000  0.08333333  0.00000000       0.014
   0.33333333  0.08333333  0.00000000       0.014
   0.41666667  0.08333333  0.00000000       0.014
   0.50000000  0.08333333  0.00000000       0.007
   0.16666667  0.16666667  0.00000000       0.007
   0.25000000  0.16666667  0.00000000       0.014
   0.33333333  0.16666667  0.00000000       0.014
   0.41666667  0.16666667  0.00000000       0.014
   0.50000000  0.16666667  0.00000000       0.007
   0.25000000  0.25000000  0.00000000       0.007
   0.33333333  0.25000000  0.00000000       0.014
   0.41666667  0.25000000  0.00000000       0.014
   0.50000000  0.25000000  0.00000000       0.007
   0.33333333  0.33333333  0.00000000       0.007
   0.41666667  0.33333333  0.00000000       0.014
   0.50000000  0.33333333  0.00000000       0.007
   0.41666667  0.41666667  0.00000000       0.007
   0.50000000  0.41666667  0.00000000       0.007
   0.50000000  0.50000000  0.00000000       0.002
   0.08333333  0.08333333  0.08333333       0.005
   0.16666667  0.08333333  0.08333333       0.014
   0.25000000  0.08333333  0.08333333       0.014
   0.33333333  0.08333333  0.08333333       0.014
   0.41666667  0.08333333  0.08333333       0.014
   0.50000000  0.08333333  0.08333333       0.007
   0.16666667  0.16666667  0.08333333       0.014
   0.25000000  0.16666667  0.08333333       0.028
   0.33333333  0.16666667  0.08333333       0.028
   0.41666667  0.16666667  0.08333333       0.028
   0.50000000  0.16666667  0.08333333       0.014
   0.25000000  0.25000000  0.08333333       0.014
   0.33333333  0.25000000  0.08333333       0.028
   0.41666667  0.25000000  0.08333333       0.028
   0.50000000  0.25000000  0.08333333       0.014
   0.33333333  0.33333333  0.08333333       0.014
   0.41666667  0.33333333  0.08333333       0.028
   0.50000000  0.33333333  0.08333333       0.014
   0.41666667  0.41666667  0.08333333       0.014
   0.50000000  0.41666667  0.08333333       0.014
   0.50000000  0.50000000  0.08333333       0.003
   0.16666667  0.16666667  0.16666667       0.005
   0.25000000  0.16666667  0.16666667       0.014
   0.33333333  0.16666667  0.16666667       0.014
   0.41666667  0.16666667  0.16666667       0.014
   0.50000000  0.16666667  0.16666667       0.007
   0.25000000  0.25000000  0.16666667       0.014
   0.33333333  0.25000000  0.16666667       0.028
   0.41666667  0.25000000  0.16666667       0.028
   0.50000000  0.25000000  0.16666667       0.014
   0.33333333  0.33333333  0.16666667       0.014
   0.41666667  0.33333333  0.16666667       0.028
   0.50000000  0.33333333  0.16666667       0.014
   0.41666667  0.41666667  0.16666667       0.014
   0.50000000  0.41666667  0.16666667       0.014
   0.50000000  0.50000000  0.16666667       0.003
   0.25000000  0.25000000  0.25000000       0.005
   0.33333333  0.25000000  0.25000000       0.014
   0.41666667  0.25000000  0.25000000       0.014
   0.50000000  0.25000000  0.25000000       0.007
   0.33333333  0.33333333  0.25000000       0.014
   0.41666667  0.33333333  0.25000000       0.028
   0.50000000  0.33333333  0.25000000       0.014
   0.41666667  0.41666667  0.25000000       0.014
   0.50000000  0.41666667  0.25000000       0.014
   0.50000000  0.50000000  0.25000000       0.003
   0.33333333  0.33333333  0.33333333       0.005
   0.41666667  0.33333333  0.33333333       0.014
   0.50000000  0.33333333  0.33333333       0.007
   0.41666667  0.41666667  0.33333333       0.014
   0.50000000  0.41666667  0.33333333       0.014
   0.50000000  0.50000000  0.33333333       0.003
   0.41666667  0.41666667  0.41666667       0.005
   0.50000000  0.41666667  0.41666667       0.007
   0.50000000  0.50000000  0.41666667       0.003
   0.50000000  0.50000000  0.50000000       0.001
 
 position of ions in fractional coordinates (direct lattice) 
   0.50000000  0.50000000  0.00000000
   0.50000000  0.00000000  0.50000000
   0.00000000  0.50000000  0.50000000
   0.00000000  0.00000000  0.00000000
 
 position of ions in cartesian coordinates  (Angst):
   2.11958584  2.11958584  0.00000000
   2.11958584  0.00000000  2.11958584
   0.00000000  2.11958584  2.11958584
   0.00000000  0.00000000  0.00000000
 


--------------------------------------------------------------------------------------------------------


 k-point  1 :  0.00000.00000.0000  plane waves:   1935
 k-point  2 :  0.08330.00000.0000  plane waves:   1919
 k-point  3 :  0.16670.00000.0000  plane waves:   1935
 k-point  4 :  0.25000.00000.0000  plane waves:   1955
 k-point  5 :  0.33330.00000.0000  plane waves:   1924
 k-point  6 :  0.41670.00000.0000  plane waves:   1936
 k-point  7 :  0.50000.00000.0000  plane waves:   1936
 k-point  8 :  0.08330.08330.0000  plane waves:   1927
 k-point  9 :  0.16670.08330.0000  plane waves:   1930
 k-point 10 :  0.25000.08330.0000  plane waves:   1942
 k-point 11 :  0.33330.08330.0000  plane waves:   1932
 k-point 12 :  0.41670.08330.0000  plane waves:   1940
 k-point 13 :  0.50000.08330.0000  plane waves:   1932
 k-point 14 :  0.16670.16670.0000  plane waves:   1933
 k-point 15 :  0.25000.16670.0000  plane waves:   1928
 k-point 16 :  0.33330.16670.0000  plane waves:   1940
 k-point 17 :  0.41670.16670.0000  plane waves:   1941
 k-point 18 :  0.50000.16670.0000  plane waves:   1944
 k-point 19 :  0.25000.25000.0000  plane waves:   1939
 k-point 20 :  0.33330.25000.0000  plane waves:   1935
 k-point 21 :  0.41670.25000.0000  plane waves:   1939
 k-point 22 :  0.50000.25000.0000  plane waves:   1926
 k-point 23 :  0.33330.33330.0000  plane waves:   1929
 k-point 24 :  0.41670.33330.0000  plane waves:   1931
 k-point 25 :  0.50000.33330.0000  plane waves:   1940
 k-point 26 :  0.41670.41670.0000  plane waves:   1955
 k-point 27 :  0.50000.41670.0000  plane waves:   1948
 k-point 28 :  0.50000.50000.0000  plane waves:   1956
 k-point 29 :  0.08330.08330.0833  plane waves:   1923
 k-point 30 :  0.16670.08330.0833  plane waves:   1934
 k-point 31 :  0.25000.08330.0833  plane waves:   1937
 k-point 32 :  0.33330.08330.0833  plane waves:   1936
 k-point 33 :  0.41670.08330.0833  plane waves:   1940
 k-point 34 :  0.50000.08330.0833  plane waves:   1926
 k-point 35 :  0.16670.16670.0833  plane waves:   1938
 k-point 36 :  0.25000.16670.0833  plane waves:   1921
 k-point 37 :  0.33330.16670.0833  plane waves:   1934
 k-point 38 :  0.41670.16670.0833  plane waves:   1938
 k-point 39 :  0.50000.16670.0833  plane waves:   1930
 k-point 40 :  0.25000.25000.0833  plane waves:   1932
 k-point 41 :  0.33330.25000.0833  plane waves:   1940
 k-point 42 :  0.41670.25000.0833  plane waves:   1935
 k-point 43 :  0.50000.25000.0833  plane waves:   1934
 k-point 44 :  0.33330.33330.0833  plane waves:   1943
 k-point 45 :  0.41670.33330.0833  plane waves:   1935
 k-point 46 :  0.50000.33330.0833  plane waves:   1934
 k-point 47 :  0.41670.41670.0833  plane waves:   1946
 k-point 48 :  0.50000.41670.0833  plane waves:   1940
 k-point 49 :  0.50000.50000.0833  plane waves:   1952
 k-point 50 :  0.16670.16670.1667  plane waves:   1929
 k-point 51 :  0.25000.16670.1667  plane waves:   1923
 k-point 52 :  0.33330.16670.1667  plane waves:   1928
 k-point 53 :  0.41670.16670.1667  plane waves:   1951
 k-point 54 :  0.50000.16670.1667  plane waves:   1946
 k-point 55 :  0.25000.25000.1667  plane waves:   1932
 k-point 56 :  0.33330.25000.1667  plane waves:   1937
 k-point 57 :  0.41670.25000.1667  plane waves:   1932
 k-point 58 :  0.50000.25000.1667  plane waves:   1934
 k-point 59 :  0.33330.33330.1667  plane waves:   1936
 k-point 60 :  0.41670.33330.1667  plane waves:   1936
 k-point 61 :  0.50000.33330.1667  plane waves:   1944
 k-point 62 :  0.41670.41670.1667  plane waves:   1939
 k-point 63 :  0.50000.41670.1667  plane waves:   1938
 k-point 64 :  0.50000.50000.1667  plane waves:   1932
 k-point 65 :  0.25000.25000.2500  plane waves:   1926
 k-point 66 :  0.33330.25000.2500  plane waves:   1933
 k-point 67 :  0.41670.25000.2500  plane waves:   1929
 k-point 68 :  0.50000.25000.2500  plane waves:   1936
 k-point 69 :  0.33330.33330.2500  plane waves:   1928
 k-point 70 :  0.41670.33330.2500  plane waves:   1934
 k-point 71 :  0.50000.33330.2500  plane waves:   1932
 k-point 72 :  0.41670.41670.2500  plane waves:   1929
 k-point 73 :  0.50000.41670.2500  plane waves:   1936
 k-point 74 :  0.50000.50000.2500  plane waves:   1940
 k-point 75 :  0.33330.33330.3333  plane waves:   1944
 k-point 76 :  0.41670.33330.3333  plane waves:   1931
 k-point 77 :  0.50000.33330.3333  plane waves:   1930
 k-point 78 :  0.41670.41670.3333  plane waves:   1917
 k-point 79 :  0.50000.41670.3333  plane waves:   1922
 k-point 80 :  0.50000.50000.3333  plane waves:   1928
 k-point 81 :  0.41670.41670.4167  plane waves:   1914
 k-point 82 :  0.50000.41670.4167  plane waves:   1904
 k-point 83 :  0.50000.50000.4167  plane waves:   1908
 k-point 84 :  0.50000.50000.5000  plane waves:   1904

 maximum and minimum number of plane-waves per node :   1956  1904

 maximum number of plane-waves:   1956
 maximal index in each direction: 
   IXMAX=  7   IYMAX=  7   IZMAX=  7
   IXMIN= -8   IYMIN= -8   IZMIN= -8

 NGX is ok and might be reduce to  32
 NGY is ok and might be reduce to  32
 NGZ is ok and might be reduce to  32

 parallel 3dFFT wavefunction:
    minimum data exchange during FFTs selected (reduces bandwidth)
 parallel 3dFFT charge:
    minimum data exchange during FFTs selected (reduces bandwidth)

 For storing wavefunctions   41.58 MBYTES are necessary
 For predicting wavefunctions    1.42 MBYTES are necessary
Broyden mixing: mesh for mixing (old mesh)
   NGX = 15   NGY = 15   NGZ = 15
  (NGX  = 64   NGY  = 64   NGZ  = 64)
 gives a total of   3375 points
 initial charge density was supplied:
 charge density of overlapping atoms calculated
 number of electron   12.0000000 magnetization 
 keeping initial charge density in first step


--------------------------------------------------------------------------------------------------------


 Maximum index for augmentation-charges         1931 (set IRDMAX)


--------------------------------------------------------------------------------------------------------


 First call to EWALD:  gamma=   0.418
 Maximum number of real-space cells 3x 3x 3
 Maximum number of reciprocal cells 3x 3x 3

    FEWALD:  VPU time    0.00: CPU time    0.00


----------------------------------------- Iteration    1(   1)  ---------------------------------------


    POTLOK:  VPU time    0.02: CPU time    0.02
    SETDIJ:  VPU time    0.00: CPU time    0.00
    EDDAV :  VPU time    0.91: CPU time    0.94
    DOS   :  VPU time    0.00: CPU time   -0.00
    ------------------------------------------
      LOOP:  VPU time    0.93: CPU time    0.96

 eigenvalue-minimisations  :  2688
 total energy-change (2. order) : 0.4066157E+01  (-0.3823374E+03)
 number of electron   12.0000000 magnetization 
 augmentation part    12.0000000 magnetization 

 Free energy of the ion-electron system (eV)
  ---------------------------------------------------
  alpha Z        PSCENC =        -0.70544419
  Ewald energy   TEWEN  =      -280.33275957
  -1/2 Hartree   DENC   =        -0.71337382
  -V(xc)+E(xc)   XCENC  =      -105.96154953
  PAW double counting   =       142.21701965      -14.39593217
  entropy T*S    EENTRO =        -0.00013427
  eigenvalues    EBANDS =        49.80468985
  atomic energy  EATOM  =       214.15364153
  ---------------------------------------------------
  free energy    TOTEN  =         4.06615748 eV

  energy without entropy =        4.06629175  energy(sigma->0) =        4.06622461


--------------------------------------------------------------------------------------------------------




----------------------------------------- Iteration    1(   2)  ---------------------------------------


    EDDAV :  VPU time    1.12: CPU time    1.12
    DOS   :  VPU time    0.00: CPU time   -0.00
    ------------------------------------------
      LOOP:  VPU time    1.12: CPU time    1.12

 eigenvalue-minimisations  :  3576
 total energy-change (2. order) :-0.1823117E+02  (-0.1715613E+02)
 number of electron   12.0000000 magnetization 
 augmentation part    12.0000000 magnetization 

 Free energy of the ion-electron system (eV)
  ---------------------------------------------------
  alpha Z        PSCENC =        -0.70544419
  Ewald energy   TEWEN  =      -280.33275957
  -1/2 Hartree   DENC   =        -0.71337382
  -V(xc)+E(xc)   XCENC  =      -105.96154953
  PAW double counting   =       142.21701965      -14.39593217
  entropy T*S    EENTRO =        -0.00008595
  eigenvalues    EBANDS =        31.57346794
  atomic energy  EATOM  =       214.15364153
  ---------------------------------------------------
  free energy    TOTEN  =       -14.16501611 eV

  energy without entropy =      -14.16493016  energy(sigma->0) =      -14.16497314


--------------------------------------------------------------------------------------------------------




----------------------------------------- Iteration    1(   3)  ---------------------------------------


    EDDAV :  VPU time    1.11: CPU time    1.11
    DOS   :  VPU time    0.00: CPU time   -0.00
    ------------------------------------------
      LOOP:  VPU time    1.11: CPU time    1.11

 eigenvalue-minimisations  :  3536
 total energy-change (2. order) :-0.5947084E+00  (-0.5927325E+00)
 number of electron   12.0000000 magnetization 
 augmentation part    12.0000000 magnetization 

 Free energy of the ion-electron system (eV)
  ---------------------------------------------------
  alpha Z        PSCENC =        -0.70544419
  Ewald energy   TEWEN  =      -280.33275957
  -1/2 Hartree   DENC   =        -0.71337382
  -V(xc)+E(xc)   XCENC  =      -105.96154953
  PAW double counting   =       142.21701965      -14.39593217
  entropy T*S    EENTRO =        -0.00009370
  eigenvalues    EBANDS =        30.97876724
  atomic energy  EATOM  =       214.15364153
  ---------------------------------------------------
  free energy    TOTEN  =       -14.75972455 eV

  energy without entropy =      -14.75963086  energy(sigma->0) =      -14.75967770


--------------------------------------------------------------------------------------------------------




----------------------------------------- Iteration    1(   4)  ---------------------------------------


    EDDAV :  VPU time    1.07: CPU time    1.07
    DOS   :  VPU time    0.00: CPU time   -0.00
    ------------------------------------------
      LOOP:  VPU time    1.07: CPU time    1.08

 eigenvalue-minimisations  :  3392
 total energy-change (2. order) :-0.4099717E-02  (-0.4099558E-02)
 number of electron   12.0000000 magnetization 
 augmentation part    12.0000000 magnetization 

 Free energy of the ion-electron system (eV)
  ---------------------------------------------------
  alpha Z        PSCENC =        -0.70544419
  Ewald energy   TEWEN  =      -280.33275957
  -1/2 Hartree   DENC   =        -0.71337382
  -V(xc)+E(xc)   XCENC  =      -105.96154953
  PAW double counting   =       142.21701965      -14.39593217
  entropy T*S    EENTRO =        -0.00009337
  eigenvalues    EBANDS =        30.97466720
  atomic energy  EATOM  =       214.15364153
  ---------------------------------------------------
  free energy    TOTEN  =       -14.76382427 eV

  energy without entropy =      -14.76373090  energy(sigma->0) =      -14.76377758


--------------------------------------------------------------------------------------------------------




----------------------------------------- Iteration    1(   5)  ---------------------------------------


    EDDAV :  VPU time    1.10: CPU time    1.10
    DOS   :  VPU time    0.00: CPU time   -0.00
    CHARGE:  VPU time    0.04: CPU time    0.04
    MIXING:  VPU time    0.00: CPU time    0.00
    ------------------------------------------
      LOOP:  VPU time    1.15: CPU time    1.15

 eigenvalue-minimisations  :  3504
 total energy-change (2. order) :-0.5486351E-04  (-0.5486331E-04)
 number of electron   12.0000000 magnetization 
 augmentation part    -0.1625187 magnetization 

 Broyden mixing:
  rms(total) = 0.17338E+00    rms(broyden)= 0.17338E+00
  rms(prec ) = 0.40871E+00
  weight for this iteration     100.00

 Free energy of the ion-electron system (eV)
  ---------------------------------------------------
  alpha Z        PSCENC =        -0.70544419
  Ewald energy   TEWEN  =      -280.33275957
  -1/2 Hartree   DENC   =        -0.71337382
  -V(xc)+E(xc)   XCENC  =      -105.96154953
  PAW double counting   =       142.21701965      -14.39593217
  entropy T*S    EENTRO =        -0.00009337
  eigenvalues    EBANDS =        30.97461234
  atomic energy  EATOM  =       214.15364153
  ---------------------------------------------------
  free energy    TOTEN  =       -14.76387913 eV

  energy without entropy =      -14.76378576  energy(sigma->0) =      -14.76383245


--------------------------------------------------------------------------------------------------------




----------------------------------------- Iteration    1(   6)  ---------------------------------------


    POTLOK:  VPU time    0.02: CPU time    0.02
    SETDIJ:  VPU time    0.00: CPU time    0.00
    EDDAV :  VPU time    1.04: CPU time    1.04
    DOS   :  VPU time    0.00: CPU time   -0.00
    CHARGE:  VPU time    0.04: CPU time    0.04
    MIXING:  VPU time    0.00: CPU time    0.00
    ------------------------------------------
      LOOP:  VPU time    1.10: CPU time    1.10

 eigenvalue-minimisations  :  3288
 total energy-change (2. order) : 0.4831713E-01  (-0.8570073E-03)
 number of electron   12.0000000 magnetization 
 augmentation part    -0.1652249 magnetization 

 Broyden mixing:
  rms(total) = 0.10738E+00    rms(broyden)= 0.10738E+00
  rms(prec ) = 0.25447E+00
  weight for this iteration     100.00

 eigenvalues of (default mixing * dielectric matrix)
  average eigenvalue GAMMA=   2.6166
  2.6166

 Free energy of the ion-electron system (eV)
  ---------------------------------------------------
  alpha Z        PSCENC =        -0.70544419
  Ewald energy   TEWEN  =      -280.33275957
  -1/2 Hartree   DENC   =        -0.53201808
  -V(xc)+E(xc)   XCENC  =      -105.86745226
  PAW double counting   =       141.75581388      -13.91767215
  entropy T*S    EENTRO =        -0.00008805
  eigenvalues    EBANDS =        30.73041688
  atomic energy  EATOM  =       214.15364153
  ---------------------------------------------------
  free energy    TOTEN  =       -14.71556201 eV

  energy without entropy =      -14.71547395  energy(sigma->0) =      -14.71551798


--------------------------------------------------------------------------------------------------------




----------------------------------------- Iteration    1(   7)  ---------------------------------------


    POTLOK:  VPU time    0.02: CPU time    0.02
    SETDIJ:  VPU time    0.00: CPU time    0.00
    EDDAV :  VPU time    0.99: CPU time    0.99
    DOS   :  VPU time    0.00: CPU time   -0.00
    CHARGE:  VPU time    0.04: CPU time    0.04
    MIXING:  VPU time    0.00: CPU time    0.00
    ------------------------------------------
      LOOP:  VPU time    1.05: CPU time    1.05

 eigenvalue-minimisations  :  3088
 total energy-change (2. order) : 0.3460682E-01  (-0.2543066E-02)
 number of electron   12.0000000 magnetization 
 augmentation part    -0.1701719 magnetization 

 Broyden mixing:
  rms(total) = 0.49395E-02    rms(broyden)= 0.49394E-02
  rms(prec ) = 0.80693E-02
  weight for this iteration     100.00

 eigenvalues of (default mixing * dielectric matrix)
  average eigenvalue GAMMA=   2.5275
  2.5275  2.5275

 Free energy of the ion-electron system (eV)
  ---------------------------------------------------
  alpha Z        PSCENC =        -0.70544419
  Ewald energy   TEWEN  =      -280.33275957
  -1/2 Hartree   DENC   =        -0.40212757
  -V(xc)+E(xc)   XCENC  =      -105.66188639
  PAW double counting   =       141.09232544      -13.23442405
  entropy T*S    EENTRO =        -0.00007263
  eigenvalues    EBANDS =        30.40979226
  atomic energy  EATOM  =       214.15364153
  ---------------------------------------------------
  free energy    TOTEN  =       -14.68095518 eV

  energy without entropy =      -14.68088255  energy(sigma->0) =      -14.68091887


--------------------------------------------------------------------------------------------------------




----------------------------------------- Iteration    1(   8)  ---------------------------------------


    POTLOK:  VPU time    0.02: CPU time    0.02
    SETDIJ:  VPU time    0.00: CPU time    0.00
    EDDAV :  VPU time    1.10: CPU time    1.10
    DOS   :  VPU time    0.00: CPU time   -0.00
    CHARGE:  VPU time    0.04: CPU time    0.04
    MIXING:  VPU time    0.00: CPU time    0.00
    ------------------------------------------
      LOOP:  VPU time    1.16: CPU time    1.16

 eigenvalue-minimisations  :  3480
 total energy-change (2. order) : 0.1730986E-04  (-0.1688602E-04)
 number of electron   12.0000000 magnetization 
 augmentation part    -0.1703425 magnetization 

 Broyden mixing:
  rms(total) = 0.12645E-02    rms(broyden)= 0.12645E-02
  rms(prec ) = 0.27243E-02
  weight for this iteration     100.00

 eigenvalues of (default mixing * dielectric matrix)
  average eigenvalue GAMMA=   2.0656
  0.9717  2.6847  2.5404

 Free energy of the ion-electron system (eV)
  ---------------------------------------------------
  alpha Z        PSCENC =        -0.70544419
  Ewald energy   TEWEN  =      -280.33275957
  -1/2 Hartree   DENC   =        -0.41037824
  -V(xc)+E(xc)   XCENC  =      -105.65731522
  PAW double counting   =       141.28759340      -13.44186207
  entropy T*S    EENTRO =        -0.00007237
  eigenvalues    EBANDS =        30.42565886
  atomic energy  EATOM  =       214.15364153
  ---------------------------------------------------
  free energy    TOTEN  =       -14.68093787 eV

  energy without entropy =      -14.68086551  energy(sigma->0) =      -14.68090169


--------------------------------------------------------------------------------------------------------




----------------------------------------- Iteration    1(   9)  ---------------------------------------


    POTLOK:  VPU time    0.02: CPU time    0.02
    SETDIJ:  VPU time    0.00: CPU time    0.00
    EDDAV :  VPU time    1.09: CPU time    1.09
    DOS   :  VPU time   -0.00: CPU time   -0.00
    CHARGE:  VPU time    0.04: CPU time    0.04
    MIXING:  VPU time    0.00: CPU time    0.00
    ------------------------------------------
      LOOP:  VPU time    1.16: CPU time    1.16

 eigenvalue-minimisations  :  3440
 total energy-change (2. order) :-0.2294696E-05  (-0.4663167E-06)
 number of electron   12.0000000 magnetization 
 augmentation part    -0.1704558 magnetization 

 Broyden mixing:
  rms(total) = 0.13058E-03    rms(broyden)= 0.13058E-03
  rms(prec ) = 0.20174E-03
  weight for this iteration     100.00

 eigenvalues of (default mixing * dielectric matrix)
  average eigenvalue GAMMA=   2.0910
  1.0104  2.6129  2.6129  2.1278

 Free energy of the ion-electron system (eV)
  ---------------------------------------------------
  alpha Z        PSCENC =        -0.70544419
  Ewald energy   TEWEN  =      -280.33275957
  -1/2 Hartree   DENC   =        -0.41288643
  -V(xc)+E(xc)   XCENC  =      -105.65311465
  PAW double counting   =       141.33152165      -13.48914795
  entropy T*S    EENTRO =        -0.00007212
  eigenvalues    EBANDS =        30.42732156
  atomic energy  EATOM  =       214.15364153
  ---------------------------------------------------
  free energy    TOTEN  =       -14.68094017 eV

  energy without entropy =      -14.68086805  energy(sigma->0) =      -14.68090411


--------------------------------------------------------------------------------------------------------




----------------------------------------- Iteration    1(  10)  ---------------------------------------


    POTLOK:  VPU time    0.02: CPU time    0.02
    SETDIJ:  VPU time    0.00: CPU time    0.00
    EDDAV :  VPU time    1.12: CPU time    1.12
    DOS   :  VPU time    0.00: CPU time   -0.00
    CHARGE:  VPU time    0.04: CPU time    0.04
    MIXING:  VPU time    0.00: CPU time    0.00
    ------------------------------------------
      LOOP:  VPU time    1.18: CPU time    1.18

 eigenvalue-minimisations  :  3576
 total energy-change (2. order) : 0.1368676E-05  (-0.6741652E-08)
 number of electron   12.0000000 magnetization 
 augmentation part    -0.1704596 magnetization 

 Broyden mixing:
  rms(total) = 0.27584E-04    rms(broyden)= 0.27583E-04
  rms(prec ) = 0.56412E-04
  weight for this iteration     100.00

 eigenvalues of (default mixing * dielectric matrix)
  average eigenvalue GAMMA=   1.9829
  1.0222  0.9620  2.7300  2.7300  2.4703

 Free energy of the ion-electron system (eV)
  ---------------------------------------------------
  alpha Z        PSCENC =        -0.70544419
  Ewald energy   TEWEN  =      -280.33275957
  -1/2 Hartree   DENC   =        -0.41292619
  -V(xc)+E(xc)   XCENC  =      -105.65318910
  PAW double counting   =       141.31442300      -13.47140992
  entropy T*S    EENTRO =        -0.00007211
  eigenvalues    EBANDS =        30.42679775
  atomic energy  EATOM  =       214.15364153
  ---------------------------------------------------
  free energy    TOTEN  =       -14.68093880 eV

  energy without entropy =      -14.68086669  energy(sigma->0) =      -14.68090274


--------------------------------------------------------------------------------------------------------




----------------------------------------- Iteration    1(  11)  ---------------------------------------


    POTLOK:  VPU time    0.02: CPU time    0.02
    SETDIJ:  VPU time    0.00: CPU time    0.00
    EDDAV :  VPU time    0.85: CPU time    0.85
    DOS   :  VPU time   -0.00: CPU time   -0.00
    CHARGE:  VPU time    0.04: CPU time    0.04
    MIXING:  VPU time    0.00: CPU time    0.00
    ------------------------------------------
      LOOP:  VPU time    0.92: CPU time    0.92

 eigenvalue-minimisations  :  2432
 total energy-change (2. order) : 0.1321339E-06  (-0.1305451E-09)
 number of electron   12.0000000 magnetization 
 augmentation part    -0.1704608 magnetization 

 Broyden mixing:
  rms(total) = 0.31372E-05    rms(broyden)= 0.31368E-05
  rms(prec ) = 0.36762E-05
  weight for this iteration     100.00

 eigenvalues of (default mixing * dielectric matrix)
  average eigenvalue GAMMA=   2.0265
  1.0037  1.0037  2.6761  2.6761  2.3997  2.3997

 Free energy of the ion-electron system (eV)
  ---------------------------------------------------
  alpha Z        PSCENC =        -0.70544419
  Ewald energy   TEWEN  =      -280.33275957
  -1/2 Hartree   DENC   =        -0.41298872
  -V(xc)+E(xc)   XCENC  =      -105.65314941
  PAW double counting   =       141.31104108      -13.46793404
  entropy T*S    EENTRO =        -0.00007210
  eigenvalues    EBANDS =        30.42672675
  atomic energy  EATOM  =       214.15364153
  ---------------------------------------------------
  free energy    TOTEN  =       -14.68093867 eV

  energy without entropy =      -14.68086656  energy(sigma->0) =      -14.68090262


--------------------------------------------------------------------------------------------------------




----------------------------------------- Iteration    1(  12)  ---------------------------------------


    POTLOK:  VPU time    0.02: CPU time    0.02
    SETDIJ:  VPU time    0.00: CPU time    0.00
    EDDAV :  VPU time    0.76: CPU time    0.76
    DOS   :  VPU time    0.00: CPU time   -0.00
    CHARGE:  VPU time    0.04: CPU time    0.04
    MIXING:  VPU time    0.00: CPU time    0.00
    ------------------------------------------
      LOOP:  VPU time    0.83: CPU time    0.83

 eigenvalue-minimisations  :  2072
 total energy-change (2. order) :-0.3785834E-07  (-0.2692057E-10)
 number of electron   12.0000000 magnetization 
 augmentation part    -0.1704607 magnetization 

 Broyden mixing:
  rms(total) = 0.73901E-06    rms(broyden)= 0.73892E-06
  rms(prec ) = 0.13686E-05
  weight for this iteration     100.00

 eigenvalues of (default mixing * dielectric matrix)
  average eigenvalue GAMMA=   1.9056
  2.7024  2.7024  2.5799  2.4171  1.0012  1.0012  0.9347

 Free energy of the ion-electron system (eV)
  ---------------------------------------------------
  alpha Z        PSCENC =        -0.70544419
  Ewald energy   TEWEN  =      -280.33275957
  -1/2 Hartree   DENC   =        -0.41298914
  -V(xc)+E(xc)   XCENC  =      -105.65315178
  PAW double counting   =       141.31186299      -13.46878429
  entropy T*S    EENTRO =        -0.00007210
  eigenvalues    EBANDS =        30.42675785
  atomic energy  EATOM  =       214.15364153
  ---------------------------------------------------
  free energy    TOTEN  =       -14.68093870 eV

  energy without entropy =      -14.68086660  energy(sigma->0) =      -14.68090265


--------------------------------------------------------------------------------------------------------




----------------------------------------- Iteration    1(  13)  ---------------------------------------


    POTLOK:  VPU time    0.02: CPU time    0.02
    SETDIJ:  VPU time    0.00: CPU time    0.00
    EDDAV :  VPU time    0.67: CPU time    0.67
    DOS   :  VPU time    0.00: CPU time   -0.00
    ------------------------------------------
      LOOP:  VPU time    0.70: CPU time    0.70

 eigenvalue-minimisations  :  1848
 total energy-change (2. order) : 0.1898115E-08  (-0.4560677E-11)
 number of electron   12.0000000 magnetization 
 augmentation part    -0.1704607 magnetization 

 Free energy of the ion-electron system (eV)
  ---------------------------------------------------
  alpha Z        PSCENC =        -0.70544419
  Ewald energy   TEWEN  =      -280.33275957
  -1/2 Hartree   DENC   =        -0.41298878
  -V(xc)+E(xc)   XCENC  =      -105.65315151
  PAW double counting   =       141.31189056      -13.46881238
  entropy T*S    EENTRO =        -0.00007210
  eigenvalues    EBANDS =        30.42675774
  atomic energy  EATOM  =       214.15364153
  ---------------------------------------------------
  free energy    TOTEN  =       -14.68093870 eV

  energy without entropy =      -14.68086660  energy(sigma->0) =      -14.68090265


--------------------------------------------------------------------------------------------------------




 average (electrostatic) potential at core
  the test charge radii are     1.0406
  (the norm of the test charge is              1.0000)
       1 -74.2336       2 -74.2336       3 -74.2336       4 -74.2336
 
 
 
 E-fermi :   6.6016     XC(G=0):  -9.6881     alpha+bet :-12.8884
   add alpha+bet to get absolut eigen values

 k-point   1 :       0.0000    0.0000    0.0000
  band No.  band energies     occupation 
      1      -3.5982      2.00000
      2       4.0042      2.00000
      3       4.0042      2.00000
      4       4.0042      2.00000
      5       4.9684      2.00000
      6       4.9684      2.00000
      7       4.9684      2.00000
      8      11.5514      0.00000
      9      11.5514      0.00000
     10      11.5514      0.00000
     11      11.5514      0.00000
     12      11.5514      0.00000
     13      11.5514      0.00000
     14      11.8002      0.00000
     15      11.8002      0.00000
     16      11.8002      0.00000

 k-point   2 :       0.0833    0.0000    0.0000
  band No.  band energies     occupation 
      1      -3.5410      2.00000
      2       3.1339      2.00000
      3       4.0573      2.00000
      4       4.0573      2.00000
      5       5.0247      2.00000
      6       5.0247      2.00000
      7       5.9394      2.00000
      8      10.4436      0.00000
      9      10.4436      0.00000
     10      11.1174      0.00000
     11      11.1174      0.00000
     12      11.6012      0.00000
     13      11.6012      0.00000
     14      11.8565      0.00000
     15      13.0135      0.00000
     16      13.0135      0.00000

 k-point   3 :       0.1667    0.0000    0.0000
  band No.  band energies     occupation 
      1      -3.3696      2.00000
      2       2.0115      2.00000
      3       4.2166      2.00000
      4       4.2166      2.00000
      5       5.1933      2.00000
      6       5.1933      2.00000
      7       7.3633      0.00000
      8       9.3268      0.00000
      9       9.3268      0.00000
     10      10.2559      0.00000
     11      10.2559      0.00000
     12      11.7505      0.00000
     13      11.7505      0.00000
     14      12.0254      0.00000
     15      14.4465      0.00000
     16      14.4466      0.00000

 k-point   4 :       0.2500    0.0000    0.0000
  band No.  band energies     occupation 
      1      -3.0842      2.00000
      2       0.9665      2.00000
      3       4.4823      2.00000
      4       4.4823      2.00000
      5       5.4733      2.00000
      6       5.4733      2.00000
      7       8.3147      0.00000
      8       8.3147      0.00000
      9       8.9092      0.00000
     10       9.3365      0.00000
     11       9.3365      0.00000
     12      11.9994      0.00000
     13      11.9994      0.00000
     14      12.3064      0.00000
     15      14.9058      0.00000
     16      15.5756      0.00000

 k-point   5 :       0.3333    0.0000    0.0000
  band No.  band energies     occupation 
      1      -2.6856      2.00000
      2       0.0209      2.00000
      3       4.8544      2.00000
      4       4.8544      2.00000
      5       5.8633      2.00000
      6       5.8633      2.00000
      7       7.4091      0.00000
      8       7.4091      0.00000
      9       8.4627      0.00000
     10       8.4627      0.00000
     11      10.5522      0.00000
     12      12.3479      0.00000
     13      12.3479      0.00000
     14      12.6989      0.00000
     15      14.7343      0.00000
     16      14.7343      0.00000

 k-point   6 :       0.4167    0.0000    0.0000
  band No.  band energies     occupation 
      1      -2.1744      2.00000
      2      -0.8196      2.00000
      3       5.3329      2.00000
      4       5.3329      2.00000
      5       6.3610      2.00000
      6       6.3610      2.00000
      7       6.6102      0.22655
      8       6.6102      0.22655
      9       7.6675      0.00000
     10       7.6675      0.00000
     11      12.2791      0.00000
     12      12.7959      0.00000
     13      12.7959      0.00000
     14      13.2015      0.00000
     15      13.9896      0.00000
     16      13.9896      0.00000

 k-point   7 :       0.5000    0.0000    0.0000
  band No.  band energies     occupation 
      1      -1.5520      2.00000
      2      -1.5520      2.00000
      3       5.9182      2.00000
      4       5.9182      2.00000
      5       5.9182      2.00000
      6       5.9182      2.00000
      7       6.9402      0.00000
      8       6.9402      0.00000
      9       6.9882      0.00000
     10       6.9882      0.00000
     11      13.3433      0.00000
     12      13.3433      0.00000
     13      13.3433      0.00000
     14      13.3433      0.00000
     15      13.8123      0.00000
     16      13.8123      0.00000

 k-point   8 :       0.0833    0.0833    0.0000
  band No.  band energies     occupation 
      1      -3.4839      2.00000
      2       3.1884      2.00000
      3       3.1884      2.00000
      4       4.1104      2.00000
      5       5.0809      2.00000
      6       5.9942      2.00000
      7       5.9942      2.00000
      8       9.5808      0.00000
      9      10.4965      0.00000
     10      10.4965      0.00000
     11      11.1681      0.00000
     12      11.1681      0.00000
     13      11.6512      0.00000
     14      12.9212      0.00000
     15      13.0667      0.00000
     16      13.0667      0.00000

 k-point   9 :       0.1667    0.0833    0.0000
  band No.  band energies     occupation 
      1      -3.3125      2.00000
      2       2.0666      2.00000
      3       3.3519      2.00000
      4       4.2698      2.00000
      5       5.2493      2.00000
      6       6.1585      2.00000
      7       7.4174      0.00000
      8       8.5042      0.00000
      9       9.3798      0.00000
     10      10.3077      0.00000
     11      10.6549      0.00000
     12      11.1137      0.00000
     13      11.3200      0.00000
     14      13.2263      0.00000
     15      13.9098      0.00000
     16      14.4993      0.00000

 k-point  10 :       0.2500    0.0833    0.0000
  band No.  band energies     occupation 
      1      -3.0272      2.00000
      2       1.0221      2.00000
      3       3.6240      2.00000
      4       4.5354      2.00000
      5       5.5291      2.00000
      6       6.4317      2.00000
      7       7.5018      0.00000
      8       8.3678      0.00000
      9       8.9625      0.00000
     10       9.3893      0.00000
     11      10.2296      0.00000
     12      10.9186      0.00000
     13      11.5729      0.00000
     14      13.4921      0.00000
     15      14.6696      0.00000
     16      15.1464      0.00000

 k-point  11 :       0.3333    0.0833    0.0000
  band No.  band energies     occupation 
      1      -2.6287      2.00000
      2       0.0768      2.00000
      3       4.0044      2.00000
      4       4.9075      2.00000
      5       5.9184      2.00000
      6       6.5951      1.64356
      7       6.8129      0.00000
      8       7.4622      0.00000
      9       8.5163      0.00000
     10       9.3685      0.00000
     11      10.6044      0.00000
     12      11.2874      0.00000
     13      11.9266      0.00000
     14      13.7942      0.00000
     15      13.8637      0.00000
     16      14.3182      0.00000

 k-point  12 :       0.4167    0.0833    0.0000
  band No.  band energies     occupation 
      1      -2.1178      2.00000
      2      -0.7634      2.00000
      3       4.4926      2.00000
      4       5.3861      2.00000
      5       5.7884      2.00000
      6       6.4173      2.00000
      7       6.6634      0.00000
      8       7.3001      0.00000
      9       7.7220      0.00000
     10       8.5840      0.00000
     11      11.7604      0.00000
     12      12.3087      0.00000
     13      12.4023      0.00000
     14      13.0155      0.00000
     15      13.5767      0.00000
     16      14.3404      0.00000

 k-point  13 :       0.5000    0.0833    0.0000
  band No.  band energies     occupation 
      1      -1.4955      2.00000
      2      -1.4955      2.00000
      3       5.0877      2.00000
      4       5.0877      2.00000
      5       5.9713      2.00000
      6       5.9713      2.00000
      7       7.0189      0.00000
      8       7.0189      0.00000
      9       7.8926      0.00000
     10       7.8926      0.00000
     11      12.3369      0.00000
     12      12.3369      0.00000
     13      12.9281      0.00000
     14      12.9281      0.00000
     15      14.1264      0.00000
     16      14.1264      0.00000

 k-point  14 :       0.1667    0.1667    0.0000
  band No.  band energies     occupation 
      1      -3.1413      2.00000
      2       2.2319      2.00000
      3       2.2319      2.00000
      4       4.4291      2.00000
      5       5.4173      2.00000
      6       7.4269      0.00000
      7       7.5793      0.00000
      8       7.5793      0.00000
      9       9.5390      0.00000
     10       9.5390      0.00000
     11      10.4631      0.00000
     12      10.4631      0.00000
     13      11.9504      0.00000
     14      13.4781      0.00000
     15      14.5743      0.00000
     16      14.6576      0.00000

 k-point  15 :       0.2500    0.1667    0.0000
  band No.  band energies     occupation 
      1      -2.8564      2.00000
      2       1.1886      2.00000
      3       2.5070      2.00000
      4       4.6948      2.00000
      5       5.6958      2.00000
      6       6.4197      2.00000
      7       7.8486      0.00000
      8       8.5272      0.00000
      9       9.1222      0.00000
     10       9.5475      0.00000
     11       9.8040      0.00000
     12      10.7216      0.00000
     13      11.5123      0.00000
     14      13.5920      0.00000
     15      14.3199      0.00000
     16      14.4672      0.00000

 k-point  16 :       0.3333    0.1667    0.0000
  band No.  band energies     occupation 
      1      -2.4583      2.00000
      2       0.2444      2.00000
      3       2.8916      2.00000
      4       5.0670      2.00000
      5       5.5041      2.00000
      6       6.0869      2.00000
      7       7.6217      0.00000
      8       8.2240      0.00000
      9       8.6769      0.00000
     10      10.1748      0.00000
     11      10.7225      0.00000
     12      10.7593      0.00000
     13      11.0847      0.00000
     14      12.7044      0.00000
     15      13.4977      0.00000
     16      15.2886      0.00000

 k-point  17 :       0.4167    0.1667    0.0000
  band No.  band energies     occupation 
      1      -1.9479      2.00000
      2      -0.5949      2.00000
      3       3.3848      2.00000
      4       4.6930      2.00000
      5       5.5456      2.00000
      6       6.5825      1.99315
      7       6.8229      0.00000
      8       7.8836      0.00000
      9       8.7046      0.00000
     10       9.9634      0.00000
     11      10.6510      0.00000
     12      11.5404      0.00000
     13      11.9169      0.00000
     14      12.4885      0.00000
     15      12.7543      0.00000
     16      15.7591      0.00000

 k-point  18 :       0.5000    0.1667    0.0000
  band No.  band energies     occupation 
      1      -1.3263      2.00000
      2      -1.3263      2.00000
      3       3.9857      2.00000
      4       3.9857      2.00000
      5       6.1308      2.00000
      6       6.1308      2.00000
      7       7.1832      0.00000
      8       7.1832      0.00000
      9       9.2861      0.00000
     10       9.2861      0.00000
     11      11.2319      0.00000
     12      11.2319      0.00000
     13      12.1001      0.00000
     14      12.1001      0.00000
     15      14.2789      0.00000
     16      14.2789      0.00000

 k-point  19 :       0.2500    0.2500    0.0000
  band No.  band energies     occupation 
      1      -2.5719      2.00000
      2       1.4658      2.00000
      3       1.4658      2.00000
      4       4.9606      2.00000
      5       5.4031      2.00000
      6       5.9764      2.00000
      7       8.7928      0.00000
      8       8.7928      0.00000
      9       9.3871      0.00000
     10       9.3871      0.00000
     11       9.8110      0.00000
     12       9.8110      0.00000
     13      12.4488      0.00000
     14      12.5993      0.00000
     15      13.4482      0.00000
     16      14.0864      0.00000

 k-point  20 :       0.3333    0.2500    0.0000
  band No.  band energies     occupation 
      1      -2.1746      2.00000
      2       0.5233      2.00000
      3       1.8532      2.00000
      4       4.4847      2.00000
      5       5.3328      2.00000
      6       6.3629      2.00000
      7       7.8875      0.00000
      8       8.9429      0.00000
      9       9.1644      0.00000
     10       9.7578      0.00000
     11      10.1758      0.00000
     12      11.0235      0.00000
     13      11.7050      0.00000
     14      12.1255      0.00000
     15      12.6227      0.00000
     16      15.1455      0.00000

 k-point  21 :       0.4167    0.2500    0.0000
  band No.  band energies     occupation 
      1      -1.6651      2.00000
      2      -0.3145      2.00000
      3       2.3500      2.00000
      4       3.6675      2.00000
      5       5.8114      2.00000
      6       6.8572      0.00000
      7       7.0888      0.00000
      8       8.1535      0.00000
      9       9.6419      0.00000
     10      10.2288      0.00000
     11      10.6439      0.00000
     12      10.9130      0.00000
     13      11.4460      0.00000
     14      11.8727      0.00000
     15      12.7400      0.00000
     16      16.3125      0.00000

 k-point  22 :       0.5000    0.2500    0.0000
  band No.  band energies     occupation 
      1      -1.0446      2.00000
      2      -1.0446      2.00000
      3       2.9552      2.00000
      4       2.9552      2.00000
      5       6.3967      2.00000
      6       6.3967      2.00000
      7       7.4557      0.00000
      8       7.4557      0.00000
      9      10.2249      0.00000
     10      10.2249      0.00000
     11      10.7962      0.00000
     12      10.7962      0.00000
     13      11.2108      0.00000
     14      11.2108      0.00000
     15      14.5189      0.00000
     16      14.5189      0.00000

 k-point  23 :       0.3333    0.3333    0.0000
  band No.  band energies     occupation 
      1      -1.7782      2.00000
      2       0.9130      2.00000
      3       0.9130      2.00000
      4       3.5602      2.00000
      5       5.7050      2.00000
      6       6.7481      0.00000
      7       8.2595      0.00000
      8       8.2595      0.00000
      9       9.3144      0.00000
     10       9.3144      0.00000
     11      10.8065      0.00000
     12      11.3841      0.00000
     13      11.3841      0.00000
     14      11.7903      0.00000
     15      13.1457      0.00000
     16      14.8741      0.00000

 k-point  24 :       0.4167    0.3333    0.0000
  band No.  band energies     occupation 
      1      -1.2700      2.00000
      2       0.0773      2.00000
      3       1.4128      2.00000
      4       2.7381      2.00000
      5       6.1837      2.00000
      6       7.2399      0.00000
      7       7.4610      0.00000
      8       8.5293      0.00000
      9       8.7377      0.00000
     10       9.7886      0.00000
     11      10.0117      0.00000
     12      11.0324      0.00000
     13      11.8407      0.00000
     14      12.9427      0.00000
     15      13.0863      0.00000
     16      16.0060      0.00000

 k-point  25 :       0.5000    0.3333    0.0000
  band No.  band energies     occupation 
      1      -0.6511      2.00000
      2      -0.6511      2.00000
      3       2.0216      2.00000
      4       2.0216      2.00000
      5       6.7690      0.00000
      6       6.7690      0.00000
      7       7.8352      0.00000
      8       7.8352      0.00000
      9       9.3219      0.00000
     10       9.3219      0.00000
     11      10.3627      0.00000
     12      10.3627      0.00000
     13      12.3788      0.00000
     14      12.3788      0.00000
     15      14.8335      0.00000
     16      14.8335      0.00000

 k-point  26 :       0.4167    0.4167    0.0000
  band No.  band energies     occupation 
      1      -0.7635      2.00000
      2       0.5796      2.00000
      3       0.5796      2.00000
      4       1.9117      2.00000
      5       6.6625      0.00000
      6       7.7285      0.00000
      7       7.9396      0.00000
      8       7.9396      0.00000
      9       9.0090      0.00000
     10       9.0090      0.00000
     11       9.2152      0.00000
     12      10.2666      0.00000
     13      13.5119      0.00000
     14      13.5119      0.00000
     15      14.0390      0.00000
     16      15.8546      0.00000

 k-point  27 :       0.5000    0.4167    0.0000
  band No.  band energies     occupation 
      1      -0.1464      2.00000
      2      -0.1464      2.00000
      3       1.1916      2.00000
      4       1.1916      2.00000
      5       7.2478      0.00000
      6       7.2478      0.00000
      7       8.3197      0.00000
      8       8.3197      0.00000
      9       8.5244      0.00000
     10       8.5244      0.00000
     11       9.5896      0.00000
     12       9.5896      0.00000
     13      13.9578      0.00000
     14      13.9578      0.00000
     15      15.1615      0.00000
     16      15.1615      0.00000

 k-point  28 :       0.5000    0.5000    0.0000
  band No.  band energies     occupation 
      1       0.4683      2.00000
      2       0.4683      2.00000
      3       0.4683      2.00000
      4       0.4683      2.00000
      5       7.8329      0.00000
      6       7.8329      0.00000
      7       7.8329      0.00000
      8       7.8329      0.00000
      9       8.9061      0.00000
     10       8.9061      0.00000
     11       8.9061      0.00000
     12       8.9061      0.00000
     13      15.1227      0.00000
     14      15.1227      0.00000
     15      15.1227      0.00000
     16      15.1227      0.00000

 k-point  29 :       0.0833    0.0833    0.0833
  band No.  band energies     occupation 
      1      -3.4267      2.00000
      2       3.2429      2.00000
      3       3.2429      2.00000
      4       3.2429      2.00000
      5       6.0490      2.00000
      6       6.0490      2.00000
      7       6.0490      2.00000
      8       9.6337      0.00000
      9       9.6337      0.00000
     10       9.6337      0.00000
     11      11.7010      0.00000
     12      11.7010      0.00000
     13      11.7010      0.00000
     14      12.9757      0.00000
     15      12.9757      0.00000
     16      12.9757      0.00000

 k-point  30 :       0.1667    0.0833    0.0833
  band No.  band energies     occupation 
      1      -3.2554      2.00000
      2       2.1217      2.00000
      3       3.4063      2.00000
      4       3.4063      2.00000
      5       6.2132      2.00000
      6       6.2132      2.00000
      7       7.4714      0.00000
      8       8.5574      0.00000
      9       8.5574      0.00000
     10       9.7922      0.00000
     11      11.1650      0.00000
     12      11.1650      0.00000
     13      11.8503      0.00000
     14      13.1390      0.00000
     15      13.9630      0.00000
     16      13.9630      0.00000

 k-point  31 :       0.2500    0.0833    0.0833
  band No.  band energies     occupation 
      1      -2.9703      2.00000
      2       1.0776      2.00000
      3       3.6784      2.00000
      4       3.6784      2.00000
      5       6.4862      2.00000
      6       6.4862      2.00000
      7       7.5553      0.00000
      8       7.5553      0.00000
      9       9.0158      0.00000
     10      10.0562      0.00000
     11      10.2819      0.00000
     12      10.2819      0.00000
     13      12.0993      0.00000
     14      13.4104      0.00000
     15      13.7980      0.00000
     16      15.4093      0.00000

 k-point  32 :       0.3333    0.0833    0.0833
  band No.  band energies     occupation 
      1      -2.5719      2.00000
      2       0.1327      2.00000
      3       4.0587      2.00000
      4       4.0587      2.00000
      5       6.6477      0.00000
      6       6.6477      0.00000
      7       6.8680      0.00000
      8       6.8680      0.00000
      9       9.4214      0.00000
     10       9.4214      0.00000
     11      10.4241      0.00000
     12      10.6579      0.00000
     13      12.4478      0.00000
     14      12.9275      0.00000
     15      13.7886      0.00000
     16      14.8341      0.00000

 k-point  33 :       0.4167    0.0833    0.0833
  band No.  band energies     occupation 
      1      -2.0611      2.00000
      2      -0.7072      2.00000
      3       4.5466      2.00000
      4       4.5466      2.00000
      5       5.8431      2.00000
      6       5.8431      2.00000
      7       7.3548      0.00000
      8       7.3548      0.00000
      9       8.6375      0.00000
     10       8.6375      0.00000
     11      10.8976      0.00000
     12      12.1512      0.00000
     13      12.3821      0.00000
     14      12.8959      0.00000
     15      14.0897      0.00000
     16      14.2726      0.00000

 k-point  34 :       0.5000    0.0833    0.0833
  band No.  band energies     occupation 
      1      -1.4391      2.00000
      2      -1.4391      2.00000
      3       5.1223      2.00000
      4       5.1223      2.00000
      5       5.1616      2.00000
      6       5.1616      2.00000
      7       7.9350      0.00000
      8       7.9350      0.00000
      9       7.9573      0.00000
     10       7.9573      0.00000
     11      11.4737      0.00000
     12      11.4737      0.00000
     13      13.4433      0.00000
     14      13.4433      0.00000
     15      14.1613      0.00000
     16      14.1613      0.00000

 k-point  35 :       0.1667    0.1667    0.0833
  band No.  band energies     occupation 
      1      -3.0843      2.00000
      2       2.2869      2.00000
      3       2.2869      2.00000
      4       3.5696      2.00000
      5       6.3771      2.00000
      6       7.4804      0.00000
      7       7.6332      0.00000
      8       7.6332      0.00000
      9       8.7170      0.00000
     10       8.7170      0.00000
     11      11.3187      0.00000
     12      11.3187      0.00000
     13      12.0002      0.00000
     14      13.5324      0.00000
     15      13.7205      0.00000
     16      14.1222      0.00000

 k-point  36 :       0.2500    0.1667    0.0833
  band No.  band energies     occupation 
      1      -2.7994      2.00000
      2       1.2441      2.00000
      3       2.5620      2.00000
      4       3.8413      2.00000
      5       6.4716      2.00000
      6       6.6512      0.00000
      7       7.7153      0.00000
      8       7.9027      0.00000
      9       8.9822      0.00000
     10       9.1758      0.00000
     11      10.4385      0.00000
     12      11.5635      0.00000
     13      11.5746      0.00000
     14      12.7541      0.00000
     15      14.3866      0.00000
     16      14.5198      0.00000

 k-point  37 :       0.3333    0.1667    0.0833
  band No.  band energies     occupation 
      1      -2.4015      2.00000
      2       0.3002      2.00000
      3       2.9464      2.00000
      4       4.2212      2.00000
      5       5.5599      2.00000
      6       6.8094      0.00000
      7       7.0306      0.00000
      8       8.2779      0.00000
      9       9.3537      0.00000
     10       9.5800      0.00000
     11      10.7746      0.00000
     12      10.8138      0.00000
     13      11.8755      0.00000
     14      11.9324      0.00000
     15      14.3433      0.00000
     16      14.7549      0.00000

 k-point  38 :       0.4167    0.1667    0.0833
  band No.  band energies     occupation 
      1      -1.8913      2.00000
      2      -0.5388      2.00000
      3       3.4394      2.00000
      4       4.6955      2.00000
      5       4.7616      2.00000
      6       6.0048      2.00000
      7       7.5171      0.00000
      8       8.7552      0.00000
      9       8.8001      0.00000
     10       9.8300      0.00000
     11      10.0161      0.00000
     12      11.0928      0.00000
     13      12.3790      0.00000
     14      12.5472      0.00000
     15      13.5978      0.00000
     16      15.2250      0.00000

 k-point  39 :       0.5000    0.1667    0.0833
  band No.  band energies     occupation 
      1      -1.2699      2.00000
      2      -1.2699      2.00000
      3       4.0399      2.00000
      4       4.0399      2.00000
[...]
     16      15.3549      0.00000

 k-point  64 :       0.5000    0.5000    0.1667
  band No.  band energies     occupation 
      1       0.6909      2.00000
      2       0.6909      2.00000
      3       0.6909      2.00000
      4       0.6909      2.00000
      5       5.9410      2.00000
      6       5.9410      2.00000
      7       5.9410      2.00000
      8       5.9410      2.00000
      9      11.1721      0.00000
     10      11.1721      0.00000
     11      11.1721      0.00000
     12      11.1721      0.00000
     13      15.3189      0.00000
     14      15.3189      0.00000
     15      15.3189      0.00000
     16      15.3189      0.00000

 k-point  65 :       0.2500    0.2500    0.2500
  band No.  band energies     occupation 
      1      -2.0614      2.00000
      2       1.9634      2.00000
      3       1.9634      2.00000
      4       1.9634      2.00000
      5       5.8924      2.00000
      6       5.8924      2.00000
      7       5.8924      2.00000
      8       9.7344      0.00000
      9       9.8639      0.00000
     10       9.8639      0.00000
     11       9.8639      0.00000
     12      12.8975      0.00000
     13      12.8975      0.00000
     14      12.8975      0.00000
     15      14.5631      0.00000
     16      14.5631      0.00000

 k-point  66 :       0.3333    0.2500    0.2500
  band No.  band energies     occupation 
      1      -1.6653      2.00000
      2       1.0239      2.00000
      3       2.3493      2.00000
      4       2.3493      2.00000
      5       4.9760      2.00000
      6       4.9760      2.00000
      7       6.2703      2.00000
      8       8.8382      0.00000
      9      10.2317      0.00000
     10      10.2317      0.00000
     11      11.4889      0.00000
     12      12.5842      0.00000
     13      12.5842      0.00000
     14      13.2463      0.00000
     15      14.9271      0.00000
     16      15.6034      0.00000

 k-point  67 :       0.4167    0.2500    0.2500
  band No.  band energies     occupation 
      1      -1.1575      2.00000
      2       0.1888      2.00000
      3       2.8435      2.00000
      4       2.8435      2.00000
      5       4.1621      2.00000
      6       4.1621      2.00000
      7       6.7552      0.00000
      8       8.0408      0.00000
      9      10.7003      0.00000
     10      10.7003      0.00000
     11      11.9117      0.00000
     12      11.9117      0.00000
     13      13.1882      0.00000
     14      13.6945      0.00000
     15      14.8862      0.00000
     16      15.3861      0.00000

 k-point  68 :       0.5000    0.2500    0.2500
  band No.  band energies     occupation 
      1      -0.5390      2.00000
      2      -0.5390      2.00000
      3       3.3940      2.00000
      4       3.3940      2.00000
      5       3.5048      2.00000
      6       3.5048      2.00000
      7       7.3458      0.00000
      8       7.3458      0.00000
      9      11.2361      0.00000
     10      11.2361      0.00000
     11      11.2947      0.00000
     12      11.2947      0.00000
     13      14.2415      0.00000
     14      14.2415      0.00000
     15      14.9146      0.00000
     16      14.9146      0.00000

 k-point  69 :       0.3333    0.3333    0.2500
  band No.  band energies     occupation 
      1      -1.2703      2.00000
      2       1.4123      2.00000
      3       1.4123      2.00000
      4       2.7333      2.00000
      5       4.0555      2.00000
      6       5.3559      2.00000
      7       5.3559      2.00000
      8       7.9371      0.00000
      9      10.5982      0.00000
     10      11.8476      0.00000
     11      11.8476      0.00000
     12      12.9401      0.00000
     13      12.9401      0.00000
     14      13.5944      0.00000
     15      15.2552      0.00000
     16      15.3327      0.00000

 k-point  70 :       0.4167    0.3333    0.2500
  band No.  band energies     occupation 
      1      -0.7637      2.00000
      2       0.5792      2.00000
      3       1.9101      2.00000
      4       3.1709      2.00000
      5       3.2926      2.00000
      6       4.5430      2.00000
      7       5.8432      2.00000
      8       7.1355      0.00000
      9      11.0651      0.00000
     10      12.2405      0.00000
     11      12.3334      0.00000
     12      13.3737      0.00000
     13      13.3981      0.00000
     14      13.5543      0.00000
     15      14.5717      0.00000
     16      16.3822      0.00000

 k-point  71 :       0.5000    0.3333    0.2500
  band No.  band energies     occupation 
      1      -0.1468      2.00000
      2      -0.1468      2.00000
      3       2.5158      2.00000
      4       2.5158      2.00000
      5       3.8356      2.00000
      6       3.8356      2.00000
      7       6.4368      2.00000
      8       6.4368      2.00000
      9      11.6263      0.00000
     10      11.6263      0.00000
     11      12.8399      0.00000
     12      12.8399      0.00000
     13      13.9368      0.00000
     14      13.9368      0.00000
     15      15.2519      0.00000
     16      15.2519      0.00000

 k-point  72 :       0.4167    0.4167    0.2500
  band No.  band energies     occupation 
      1      -0.2588      2.00000
      2       1.0798      2.00000
      3       1.0798      2.00000
      4       2.4060      2.00000
      5       3.7266      2.00000
      6       5.0322      2.00000
      7       5.0322      2.00000
      8       6.3302      2.00000
      9      11.5296      0.00000
     10      12.7256      0.00000
     11      12.7256      0.00000
     12      13.9098      0.00000
     13      13.9640      0.00000
     14      13.9640      0.00000
     15      14.4863      0.00000
     16      16.2801      0.00000

 k-point  73 :       0.5000    0.4167    0.2500
  band No.  band energies     occupation 
      1       0.3562      2.00000
      2       0.3562      2.00000
      3       1.6895      2.00000
      4       1.6895      2.00000
      5       4.3258      2.00000
      6       4.3258      2.00000
      7       5.6285      2.00000
      8       5.6285      2.00000
      9      12.0881      0.00000
     10      12.0881      0.00000
     11      13.2777      0.00000
     12      13.2777      0.00000
     13      14.4068      0.00000
     14      14.4068      0.00000
     15      15.5906      0.00000
     16      15.5906      0.00000

 k-point  74 :       0.5000    0.5000    0.2500
  band No.  band energies     occupation 
      1       0.9688      2.00000
      2       0.9688      2.00000
      3       0.9688      2.00000
      4       0.9688      2.00000
      5       4.9241      2.00000
      6       4.9241      2.00000
      7       4.9241      2.00000
      8       4.9241      2.00000
      9      12.6433      0.00000
     10      12.6433      0.00000
     11      12.6433      0.00000
     12      12.6433      0.00000
     13      15.5619      0.00000
     14      15.5619      0.00000
     15      15.5619      0.00000
     16      15.5619      0.00000

 k-point  75 :       0.3333    0.3333    0.3333
  band No.  band energies     occupation 
      1      -0.8762      2.00000
      2       1.7994      2.00000
      3       1.7994      2.00000
      4       1.7994      2.00000
      5       4.4367      2.00000
      6       4.4367      2.00000
      7       4.4367      2.00000
      8       7.0311      0.00000
      9      12.2055      0.00000
     10      12.2055      0.00000
     11      12.2055      0.00000
     12      13.9430      0.00000
     13      13.9430      0.00000
     14      13.9430      0.00000
     15      15.6770      0.00000
     16      15.6770      0.00000

 k-point  76 :       0.4167    0.3333    0.3333
  band No.  band energies     occupation 
      1      -0.3710      2.00000
      2       0.9686      2.00000
      3       2.2948      2.00000
      4       2.2948      2.00000
      5       3.6206      2.00000
      6       3.6206      2.00000
      7       4.9263      2.00000
      8       6.2253      2.00000
      9      12.6566      0.00000
     10      12.6566      0.00000
     11      13.7510      0.00000
     12      13.7510      0.00000
     13      13.8739      0.00000
     14      14.3902      0.00000
     15      15.5728      0.00000
     16      16.0989      0.00000

 k-point  77 :       0.5000    0.3333    0.3333
  band No.  band energies     occupation 
      1       0.2444      2.00000
      2       0.2444      2.00000
      3       2.8346      2.00000
      4       2.8346      2.00000
      5       2.9736      2.00000
      6       2.9736      2.00000
      7       5.5230      2.00000
      8       5.5230      2.00000
      9      13.1344      0.00000
     10      13.1344      0.00000
     11      13.2499      0.00000
     12      13.2499      0.00000
     13      14.9347      0.00000
     14      14.9347      0.00000
     15      15.5263      0.00000
     16      15.5263      0.00000

 k-point  78 :       0.4167    0.4167    0.3333
  band No.  band energies     occupation 
      1       0.1326      2.00000
      2       1.4676      2.00000
      3       1.4676      2.00000
      4       2.7221      2.00000
      5       2.8671      2.00000
      6       4.1113      2.00000
      7       4.1113      2.00000
      8       5.4158      2.00000
      9      13.1069      0.00000
     10      14.1617      0.00000
     11      14.1617      0.00000
     12      14.3340      0.00000
     13      14.3340      0.00000
     14      14.8327      0.00000
     15      15.3027      0.00000
     16      16.5837      0.00000

 k-point  79 :       0.5000    0.4167    0.3333
  band No.  band energies     occupation 
      1       0.7460      2.00000
      2       0.7460      2.00000
      3       2.0743      2.00000
      4       2.0743      2.00000
      5       3.4025      2.00000
      6       3.4025      2.00000
      7       4.7104      2.00000
      8       4.7104      2.00000
      9      13.6349      0.00000
     10      13.6349      0.00000
     11      14.7211      0.00000
     12      14.7211      0.00000
     13      14.7519      0.00000
     14      14.7519      0.00000
     15      15.8968      0.00000
     16      15.8968      0.00000

 k-point  80 :       0.5000    0.5000    0.3333
  band No.  band energies     occupation 
      1       1.3567      2.00000
      2       1.3567      2.00000
      3       1.3567      2.00000
      4       1.3567      2.00000
      5       4.0026      2.00000
      6       4.0026      2.00000
      7       4.0026      2.00000
      8       4.0026      2.00000
      9      14.1640      0.00000
     10      14.1640      0.00000
     11      14.1640      0.00000
     12      14.1640      0.00000
     13      15.8944      0.00000
     14      15.8944      0.00000
     15      15.8944      0.00000
     16      15.8944      0.00000

 k-point  81 :       0.4167    0.4167    0.4167
  band No.  band energies     occupation 
      1       0.6345      2.00000
      2       1.9635      2.00000
      3       1.9635      2.00000
      4       1.9635      2.00000
      5       3.2941      2.00000
      6       3.2941      2.00000
      7       3.2941      2.00000
      8       4.6027      2.00000
      9      14.7150      0.00000
     10      14.7150      0.00000
     11      14.7150      0.00000
     12      15.2746      0.00000
     13      15.2746      0.00000
     14      15.2746      0.00000
     15      16.3913      0.00000
     16      16.3913      0.00000

 k-point  82 :       0.5000    0.4167    0.4167
  band No.  band energies     occupation 
      1       1.2456      2.00000
      2       1.2456      2.00000
      3       2.4964      2.00000
      4       2.4964      2.00000
      5       2.6539      2.00000
      6       2.6539      2.00000
      7       3.8945      2.00000
      8       3.8945      2.00000
      9      15.0949      0.00000
     10      15.0949      0.00000
     11      15.2500      0.00000
     12      15.2500      0.00000
     13      15.8047      0.00000
     14      15.8047      0.00000
     15      16.1881      0.00000
     16      16.1881      0.00000

 k-point  83 :       0.5000    0.5000    0.4167
  band No.  band energies     occupation 
      1       1.8528      2.00000
      2       1.8528      2.00000
      3       1.8528      2.00000
      4       1.8528      2.00000
      5       3.1850      2.00000
      6       3.1850      2.00000
      7       3.1850      2.00000
      8       3.1850      2.00000
      9      15.6343      0.00000
     10      15.6343      0.00000
     11      15.6343      0.00000
     12      15.6343      0.00000
     13      16.2897      0.00000
     14      16.2897      0.00000
     15      16.2897      0.00000
     16      16.2897      0.00000

 k-point  84 :       0.5000    0.5000    0.5000
  band No.  band energies     occupation 
      1       2.3832      2.00000
      2       2.3832      2.00000
      3       2.3832      2.00000
      4       2.3832      2.00000
      5       2.5472      2.00000
      6       2.5472      2.00000
      7       2.5472      2.00000
      8       2.5472      2.00000
      9      16.5567      0.00000
     10      16.5567      0.00000
     11      16.5567      0.00000
     12      16.5567      0.00000
     13      16.5567      0.00000
     14      16.5567      0.00000
     15      16.5567      0.00000
     16      16.5567      0.00000


--------------------------------------------------------------------------------------------------------


 soft charge-density along one line, spin component           1
         0         1         2         3         4         5         6         7         8         9
 total charge-density along one line
 
 pseudopotential strength for first ion, spin component:           1
  8.490  -0.004   0.000   0.000  -0.000   0.000   0.000  -0.000
 -0.004   0.000   0.000   0.000  -0.000  -0.000  -0.000   0.000
  0.000   0.000   1.982   0.000   0.000  -0.022  -0.000  -0.000
  0.000   0.000   0.000   1.982   0.000  -0.000  -0.022  -0.000
 -0.000  -0.000   0.000   0.000   1.982  -0.000  -0.000  -0.022
  0.000  -0.000  -0.022  -0.000  -0.000  -0.013  -0.000  -0.000
  0.000  -0.000  -0.000  -0.022  -0.000  -0.000  -0.013  -0.000
 -0.000   0.000  -0.000  -0.000  -0.022  -0.000  -0.000  -0.013
 total augmentation occupancy for first ion, spin component:           1
  1.401  -0.318   0.000  -0.000   0.000   0.000  -0.000  -0.000
 -0.318   0.345   0.000   0.000  -0.000   0.000  -0.000   0.000
  0.000   0.000   0.630  -0.089   0.022  -0.120   0.014   0.003
 -0.000   0.000  -0.089   0.690  -0.023   0.014  -0.100   0.006
  0.000  -0.000   0.022  -0.023   0.558   0.003   0.006  -0.123
  0.000   0.000  -0.120   0.014   0.003   0.026  -0.002  -0.001
 -0.000  -0.000   0.014  -0.100   0.006  -0.002   0.016  -0.001
 -0.000   0.000   0.003   0.006  -0.123  -0.001  -0.001   0.031


------------------------ aborting loop because EDIFF is reached ----------------------------------------




--------------------------------------------------------------------------------------------------------


    CHARGE:  VPU time    0.04: CPU time    0.04
    FORLOC:  VPU time    0.00: CPU time    0.00
    FORNL :  VPU time    0.08: CPU time    0.08
    STRESS:  VPU time    0.55: CPU time    0.55
    FORCOR:  VPU time    0.02: CPU time    0.02
    FORHAR:  VPU time    0.00: CPU time    0.00
    MIXING:  VPU time    0.00: CPU time    0.00


--------------------------------------------------------------------------------------------------------



  FREE ENERGIE OF THE ION-ELECTRON SYSTEM (eV)
  ---------------------------------------------------
  free  energy   TOTEN  =       -14.680939 eV

  energy  without entropy=      -14.680867  energy(sigma->0) =      -14.680903
 

  FORCE on cell =-STRESS in cart. coord.  units (eV/reduce length):
  Direction    X        Y        Z        XY       YZ       ZX
  --------------------------------------------------------------------------------------
  Alpha Z     -0.71     -0.71     -0.71
  Ewald      -93.44    -93.44    -93.44     -0.00     -0.00     -0.00
  Hartree      0.14      0.14      0.14     -0.00     -0.00     -0.00
  E(xc)      -32.84    -32.84    -32.84      0.00     -0.00     -0.00
  Local       -1.34     -1.34     -1.34     -0.00     -0.00      0.00
  n-local     73.42     73.90     75.03     -0.08      0.35      0.10
  augment     -4.56     -4.56     -4.56      0.00      0.00      0.00
  Kinetic     52.26     55.28     57.23      2.00     -7.40     -1.92
  -------------------------------------------------------------------------------------
  Total       -3.71     -3.71     -3.71     -0.00     -0.00      0.00
  in kB      -77.97    -77.97    -77.97     -0.00     -0.00      0.00
  external pressure =      -77.97 kB  Pullay stress =        0.00 kB


 VOLUME and BASIS-vectors are now :
 -----------------------------------------------------------------------------
  energy-cutoff  :      500.00
  volume of cell :       76.18
      direct lattice vectors                 reciprocal lattice vectors
     4.239171688  0.000000000  0.000000000     0.235895140  0.000000000  0.000000000
     0.000000000  4.239171688  0.000000000     0.000000000  0.235895140  0.000000000
     0.000000000  0.000000000  4.239171688     0.000000000  0.000000000  0.235895140

  length of vectors
     4.239171688  4.239171688  4.239171688     0.235895140  0.235895140  0.235895140


 FORCES acting on ions
    electron-ion (+dipol)            ewald-force                    non-local-force                 convergence-correction
 -----------------------------------------------------------------------------------------------
   -.480E-14 -.780E-14 -.918E-14   0.372E-15 0.103E-14 -.478E-15   0.969E-26 0.000E+00 0.646E-26   0.901E-16 0.236E-16 -.238E-16
   -.460E-14 -.158E-14 -.511E-13   0.326E-15 -.722E-15 0.342E-15   0.323E-26 0.646E-26 -.185E-25   0.849E-16 -.340E-16 0.234E-16
   -.187E-14 -.297E-14 -.243E-14   -.383E-15 0.680E-15 0.349E-15   0.485E-26 -.646E-26 0.170E-25   -.104E-15 0.276E-16 0.239E-16
   -.157E-14 -.112E-14 0.127E-15   -.428E-15 -.107E-14 -.490E-16   -.969E-26 0.646E-26 -.323E-26   -.103E-15 -.261E-16 -.235E-16
 -----------------------------------------------------------------------------------------------
   -.128E-13 -.135E-13 -.626E-13   -.113E-15 -.829E-16 0.164E-15   0.808E-26 0.646E-26 0.172E-26   -.320E-16 -.894E-17 -.400E-19
 
 
 POSITION                                       TOTAL-FORCE (eV/Angst)
 -----------------------------------------------------------------------------------
      2.11959      2.11959      0.00000         0.000000      0.000000      0.000000
      2.11959      0.00000      2.11959         0.000000      0.000000      0.000000
      0.00000      2.11959      2.11959         0.000000      0.000000      0.000000
      0.00000      0.00000      0.00000         0.000000     -0.000000      0.000000
 -----------------------------------------------------------------------------------
    total drift:                               -0.000000     -0.000000     -0.000000


--------------------------------------------------------------------------------------------------------



 mean value of Nose-termostat <S>:     1.000 mean value of <T> :     0.000
 mean temperature <T/S>/<1/S>  :     0.000

     LOOP+:  VPU time   14.17: CPU time   14.22
  
  
 General timing and accounting informations for this job:
 ========================================================
  
                  Total CPU time used (sec):       14.848
                            User time (sec):       10.714
                          System time (sec):        4.133
                         Elapsed time (sec):       14.899
  
                   Maximum memory used (kb):      174048.
                   Average memory used (kb):           0.
  
                          Minor page faults:        39739
                          Major page faults:            0
                 Voluntary context switches:          845
