 running on    4 nodes
 distr:  one band on    1 nodes,    4 groups
 vasp.4.6.28 25Jul05 complex 
 POSCAR found :  1 types and   32 ions

 ----------------------------------------------------------------------------- 
|                                                                             |
|  ADVICE TO THIS USER RUNNING 'VASP/VAMP'   (HEAR YOUR MASTER'S VOICE ...):  |
|                                                                             |
|      You have a (more or less) 'large supercell' and for larger cells       |
|      it might be more efficient to use real space projection operators      |
|      So try LREAL= Auto  in the INCAR   file.                               |
|      Mind: If you want to do an extremely accurate calculations keep the    |
|      reciprocal projection scheme          (i.e. LREAL=.FALSE.)             |
|                                                                             |
 ----------------------------------------------------------------------------- 

 LDA part: xc-table for Pade appr. of Perdew
 POSCAR, INCAR and KPOINTS ok, starting setup
 FFT: planning ...           1
 reading WAVECAR
 WARNING: random wavefunctions but no delay for mixing, default for NELMDL
 entering main loop
       N       E                     dE             d eps       ncg     rms          rms(c)
DAV:   1     0.451918363841E+04    0.45192E+04   -0.20535E+05 83104   0.219E+03
DAV:   2     0.172024967685E+03   -0.43472E+04   -0.41648E+04 83144   0.549E+02
DAV:   3    -0.981158416593E+02   -0.27014E+03   -0.24421E+03 92628   0.141E+02
DAV:   4    -0.108794207482E+03   -0.10678E+02   -0.10497E+02 88960   0.272E+01
DAV:   5    -0.109021469274E+03   -0.22726E+00   -0.22651E+00 90872   0.348E+00    0.151E+01
DAV:   6    -0.102094780692E+03    0.69267E+01   -0.21250E+01 87632   0.158E+01    0.366E+00
DAV:   7    -0.101838721271E+03    0.25606E+00   -0.99424E-01 92372   0.269E+00    0.180E+00
DAV:   8    -0.101786135769E+03    0.52586E-01   -0.55447E-02 86876   0.872E-01    0.147E-01
DAV:   9    -0.101786411555E+03   -0.27579E-03   -0.52234E-03 91624   0.225E-01    0.828E-02
DAV:  10    -0.101786498477E+03   -0.86922E-04   -0.51531E-04 86688   0.660E-02    0.163E-02
DAV:  11    -0.101786506790E+03   -0.83137E-05   -0.21947E-05 92824   0.166E-02    0.407E-03
DAV:  12    -0.101786509445E+03   -0.26551E-05   -0.17077E-06 87444   0.456E-03    0.124E-03
DAV:  13    -0.101786508286E+03    0.11598E-05   -0.81214E-08 85776   0.992E-04    0.513E-04
DAV:  14    -0.101786507786E+03    0.49909E-06   -0.12323E-08 47780   0.431E-04    0.853E-05
DAV:  15    -0.101786507834E+03   -0.47072E-07   -0.11934E-09 46164   0.132E-04    0.532E-05
DAV:  16    -0.101786507821E+03    0.12202E-07   -0.13679E-10 45556   0.576E-05    0.214E-05
DAV:  17    -0.101786507817E+03    0.46857E-08    0.70000E-11 45420   0.358E-05
   1 F= -.10178651E+03 E0= -.10178623E+03  d E =-.560714E-03
