  32  32   0   0
  0.2043332E+02  0.8679532E-09  0.8679532E-09  0.8679532E-09  0.5000000E-15
  1.000000000000000E-004
  CAR 
 unknown system                          
     12.04119755     -5.24015659  301      3.62362561      1.00000000
     -5.240  0.0000E+00  0.0000E+00
     -5.183  0.0000E+00  0.0000E+00
     -5.125  0.0000E+00  0.0000E+00
     -5.067  0.0000E+00  0.0000E+00
     -5.010  0.0000E+00  0.0000E+00
     -4.952  0.0000E+00  0.0000E+00
     -4.895  0.0000E+00  0.0000E+00
     -4.837  0.0000E+00  0.0000E+00
     -4.779  0.0000E+00  0.0000E+00
     -4.722  0.0000E+00  0.0000E+00
     -4.664  0.0000E+00  0.0000E+00
     -4.607  0.0000E+00  0.0000E+00
     -4.549  0.0000E+00  0.0000E+00
     -4.491  0.2180E-08  0.1256E-09
     -4.434  0.1107E+00  0.6374E-02
     -4.376  0.6077E+00  0.4138E-01
     -4.318  0.1013E+01  0.9973E-01
     -4.261  0.1595E+01  0.1916E+00
     -4.203  0.1674E+01  0.2880E+00
     -4.146  0.1565E+01  0.3782E+00
     -4.088  0.2229E+01  0.5066E+00
     -4.030  0.1279E+01  0.5802E+00
     -3.973  0.2625E+01  0.7314E+00
     -3.915  0.2313E+01  0.8647E+00
     -3.858  0.3073E+01  0.1042E+01
     -3.800  0.2426E+01  0.1181E+01
     -3.742  0.3664E+01  0.1392E+01
     -3.685  0.2884E+01  0.1559E+01
     -3.627  0.2608E+01  0.1709E+01
     -3.570  0.4041E+01  0.1942E+01
     -3.512  0.3197E+01  0.2126E+01
     -3.454  0.3495E+01  0.2327E+01
     -3.397  0.3549E+01  0.2532E+01
     -3.339  0.5024E+01  0.2821E+01
     -3.282  0.3004E+01  0.2994E+01
     -3.224  0.5594E+01  0.3316E+01
     -3.166  0.3198E+01  0.3500E+01
     -3.109  0.5253E+01  0.3803E+01
     -3.051  0.5864E+01  0.4141E+01
     -2.994  0.5753E+01  0.4472E+01
     -2.936  0.3864E+01  0.4695E+01
     -2.878  0.6363E+01  0.5061E+01
     -2.821  0.5820E+01  0.5397E+01
     -2.763  0.6826E+01  0.5790E+01
     -2.706  0.6343E+01  0.6155E+01
     -2.648  0.7380E+01  0.6580E+01
     -2.590  0.6517E+01  0.6956E+01
     -2.533  0.7750E+01  0.7402E+01
     -2.475  0.1048E+02  0.8006E+01
     -2.418  0.7169E+01  0.8419E+01
     -2.360  0.8224E+01  0.8893E+01
     -2.302  0.1224E+02  0.9598E+01
     -2.245  0.1630E+02  0.1054E+02
     -2.187  0.1975E+02  0.1168E+02
     -2.130  0.2628E+02  0.1319E+02
     -2.072  0.2254E+02  0.1449E+02
     -2.014  0.2791E+02  0.1610E+02
     -1.957  0.2831E+02  0.1773E+02
     -1.899  0.3538E+02  0.1976E+02
     -1.841  0.3778E+02  0.2194E+02
     -1.784  0.4699E+02  0.2465E+02
     -1.726  0.5119E+02  0.2760E+02
     -1.669  0.6562E+02  0.3138E+02
     -1.611  0.7157E+02  0.3550E+02
     -1.553  0.7596E+02  0.3988E+02
     -1.496  0.7897E+02  0.4442E+02
     -1.438  0.7404E+02  0.4869E+02
     -1.381  0.8080E+02  0.5335E+02
     -1.323  0.6107E+02  0.5686E+02
     -1.265  0.7754E+02  0.6133E+02
     -1.208  0.5767E+02  0.6465E+02
     -1.150  0.7110E+02  0.6875E+02
     -1.093  0.6002E+02  0.7221E+02
     -1.035  0.6072E+02  0.7570E+02
     -0.977  0.5432E+02  0.7883E+02
     -0.920  0.4651E+02  0.8151E+02
     -0.862  0.5149E+02  0.8448E+02
     -0.805  0.6730E+02  0.8835E+02
     -0.747  0.6353E+02  0.9201E+02
     -0.689  0.8308E+02  0.9680E+02
     -0.632  0.8963E+02  0.1020E+03
     -0.574  0.8463E+02  0.1068E+03
     -0.517  0.9824E+02  0.1125E+03
     -0.459  0.8431E+02  0.1174E+03
     -0.401  0.8309E+02  0.1221E+03
     -0.344  0.8070E+02  0.1268E+03
     -0.286  0.9670E+02  0.1324E+03
     -0.229  0.9030E+02  0.1376E+03
     -0.171  0.1010E+03  0.1434E+03
     -0.113  0.1150E+03  0.1500E+03
     -0.056  0.1158E+03  0.1567E+03
      0.002  0.1579E+03  0.1658E+03
      0.059  0.1483E+03  0.1743E+03
      0.117  0.1048E+03  0.1803E+03
      0.175  0.9473E+02  0.1858E+03
      0.232  0.7788E+02  0.1903E+03
      0.290  0.7120E+02  0.1944E+03
      0.347  0.6941E+02  0.1984E+03
      0.405  0.7611E+02  0.2028E+03
      0.463  0.6900E+02  0.2068E+03
      0.520  0.7134E+02  0.2109E+03
      0.578  0.8121E+02  0.2155E+03
      0.636  0.9027E+02  0.2207E+03
      0.693  0.9328E+02  0.2261E+03
      0.751  0.9076E+02  0.2313E+03
      0.808  0.9594E+02  0.2369E+03
      0.866  0.9901E+02  0.2426E+03
      0.924  0.9197E+02  0.2479E+03
      0.981  0.8165E+02  0.2526E+03
      1.039  0.8034E+02  0.2572E+03
      1.096  0.7445E+02  0.2615E+03
      1.154  0.7305E+02  0.2657E+03
      1.212  0.7668E+02  0.2701E+03
      1.269  0.7203E+02  0.2743E+03
      1.327  0.7200E+02  0.2784E+03
      1.384  0.7798E+02  0.2829E+03
      1.442  0.7792E+02  0.2874E+03
      1.500  0.7720E+02  0.2918E+03
      1.557  0.1004E+03  0.2976E+03
      1.615  0.9827E+02  0.3033E+03
      1.672  0.1477E+03  0.3118E+03
      1.730  0.1304E+03  0.3193E+03
      1.788  0.1016E+03  0.3252E+03
      1.845  0.8554E+02  0.3301E+03
      1.903  0.5373E+02  0.3332E+03
      1.960  0.3468E+02  0.3352E+03
      2.018  0.8956E+01  0.3357E+03
      2.076  0.2072E+02  0.3369E+03
      2.133  0.4838E+01  0.3372E+03
      2.191  0.8565E+01  0.3377E+03
      2.248  0.1212E+02  0.3384E+03
      2.306  0.1195E+02  0.3390E+03
      2.364  0.6945E+01  0.3394E+03
      2.421  0.9804E+01  0.3400E+03
      2.479  0.1409E+02  0.3408E+03
      2.536  0.8001E+01  0.3413E+03
      2.594  0.6640E+01  0.3417E+03
      2.652  0.9455E+01  0.3422E+03
      2.709  0.1493E+02  0.3431E+03
      2.767  0.9766E+01  0.3436E+03
      2.824  0.7072E+01  0.3440E+03
      2.882  0.7063E+01  0.3444E+03
      2.940  0.1241E+02  0.3452E+03
      2.997  0.1230E+02  0.3459E+03
      3.055  0.1042E+02  0.3465E+03
      3.112  0.6856E+01  0.3469E+03
      3.170  0.7795E+01  0.3473E+03
      3.228  0.9166E+01  0.3478E+03
      3.285  0.1305E+02  0.3486E+03
      3.343  0.9807E+01  0.3492E+03
      3.401  0.8941E+01  0.3497E+03
      3.458  0.8497E+01  0.3502E+03
      3.516  0.1257E+02  0.3509E+03
      3.573  0.8546E+01  0.3514E+03
      3.631  0.1213E+02  0.3521E+03
      3.689  0.8068E+01  0.3525E+03
      3.746  0.1161E+02  0.3532E+03
      3.804  0.9635E+01  0.3538E+03
      3.861  0.9020E+01  0.3543E+03
      3.919  0.1165E+02  0.3550E+03
      3.977  0.8815E+01  0.3555E+03
      4.034  0.8785E+01  0.3560E+03
      4.092  0.1068E+02  0.3566E+03
      4.149  0.1228E+02  0.3573E+03
      4.207  0.8091E+01  0.3578E+03
      4.265  0.1201E+02  0.3585E+03
      4.322  0.8188E+01  0.3589E+03
      4.380  0.7692E+01  0.3594E+03
      4.437  0.1330E+02  0.3601E+03
      4.495  0.1024E+02  0.3607E+03
      4.553  0.9518E+01  0.3613E+03
      4.610  0.8963E+01  0.3618E+03
      4.668  0.7408E+01  0.3622E+03
      4.725  0.1072E+02  0.3628E+03
      4.783  0.1223E+02  0.3635E+03
      4.841  0.1060E+02  0.3641E+03
      4.898  0.8423E+01  0.3646E+03
      4.956  0.8334E+01  0.3651E+03
      5.013  0.1146E+02  0.3658E+03
      5.071  0.7684E+01  0.3662E+03
      5.129  0.1264E+02  0.3669E+03
      5.186  0.6066E+01  0.3673E+03
      5.244  0.1231E+02  0.3680E+03
      5.301  0.1052E+02  0.3686E+03
      5.359  0.8523E+01  0.3691E+03
      5.417  0.1240E+02  0.3698E+03
      5.474  0.6987E+01  0.3702E+03
      5.532  0.7971E+01  0.3707E+03
      5.589  0.1264E+02  0.3714E+03
      5.647  0.8354E+01  0.3719E+03
      5.705  0.9773E+01  0.3724E+03
      5.762  0.7843E+01  0.3729E+03
      5.820  0.1202E+02  0.3736E+03
      5.878  0.1558E+02  0.3745E+03
      5.935  0.1079E+02  0.3751E+03
      5.993  0.1783E+02  0.3761E+03
      6.050  0.1364E+02  0.3769E+03
      6.108  0.1583E+02  0.3778E+03
      6.166  0.1256E+02  0.3786E+03
      6.223  0.1124E+02  0.3792E+03
      6.281  0.1572E+02  0.3801E+03
      6.338  0.1219E+02  0.3808E+03
      6.396  0.9971E+01  0.3814E+03
      6.454  0.1242E+02  0.3821E+03
      6.511  0.1169E+02  0.3828E+03
      6.569  0.1347E+02  0.3836E+03
      6.626  0.8431E+01  0.3840E+03
      6.684  0.1269E+02  0.3848E+03
      6.742  0.9145E+01  0.3853E+03
      6.799  0.5759E+01  0.3856E+03
      6.857  0.1354E+02  0.3864E+03
      6.914  0.1060E+02  0.3870E+03
      6.972  0.1226E+02  0.3877E+03
      7.030  0.7361E+01  0.3881E+03
      7.087  0.8894E+01  0.3887E+03
      7.145  0.5422E+01  0.3890E+03
      7.202  0.1065E+02  0.3896E+03
      7.260  0.9320E+01  0.3901E+03
      7.318  0.9433E+01  0.3907E+03
      7.375  0.6598E+01  0.3910E+03
      7.433  0.8607E+01  0.3915E+03
      7.490  0.8691E+01  0.3920E+03
      7.548  0.8759E+01  0.3925E+03
      7.606  0.9463E+01  0.3931E+03
      7.663  0.6810E+01  0.3935E+03
      7.721  0.8524E+01  0.3940E+03
      7.778  0.1011E+02  0.3946E+03
      7.836  0.1395E+02  0.3954E+03
      7.894  0.1238E+02  0.3961E+03
      7.951  0.1272E+02  0.3968E+03
      8.009  0.9934E+01  0.3974E+03
      8.066  0.1212E+02  0.3981E+03
      8.124  0.1619E+02  0.3990E+03
      8.182  0.1803E+02  0.4001E+03
      8.239  0.1293E+02  0.4008E+03
      8.297  0.1176E+02  0.4015E+03
      8.355  0.1633E+02  0.4024E+03
      8.412  0.9171E+01  0.4029E+03
      8.470  0.9736E+01  0.4035E+03
      8.527  0.1151E+02  0.4042E+03
      8.585  0.1191E+02  0.4049E+03
      8.643  0.1331E+02  0.4056E+03
      8.700  0.1562E+02  0.4065E+03
      8.758  0.1220E+02  0.4072E+03
      8.815  0.1357E+02  0.4080E+03
      8.873  0.1454E+02  0.4088E+03
      8.931  0.1027E+02  0.4094E+03
      8.988  0.5609E+01  0.4098E+03
      9.046  0.1334E+02  0.4105E+03
      9.103  0.9605E+01  0.4111E+03
      9.161  0.1169E+02  0.4118E+03
      9.219  0.1347E+02  0.4125E+03
      9.276  0.1022E+02  0.4131E+03
      9.334  0.7478E+01  0.4135E+03
      9.391  0.9100E+01  0.4141E+03
      9.449  0.1301E+02  0.4148E+03
      9.507  0.6933E+01  0.4152E+03
      9.564  0.1225E+02  0.4159E+03
      9.622  0.1126E+02  0.4166E+03
      9.679  0.7029E+01  0.4170E+03
      9.737  0.6659E+01  0.4174E+03
      9.795  0.1188E+02  0.4180E+03
      9.852  0.1431E+02  0.4189E+03
      9.910  0.6339E+01  0.4192E+03
      9.967  0.7038E+01  0.4196E+03
     10.025  0.9365E+01  0.4202E+03
     10.083  0.1300E+02  0.4209E+03
     10.140  0.7870E+01  0.4214E+03
     10.198  0.9958E+01  0.4220E+03
     10.255  0.1040E+02  0.4226E+03
     10.313  0.5588E+01  0.4229E+03
     10.371  0.8605E+01  0.4234E+03
     10.428  0.2295E+01  0.4235E+03
     10.486  0.1566E+01  0.4236E+03
     10.543  0.2266E+01  0.4237E+03
     10.601  0.6516E+00  0.4238E+03
     10.659  0.2769E+01  0.4239E+03
     10.716  0.9644E+00  0.4240E+03
     10.774  0.2349E+00  0.4240E+03
     10.832  0.6198E-02  0.4240E+03
     10.889  0.0000E+00  0.4240E+03
     10.947  0.1834E-01  0.4240E+03
     11.004  0.1022E+00  0.4240E+03
     11.062  0.0000E+00  0.4240E+03
     11.120  0.0000E+00  0.4240E+03
     11.177  0.0000E+00  0.4240E+03
     11.235  0.3067E-04  0.4240E+03
     11.292  0.2006E-01  0.4240E+03
     11.350  0.0000E+00  0.4240E+03
     11.408  0.0000E+00  0.4240E+03
     11.465  0.0000E+00  0.4240E+03
     11.523  0.0000E+00  0.4240E+03
     11.580  0.0000E+00  0.4240E+03
     11.638  0.0000E+00  0.4240E+03
     11.696  0.0000E+00  0.4240E+03
     11.753  0.0000E+00  0.4240E+03
     11.811  0.0000E+00  0.4240E+03
     11.868  0.0000E+00  0.4240E+03
     11.926  0.0000E+00  0.4240E+03
     11.984  0.0000E+00  0.4240E+03
     12.041  0.0000E+00  0.4240E+03
