   32   32    1    1
  0.2043332E+02  0.8679532E-09  0.8679532E-09  0.8679532E-09  0.5000000E-15
  1.000000000000000E-004
  CAR 
 unknown system                          
  352  196  212
 
  0.0000000E+00  0.0000000E+00  0.0000000E+00  0.5787037E-03
   1       -4.4546
   2       -2.3590
   3       -2.3560
   4       -2.3560
   5       -2.3560
   6       -2.3560
   7       -2.3531
   8       -2.2266
   9       -2.2266
  10       -2.2266
  11       -2.2266
  12       -1.9761
  13       -1.9761
  14       -1.9761
  15       -1.7564
  16       -1.7564
  17       -1.7564
  18       -1.2577
  19       -1.2564
  20       -1.2564
  21       -1.2549
  22       -1.2547
  23       -1.2547
  24       -1.2547
  25       -1.2547
  26       -1.2545
  27       -1.2530
  28       -1.2530
  29       -1.2517
  30       -1.1201
  31       -1.1183
  32       -1.1183
  33       -1.1183
  34       -1.1183
  35       -1.1166
  36       -1.0548
  37       -1.0530
  38       -1.0530
  39       -1.0530
  40       -1.0530
  41       -1.0513
  42       -0.5979
  43       -0.5958
  44       -0.5958
  45       -0.5947
  46       -0.5947
  47       -0.5947
  48       -0.5947
  49       -0.5947
  50       -0.5947
  51       -0.5937
  52       -0.5937
  53       -0.5917
  54       -0.5403
  55       -0.5403
  56       -0.5383
  57       -0.5383
  58       -0.5383
  59       -0.5383
  60       -0.5383
  61       -0.5382
  62       -0.5382
  63       -0.5381
  64       -0.5362
  65       -0.5362
  66       -0.3095
  67       -0.3065
  68       -0.3064
  69       -0.3064
  70       -0.3062
  71       -0.3062
  72       -0.3062
  73       -0.3062
  74       -0.3060
  75       -0.3060
  76       -0.3059
  77       -0.3030
  78       -0.2625
  79       -0.2624
  80       -0.2624
  81       -0.2624
  82       -0.2624
  83       -0.2624
  84       -0.2624
  85       -0.2623
  86       -0.2446
  87       -0.2446
  88       -0.2445
  89        0.3258
  90        0.3276
  91        0.3276
  92        0.3276
  93        0.3276
  94        0.3293
  95        0.4471
  96        0.4478
  97        0.4487
  98        0.4487
  99        0.4492
 100        0.4492
 101        0.4492
 102        0.4492
 103        0.4497
 104        0.4497
 105        0.4507
 106        0.4513
 107        0.6704
 108        0.6704
 109        0.6726
 110        0.6726
 111        0.6727
 112        0.6727
 113        0.6728
 114        0.6728
 115        0.6729
 116        0.6729
 117        0.6750
 118        0.6750
 119        0.7891
 120        0.7906
 121        0.7906
 122        0.7906
 123        0.7906
 124        0.7920
 125        0.8530
 126        0.8532
 127        0.8637
 128        0.8637
 129        0.8657
 130        0.8661
 131        0.8661
 132        0.8661
 133        0.8661
 134        0.8662
 135        0.8664
 136        0.8665
 137        0.8687
 138        0.8687
 139        1.2556
 140        1.2566
 141        1.2566
 142        1.2566
 143        1.2566
 144        1.2577
 145        1.6880
 146        1.6880
 147        1.6880
 148        1.7239
 149        1.7239
 150        1.7239
 151        1.7239
 152        1.7239
 153        1.7239
 154        1.7239
 155        1.7239
 156        1.9540
 157        1.9543
 158        1.9543
 159        1.9543
 160        1.9543
 161        1.9543
 162        1.9554
 163        1.9554
 164        1.9554
 165        1.9554
 166        1.9555
 167        1.9557
 168        3.1820
 169        3.1829
 170        3.1829
 171        3.1835
 172        3.1839
 173        3.1839
 174        3.1839
 175        3.1839
 176        3.1844
 177        3.1850
 178        3.1850
 179        3.1858
 180        3.4559
 181        3.4559
 182        3.4559
 183        3.4559
 184        5.1388
 185        5.1388
 186        5.1388
 187        5.8563
 188        5.8563
 189        5.8563
 190        5.8563
 191        7.5073
 192        7.5074
 193        7.5074
 194        7.5074
 195        7.5074
 196        7.5076
 197        8.1255
 198        8.1256
 199        8.1256
 200        9.4008
 201        9.4008
 202        9.4036
 203        9.4036
 204        9.4040
 205        9.4040
 206        9.4040
 207        9.4041
 208        9.4044
 209        9.4044
 210        9.4073
 211        9.4073
 212       11.2557
 
  0.8333333E-01  0.0000000E+00  0.0000000E+00  0.1157407E-02
   1       -4.4373
   2       -2.6087
   3       -2.3436
   4       -2.3436
   5       -2.3436
   6       -2.3436
   7       -2.2175
   8       -2.2175
   9       -2.2175
  10       -2.2175
  11       -2.1391
  12       -1.9708
  13       -1.9654
  14       -1.9654
  15       -1.7508
  16       -1.7479
  17       -1.7479
  18       -1.3419
  19       -1.3419
  20       -1.3419
  21       -1.3419
  22       -1.3015
  23       -1.3015
  24       -1.3015
  25       -1.3015
  26       -1.1803
  27       -1.1803
  28       -1.1803
  29       -1.1803
  30       -1.1501
  31       -1.1404
  32       -1.1403
  33       -1.1110
  34       -1.1110
  35       -1.1110
  36       -1.1109
  37       -1.0482
  38       -1.0482
  39       -1.0482
  40       -1.0481
  41       -0.9542
  42       -0.7296
  43       -0.7296
  44       -0.6341
  45       -0.6340
  46       -0.6340
  47       -0.6340
  48       -0.5645
  49       -0.5638
  50       -0.5638
  51       -0.5638
  52       -0.5596
  53       -0.5596
  54       -0.5596
  55       -0.5590
  56       -0.5469
  57       -0.5469
  58       -0.5469
  59       -0.5469
  60       -0.5374
  61       -0.5374
  62       -0.5374
  63       -0.5372
  64       -0.3511
  65       -0.3511
  66       -0.3511
  67       -0.3511
  68       -0.3324
  69       -0.3324
  70       -0.2896
  71       -0.2892
  72       -0.2892
  73       -0.2892
  74       -0.2768
  75       -0.2768
  76       -0.2768
  77       -0.2764
  78       -0.2657
  79       -0.2657
  80       -0.2657
  81       -0.2655
  82       -0.2555
  83       -0.2554
  84       -0.2554
  85       -0.2554
  86       -0.2520
  87       -0.2377
  88       -0.2377
  89        0.2815
  90        0.2816
  91        0.2816
  92        0.2816
  93        0.3030
  94        0.4154
  95        0.4155
  96        0.4155
  97        0.4155
  98        0.4216
  99        0.4498
 100        0.4498
 101        0.4498
 102        0.4499
 103        0.4893
 104        0.4893
 105        0.4893
 106        0.4894
 107        0.5378
 108        0.5378
 109        0.6722
 110        0.6722
 111        0.6723
 112        0.6723
 113        0.7124
 114        0.7124
 115        0.7124
 116        0.7124
 117        0.7938
 118        0.7938
 119        0.7939
 120        0.7940
 121        0.8015
 122        0.8015
 123        0.8016
 124        0.8016
 125        0.8136
 126        0.8136
 127        0.8138
 128        0.8139
 129        0.8454
 130        0.8565
 131        0.9023
 132        0.9023
 133        0.9023
 134        0.9024
 135        0.9465
 136        0.9465
 137        0.9466
 138        0.9466
 139        1.2025
 140        1.2670
 141        1.2670
 142        1.2670
 143        1.2670
 144        1.3113
 145        1.6771
 146        1.6771
 147        1.6842
 148        1.6847
 149        1.6847
 150        1.6847
 151        1.6847
 152        1.7144
 153        1.7144
 154        1.7144
 155        1.7144
 156        1.9087
 157        1.9087
 158        1.9406
 159        1.9406
 160        1.9406
 161        1.9406
 162        1.9407
 163        1.9407
 164        1.9540
 165        1.9543
 166        1.9554
 167        1.9557
 168        2.9264
 169        2.9264
 170        2.9264
 171        2.9265
 172        3.1856
 173        3.1857
 174        3.1857
 175        3.1857
 176        3.4404
 177        3.4405
 178        3.4405
 179        3.4405
 180        3.4640
 181        3.4640
 182        3.4640
 183        3.4641
 184        4.9512
 185        5.1978
 186        5.1978
 187        5.9348
 188        5.9348
 189        5.9348
 190        5.9348
 191        7.3946
 192        7.3946
 193        7.3946
 194        7.3946
 195        7.5173
 196        7.5173
 197        8.1145
 198        8.1145
 199        8.3441
 200        8.9376
 201        8.9376
 202        9.4323
 203        9.4323
 204        9.4326
 205        9.4327
 206        9.4342
 207        9.4342
 208        9.4344
 209        9.4344
 210        9.8678
 211        9.8678
 212       10.9541
 
  0.1666667E+00  0.0000000E+00  0.0000000E+00  0.1157407E-02
   1       -4.3855
   2       -2.8769
   3       -2.3066
   4       -2.3066
   5       -2.3066
   6       -2.3066
   7       -2.1903
   8       -2.1903
   9       -2.1903
  10       -2.1903
  11       -1.9763
  12       -1.9554
  13       -1.9335
  14       -1.9335
  15       -1.7339
  16       -1.7221
  17       -1.7221
  18       -1.4444
  19       -1.4444
  20       -1.4444
  21       -1.4444
  22       -1.4111
  23       -1.4111
  24       -1.4111
  25       -1.4111
  26       -1.2438
  27       -1.2020
  28       -1.2020
  29       -1.1150
  30       -1.1150
  31       -1.1150
  32       -1.1150
  33       -1.0896
  34       -1.0896
  35       -1.0896
  36       -1.0896
  37       -1.0337
  38       -1.0337
  39       -1.0336
  40       -1.0336
  41       -0.9055
  42       -0.9055
  43       -0.8553
  44       -0.6804
  45       -0.6804
  46       -0.6804
  47       -0.6803
  48       -0.5714
  49       -0.5714
  50       -0.5714
  51       -0.5714
  52       -0.5421
  53       -0.5415
  54       -0.5415
  55       -0.5415
  56       -0.5350
  57       -0.5349
  58       -0.5349
  59       -0.5344
  60       -0.4979
  61       -0.4979
  62       -0.4979
  63       -0.4978
  64       -0.4199
  65       -0.4199
  66       -0.4199
  67       -0.4199
  68       -0.2896
  69       -0.2895
  70       -0.2894
  71       -0.2894
  72       -0.2753
  73       -0.2753
  74       -0.2752
  75       -0.2751
  76       -0.2743
  77       -0.2345
  78       -0.2345
  79       -0.2345
  80       -0.2345
  81       -0.2171
  82       -0.2171
  83       -0.1763
  84       -0.1763
  85       -0.1763
  86       -0.1762
  87       -0.1130
  88       -0.1130
  89        0.1846
  90        0.1847
  91        0.1847
  92        0.1847
  93        0.3260
  94        0.3376
  95        0.3377
  96        0.3377
  97        0.3377
  98        0.4104
  99        0.4104
 100        0.4883
 101        0.4884
 102        0.4884
 103        0.4884
 104        0.5569
 105        0.5569
 106        0.5569
 107        0.5569
 108        0.6050
 109        0.6710
 110        0.6710
 111        0.6710
 112        0.6710
 113        0.7524
 114        0.7524
 115        0.7524
 116        0.7524
 117        0.7833
 118        0.7834
 119        0.7834
 120        0.7834
 121        0.8027
 122        0.8028
 123        0.8028
 124        0.8028
 125        0.8221
 126        0.8664
 127        0.8787
 128        0.8788
 129        0.9578
 130        0.9578
 131        0.9873
 132        0.9873
 133        0.9873
 134        0.9873
 135        1.0418
 136        1.0418
 137        1.0419
 138        1.0419
 139        1.1497
 140        1.3049
 141        1.3049
 142        1.3049
 143        1.3049
 144        1.3654
 145        1.5721
 146        1.5721
 147        1.5721
 148        1.5721
 149        1.6445
 150        1.6445
 151        1.6728
 152        1.6860
 153        1.6860
 154        1.6860
 155        1.6860
 156        1.7813
 157        1.7813
 158        1.8970
 159        1.8970
 160        1.8970
 161        1.8970
 162        1.9004
 163        1.9004
 164        1.9541
 165        1.9543
 166        1.9554
 167        1.9556
 168        2.6867
 169        2.6867
 170        2.6867
 171        2.6867
 172        3.1909
 173        3.1909
 174        3.1909
 175        3.1909
 176        3.4025
 177        3.4025
 178        3.4025
 179        3.4025
 180        3.7714
 181        3.7714
 182        3.7714
 183        3.7714
 184        4.4994
 185        5.3653
 186        5.3653
 187        6.1569
 188        6.1569
 189        6.1569
 190        6.1569
 191        7.0980
 192        7.0980
 193        7.0980
 194        7.0980
 195        7.5463
 196        7.5463
 197        8.0823
 198        8.0823
 199        8.4723
 200        8.4723
 201        8.8886
 202        9.5007
 203        9.5007
 204        9.5007
 205        9.5007
 206        9.5237
 207        9.5237
 208        9.5237
 209        9.5237
 210       10.3261
 211       10.3298
 212       10.3783
 
  0.2500000E+00  0.0000000E+00  0.0000000E+00  0.1157407E-02
   1       -4.2996
   2       -3.1445
   3       -2.2461
   4       -2.2461
   5       -2.2461
   6       -2.2461
   7       -2.1452
   8       -2.1452
   9       -2.1452
  10       -2.1452
  11       -1.9312
  12       -1.8813
  13       -1.8812
  14       -1.8749
  15       -1.7059
  16       -1.6792
  17       -1.6792
  18       -1.5615
  19       -1.5615
  20       -1.5614
  21       -1.5614
  22       -1.5420
  23       -1.5420
  24       -1.5419
  25       -1.5419
  26       -1.3328
  27       -1.2924
  28       -1.2924
  29       -1.0658
  30       -1.0658
  31       -1.0570
  32       -1.0561
  33       -1.0561
  34       -1.0561
  35       -1.0558
  36       -1.0557
  37       -1.0557
  38       -1.0549
  39       -1.0098
  40       -1.0098
  41       -1.0098
  42       -1.0098
  43       -0.7581
  44       -0.7318
  45       -0.7318
  46       -0.7318
  47       -0.7318
  48       -0.6075
  49       -0.6075
  50       -0.6075
  51       -0.6075
  52       -0.5321
  53       -0.5313
  54       -0.5313
  55       -0.5312
  56       -0.5272
  57       -0.5272
  58       -0.5272
  59       -0.5264
  60       -0.5014
  61       -0.5014
  62       -0.5013
  63       -0.5013
  64       -0.4521
  65       -0.4521
  66       -0.4521
  67       -0.4520
  68       -0.3107
  69       -0.2911
  70       -0.2906
  71       -0.2906
  72       -0.2906
  73       -0.2890
  74       -0.2889
  75       -0.2889
  76       -0.2883
  77       -0.2000
  78       -0.1999
  79       -0.1999
  80       -0.1999
  81       -0.1828
  82       -0.1828
  83       -0.0051
  84       -0.0051
  85       -0.0051
  86       -0.0051
  87        0.0779
  88        0.0779
  89        0.0779
  90        0.0780
  91        0.1189
  92        0.1189
  93        0.2447
  94        0.2448
  95        0.2448
  96        0.2448
  97        0.2918
  98        0.2918
  99        0.3786
 100        0.5510
 101        0.5511
 102        0.5511
 103        0.5511
 104        0.6334
 105        0.6334
 106        0.6334
 107        0.6334
 108        0.6694
 109        0.6694
 110        0.6694
 111        0.6694
 112        0.7171
 113        0.7171
 114        0.7171
 115        0.7172
 116        0.7842
 117        0.8127
 118        0.8127
 119        0.8127
 120        0.8127
 121        0.8311
 122        0.8312
 123        0.8312
 124        0.8312
 125        0.8830
 126        0.8859
 127        0.9741
 128        0.9741
 129        1.0914
 130        1.0917
 131        1.0917
 132        1.0917
 133        1.0994
 134        1.1036
 135        1.1036
 136        1.1498
 137        1.1498
 138        1.1498
 139        1.1498
 140        1.3846
 141        1.3846
 142        1.3846
 143        1.3846
 144        1.3997
 145        1.3997
 146        1.3997
 147        1.3997
 148        1.4182
 149        1.5909
 150        1.5909
 151        1.5937
 152        1.5937
 153        1.6396
 154        1.6396
 155        1.6396
 156        1.6397
 157        1.6541
 158        1.8276
 159        1.8276
 160        1.8276
 161        1.8276
 162        1.8354
 163        1.8354
 164        1.9541
 165        1.9544
 166        1.9553
 167        1.9556
 168        2.4608
 169        2.4608
 170        2.4608
 171        2.4608
 172        3.1997
 173        3.1998
 174        3.1998
 175        3.1998
 176        3.3572
 177        3.3572
 178        3.3572
 179        3.3572
 180        3.9385
 181        4.1103
 182        4.1103
 183        4.1103
 184        4.1103
 185        5.6194
 186        5.6194
 187        6.4935
 188        6.4935
 189        6.4935
 190        6.4935
 191        6.6944
 192        6.6944
 193        6.6944
 194        6.6944
 195        7.5930
 196        7.5930
 197        8.0117
 198        8.0117
 199        8.0311
 200        8.0311
 201        9.5852
 202        9.5854
 203        9.5854
 204        9.5854
 205        9.6055
 206        9.6694
 207        9.6694
 208        9.6695
 209        9.6718
 210        9.7496
 211        9.7496
 212        9.7496
 
  0.3333333E+00  0.0000000E+00  0.0000000E+00  0.1157407E-02
   1       -4.1803
   2       -3.3999
   3       -2.1639
   4       -2.1638
   5       -2.1638
   6       -2.1638
   7       -2.0825
   8       -2.0825
   9       -2.0825
  10       -2.0825
  11       -1.9007
  12       -1.8283
  13       -1.8102
  14       -1.8102
  15       -1.6887
  16       -1.6887
  17       -1.6887
  18       -1.6886
  19       -1.6735
  20       -1.6734
  21       -1.6734
  22       -1.6734
  23       -1.6671
  24       -1.6192
  25       -1.6192
  26       -1.4158
  27       -1.3992
  28       -1.3992
  29       -1.2097
  30       -1.2097
  31       -1.0137
  32       -1.0135
  33       -1.0135
  34       -1.0135
  35       -1.0036
  36       -1.0036
  37       -1.0036
  38       -1.0034
  39       -0.9774
  40       -0.9774
  41       -0.9774
  42       -0.9773
  43       -0.7857
  44       -0.7857
  45       -0.7857
  46       -0.7857
  47       -0.6643
  48       -0.6484
  49       -0.6484
  50       -0.6484
  51       -0.6484
  52       -0.5834
  53       -0.5834
  54       -0.5834
  55       -0.5834
  56       -0.5273
  57       -0.5267
  58       -0.5267
  59       -0.5267
  60       -0.5197
  61       -0.5196
  62       -0.5196
  63       -0.5191
  64       -0.4184
  65       -0.4184
  66       -0.4184
  67       -0.4184
  68       -0.3604
  69       -0.3107
  70       -0.3107
  71       -0.3107
  72       -0.3107
  73       -0.2745
  74       -0.2744
  75       -0.2744
  76       -0.2744
  77       -0.1523
  78       -0.1522
  79       -0.1522
  80       -0.1522
  81       -0.1351
  82       -0.1351
  83       -0.0233
  84       -0.0233
  85       -0.0233
  86       -0.0233
  87        0.1505
  88        0.1505
  89        0.1505
  90        0.1505
  91        0.1832
  92        0.1832
  93        0.2097
  94        0.2097
  95        0.2097
  96        0.2097
  97        0.3615
  98        0.3615
  99        0.4475
 100        0.6238
 101        0.6238
 102        0.6238
 103        0.6238
 104        0.6682
 105        0.6682
 106        0.6682
 107        0.6682
 108        0.6935
 109        0.6936
 110        0.6936
 111        0.6936
 112        0.7037
 113        0.7037
 114        0.7037
 115        0.7037
 116        0.7330
 117        0.8186
 118        0.8186
 119        0.8187
 120        0.8187
 121        0.8381
 122        0.8381
 123        0.8381
 124        0.8381
 125        0.9058
 126        1.0516
 127        1.0868
 128        1.0868
 129        1.1853
 130        1.1853
 131        1.1853
 132        1.1853
 133        1.2008
 134        1.2008
 135        1.2008
 136        1.2009
 137        1.2482
 138        1.2482
 139        1.2582
 140        1.2671
 141        1.2671
 142        1.2671
 143        1.2671
 144        1.3682
 145        1.3682
 146        1.4685
 147        1.5094
 148        1.5095
 149        1.5095
 150        1.5095
 151        1.5175
 152        1.5176
 153        1.5766
 154        1.5766
 155        1.5766
 156        1.5767
 157        1.6284
 158        1.7368
 159        1.7368
 160        1.7368
 161        1.7368
 162        1.7482
 163        1.7482
 164        1.9542
 165        1.9545
 166        1.9551
 167        1.9555
 168        2.2461
 169        2.2461
 170        2.2461
 171        2.2461
 172        3.2124
 173        3.2125
 174        3.2125
 175        3.2125
 176        3.3151
 177        3.3151
 178        3.3151
 179        3.3152
 180        3.3490
 181        4.4826
 182        4.4826
 183        4.4826
 184        4.4826
 185        5.9375
 186        5.9375
 187        6.2426
 188        6.2426
 189        6.2426
 190        6.2426
 191        6.9161
 192        6.9161
 193        6.9161
 194        6.9161
 195        7.5597
 196        7.5597
 197        7.6548
 198        7.6548
 199        7.9649
 200        7.9649
 201        9.1231
 202        9.1231
 203        9.1231
 204        9.1231
 205        9.6807
 206        9.6807
 207        9.6807
 208        9.6807
 209        9.8672
 210        9.8672
 211        9.8672
 212        9.8672
 
  0.4166667E+00  0.0000000E+00  0.0000000E+00  0.1157407E-02
   1       -4.0286
   2       -3.6356
   3       -2.0626
   4       -2.0626
   5       -2.0626
   6       -2.0626
   7       -2.0029
   8       -2.0029
   9       -2.0029
  10       -2.0029
  11       -1.8679
  12       -1.8217
  13       -1.8193
  14       -1.8193
  15       -1.8193
  16       -1.8188
  17       -1.7965
  18       -1.7965
  19       -1.7965
  20       -1.7965
  21       -1.7225
  22       -1.7225
  23       -1.6181
  24       -1.5421
  25       -1.5421
  26       -1.5117
  27       -1.5117
  28       -1.4917
  29       -1.3372
  30       -1.3372
  31       -0.9720
  32       -0.9717
  33       -0.9717
  34       -0.9717
  35       -0.9632
  36       -0.9632
  37       -0.9632
  38       -0.9630
  39       -0.9373
  40       -0.9372
  41       -0.9372
  42       -0.9372
  43       -0.8395
  44       -0.8395
  45       -0.8395
  46       -0.8395
  47       -0.6825
  48       -0.6825
  49       -0.6825
  50       -0.6825
  51       -0.6524
  52       -0.6524
  53       -0.6524
  54       -0.6524
  55       -0.5759
  56       -0.5230
  57       -0.5222
  58       -0.5222
  59       -0.5222
  60       -0.5173
  61       -0.5173
  62       -0.5173
  63       -0.5165
  64       -0.4222
  65       -0.3888
  66       -0.3888
  67       -0.3888
  68       -0.3888
  69       -0.3345
  70       -0.3345
  71       -0.3345
  72       -0.3345
  73       -0.2403
  74       -0.2403
  75       -0.2403
  76       -0.2403
  77       -0.1127
  78       -0.1126
  79       -0.1126
  80       -0.1125
  81       -0.0921
  82       -0.0920
  83       -0.0920
  84       -0.0920
  85       -0.0742
  86       -0.0742
  87        0.0610
  88        0.0610
  89        0.0610
  90        0.0610
  91        0.0855
  92        0.0855
  93        0.4476
  94        0.4477
  95        0.4477
  96        0.4477
  97        0.5234
  98        0.6122
  99        0.6122
 100        0.6684
 101        0.6684
 102        0.6684
 103        0.6684
 104        0.6704
 105        0.6791
 106        0.6791
 107        0.6791
 108        0.6791
 109        0.6962
 110        0.6963
 111        0.6963
 112        0.6963
 113        0.7590
 114        0.7590
 115        0.7590
 116        0.7591
 117        0.8107
 118        0.8108
 119        0.8109
 120        0.8109
 121        0.8147
 122        0.8147
 123        0.8149
 124        0.8150
 125        0.9345
 126        0.9462
 127        0.9462
 128        0.9462
 129        0.9462
 130        1.0080
 131        1.1222
 132        1.1222
 133        1.2054
 134        1.2054
 135        1.3079
 136        1.3079
 137        1.3079
 138        1.3079
 139        1.3884
 140        1.3884
 141        1.3894
 142        1.3894
 143        1.3895
 144        1.3895
 145        1.4264
 146        1.4264
 147        1.4987
 148        1.4988
 149        1.4988
 150        1.4988
 151        1.5157
 152        1.5964
 153        1.6298
 154        1.6298
 155        1.6298
 156        1.6298
 157        1.6422
 158        1.6422
 159        1.6679
 160        1.6679
 161        1.6679
 162        1.6679
 163        1.7068
 164        1.9543
 165        1.9547
 166        1.9550
 167        1.9555
 168        2.0414
 169        2.0414
 170        2.0414
 171        2.0414
 172        2.7676
 173        3.2296
 174        3.2296
 175        3.2296
 176        3.2296
 177        3.2800
 178        3.2800
 179        3.2800
 180        3.2801
 181        4.8879
 182        4.8879
 183        4.8879
 184        4.8879
 185        5.7781
 186        5.7781
 187        5.7781
 188        5.7781
 189        6.3016
 190        6.3016
 191        7.1204
 192        7.1204
 193        7.4033
 194        7.4033
 195        7.4033
 196        7.4033
 197        7.7278
 198        7.7278
 199        7.8885
 200        7.8885
 201        8.5166
 202        8.5166
 203        8.5167
 204        8.5167
 205        9.7897
 206        9.7897
 207        9.7897
 208        9.7897
 209       10.0673
 210       10.0797
 211       10.0814
 212       10.1054
 
  0.5000000E+00  0.0000000E+00  0.0000000E+00  0.5787037E-03
   1       -3.8477
   2       -3.8448
   3       -1.9492
   4       -1.9468
   5       -1.9466
   6       -1.9466
   7       -1.9455
   8       -1.9455
   9       -1.9452
  10       -1.9430
  11       -1.9085
  12       -1.9085
  13       -1.9080
  14       -1.9079
  15       -1.9063
  16       -1.9061
  17       -1.9057
  18       -1.9057
  19       -1.8392
  20       -1.8378
  21       -1.6231
  22       -1.6223
  23       -1.6208
  24       -1.6201
  25       -1.5604
  26       -1.5584
  27       -1.4492
  28       -1.4492
  29       -1.4470
  30       -1.4470
  31       -0.9511
  32       -0.9495
  33       -0.9494
  34       -0.9494
  35       -0.9494
  36       -0.9494
  37       -0.9493
  38       -0.9478
  39       -0.8922
  40       -0.8919
  41       -0.8919
  42       -0.8909
  43       -0.8905
  44       -0.8896
  45       -0.8896
  46       -0.8893
  47       -0.6901
  48       -0.6899
  49       -0.6899
  50       -0.6895
  51       -0.6891
  52       -0.6887
  53       -0.6887
  54       -0.6885
  55       -0.5208
  56       -0.5191
  57       -0.5191
  58       -0.5189
  59       -0.5184
  60       -0.5182
  61       -0.5182
  62       -0.5167
  63       -0.4949
  64       -0.4941
  65       -0.3614
  66       -0.3611
  67       -0.3610
  68       -0.3610
  69       -0.3606
  70       -0.3606
  71       -0.3605
  72       -0.3603
  73       -0.1868
  74       -0.1868
  75       -0.1867
  76       -0.1860
  77       -0.1856
  78       -0.1850
  79       -0.1848
  80       -0.1848
  81       -0.0224
  82       -0.0219
  83       -0.0219
  84       -0.0208
  85       -0.0203
  86       -0.0193
  87       -0.0193
  88       -0.0187
  89       -0.0015
  90       -0.0015
  91        0.0005
  92        0.0005
  93        0.5987
  94        0.6000
  95        0.6709
  96        0.6709
  97        0.6712
  98        0.6712
  99        0.6715
 100        0.6716
 101        0.6719
 102        0.6719
 103        0.6957
 104        0.6960
 105        0.6963
 106        0.6963
 107        0.6968
 108        0.6968
 109        0.6970
 110        0.6975
 111        0.7596
 112        0.7605
 113        0.7605
 114        0.7606
 115        0.7612
 116        0.7614
 117        0.7614
 118        0.7623
 119        0.7950
 120        0.7952
 121        0.7958
 122        0.7958
 123        0.7960
 124        0.7960
 125        0.7966
 126        0.7969
 127        0.8668
 128        0.8668
 129        0.8683
 130        0.8683
 131        0.9679
 132        0.9695
 133        1.3205
 134        1.3206
 135        1.3210
 136        1.3211
 137        1.4072
 138        1.4076
 139        1.4076
 140        1.4079
 141        1.4086
 142        1.4089
 143        1.4089
 144        1.4094
 145        1.5107
 146        1.5107
 147        1.5118
 148        1.5119
 149        1.5123
 150        1.5124
 151        1.5134
 152        1.5134
 153        1.5207
 154        1.5207
 155        1.5215
 156        1.5215
 157        1.5584
 158        1.5587
 159        1.8466
 160        1.8471
 161        1.8471
 162        1.8474
 163        1.8478
 164        1.8480
 165        1.8480
 166        1.8486
 167        1.9543
 168        1.9548
 169        1.9549
 170        1.9554
 171        2.2150
 172        2.2151
 173        3.2499
 174        3.2508
 175        3.2513
 176        3.2513
 177        3.2523
 178        3.2523
 179        3.2528
 180        3.2537
 181        5.3205
 182        5.3205
 183        5.3216
 184        5.3220
 185        5.3225
 186        5.3229
 187        5.3241
 188        5.3241
 189        6.6976
 190        6.6976
 191        6.7001
 192        6.7001
 193        7.8073
 194        7.8075
 195        7.8076
 196        7.8078
 197        7.9380
 198        7.9380
 199        7.9399
 200        7.9402
 201        7.9406
 202        7.9409
 203        7.9428
 204        7.9428
 205        9.9150
 206        9.9167
 207        9.9167
 208        9.9168
 209        9.9171
 210        9.9172
 211        9.9172
 212        9.9190
 
  0.0000000E+00  0.8333333E-01  0.0000000E+00  0.2314815E-02
   1       -4.4373
   2       -2.6087
   3       -2.3459
   4       -2.3436
   5       -2.3436
   6       -2.3414
   7       -2.2175
   8       -2.2175
   9       -2.2175
  10       -2.2174
  11       -2.1391
  12       -1.9708
  13       -1.9654
  14       -1.9654
  15       -1.7508
  16       -1.7479
  17       -1.7479
  18       -1.3437
  19       -1.3419
  20       -1.3419
  21       -1.3401
  22       -1.3025
  23       -1.3016
  24       -1.3014
  25       -1.3005
  26       -1.1818
  27       -1.1803
  28       -1.1803
  29       -1.1788
  30       -1.1501
  31       -1.1404
  32       -1.1403
  33       -1.1122
  34       -1.1110
  35       -1.1110
  36       -1.1098
  37       -1.0496
  38       -1.0482
  39       -1.0481
  40       -1.0467
  41       -0.9542
  42       -0.7296
  43       -0.7296
  44       -0.6354
  45       -0.6340
  46       -0.6340
  47       -0.6326
  48       -0.5656
  49       -0.5639
  50       -0.5638
  51       -0.5627
  52       -0.5604
  53       -0.5604
  54       -0.5590
  55       -0.5585
  56       -0.5481
  57       -0.5469
  58       -0.5467