 vasp.4.6.28 25Jul05 complex 
 executed on             LinuxIFC date 2017.01.11  02:54:14
 running on    4 nodes
 distr:  one band on    1 nodes,    4 groups


--------------------------------------------------------------------------------------------------------


 INCAR:
 POTCAR:   PAW_PBE Au 06Sep2000                   
 POTCAR:   PAW_PBE Au 06Sep2000                   
   VRHFIN =Au: s1d10                                                            
   LEXCH  = PE                                                                  
   EATOM  =   926.0567 eV,   68.0632 Ry                                         
                                                                                
   TITEL  = PAW_PBE Au 06Sep2000                                                
   LULTRA =        F    use ultrasoft PP ?                                      
   IUNSCR =        1    unscreen: 0-lin 1-nonlin 2-no                           
   RPACOR =    2.330    partial core radius                                     
   POMASS =  196.966; ZVAL   =   11.000    mass and valenz                      
   RCORE  =    2.500    outmost cutoff radius                                   
   RWIGS  =    2.840; RWIGS  =    1.503    wigner-seitz radius (au A)           
   ENMAX  =  229.948; ENMIN  =  172.461 eV                                      
   RCLOC  =    1.964    cutoff for local pot                                    
   LCOR   =        T    correct aug charges                                     
   LPAW   =        T    paw PP                                                  
   EAUG   =  356.670                                                            
   DEXC   =    -.025                                                            
   RMAX   =    3.041    core radius for proj-oper                               
   RAUG   =    1.300    factor for augmentation sphere                          
   RDEP   =    2.598    radius for radial grids                                 
   QCUT   =   -4.111; QGAM   =    8.222    optimization parameters              
                                                                                
   Description                                                                  
     l     E      TYP  RCUT    TYP  RCUT                                        
     2   .000     23  2.500                                                     
     2   .000     23  2.500                                                     
     0   .000     23  2.500                                                     
     0   .000     23  2.500                                                     
     1  -.200     23  2.500                                                     
     1   .000     23  2.500                                                     
     3   .000      7   .000                                                     
  local pseudopotential read in
  partial core-charges read in
  atomic valenz-charges read in
  non local Contribution for L=           2  read in
    real space projection operators read in
  non local Contribution for L=           2  read in
    real space projection operators read in
  non local Contribution for L=           0  read in
    real space projection operators read in
  non local Contribution for L=           0  read in
    real space projection operators read in
  non local Contribution for L=           1  read in
    real space projection operators read in
  non local Contribution for L=           1  read in
    real space projection operators read in
    PAW grid and wavefunctions read in
 
   number of l-projection  operators is LMAX  =           6
   number of lm-projection operators is LMMAX =          18
 

 ----------------------------------------------------------------------------- 
|                                                                             |
|  ADVICE TO THIS USER RUNNING 'VASP/VAMP'   (HEAR YOUR MASTER'S VOICE ...):  |
|                                                                             |
|      You have a (more or less) 'large supercell' and for larger cells       |
|      it might be more efficient to use real space projection operators      |
|      So try LREAL= Auto  in the INCAR   file.                               |
|      Mind: If you want to do an extremely accurate calculations keep the    |
|      reciprocal projection scheme          (i.e. LREAL=.FALSE.)             |
|                                                                             |
 ----------------------------------------------------------------------------- 

 PAW_PBE Au 06Sep2000                   :
 energy of atom  1       EATOM= -926.0567
 kinetic energy error for atom=    0.0008 (will be added to EATOM!!)
 
 EXHCAR: internal setup
 exchange correlation table for  LEXCH =        8
   RHO(1)=    0.500       N(1)  =     2000
   RHO(2)=  100.500       N(2)  =     4000
 
 POSCAR: Au                                      
  positions in direct lattice
  No initial velocities read in
 


--------------------------------------------------------------------------------------------------------


 ion  position               nearest neighbor table
   1  0.001  0.000  0.000-   9 3.06  11 3.06  17 3.06  21 3.06  25 3.07  27 3.07  29 3.07  31 3.07
                            10 3.08  18 3.08  12 3.08  22 3.08
   2  0.500  0.000  0.000-   9 3.07  10 3.07  11 3.07  12 3.07  17 3.07  18 3.07  21 3.07  22 3.07
                            26 3.07  28 3.07  30 3.07  32 3.07
   3  0.000  0.500  0.000-   9 3.07  10 3.07  11 3.07  12 3.07  19 3.07  20 3.07  23 3.07  24 3.07
                            25 3.07  27 3.07  29 3.07  31 3.07
   4  0.500  0.500  0.000-   9 3.07  10 3.07  11 3.07  12 3.07  19 3.07  20 3.07  23 3.07  24 3.07
                            26 3.07  28 3.07  30 3.07  32 3.07
   5  0.000  0.000  0.500-  13 3.07  14 3.07  15 3.07  16 3.07  17 3.07  18 3.07  21 3.07  22 3.07
                            25 3.07  27 3.07  29 3.07  31 3.07
   6  0.500  0.000  0.500-  13 3.07  14 3.07  15 3.07  16 3.07  17 3.07  18 3.07  21 3.07  22 3.07
                            26 3.07  28 3.07  30 3.07  32 3.07
   7  0.000  0.500  0.500-  13 3.07  14 3.07  15 3.07  16 3.07  19 3.07  20 3.07  23 3.07  24 3.07
                            25 3.07  27 3.07  29 3.07  31 3.07
   8  0.500  0.500  0.500-  13 3.07  14 3.07  15 3.07  16 3.07  19 3.07  20 3.07  23 3.07  24 3.07
                            26 3.07  28 3.07  30 3.07  32 3.07
   9  0.250  0.250  0.000-   1 3.06   2 3.07   3 3.07   4 3.07  17 3.07  19 3.07  21 3.07  23 3.07
                            25 3.07  26 3.07  29 3.07  30 3.07
  10  0.750  0.250  0.000-   2 3.07   3 3.07   4 3.07  18 3.07  20 3.07  22 3.07  24 3.07  25 3.07
                            26 3.07  29 3.07  30 3.07   1 3.08
  11  0.250  0.750  0.000-   1 3.06   2 3.07   3 3.07   4 3.07  17 3.07  19 3.07  21 3.07  23 3.07
                            27 3.07  28 3.07  31 3.07  32 3.07
  12  0.750  0.750  0.000-   2 3.07   3 3.07   4 3.07  18 3.07  20 3.07  22 3.07  24 3.07  27 3.07
                            28 3.07  31 3.07  32 3.07   1 3.08
  13  0.250  0.250  0.500-   5 3.07   6 3.07   7 3.07   8 3.07  17 3.07  19 3.07  21 3.07  23 3.07
                            25 3.07  26 3.07  29 3.07  30 3.07
  14  0.750  0.250  0.500-   5 3.07   6 3.07   7 3.07   8 3.07  18 3.07  20 3.07  22 3.07  24 3.07
                            25 3.07  26 3.07  29 3.07  30 3.07
  15  0.250  0.750  0.500-   5 3.07   6 3.07   7 3.07   8 3.07  17 3.07  19 3.07  21 3.07  23 3.07
                            27 3.07  28 3.07  31 3.07  32 3.07
  16  0.750  0.750  0.500-   5 3.07   6 3.07   7 3.07   8 3.07  18 3.07  20 3.07  22 3.07  24 3.07
                            27 3.07  28 3.07  31 3.07  32 3.07
  17  0.250  0.000  0.250-   1 3.06   2 3.07   5 3.07   6 3.07   9 3.07  11 3.07  13 3.07  15 3.07
                            25 3.07  26 3.07  27 3.07  28 3.07
  18  0.750  0.000  0.250-   2 3.07   5 3.07   6 3.07  10 3.07  12 3.07  14 3.07  16 3.07  25 3.07
                            26 3.07  27 3.07  28 3.07   1 3.08
  19  0.250  0.500  0.250-   3 3.07   4 3.07   7 3.07   8 3.07   9 3.07  11 3.07  13 3.07  15 3.07
                            25 3.07  26 3.07  27 3.07  28 3.07
  20  0.750  0.500  0.250-   3 3.07   4 3.07   7 3.07   8 3.07  10 3.07  12 3.07  14 3.07  16 3.07
                            25 3.07  26 3.07  27 3.07  28 3.07
  21  0.250  0.000  0.750-   1 3.06   2 3.07   5 3.07   6 3.07   9 3.07  11 3.07  13 3.07  15 3.07
                            29 3.07  30 3.07  31 3.07  32 3.07
  22  0.750  0.000  0.750-   2 3.07   5 3.07   6 3.07  10 3.07  12 3.07  14 3.07  16 3.07  29 3.07
                            30 3.07  31 3.07  32 3.07   1 3.08
  23  0.250  0.500  0.750-   3 3.07   4 3.07   7 3.07   8 3.07   9 3.07  11 3.07  13 3.07  15 3.07
                            29 3.07  30 3.07  31 3.07  32 3.07
  24  0.750  0.500  0.750-   3 3.07   4 3.07   7 3.07   8 3.07  10 3.07  12 3.07  14 3.07  16 3.07
                            29 3.07  30 3.07  31 3.07  32 3.07
  25  0.000  0.250  0.250-   3 3.07   5 3.07   7 3.07   9 3.07  10 3.07  13 3.07  14 3.07  17 3.07
                            18 3.07  19 3.07  20 3.07   1 3.07
  26  0.500  0.250  0.250-   2 3.07   4 3.07   6 3.07   8 3.07   9 3.07  10 3.07  13 3.07  14 3.07
                            17 3.07  18 3.07  19 3.07  20 3.07
  27  0.000  0.750  0.250-   3 3.07   5 3.07   7 3.07  11 3.07  12 3.07  15 3.07  16 3.07  17 3.07
                            18 3.07  19 3.07  20 3.07   1 3.07
  28  0.500  0.750  0.250-   2 3.07   4 3.07   6 3.07   8 3.07  11 3.07  12 3.07  15 3.07  16 3.07
                            17 3.07  18 3.07  19 3.07  20 3.07
  29  0.000  0.250  0.750-   3 3.07   5 3.07   7 3.07   9 3.07  10 3.07  13 3.07  14 3.07  21 3.07
                            22 3.07  23 3.07  24 3.07   1 3.07
  30  0.500  0.250  0.750-   2 3.07   4 3.07   6 3.07   8 3.07   9 3.07  10 3.07  13 3.07  14 3.07
                            21 3.07  22 3.07  23 3.07  24 3.07
  31  0.000  0.750  0.750-   3 3.07   5 3.07   7 3.07  11 3.07  12 3.07  15 3.07  16 3.07  21 3.07
                            22 3.07  23 3.07  24 3.07   1 3.07
  32  0.500  0.750  0.750-   2 3.07   4 3.07   6 3.07   8 3.07  11 3.07  12 3.07  15 3.07  16 3.07
                            21 3.07  22 3.07  23 3.07  24 3.07
 
  LATTYP: Found a simple cubic cell.
 ALAT       =     8.6795319568
  
  Lattice vectors:
  
 A1 = (   8.6795319568,   0.0000000000,   0.0000000000)
 A2 = (   0.0000000000,   8.6795319568,   0.0000000000)
 A3 = (   0.0000000000,   0.0000000000,   8.6795319568)
 Subroutine PRICEL returns:
 Original cell was already a primitive cell.
 

Analysis of symmetry for initial positions (statically):

 Routine SETGRP: Setting up the symmetry group for a 
 simple cubic supercell.


 Subroutine GETGRP returns: Found  8 space group operations
 (whereof  8 operations were pure point group operations)
 out of a pool of 48 trial point group operations.


The static configuration has the point symmetry C_4v.

Analysis of symmetry for dynamics (positions and initial velocities):

 Subroutine DYNSYM returns: Found  8 space group operations
 (whereof  8 operations were pure point group operations)
 out of a pool of  8 trial space group operations
 (whereof  8 operations were pure point group operations)
 and found also     1 'primitive' translations


The dynamic configuration has the point symmetry C_4v.
 
 
 KPOINTS: Automatic mesh                          

Automatic generation of k-mesh.
 
 Subroutine IBZKPT returns following result:
 ===========================================
 
 Found    196 irreducible k-points:
 
 Following reciprocal coordinates:
            Coordinates               Weight
  0.000000  0.000000  0.000000      1.000000
  0.083333  0.000000  0.000000      2.000000
  0.166667  0.000000  0.000000      2.000000
  0.250000  0.000000  0.000000      2.000000
  0.333333  0.000000  0.000000      2.000000
  0.416667  0.000000  0.000000      2.000000
  0.500000  0.000000  0.000000      1.000000
  0.000000  0.083333  0.000000      4.000000
  0.083333  0.083333  0.000000      8.000000
  0.166667  0.083333  0.000000      8.000000
  0.250000  0.083333  0.000000      8.000000
  0.333333  0.083333  0.000000      8.000000
  0.416667  0.083333  0.000000      8.000000
  0.500000  0.083333  0.000000      4.000000
  0.000000  0.166667  0.000000      4.000000
  0.083333  0.166667  0.000000      8.000000
  0.166667  0.166667  0.000000      8.000000
  0.250000  0.166667  0.000000      8.000000
  0.333333  0.166667  0.000000      8.000000
  0.416667  0.166667  0.000000      8.000000
  0.500000  0.166667  0.000000      4.000000
  0.000000  0.250000  0.000000      4.000000
  0.083333  0.250000  0.000000      8.000000
  0.166667  0.250000  0.000000      8.000000
  0.250000  0.250000  0.000000      8.000000
  0.333333  0.250000  0.000000      8.000000
  0.416667  0.250000  0.000000      8.000000
  0.500000  0.250000  0.000000      4.000000
  0.000000  0.333333  0.000000      4.000000
  0.083333  0.333333  0.000000      8.000000
  0.166667  0.333333  0.000000      8.000000
  0.250000  0.333333  0.000000      8.000000
  0.333333  0.333333  0.000000      8.000000
  0.416667  0.333333  0.000000      8.000000
  0.500000  0.333333  0.000000      4.000000
  0.000000  0.416667  0.000000      4.000000
  0.083333  0.416667  0.000000      8.000000
  0.166667  0.416667  0.000000      8.000000
  0.250000  0.416667  0.000000      8.000000
  0.333333  0.416667  0.000000      8.000000
  0.416667  0.416667  0.000000      8.000000
  0.500000  0.416667  0.000000      4.000000
  0.000000  0.500000  0.000000      2.000000
  0.083333  0.500000  0.000000      4.000000
  0.166667  0.500000  0.000000      4.000000
  0.250000  0.500000  0.000000      4.000000
  0.333333  0.500000  0.000000      4.000000
  0.416667  0.500000  0.000000      4.000000
  0.500000  0.500000  0.000000      2.000000
  0.000000  0.083333  0.083333      4.000000
  0.083333  0.083333  0.083333      8.000000
  0.166667  0.083333  0.083333      8.000000
  0.250000  0.083333  0.083333      8.000000
  0.333333  0.083333  0.083333      8.000000
  0.416667  0.083333  0.083333      8.000000
  0.500000  0.083333  0.083333      4.000000
  0.000000  0.166667  0.083333      8.000000
  0.083333  0.166667  0.083333     16.000000
  0.166667  0.166667  0.083333     16.000000
  0.250000  0.166667  0.083333     16.000000
  0.333333  0.166667  0.083333     16.000000
  0.416667  0.166667  0.083333     16.000000
  0.500000  0.166667  0.083333      8.000000
  0.000000  0.250000  0.083333      8.000000
  0.083333  0.250000  0.083333     16.000000
  0.166667  0.250000  0.083333     16.000000
  0.250000  0.250000  0.083333     16.000000
  0.333333  0.250000  0.083333     16.000000
  0.416667  0.250000  0.083333     16.000000
  0.500000  0.250000  0.083333      8.000000
  0.000000  0.333333  0.083333      8.000000
  0.083333  0.333333  0.083333     16.000000
  0.166667  0.333333  0.083333     16.000000
  0.250000  0.333333  0.083333     16.000000
  0.333333  0.333333  0.083333     16.000000
  0.416667  0.333333  0.083333     16.000000
  0.500000  0.333333  0.083333      8.000000
  0.000000  0.416667  0.083333      8.000000
  0.083333  0.416667  0.083333     16.000000
  0.166667  0.416667  0.083333     16.000000
  0.250000  0.416667  0.083333     16.000000
  0.333333  0.416667  0.083333     16.000000
  0.416667  0.416667  0.083333     16.000000
  0.500000  0.416667  0.083333      8.000000
  0.000000  0.500000  0.083333      4.000000
  0.083333  0.500000  0.083333      8.000000
  0.166667  0.500000  0.083333      8.000000
  0.250000  0.500000  0.083333      8.000000
  0.333333  0.500000  0.083333      8.000000
  0.416667  0.500000  0.083333      8.000000
  0.500000  0.500000  0.083333      4.000000
  0.000000  0.166667  0.166667      4.000000
  0.083333  0.166667  0.166667      8.000000
  0.166667  0.166667  0.166667      8.000000
  0.250000  0.166667  0.166667      8.000000
  0.333333  0.166667  0.166667      8.000000
  0.416667  0.166667  0.166667      8.000000
  0.500000  0.166667  0.166667      4.000000
  0.000000  0.250000  0.166667      8.000000
  0.083333  0.250000  0.166667     16.000000
  0.166667  0.250000  0.166667     16.000000
  0.250000  0.250000  0.166667     16.000000
  0.333333  0.250000  0.166667     16.000000
  0.416667  0.250000  0.166667     16.000000
  0.500000  0.250000  0.166667      8.000000
  0.000000  0.333333  0.166667      8.000000
  0.083333  0.333333  0.166667     16.000000
  0.166667  0.333333  0.166667     16.000000
  0.250000  0.333333  0.166667     16.000000
  0.333333  0.333333  0.166667     16.000000
  0.416667  0.333333  0.166667     16.000000
  0.500000  0.333333  0.166667      8.000000
  0.000000  0.416667  0.166667      8.000000
  0.083333  0.416667  0.166667     16.000000
  0.166667  0.416667  0.166667     16.000000
  0.250000  0.416667  0.166667     16.000000
  0.333333  0.416667  0.166667     16.000000
  0.416667  0.416667  0.166667     16.000000
  0.500000  0.416667  0.166667      8.000000
  0.000000  0.500000  0.166667      4.000000
  0.083333  0.500000  0.166667      8.000000
  0.166667  0.500000  0.166667      8.000000
  0.250000  0.500000  0.166667      8.000000
  0.333333  0.500000  0.166667      8.000000
  0.416667  0.500000  0.166667      8.000000
  0.500000  0.500000  0.166667      4.000000
  0.000000  0.250000  0.250000      4.000000
  0.083333  0.250000  0.250000      8.000000
  0.166667  0.250000  0.250000      8.000000
  0.250000  0.250000  0.250000      8.000000
  0.333333  0.250000  0.250000      8.000000
  0.416667  0.250000  0.250000      8.000000
  0.500000  0.250000  0.250000      4.000000
  0.000000  0.333333  0.250000      8.000000
  0.083333  0.333333  0.250000     16.000000
  0.166667  0.333333  0.250000     16.000000
  0.250000  0.333333  0.250000     16.000000
  0.333333  0.333333  0.250000     16.000000
  0.416667  0.333333  0.250000     16.000000
  0.500000  0.333333  0.250000      8.000000
  0.000000  0.416667  0.250000      8.000000
  0.083333  0.416667  0.250000     16.000000
  0.166667  0.416667  0.250000     16.000000
  0.250000  0.416667  0.250000     16.000000
  0.333333  0.416667  0.250000     16.000000
  0.416667  0.416667  0.250000     16.000000
  0.500000  0.416667  0.250000      8.000000
  0.000000  0.500000  0.250000      4.000000
  0.083333  0.500000  0.250000      8.000000
  0.166667  0.500000  0.250000      8.000000
  0.250000  0.500000  0.250000      8.000000
  0.333333  0.500000  0.250000      8.000000
  0.416667  0.500000  0.250000      8.000000
  0.500000  0.500000  0.250000      4.000000
  0.000000  0.333333  0.333333      4.000000
  0.083333  0.333333  0.333333      8.000000
  0.166667  0.333333  0.333333      8.000000
  0.250000  0.333333  0.333333      8.000000
  0.333333  0.333333  0.333333      8.000000
  0.416667  0.333333  0.333333      8.000000
  0.500000  0.333333  0.333333      4.000000
  0.000000  0.416667  0.333333      8.000000
  0.083333  0.416667  0.333333     16.000000
  0.166667  0.416667  0.333333     16.000000
  0.250000  0.416667  0.333333     16.000000
  0.333333  0.416667  0.333333     16.000000
  0.416667  0.416667  0.333333     16.000000
  0.500000  0.416667  0.333333      8.000000
  0.000000  0.500000  0.333333      4.000000
  0.083333  0.500000  0.333333      8.000000
  0.166667  0.500000  0.333333      8.000000
  0.250000  0.500000  0.333333      8.000000
  0.333333  0.500000  0.333333      8.000000
  0.416667  0.500000  0.333333      8.000000
  0.500000  0.500000  0.333333      4.000000
  0.000000  0.416667  0.416667      4.000000
  0.083333  0.416667  0.416667      8.000000
  0.166667  0.416667  0.416667      8.000000
  0.250000  0.416667  0.416667      8.000000
  0.333333  0.416667  0.416667      8.000000
  0.416667  0.416667  0.416667      8.000000
  0.500000  0.416667  0.416667      4.000000
  0.000000  0.500000  0.416667      4.000000
  0.083333  0.500000  0.416667      8.000000
  0.166667  0.500000  0.416667      8.000000
  0.250000  0.500000  0.416667      8.000000
  0.333333  0.500000  0.416667      8.000000
  0.416667  0.500000  0.416667      8.000000
  0.500000  0.500000  0.416667      4.000000
  0.000000  0.500000  0.500000      1.000000
  0.083333  0.500000  0.500000      2.000000
  0.166667  0.500000  0.500000      2.000000
  0.250000  0.500000  0.500000      2.000000
  0.333333  0.500000  0.500000      2.000000
  0.416667  0.500000  0.500000      2.000000
  0.500000  0.500000  0.500000      1.000000
 
 Following cartesian coordinates:
            Coordinates               Weight
  0.000000  0.000000  0.000000      1.000000
  0.009601  0.000000  0.000000      2.000000
  0.019202  0.000000  0.000000      2.000000
  0.028803  0.000000  0.000000      2.000000
  0.038405  0.000000  0.000000      2.000000
  0.048006  0.000000  0.000000      2.000000
  0.057607  0.000000  0.000000      1.000000
  0.000000  0.009601  0.000000      4.000000
  0.009601  0.009601  0.000000      8.000000
  0.019202  0.009601  0.000000      8.000000
  0.028803  0.009601  0.000000      8.000000
  0.038405  0.009601  0.000000      8.000000
  0.048006  0.009601  0.000000      8.000000
  0.057607  0.009601  0.000000      4.000000
  0.000000  0.019202  0.000000      4.000000
  0.009601  0.019202  0.000000      8.000000
  0.019202  0.019202  0.000000      8.000000
  0.028803  0.019202  0.000000      8.000000
  0.038405  0.019202  0.000000      8.000000
  0.048006  0.019202  0.000000      8.000000
  0.057607  0.019202  0.000000      4.000000
  0.000000  0.028803  0.000000      4.000000
  0.009601  0.028803  0.000000      8.000000
  0.019202  0.028803  0.000000      8.000000
  0.028803  0.028803  0.000000      8.000000
  0.038405  0.028803  0.000000      8.000000
  0.048006  0.028803  0.000000      8.000000
  0.057607  0.028803  0.000000      4.000000
  0.000000  0.038405  0.000000      4.000000
  0.009601  0.038405  0.000000      8.000000
  0.019202  0.038405  0.000000      8.000000
  0.028803  0.038405  0.000000      8.000000
  0.038405  0.038405  0.000000      8.000000
  0.048006  0.038405  0.000000      8.000000
  0.057607  0.038405  0.000000      4.000000
  0.000000  0.048006  0.000000      4.000000
  0.009601  0.048006  0.000000      8.000000
  0.019202  0.048006  0.000000      8.000000
  0.028803  0.048006  0.000000      8.000000
  0.038405  0.048006  0.000000      8.000000
  0.048006  0.048006  0.000000      8.000000
  0.057607  0.048006  0.000000      4.000000
  0.000000  0.057607  0.000000      2.000000
  0.009601  0.057607  0.000000      4.000000
  0.019202  0.057607  0.000000      4.000000
  0.028803  0.057607  0.000000      4.000000
  0.038405  0.057607  0.000000      4.000000
  0.048006  0.057607  0.000000      4.000000
  0.057607  0.057607  0.000000      2.000000
  0.000000  0.009601  0.009601      4.000000
  0.009601  0.009601  0.009601      8.000000
  0.019202  0.009601  0.009601      8.000000
  0.028803  0.009601  0.009601      8.000000
  0.038405  0.009601  0.009601      8.000000
  0.048006  0.009601  0.009601      8.000000
  0.057607  0.009601  0.009601      4.000000
  0.000000  0.019202  0.009601      8.000000
  0.009601  0.019202  0.009601     16.000000
  0.019202  0.019202  0.009601     16.000000
  0.028803  0.019202  0.009601     16.000000
  0.038405  0.019202  0.009601     16.000000
  0.048006  0.019202  0.009601     16.000000
  0.057607  0.019202  0.009601      8.000000
  0.000000  0.028803  0.009601      8.000000
  0.009601  0.028803  0.009601     16.000000
  0.019202  0.028803  0.009601     16.000000
  0.028803  0.028803  0.009601     16.000000
  0.038405  0.028803  0.009601     16.000000
  0.048006  0.028803  0.009601     16.000000
  0.057607  0.028803  0.009601      8.000000
  0.000000  0.038405  0.009601      8.000000
  0.009601  0.038405  0.009601     16.000000
  0.019202  0.038405  0.009601     16.000000
  0.028803  0.038405  0.009601     16.000000
  0.038405  0.038405  0.009601     16.000000
  0.048006  0.038405  0.009601     16.000000
  0.057607  0.038405  0.009601      8.000000
  0.000000  0.048006  0.009601      8.000000
  0.009601  0.048006  0.009601     16.000000
  0.019202  0.048006  0.009601     16.000000
  0.028803  0.048006  0.009601     16.000000
  0.038405  0.048006  0.009601     16.000000
  0.048006  0.048006  0.009601     16.000000
  0.057607  0.048006  0.009601      8.000000
  0.000000  0.057607  0.009601      4.000000
  0.009601  0.057607  0.009601      8.000000
  0.019202  0.057607  0.009601      8.000000
  0.028803  0.057607  0.009601      8.000000
  0.038405  0.057607  0.009601      8.000000
  0.048006  0.057607  0.009601      8.000000
  0.057607  0.057607  0.009601      4.000000
  0.000000  0.019202  0.019202      4.000000
  0.009601  0.019202  0.019202      8.000000
  0.019202  0.019202  0.019202      8.000000
  0.028803  0.019202  0.019202      8.000000
  0.038405  0.019202  0.019202      8.000000
  0.048006  0.019202  0.019202      8.000000
  0.057607  0.019202  0.019202      4.000000
  0.000000  0.028803  0.019202      8.000000
  0.009601  0.028803  0.019202     16.000000
  0.019202  0.028803  0.019202     16.000000
  0.028803  0.028803  0.019202     16.000000
  0.038405  0.028803  0.019202     16.000000
  0.048006  0.028803  0.019202     16.000000
  0.057607  0.028803  0.019202      8.000000
  0.000000  0.038405  0.019202      8.000000
  0.009601  0.038405  0.019202     16.000000
  0.019202  0.038405  0.019202     16.000000
  0.028803  0.038405  0.019202     16.000000
  0.038405  0.038405  0.019202     16.000000
  0.048006  0.038405  0.019202     16.000000
  0.057607  0.038405  0.019202      8.000000
  0.000000  0.048006  0.019202      8.000000
  0.009601  0.048006  0.019202     16.000000
  0.019202  0.048006  0.019202     16.000000
  0.028803  0.048006  0.019202     16.000000
  0.038405  0.048006  0.019202     16.000000
  0.048006  0.048006  0.019202     16.000000
  0.057607  0.048006  0.019202      8.000000
  0.000000  0.057607  0.019202      4.000000
  0.009601  0.057607  0.019202      8.000000
  0.019202  0.057607  0.019202      8.000000
  0.028803  0.057607  0.019202      8.000000
  0.038405  0.057607  0.019202      8.000000
  0.048006  0.057607  0.019202      8.000000
  0.057607  0.057607  0.019202      4.000000
  0.000000  0.028803  0.028803      4.000000
  0.009601  0.028803  0.028803      8.000000
  0.019202  0.028803  0.028803      8.000000
  0.028803  0.028803  0.028803      8.000000
  0.038405  0.028803  0.028803      8.000000
  0.048006  0.028803  0.028803      8.000000
  0.057607  0.028803  0.028803      4.000000
  0.000000  0.038405  0.028803      8.000000
  0.009601  0.038405  0.028803     16.000000
  0.019202  0.038405  0.028803     16.000000
  0.028803  0.038405  0.028803     16.000000
  0.038405  0.038405  0.028803     16.000000
  0.048006  0.038405  0.028803     16.000000
  0.057607  0.038405  0.028803      8.000000
  0.000000  0.048006  0.028803      8.000000
  0.009601  0.048006  0.028803     16.000000
  0.019202  0.048006  0.028803     16.000000
  0.028803  0.048006  0.028803     16.000000
  0.038405  0.048006  0.028803     16.000000
  0.048006  0.048006  0.028803     16.000000
  0.057607  0.048006  0.028803      8.000000
  0.000000  0.057607  0.028803      4.000000
  0.009601  0.057607  0.028803      8.000000
  0.019202  0.057607  0.028803      8.000000
  0.028803  0.057607  0.028803      8.000000
  0.038405  0.057607  0.028803      8.000000
  0.048006  0.057607  0.028803      8.000000
  0.057607  0.057607  0.028803      4.000000
  0.000000  0.038405  0.038405      4.000000
  0.009601  0.038405  0.038405      8.000000
  0.019202  0.038405  0.038405      8.000000
  0.028803  0.038405  0.038405      8.000000
  0.038405  0.038405  0.038405      8.000000
  0.048006  0.038405  0.038405      8.000000
  0.057607  0.038405  0.038405      4.000000
  0.000000  0.048006  0.038405      8.000000
  0.009601  0.048006  0.038405     16.000000
  0.019202  0.048006  0.038405     16.000000
  0.028803  0.048006  0.038405     16.000000
  0.038405  0.048006  0.038405     16.000000
  0.048006  0.048006  0.038405     16.000000
  0.057607  0.048006  0.038405      8.000000
  0.000000  0.057607  0.038405      4.000000
  0.009601  0.057607  0.038405      8.000000
  0.019202  0.057607  0.038405      8.000000
  0.028803  0.057607  0.038405      8.000000
  0.038405  0.057607  0.038405      8.000000
  0.048006  0.057607  0.038405      8.000000
  0.057607  0.057607  0.038405      4.000000
  0.000000  0.048006  0.048006      4.000000
  0.009601  0.048006  0.048006      8.000000
  0.019202  0.048006  0.048006      8.000000
  0.028803  0.048006  0.048006      8.000000
  0.038405  0.048006  0.048006      8.000000
  0.048006  0.048006  0.048006      8.000000
  0.057607  0.048006  0.048006      4.000000
  0.000000  0.057607  0.048006      4.000000
  0.009601  0.057607  0.048006      8.000000
  0.019202  0.057607  0.048006      8.000000
  0.028803  0.057607  0.048006      8.000000
  0.038405  0.057607  0.048006      8.000000
  0.048006  0.057607  0.048006      8.000000
  0.057607  0.057607  0.048006      4.000000
  0.000000  0.057607  0.057607      1.000000
  0.009601  0.057607  0.057607      2.000000
  0.019202  0.057607  0.057607      2.000000
  0.028803  0.057607  0.057607      2.000000
  0.038405  0.057607  0.057607      2.000000
  0.048006  0.057607  0.057607      2.000000
  0.057607  0.057607  0.057607      1.000000
 


--------------------------------------------------------------------------------------------------------




 Dimension of arrays:
   k-Points           NKPTS =    196   number of bands    NBANDS=    212
   number of dos      NEDOS =    301   number of ions     NIONS =     32
   non local maximal  LDIM  =      6   non local SUM 2l+1 LMDIM =     18
   total plane-waves  NPLWV = 512000
   max r-space proj   IRMAX =      1   max aug-charges    IRDMAX= 383235
   dimension x,y,z NGX =    80 NGY =   80 NGZ =   80
   dimension x,y,z NGXF=   160 NGYF=  160 NGZF=  160
   support grid    NGXF=   320 NGYF=  320 NGZF=  320
   ions per type =              32
 NGX,Y,Z   is equivalent  to a cutoff of  15.32, 15.32, 15.32 a.u.
 NGXF,Y,Z  is equivalent  to a cutoff of  30.65, 30.65, 30.65 a.u.


 I would recommend the setting:
   dimension x,y,z NGX =    78 NGY =   78 NGZ =   78
 SYSTEM =  unknown system                          
 POSCAR =  Au                                      

 Startparameter for this run:
   NWRITE =      2    write-flag & timer
   PREC   = accura    medium, high low
   ISTART =      0    job   : 0-new  1-cont  2-samecut
   ICHARG =      2    charge: 1-file 2-atom 10-const
   ISPIN  =      1    spin polarized calculation?
   LNONCOLLINEAR =      F non collinear calculations
   LSORBIT =      F    spin-orbit coupling
   INIWAV =      1    electr: 0-lowe 1-rand  2-diag
   LASPH  =      F    aspherical Exc in radial PAW
   METAGGA=      F    non-selfconsistent MetaGGA calc.

 Electronic Relaxation 1
   ENCUT  =  750.0 eV  55.12 Ry    7.42 a.u.  19.38 19.38 19.38*2*pi/ulx,y,z
   ENINI  =  750.0     initial cutoff
   ENAUG  =  356.7 eV  augmentation charge cutoff
   NELM   =     60;   NELMIN=  2; NELMDL=  0     # of ELM steps 
   EDIFF  = 0.1E-07   stopping-criterion for ELM
   LREAL  =      F    real-space projection
   LCOMPAT=      F    compatible to vasp.4.4
   LREAL_COMPAT= F    compatible to vasp.4.5.1-3
   GGA_COMPAT  = T    GGA compatible to vasp.4.4-vasp.4.6
   LMAXPAW     = -100 max onsite density
   LMAXMIX     =    2 max onsite mixed and CHGCAR
   VOSKOWN=      0    Vosko Wilk Nusair interpolation
   ROPT   =    0.00000
 Ionic relaxation
   EDIFFG = 0.1E-06   stopping-criterion for IOM
   NSW    =      0    number of steps for IOM
   NBLOCK =      1;   KBLOCK =      1    inner block; outer block 
   IBRION =     -1    ionic relax: 0-MD 1-quasi-New 2-CG
   NFREE  =      0    steps in history (QN), initial steepest desc. (CG)
   ISIF   =      2    stress and relaxation
   IWAVPR =     10    prediction:  0-non 1-charg 2-wave 3-comb
   ISYM   =      2    0-nonsym 1-usesym 2-fastsym
   LCORR  =      T    Harris-Foulkes like correction to forces

   POTIM  =   0.50    time-step for ionic-motion
   TEIN   =    0.0    initial temperature
   TEBEG  =    0.0;   TEEND  =   0.0 temperature during run
   SMASS  =  -3.00    Nose mass-parameter (am)
   estimated Nose-frequenzy (Omega)   =  0.10E-29 period in steps =****** mass=  -0.172E-26a.u.
   NPACO  =    256;   APACO  = 16.0  distance and # of slots for P.C.
   PSTRESS=    0.0 pullay stress

  Mass of Ions in am
   POMASS = 196.97
  Ionic Valenz
   ZVAL   =  11.00
  Atomic Wigner-Seitz radii
   RWIGS  =  -1.00
   NELECT =     352.0000    total number of electrons
   NUPDOWN=      -1.0000    fix difference up-down

 DOS related values:
   EMIN   =  10.00;   EMAX   =-10.00  energy-range for DOS
   ISMEAR =     0;   SIGMA  =   0.01  broadening in eV -4-tet -1-fermi 0-gaus

 Electronic relaxation 2 (details)
   IALGO  =     38    algorithm
   LDIAG  =      T    sub-space diagonalisation
   IMIX   =      4    mixing-type and parameters
     AMIX     =   0.40;   BMIX     =  1.00
     AMIX_MAG =   1.60;   BMIX_MAG =  1.00
     AMIN     =   0.10
     WC   =   100.;   INIMIX=   1;  MIXPRE=   1

 Intra band minimization:
   WEIMIN = 0.0000     energy-eigenvalue tresh-hold
   EBREAK =  0.12E-10  absolut break condition
   DEPER  =   0.30     relativ break condition  

   TIME   =   0.10     timestep for ELM

  volume/ion in A,a.u.               =      20.43       137.89
  Fermi-wavevector in a.u.,eV,Ry     =   1.331760 24.131097  1.773586

 Second variation
   LSECVAR=     F    do a second variation
 
 Write flags
   LWAVE  =      F    write WAVECAR
   LCHARG =      F    write CHGCAR
   LVTOT  =      F    write LOCPOT, local potential
   LELF   =      F    write electronic localiz. function (ELF)
   LORBIT =      0    0 simple, 1 ext, 2 COOP (PROOUT)


 Dipole corrections
   IDIPOL =      0    1-x, 2-y, 3-z
   LDIPOL =      F    correct potential



--------------------------------------------------------------------------------------------------------


 Static calculation
 charge density will be updated during run
 non-spin polarized calculation
 Variant of blocked Davidson
 Davidson routine will perform the subspace rotation
 performe sub-space diagonalisation
    after iterative eigenvector-optimisation
 modified Broyden-mixing scheme, WC =      100.0
 initial mixing is a Kerker type mixing with AMIX =  0.4000 and BMIX =      1.0000
 Hartree-type preconditioning will be used
 using additional bands           36
 reciprocal scheme for non local part
 use partial core corrections
 calculate Harris-corrections to forces 
   (improved forces if not selfconsistent)
 use gradient corrections 
 use of overlap-Matrix (Vanderbilt PP)
 Gauss-broadening in eV      SIGMA  =   0.01


--------------------------------------------------------------------------------------------------------


  energy-cutoff  :      750.00
  volume of cell :      653.87
      direct lattice vectors                 reciprocal lattice vectors
     8.679531957  0.000000000  0.000000000     0.115213586  0.000000000  0.000000000
     0.000000000  8.679531957  0.000000000     0.000000000  0.115213586  0.000000000
     0.000000000  0.000000000  8.679531957     0.000000000  0.000000000  0.115213586

  length of vectors
     8.679531957  8.679531957  8.679531957     0.115213586  0.115213586  0.115213586


 
 k-points in units of 2pi/SCALE and weight: Automatic mesh                          
   0.00000000  0.00000000  0.00000000       0.001
   0.00960113  0.00000000  0.00000000       0.001
   0.01920226  0.00000000  0.00000000       0.001
   0.02880340  0.00000000  0.00000000       0.001
   0.03840453  0.00000000  0.00000000       0.001
   0.04800566  0.00000000  0.00000000       0.001
   0.05760679  0.00000000  0.00000000       0.001
   0.00000000  0.00960113  0.00000000       0.002
   0.00960113  0.00960113  0.00000000       0.005
   0.01920226  0.00960113  0.00000000       0.005
   0.02880340  0.00960113  0.00000000       0.005
   0.03840453  0.00960113  0.00000000       0.005
   0.04800566  0.00960113  0.00000000       0.005
   0.05760679  0.00960113  0.00000000       0.002
   0.00000000  0.01920226  0.00000000       0.002
   0.00960113  0.01920226  0.00000000       0.005
   0.01920226  0.01920226  0.00000000       0.005
   0.02880340  0.01920226  0.00000000       0.005
   0.03840453  0.01920226  0.00000000       0.005
   0.04800566  0.01920226  0.00000000       0.005
   0.05760679  0.01920226  0.00000000       0.002
   0.00000000  0.02880340  0.00000000       0.002
   0.00960113  0.02880340  0.00000000       0.005
   0.01920226  0.02880340  0.00000000       0.005
   0.02880340  0.02880340  0.00000000       0.005
   0.03840453  0.02880340  0.00000000       0.005
   0.04800566  0.02880340  0.00000000       0.005
   0.05760679  0.02880340  0.00000000       0.002
   0.00000000  0.03840453  0.00000000       0.002
   0.00960113  0.03840453  0.00000000       0.005
   0.01920226  0.03840453  0.00000000       0.005
   0.02880340  0.03840453  0.00000000       0.005
   0.03840453  0.03840453  0.00000000       0.005
   0.04800566  0.03840453  0.00000000       0.005
   0.05760679  0.03840453  0.00000000       0.002
   0.00000000  0.04800566  0.00000000       0.002
   0.00960113  0.04800566  0.00000000       0.005
   0.01920226  0.04800566  0.00000000       0.005
   0.02880340  0.04800566  0.00000000       0.005
   0.03840453  0.04800566  0.00000000       0.005
   0.04800566  0.04800566  0.00000000       0.005
   0.05760679  0.04800566  0.00000000       0.002
   0.00000000  0.05760679  0.00000000       0.001
   0.00960113  0.05760679  0.00000000       0.002
   0.01920226  0.05760679  0.00000000       0.002
   0.02880340  0.05760679  0.00000000       0.002
   0.03840453  0.05760679  0.00000000       0.002
   0.04800566  0.05760679  0.00000000       0.002
   0.05760679  0.05760679  0.00000000       0.001
   0.00000000  0.00960113  0.00960113       0.002
   0.00960113  0.00960113  0.00960113       0.005
   0.01920226  0.00960113  0.00960113       0.005
   0.02880340  0.00960113  0.00960113       0.005
   0.03840453  0.00960113  0.00960113       0.005
   0.04800566  0.00960113  0.00960113       0.005
   0.05760679  0.00960113  0.00960113       0.002
   0.00000000  0.01920226  0.00960113       0.005
   0.00960113  0.01920226  0.00960113       0.009
   0.01920226  0.01920226  0.00960113       0.009
   0.02880340  0.01920226  0.00960113       0.009
   0.03840453  0.01920226  0.00960113       0.009
   0.04800566  0.01920226  0.00960113       0.009
   0.05760679  0.01920226  0.00960113       0.005
   0.00000000  0.02880340  0.00960113       0.005
   0.00960113  0.02880340  0.00960113       0.009
   0.01920226  0.02880340  0.00960113       0.009
   0.02880340  0.02880340  0.00960113       0.009
   0.03840453  0.02880340  0.00960113       0.009
   0.04800566  0.02880340  0.00960113       0.009
   0.05760679  0.02880340  0.00960113       0.005
   0.00000000  0.03840453  0.00960113       0.005
   0.00960113  0.03840453  0.00960113       0.009
   0.01920226  0.03840453  0.00960113       0.009
   0.02880340  0.03840453  0.00960113       0.009
   0.03840453  0.03840453  0.00960113       0.009
   0.04800566  0.03840453  0.00960113       0.009
   0.05760679  0.03840453  0.00960113       0.005
   0.00000000  0.04800566  0.00960113       0.005
   0.00960113  0.04800566  0.00960113       0.009
   0.01920226  0.04800566  0.00960113       0.009
   0.02880340  0.04800566  0.00960113       0.009
   0.03840453  0.04800566  0.00960113       0.009
   0.04800566  0.04800566  0.00960113       0.009
   0.05760679  0.04800566  0.00960113       0.005
   0.00000000  0.05760679  0.00960113       0.002
   0.00960113  0.05760679  0.00960113       0.005
   0.01920226  0.05760679  0.00960113       0.005
   0.02880340  0.05760679  0.00960113       0.005
   0.03840453  0.05760679  0.00960113       0.005
   0.04800566  0.05760679  0.00960113       0.005
   0.05760679  0.05760679  0.00960113       0.002
   0.00000000  0.01920226  0.01920226       0.002
   0.00960113  0.01920226  0.01920226       0.005
   0.01920226  0.01920226  0.01920226       0.005
   0.02880340  0.01920226  0.01920226       0.005
   0.03840453  0.01920226  0.01920226       0.005
   0.04800566  0.01920226  0.01920226       0.005
   0.05760679  0.01920226  0.01920226       0.002
   0.00000000  0.02880340  0.01920226       0.005
   0.00960113  0.02880340  0.01920226       0.009
   0.01920226  0.02880340  0.01920226       0.009
   0.02880340  0.02880340  0.01920226       0.009
   0.03840453  0.02880340  0.01920226       0.009
   0.04800566  0.02880340  0.01920226       0.009
   0.05760679  0.02880340  0.01920226       0.005
   0.00000000  0.03840453  0.01920226       0.005
   0.00960113  0.03840453  0.01920226       0.009
   0.01920226  0.03840453  0.01920226       0.009
   0.02880340  0.03840453  0.01920226       0.009
   0.03840453  0.03840453  0.01920226       0.009
   0.04800566  0.03840453  0.01920226       0.009
   0.05760679  0.03840453  0.01920226       0.005
   0.00000000  0.04800566  0.01920226       0.005
   0.00960113  0.04800566  0.01920226       0.009
   0.01920226  0.04800566  0.01920226       0.009
   0.02880340  0.04800566  0.01920226       0.009
   0.03840453  0.04800566  0.01920226       0.009
   0.04800566  0.04800566  0.01920226       0.009
   0.05760679  0.04800566  0.01920226       0.005
   0.00000000  0.05760679  0.01920226       0.002
   0.00960113  0.05760679  0.01920226       0.005
   0.01920226  0.05760679  0.01920226       0.005
   0.02880340  0.05760679  0.01920226       0.005
   0.03840453  0.05760679  0.01920226       0.005
   0.04800566  0.05760679  0.01920226       0.005
   0.05760679  0.05760679  0.01920226       0.002
   0.00000000  0.02880340  0.02880340       0.002
   0.00960113  0.02880340  0.02880340       0.005
   0.01920226  0.02880340  0.02880340       0.005
   0.02880340  0.02880340  0.02880340       0.005
   0.03840453  0.02880340  0.02880340       0.005
   0.04800566  0.02880340  0.02880340       0.005
   0.05760679  0.02880340  0.02880340       0.002
   0.00000000  0.03840453  0.02880340       0.005
   0.00960113  0.03840453  0.02880340       0.009
   0.01920226  0.03840453  0.02880340       0.009
   0.02880340  0.03840453  0.02880340       0.009
   0.03840453  0.03840453  0.02880340       0.009
   0.04800566  0.03840453  0.02880340       0.009
   0.05760679  0.03840453  0.02880340       0.005
   0.00000000  0.04800566  0.02880340       0.005
   0.00960113  0.04800566  0.02880340       0.009
   0.01920226  0.04800566  0.02880340       0.009
   0.02880340  0.04800566  0.02880340       0.009
   0.03840453  0.04800566  0.02880340       0.009
   0.04800566  0.04800566  0.02880340       0.009
   0.05760679  0.04800566  0.02880340       0.005
   0.00000000  0.05760679  0.02880340       0.002
   0.00960113  0.05760679  0.02880340       0.005
   0.01920226  0.05760679  0.02880340       0.005
   0.02880340  0.05760679  0.02880340       0.005
   0.03840453  0.05760679  0.02880340       0.005
   0.04800566  0.05760679  0.02880340       0.005
   0.05760679  0.05760679  0.02880340       0.002
   0.00000000  0.03840453  0.03840453       0.002
   0.00960113  0.03840453  0.03840453       0.005
   0.01920226  0.03840453  0.03840453       0.005
   0.02880340  0.03840453  0.03840453       0.005
   0.03840453  0.03840453  0.03840453       0.005
   0.04800566  0.03840453  0.03840453       0.005
   0.05760679  0.03840453  0.03840453       0.002
   0.00000000  0.04800566  0.03840453       0.005
   0.00960113  0.04800566  0.03840453       0.009
   0.01920226  0.04800566  0.03840453       0.009
   0.02880340  0.04800566  0.03840453       0.009
   0.03840453  0.04800566  0.03840453       0.009
   0.04800566  0.04800566  0.03840453       0.009
   0.05760679  0.04800566  0.03840453       0.005
   0.00000000  0.05760679  0.03840453       0.002
   0.00960113  0.05760679  0.03840453       0.005
   0.01920226  0.05760679  0.03840453       0.005
   0.02880340  0.05760679  0.03840453       0.005
   0.03840453  0.05760679  0.03840453       0.005
   0.04800566  0.05760679  0.03840453       0.005
   0.05760679  0.05760679  0.03840453       0.002
   0.00000000  0.04800566  0.04800566       0.002
   0.00960113  0.04800566  0.04800566       0.005
   0.01920226  0.04800566  0.04800566       0.005
   0.02880340  0.04800566  0.04800566       0.005
   0.03840453  0.04800566  0.04800566       0.005
   0.04800566  0.04800566  0.04800566       0.005
   0.05760679  0.04800566  0.04800566       0.002
   0.00000000  0.05760679  0.04800566       0.002
   0.00960113  0.05760679  0.04800566       0.005
   0.01920226  0.05760679  0.04800566       0.005
   0.02880340  0.05760679  0.04800566       0.005
   0.03840453  0.05760679  0.04800566       0.005
   0.04800566  0.05760679  0.04800566       0.005
   0.05760679  0.05760679  0.04800566       0.002
   0.00000000  0.05760679  0.05760679       0.001
   0.00960113  0.05760679  0.05760679       0.001
   0.01920226  0.05760679  0.05760679       0.001
   0.02880340  0.05760679  0.05760679       0.001
   0.03840453  0.05760679  0.05760679       0.001
   0.04800566  0.05760679  0.05760679       0.001
   0.05760679  0.05760679  0.05760679       0.001
 
 k-points in reciprocal lattice and weights: Automatic mesh                          
   0.00000000  0.00000000  0.00000000       0.001
   0.08333333  0.00000000  0.00000000       0.001
   0.16666667  0.00000000  0.00000000       0.001
   0.25000000  0.00000000  0.00000000       0.001
   0.33333333  0.00000000  0.00000000       0.001
   0.41666667  0.00000000  0.00000000       0.001
   0.50000000  0.00000000  0.00000000       0.001
   0.00000000  0.08333333  0.00000000       0.002
   0.08333333  0.08333333  0.00000000       0.005
   0.16666667  0.08333333  0.00000000       0.005
   0.25000000  0.08333333  0.00000000       0.005
   0.33333333  0.08333333  0.00000000       0.005
   0.41666667  0.08333333  0.00000000       0.005
   0.50000000  0.08333333  0.00000000       0.002
   0.00000000  0.16666667  0.00000000       0.002
   0.08333333  0.16666667  0.00000000       0.005
   0.16666667  0.16666667  0.00000000       0.005
   0.25000000  0.16666667  0.00000000       0.005
   0.33333333  0.16666667  0.00000000       0.005
   0.41666667  0.16666667  0.00000000       0.005
   0.50000000  0.16666667  0.00000000       0.002
   0.00000000  0.25000000  0.00000000       0.002
   0.08333333  0.25000000  0.00000000       0.005
   0.16666667  0.25000000  0.00000000       0.005
   0.25000000  0.25000000  0.00000000       0.005
   0.33333333  0.25000000  0.00000000       0.005
   0.41666667  0.25000000  0.00000000       0.005
   0.50000000  0.25000000  0.00000000       0.002
   0.00000000  0.33333333  0.00000000       0.002
   0.08333333  0.33333333  0.00000000       0.005
   0.16666667  0.33333333  0.00000000       0.005
   0.25000000  0.33333333  0.00000000       0.005
   0.33333333  0.33333333  0.00000000       0.005
   0.41666667  0.33333333  0.00000000       0.005
   0.50000000  0.33333333  0.00000000       0.002
   0.00000000  0.41666667  0.00000000       0.002
   0.08333333  0.41666667  0.00000000       0.005
   0.16666667  0.41666667  0.00000000       0.005
   0.25000000  0.41666667  0.00000000       0.005
   0.33333333  0.41666667  0.00000000       0.005
   0.41666667  0.41666667  0.00000000       0.005
   0.50000000  0.41666667  0.00000000       0.002
   0.00000000  0.50000000  0.00000000       0.001
   0.08333333  0.50000000  0.00000000       0.002
   0.16666667  0.50000000  0.00000000       0.002
   0.25000000  0.50000000  0.00000000       0.002
   0.33333333  0.50000000  0.00000000       0.002
   0.41666667  0.50000000  0.00000000       0.002
   0.50000000  0.50000000  0.00000000       0.001
   0.00000000  0.08333333  0.08333333       0.002
   0.08333333  0.08333333  0.08333333       0.005
   0.16666667  0.08333333  0.08333333       0.005
   0.25000000  0.08333333  0.08333333       0.005
   0.33333333  0.08333333  0.08333333       0.005
   0.41666667  0.08333333  0.08333333       0.005
   0.50000000  0.08333333  0.08333333       0.002
   0.00000000  0.16666667  0.08333333       0.005
   0.08333333  0.16666667  0.08333333       0.009
   0.16666667  0.16666667  0.08333333       0.009
   0.25000000  0.16666667  0.08333333       0.009
   0.33333333  0.16666667  0.08333333       0.009
   0.41666667  0.16666667  0.08333333       0.009
   0.50000000  0.16666667  0.08333333       0.005
   0.00000000  0.25000000  0.08333333       0.005
   0.08333333  0.25000000  0.08333333       0.009
   0.16666667  0.25000000  0.08333333       0.009
   0.25000000  0.25000000  0.08333333       0.009
   0.33333333  0.25000000  0.08333333       0.009
   0.41666667  0.25000000  0.08333333       0.009
   0.50000000  0.25000000  0.08333333       0.005
   0.00000000  0.33333333  0.08333333       0.005
   0.08333333  0.33333333  0.08333333       0.009
   0.16666667  0.33333333  0.08333333       0.009
   0.25000000  0.33333333  0.08333333       0.009
   0.33333333  0.33333333  0.08333333       0.009
   0.41666667  0.33333333  0.08333333       0.009
   0.50000000  0.33333333  0.08333333       0.005
   0.00000000  0.41666667  0.08333333       0.005
   0.08333333  0.41666667  0.08333333       0.009
   0.16666667  0.41666667  0.08333333       0.009
   0.25000000  0.41666667  0.08333333       0.009
   0.33333333  0.41666667  0.08333333       0.009
   0.41666667  0.41666667  0.08333333       0.009
   0.50000000  0.41666667  0.08333333       0.005
   0.00000000  0.50000000  0.08333333       0.002
   0.08333333  0.50000000  0.08333333       0.005
   0.16666667  0.50000000  0.08333333       0.005
   0.25000000  0.50000000  0.08333333       0.005
   0.33333333  0.50000000  0.08333333       0.005
   0.41666667  0.50000000  0.08333333       0.005
   0.50000000  0.50000000  0.08333333       0.002
   0.00000000  0.16666667  0.16666667       0.002
   0.08333333  0.16666667  0.16666667       0.005
   0.16666667  0.16666667  0.16666667       0.005
   0.25000000  0.16666667  0.16666667       0.005
   0.33333333  0.16666667  0.16666667       0.005
   0.41666667  0.16666667  0.16666667       0.005
   0.50000000  0.16666667  0.16666667       0.002
   0.00000000  0.25000000  0.16666667       0.005
   0.08333333  0.25000000  0.16666667       0.009
   0.16666667  0.25000000  0.16666667       0.009
   0.25000000  0.25000000  0.16666667       0.009
   0.33333333  0.25000000  0.16666667       0.009
   0.41666667  0.25000000  0.16666667       0.009
   0.50000000  0.25000000  0.16666667       0.005
   0.00000000  0.33333333  0.16666667       0.005
   0.08333333  0.33333333  0.16666667       0.009
   0.16666667  0.33333333  0.16666667       0.009
   0.25000000  0.33333333  0.16666667       0.009
   0.33333333  0.33333333  0.16666667       0.009
   0.41666667  0.33333333  0.16666667       0.009
   0.50000000  0.33333333  0.16666667       0.005
   0.00000000  0.41666667  0.16666667       0.005
   0.08333333  0.41666667  0.16666667       0.009
   0.16666667  0.41666667  0.16666667       0.009
   0.25000000  0.41666667  0.16666667       0.009
   0.33333333  0.41666667  0.16666667       0.009
   0.41666667  0.41666667  0.16666667       0.009
   0.50000000  0.41666667  0.16666667       0.005
   0.00000000  0.50000000  0.16666667       0.002
   0.08333333  0.50000000  0.16666667       0.005
   0.16666667  0.50000000  0.16666667       0.005
   0.25000000  0.50000000  0.16666667       0.005
   0.33333333  0.50000000  0.16666667       0.005
   0.41666667  0.50000000  0.16666667       0.005
   0.50000000  0.50000000  0.16666667       0.002
   0.00000000  0.25000000  0.25000000       0.002
   0.08333333  0.25000000  0.25000000       0.005
   0.16666667  0.25000000  0.25000000       0.005
   0.25000000  0.25000000  0.25000000       0.005
   0.33333333  0.25000000  0.25000000       0.005
   0.41666667  0.25000000  0.25000000       0.005
   0.50000000  0.25000000  0.25000000       0.002
   0.00000000  0.33333333  0.25000000       0.005
   0.08333333  0.33333333  0.25000000       0.009
   0.16666667  0.33333333  0.25000000       0.009
   0.25000000  0.33333333  0.25000000       0.009
   0.33333333  0.33333333  0.25000000       0.009
   0.41666667  0.33333333  0.25000000       0.009
   0.50000000  0.33333333  0.25000000       0.005
   0.00000000  0.41666667  0.25000000       0.005
   0.08333333  0.41666667  0.25000000       0.009
   0.16666667  0.41666667  0.25000000       0.009
   0.25000000  0.41666667  0.25000000       0.009
   0.33333333  0.41666667  0.25000000       0.009
   0.41666667  0.41666667  0.25000000       0.009
   0.50000000  0.41666667  0.25000000       0.005
   0.00000000  0.50000000  0.25000000       0.002
   0.08333333  0.50000000  0.25000000       0.005
   0.16666667  0.50000000  0.25000000       0.005
   0.25000000  0.50000000  0.25000000       0.005
   0.33333333  0.50000000  0.25000000       0.005
   0.41666667  0.50000000  0.25000000       0.005
   0.50000000  0.50000000  0.25000000       0.002
   0.00000000  0.33333333  0.33333333       0.002
   0.08333333  0.33333333  0.33333333       0.005
   0.16666667  0.33333333  0.33333333       0.005
   0.25000000  0.33333333  0.33333333       0.005
   0.33333333  0.33333333  0.33333333       0.005
   0.41666667  0.33333333  0.33333333       0.005
   0.50000000  0.33333333  0.33333333       0.002
   0.00000000  0.41666667  0.33333333       0.005
   0.08333333  0.41666667  0.33333333       0.009
   0.16666667  0.41666667  0.33333333       0.009
   0.25000000  0.41666667  0.33333333       0.009
   0.33333333  0.41666667  0.33333333       0.009
   0.41666667  0.41666667  0.33333333       0.009
   0.50000000  0.41666667  0.33333333       0.005
   0.00000000  0.50000000  0.33333333       0.002
   0.08333333  0.50000000  0.33333333       0.005
   0.16666667  0.50000000  0.33333333       0.005
   0.25000000  0.50000000  0.33333333       0.005
   0.33333333  0.50000000  0.33333333       0.005
   0.41666667  0.50000000  0.33333333       0.005
   0.50000000  0.50000000  0.33333333       0.002
   0.00000000  0.41666667  0.41666667       0.002
   0.08333333  0.41666667  0.41666667       0.005
   0.16666667  0.41666667  0.41666667       0.005
   0.25000000  0.41666667  0.41666667       0.005
   0.33333333  0.41666667  0.41666667       0.005
   0.41666667  0.41666667  0.41666667       0.005
   0.50000000  0.41666667  0.41666667       0.002
   0.00000000  0.50000000  0.41666667       0.002
   0.08333333  0.50000000  0.41666667       0.005
   0.16666667  0.50000000  0.41666667       0.005
   0.25000000  0.50000000  0.41666667       0.005
   0.33333333  0.50000000  0.41666667       0.005
   0.41666667  0.50000000  0.41666667       0.005
   0.50000000  0.50000000  0.41666667       0.002
   0.00000000  0.50000000  0.50000000       0.001
   0.08333333  0.50000000  0.50000000       0.001
   0.16666667  0.50000000  0.50000000       0.001
   0.25000000  0.50000000  0.50000000       0.001
   0.33333333  0.50000000  0.50000000       0.001
   0.41666667  0.50000000  0.50000000       0.001
   0.50000000  0.50000000  0.50000000       0.001
 
 position of ions in fractional coordinates (direct lattice) 
   0.00115214  0.00000000  0.00000000
   0.50000000  0.00000000  0.00000000
   0.00000000  0.50000000  0.00000000
   0.50000000  0.50000000  0.00000000
   0.00000000  0.00000000  0.50000000
   0.50000000  0.00000000  0.50000000
   0.00000000  0.50000000  0.50000000
   0.50000000  0.50000000  0.50000000
   0.25000000  0.25000000  0.00000000
   0.75000000  0.25000000  0.00000000
   0.25000000  0.75000000  0.00000000
   0.75000000  0.75000000  0.00000000
   0.25000000  0.25000000  0.50000000
   0.75000000  0.25000000  0.50000000
   0.25000000  0.75000000  0.50000000
   0.75000000  0.75000000  0.50000000
   0.25000000  0.00000000  0.25000000
   0.75000000  0.00000000  0.25000000
   0.25000000  0.50000000  0.25000000
   0.75000000  0.50000000  0.25000000
   0.25000000  0.00000000  0.75000000
   0.75000000  0.00000000  0.75000000
   0.25000000  0.50000000  0.75000000
   0.75000000  0.50000000  0.75000000
   0.00000000  0.25000000  0.25000000
   0.50000000  0.25000000  0.25000000
   0.00000000  0.75000000  0.25000000
   0.50000000  0.75000000  0.25000000
   0.00000000  0.25000000  0.75000000
   0.50000000  0.25000000  0.75000000
   0.00000000  0.75000000  0.75000000
   0.50000000  0.75000000  0.75000000
 
 position of ions in cartesian coordinates  (Angst):
   0.01000000  0.00000000  0.00000000
   4.33976598  0.00000000  0.00000000
   0.00000000  4.33976598  0.00000000
   4.33976598  4.33976598  0.00000000
   0.00000000  0.00000000  4.33976598
   4.33976598  0.00000000  4.33976598
   0.00000000  4.33976598  4.33976598
   4.33976598  4.33976598  4.33976598
   2.16988299  2.16988299  0.00000000
   6.50964897  2.16988299  0.00000000
   2.16988299  6.50964897  0.00000000
   6.50964897  6.50964897  0.00000000
   2.16988299  2.16988299  4.33976598
   6.50964897  2.16988299  4.33976598
   2.16988299  6.50964897  4.33976598
   6.50964897  6.50964897  4.33976598
   2.16988299  0.00000000  2.16988299
   6.50964897  0.00000000  2.16988299
   2.16988299  4.33976598  2.16988299
   6.50964897  4.33976598  2.16988299
   2.16988299  0.00000000  6.50964897
   6.50964897  0.00000000  6.50964897
   2.16988299  4.33976598  6.50964897
   6.50964897  4.33976598  6.50964897
   0.00000000  2.16988299  2.16988299
   4.33976598  2.16988299  2.16988299
   0.00000000  6.50964897  2.16988299
   4.33976598  6.50964897  2.16988299
   0.00000000  2.16988299  6.50964897
   4.33976598  2.16988299  6.50964897
   0.00000000  6.50964897  6.50964897
   4.33976598  6.50964897  6.50964897
 


--------------------------------------------------------------------------------------------------------


 k-point  1 :  0.00000.00000.0000  plane waves:  30551
 k-point  2 :  0.08330.00000.0000  plane waves:  30603
 k-point  3 :  0.16670.00000.0000  plane waves:  30547
 k-point  4 :  0.25000.00000.0000  plane waves:  30531
 k-point  5 :  0.33330.00000.0000  plane waves:  30503
 k-point  6 :  0.41670.00000.0000  plane waves:  30462
 k-point  7 :  0.50000.00000.0000  plane waves:  30430
 k-point  8 :  0.00000.08330.0000  plane waves:  30603
 k-point  9 :  0.08330.08330.0000  plane waves:  30567
 k-point 10 :  0.16670.08330.0000  plane waves:  30546
 k-point 11 :  0.25000.08330.0000  plane waves:  30508
 k-point 12 :  0.33330.08330.0000  plane waves:  30504
 k-point 13 :  0.41670.08330.0000  plane waves:  30481
 k-point 14 :  0.50000.08330.0000  plane waves:  30472
 k-point 15 :  0.00000.16670.0000  plane waves:  30547
 k-point 16 :  0.08330.16670.0000  plane waves:  30546
 k-point 17 :  0.16670.16670.0000  plane waves:  30509
 k-point 18 :  0.25000.16670.0000  plane waves:  30507
 k-point 19 :  0.33330.16670.0000  plane waves:  30482
 k-point 20 :  0.41670.16670.0000  plane waves:  30497
 k-point 21 :  0.50000.16670.0000  plane waves:  30498
 k-point 22 :  0.00000.25000.0000  plane waves:  30531
 k-point 23 :  0.08330.25000.0000  plane waves:  30508
 k-point 24 :  0.16670.25000.0000  plane waves:  30507
 k-point 25 :  0.25000.25000.0000  plane waves:  30529
 k-point 26 :  0.33330.25000.0000  plane waves:  30486
 k-point 27 :  0.41670.25000.0000  plane waves:  30484
 k-point 28 :  0.50000.25000.0000  plane waves:  30538
 k-point 29 :  0.00000.33330.0000  plane waves:  30503
 k-point 30 :  0.08330.33330.0000  plane waves:  30504
 k-point 31 :  0.16670.33330.0000  plane waves:  30482
 k-point 32 :  0.25000.33330.0000  plane waves:  30486
 k-point 33 :  0.33330.33330.0000  plane waves:  30522
 k-point 34 :  0.41670.33330.0000  plane waves:  30494
 k-point 35 :  0.50000.33330.0000  plane waves:  30478
 k-point 36 :  0.00000.41670.0000  plane waves:  30462
 k-point 37 :  0.08330.41670.0000  plane waves:  30481
 k-point 38 :  0.16670.41670.0000  plane waves:  30497
 k-point 39 :  0.25000.41670.0000  plane waves:  30484
 k-point 40 :  0.33330.41670.0000  plane waves:  30494
 k-point 41 :  0.41670.41670.0000  plane waves:  30482
 k-point 42 :  0.50000.41670.0000  plane waves:  30498
 k-point 43 :  0.00000.50000.0000  plane waves:  30430
 k-point 44 :  0.08330.50000.0000  plane waves:  30472
 k-point 45 :  0.16670.50000.0000  plane waves:  30498
 k-point 46 :  0.25000.50000.0000  plane waves:  30538
 k-point 47 :  0.33330.50000.0000  plane waves:  30478
 k-point 48 :  0.41670.50000.0000  plane waves:  30498
 k-point 49 :  0.50000.50000.0000  plane waves:  30528
 k-point 50 :  0.00000.08330.0833  plane waves:  30567
 k-point 51 :  0.08330.08330.0833  plane waves:  30569
 k-point 52 :  0.16670.08330.0833  plane waves:  30546
 k-point 53 :  0.25000.08330.0833  plane waves:  30529
 k-point 54 :  0.33330.08330.0833  plane waves:  30511
 k-point 55 :  0.41670.08330.0833  plane waves:  30486
 k-point 56 :  0.50000.08330.0833  plane waves:  30482
 k-point 57 :  0.00000.16670.0833  plane waves:  30546
 k-point 58 :  0.08330.16670.0833  plane waves:  30546
 k-point 59 :  0.16670.16670.0833  plane waves:  30515
 k-point 60 :  0.25000.16670.0833  plane waves:  30507
 k-point 61 :  0.33330.16670.0833  plane waves:  30490
 k-point 62 :  0.41670.16670.0833  plane waves:  30488
 k-point 63 :  0.50000.16670.0833  plane waves:  30496
 k-point 64 :  0.00000.25000.0833  plane waves:  30508
 k-point 65 :  0.08330.25000.0833  plane waves:  30529
 k-point 66 :  0.16670.25000.0833  plane waves:  30507
 k-point 67 :  0.25000.25000.0833  plane waves:  30506
 k-point 68 :  0.33330.25000.0833  plane waves:  30495
 k-point 69 :  0.41670.25000.0833  plane waves:  30497
 k-point 70 :  0.50000.25000.0833  plane waves:  30490
 k-point 71 :  0.00000.33330.0833  plane waves:  30504
 k-point 72 :  0.08330.33330.0833  plane waves:  30511
 k-point 73 :  0.16670.33330.0833  plane waves:  30490
 k-point 74 :  0.25000.33330.0833  plane waves:  30495
 k-point 75 :  0.33330.33330.0833  plane waves:  30496
 k-point 76 :  0.41670.33330.0833  plane waves:  30501
 k-point 77 :  0.50000.33330.0833  plane waves:  30480
 k-point 78 :  0.00000.41670.0833  plane waves:  30481
 k-point 79 :  0.08330.41670.0833  plane waves:  30486
 k-point 80 :  0.16670.41670.0833  plane waves:  30488
 k-point 81 :  0.25000.41670.0833  plane waves:  30497
 k-point 82 :  0.33330.41670.0833  plane waves:  30501
 k-point 83 :  0.41670.41670.0833  plane waves:  30477
 k-point 84 :  0.50000.41670.0833  plane waves:  30472
 k-point 85 :  0.00000.50000.0833  plane waves:  30472
 k-point 86 :  0.08330.50000.0833  plane waves:  30482
 k-point 87 :  0.16670.50000.0833  plane waves:  30496
 k-point 88 :  0.25000.50000.0833  plane waves:  30490
 k-point 89 :  0.33330.50000.0833  plane waves:  30480
 k-point 90 :  0.41670.50000.0833  plane waves:  30472
 k-point 91 :  0.50000.50000.0833  plane waves:  30480
 k-point 92 :  0.00000.16670.1667  plane waves:  30509
 k-point 93 :  0.08330.16670.1667  plane waves:  30515
 k-point 94 :  0.16670.16670.1667  plane waves:  30548
 k-point 95 :  0.25000.16670.1667  plane waves:  30512
 k-point 96 :  0.33330.16670.1667  plane waves:  30496
 k-point 97 :  0.41670.16670.1667  plane waves:  30483
 k-point 98 :  0.50000.16670.1667  plane waves:  30464
 k-point 99 :  0.00000.25000.1667  plane waves:  30507
 k-point ** :  0.08330.25000.1667  plane waves:  30507
 k-point ** :  0.16670.25000.1667  plane waves:  30512
 k-point ** :  0.25000.25000.1667  plane waves:  30491
 k-point ** :  0.33330.25000.1667  plane waves:  30481
 k-point ** :  0.41670.25000.1667  plane waves:  30491
 k-point ** :  0.50000.25000.1667  plane waves:  30502
 k-point ** :  0.00000.33330.1667  plane waves:  30482
 k-point ** :  0.08330.33330.1667  plane waves:  30490
 k-point ** :  0.16670.33330.1667  plane waves:  30496
 k-point ** :  0.25000.33330.1667  plane waves:  30481
 k-point ** :  0.33330.33330.1667  plane waves:  30519
 k-point ** :  0.41670.33330.1667  plane waves:  30491
 k-point ** :  0.50000.33330.1667  plane waves:  30482
 k-point ** :  0.00000.41670.1667  plane waves:  30497
 k-point ** :  0.08330.41670.1667  plane waves:  30488
 k-point ** :  0.16670.41670.1667  plane waves:  30483
 k-point ** :  0.25000.41670.1667  plane waves:  30491
 k-point ** :  0.33330.41670.1667  plane waves:  30491
 k-point ** :  0.41670.41670.1667  plane waves:  30487
 k-point ** :  0.50000.41670.1667  plane waves:  30506
 k-point ** :  0.00000.50000.1667  plane waves:  30498
 k-point ** :  0.08330.50000.1667  plane waves:  30496
 k-point ** :  0.16670.50000.1667  plane waves:  30464
 k-point ** :  0.25000.50000.1667  plane waves:  30502
 k-point ** :  0.33330.50000.1667  plane waves:  30482
 k-point ** :  0.41670.50000.1667  plane waves:  30506
 k-point ** :  0.50000.50000.1667  plane waves:  30448
 k-point ** :  0.00000.25000.2500  plane waves:  30529
 k-point ** :  0.08330.25000.2500  plane waves:  30506
 k-point ** :  0.16670.25000.2500  plane waves:  30491
 k-point ** :  0.25000.25000.2500  plane waves:  30451
 k-point ** :  0.33330.25000.2500  plane waves:  30478
 k-point ** :  0.41670.25000.2500  plane waves:  30503
 k-point ** :  0.50000.25000.2500  plane waves:  30490
 k-point ** :  0.00000.33330.2500  plane waves:  30486
 k-point ** :  0.08330.33330.2500  plane waves:  30495
 k-point ** :  0.16670.33330.2500  plane waves:  30481
 k-point ** :  0.25000.33330.2500  plane waves:  30478
 k-point ** :  0.33330.33330.2500  plane waves:  30516
 k-point ** :  0.41670.33330.2500  plane waves:  30498
 k-point ** :  0.50000.33330.2500  plane waves:  30484
 k-point ** :  0.00000.41670.2500  plane waves:  30484
 k-point ** :  0.08330.41670.2500  plane waves:  30497
 k-point ** :  0.16670.41670.2500  plane waves:  30491
 k-point ** :  0.25000.41670.2500  plane waves:  30503
 k-point ** :  0.33330.41670.2500  plane waves:  30498
 k-point ** :  0.41670.41670.2500  plane waves:  30476
 k-point ** :  0.50000.41670.2500  plane waves:  30468
 k-point ** :  0.00000.50000.2500  plane waves:  30538
 k-point ** :  0.08330.50000.2500  plane waves:  30490
 k-point ** :  0.16670.50000.2500  plane waves:  30502
 k-point ** :  0.25000.50000.2500  plane waves:  30490
 k-point ** :  0.33330.50000.2500  plane waves:  30484
 k-point ** :  0.41670.50000.2500  plane waves:  30468
 k-point ** :  0.50000.50000.2500  plane waves:  30492
 k-point ** :  0.00000.33330.3333  plane waves:  30522
 k-point ** :  0.08330.33330.3333  plane waves:  30496
 k-point ** :  0.16670.33330.3333  plane waves:  30519
 k-point ** :  0.25000.33330.3333  plane waves:  30516
 k-point ** :  0.33330.33330.3333  plane waves:  30436
 k-point ** :  0.41670.33330.3333  plane waves:  30463
 k-point ** :  0.50000.33330.3333  plane waves:  30460
 k-point ** :  0.00000.41670.3333  plane waves:  30494
 k-point ** :  0.08330.41670.3333  plane waves:  30501
 k-point ** :  0.16670.41670.3333  plane waves:  30491
 k-point ** :  0.25000.41670.3333  plane waves:  30498
 k-point ** :  0.33330.41670.3333  plane waves:  30463
 k-point ** :  0.41670.41670.3333  plane waves:  30498
 k-point ** :  0.50000.41670.3333  plane waves:  30468
 k-point ** :  0.00000.50000.3333  plane waves:  30478
 k-point ** :  0.08330.50000.3333  plane waves:  30480
 k-point ** :  0.16670.50000.3333  plane waves:  30482
 k-point ** :  0.25000.50000.3333  plane waves:  30484
 k-point ** :  0.33330.50000.3333  plane waves:  30460
 k-point ** :  0.41670.50000.3333  plane waves:  30468
 k-point ** :  0.50000.50000.3333  plane waves:  30496
 k-point ** :  0.00000.41670.4167  plane waves:  30482
 k-point ** :  0.08330.41670.4167  plane waves:  30477
 k-point ** :  0.16670.41670.4167  plane waves:  30487
 k-point ** :  0.25000.41670.4167  plane waves:  30476
 k-point ** :  0.33330.41670.4167  plane waves:  30498
 k-point ** :  0.41670.41670.4167  plane waves:  30475
 k-point ** :  0.50000.41670.4167  plane waves:  30486
 k-point ** :  0.00000.50000.4167  plane waves:  30498
 k-point ** :  0.08330.50000.4167  plane waves:  30472
 k-point ** :  0.16670.50000.4167  plane waves:  30506
 k-point ** :  0.25000.50000.4167  plane waves:  30468
 k-point ** :  0.33330.50000.4167  plane waves:  30468
 k-point ** :  0.41670.50000.4167  plane waves:  30486
 k-point ** :  0.50000.50000.4167  plane waves:  30520
 k-point ** :  0.00000.50000.5000  plane waves:  30528
 k-point ** :  0.08330.50000.5000  plane waves:  30480
 k-point ** :  0.16670.50000.5000  plane waves:  30448
 k-point ** :  0.25000.50000.5000  plane waves:  30492
 k-point ** :  0.33330.50000.5000  plane waves:  30496
 k-point ** :  0.41670.50000.5000  plane waves:  30520
 k-point ** :  0.50000.50000.5000  plane waves:  30592

 maximum and minimum number of plane-waves per node :  30603 30430

 maximum number of plane-waves:  30603
 maximal index in each direction: 
   IXMAX= 19   IYMAX= 19   IZMAX= 19
   IXMIN=-19   IYMIN=-19   IZMIN=-19

 NGX is ok and might be reduce to  78
 NGY is ok and might be reduce to  78
 NGZ is ok and might be reduce to  78

 parallel 3dFFT wavefunction:
    minimum data exchange during FFTs selected (reduces bandwidth)
 parallel 3dFFT charge:
    minimum data exchange during FFTs selected (reduces bandwidth)

 For storing wavefunctions ******* MBYTES are necessary
 For predicting wavefunctions  221.82 MBYTES are necessary
Broyden mixing: mesh for mixing (old mesh)
   NGX = 39   NGY = 39   NGZ = 39
  (NGX  =160   NGY  =160   NGZ  =160)
 gives a total of  59319 points
 initial charge density was supplied:
 charge density of overlapping atoms calculated
 number of electron  352.0000000 magnetization 
 keeping initial charge density in first step


--------------------------------------------------------------------------------------------------------


 Maximum index for augmentation-charges        92971 (set IRDMAX)


--------------------------------------------------------------------------------------------------------


 First call to EWALD:  gamma=   0.204
 Maximum number of real-space cells 3x 3x 3
 Maximum number of reciprocal cells 3x 3x 3

    FEWALD:  VPU time    0.00: CPU time    0.00


----------------------------------------- Iteration    1(   1)  ---------------------------------------


    POTLOK:  VPU time   11.64: CPU time   28.99
    SETDIJ:  VPU time    6.08: CPU time   34.38
    EDDAV :  VPU time 3657.77: CPU time 6501.87
    DOS   :  VPU time    0.00: CPU time   -0.04
    ------------------------------------------
      LOOP:  VPU time 3685.16: CPU time 6589.00

 eigenvalue-minimisations  : 83104
 total energy-change (2. order) : 0.4519184E+04  (-0.2053532E+05)
 number of electron  352.0000000 magnetization 
 augmentation part   352.0000000 magnetization 

 Free energy of the ion-electron system (eV)
  ---------------------------------------------------
  alpha Z        PSCENC =      2932.96694511
  Ewald energy   TEWEN  =    -29452.43368388
  -1/2 Hartree   DENC   =     -4736.65348745
  -V(xc)+E(xc)   XCENC  =       473.13371810
  PAW double counting   =     23920.39735419   -23172.13309131
  entropy T*S    EENTRO =        -0.00057529
  eigenvalues    EBANDS =      4920.11666705
  atomic energy  EATOM  =     29633.78979189
  ---------------------------------------------------
  free energy    TOTEN  =      4519.18363841 eV

  energy without entropy =     4519.18421370  energy(sigma->0) =     4519.18392606


--------------------------------------------------------------------------------------------------------




----------------------------------------- Iteration    1(   2)  ---------------------------------------


    EDDAV :  VPU time 3804.93: CPU time 5856.42
    DOS   :  VPU time   -0.01: CPU time   -0.09
    ------------------------------------------
      LOOP:  VPU time 3805.18: CPU time 5856.77

 eigenvalue-minimisations  : 83144
 total energy-change (2. order) :-0.4347159E+04  (-0.4164841E+04)
 number of electron  352.0000000 magnetization 
 augmentation part   352.0000000 magnetization 

 Free energy of the ion-electron system (eV)
  ---------------------------------------------------
  alpha Z        PSCENC =      2932.96694511
  Ewald energy   TEWEN  =    -29452.43368388
  -1/2 Hartree   DENC   =     -4736.65348745
  -V(xc)+E(xc)   XCENC  =       473.13371810
  PAW double counting   =     23920.39735419   -23172.13309131
  entropy T*S    EENTRO =        -0.00056253
  eigenvalues    EBANDS =       572.95798356
  atomic energy  EATOM  =     29633.78979189
  ---------------------------------------------------
  free energy    TOTEN  =       172.02496768 eV

  energy without entropy =      172.02553021  energy(sigma->0) =      172.02524895


--------------------------------------------------------------------------------------------------------




----------------------------------------- Iteration    1(   3)  ---------------------------------------


    EDDAV :  VPU time 2049.05: CPU time 2107.08
    DOS   :  VPU time    0.00: CPU time   -0.00
    ------------------------------------------
      LOOP:  VPU time 2049.28: CPU time 2107.32

 eigenvalue-minimisations  : 92628
 total energy-change (2. order) :-0.2701408E+03  (-0.2442106E+03)
 number of electron  352.0000000 magnetization 
 augmentation part   352.0000000 magnetization 

 Free energy of the ion-electron system (eV)
  ---------------------------------------------------
  alpha Z        PSCENC =      2932.96694511
  Ewald energy   TEWEN  =    -29452.43368388
  -1/2 Hartree   DENC   =     -4736.65348745
  -V(xc)+E(xc)   XCENC  =       473.13371810
  PAW double counting   =     23920.39735419   -23172.13309131
  entropy T*S    EENTRO =        -0.00080853
  eigenvalues    EBANDS =       302.81742022
  atomic energy  EATOM  =     29633.78979189
  ---------------------------------------------------
  free energy    TOTEN  =       -98.11584166 eV

  energy without entropy =      -98.11503313  energy(sigma->0) =      -98.11543739


--------------------------------------------------------------------------------------------------------




----------------------------------------- Iteration    1(   4)  ---------------------------------------


    EDDAV :  VPU time 2440.81: CPU time 2439.92
    DOS   :  VPU time    0.00: CPU time   -0.00
    ------------------------------------------
      LOOP:  VPU time 2441.05: CPU time 2440.16

 eigenvalue-minimisations  : 88960
 total energy-change (2. order) :-0.1067837E+02  (-0.1049699E+02)
 number of electron  352.0000000 magnetization 
 augmentation part   352.0000000 magnetization 

 Free energy of the ion-electron system (eV)
  ---------------------------------------------------
  alpha Z        PSCENC =      2932.96694511
  Ewald energy   TEWEN  =    -29452.43368388
  -1/2 Hartree   DENC   =     -4736.65348745
  -V(xc)+E(xc)   XCENC  =       473.13371810
  PAW double counting   =     23920.39735419   -23172.13309131
  entropy T*S    EENTRO =        -0.00074205
  eigenvalues    EBANDS =       292.13898792
  atomic energy  EATOM  =     29633.78979189
  ---------------------------------------------------
  free energy    TOTEN  =      -108.79420748 eV

  energy without entropy =     -108.79346543  energy(sigma->0) =     -108.79383645


--------------------------------------------------------------------------------------------------------




----------------------------------------- Iteration    1(   5)  ---------------------------------------


    EDDAV :  VPU time 6052.39: CPU time10647.96
    DOS   :  VPU time   -0.00: CPU time   -0.14
    CHARGE:  VPU time  540.37: CPU time 2390.63
    MIXING:  VPU time    0.56: CPU time    2.06
    ------------------------------------------
      LOOP:  VPU time 6594.61: CPU time13067.92

 eigenvalue-minimisations  : 90872
 total energy-change (2. order) :-0.2272618E+00  (-0.2265138E+00)
 number of electron  352.0000006 magnetization 
 augmentation part   124.8669688 magnetization 

 Broyden mixing:
  rms(total) = 0.15129E+01    rms(broyden)= 0.15129E+01
  rms(prec ) = 0.23122E+01
  weight for this iteration     100.00

 Free energy of the ion-electron system (eV)
  ---------------------------------------------------
  alpha Z        PSCENC =      2932.96694511
  Ewald energy   TEWEN  =    -29452.43368388
  -1/2 Hartree   DENC   =     -4736.65348745
  -V(xc)+E(xc)   XCENC  =       473.13371810
  PAW double counting   =     23920.39735419   -23172.13309131
  entropy T*S    EENTRO =        -0.00074618
  eigenvalues    EBANDS =       291.91173026
  atomic energy  EATOM  =     29633.78979189
  ---------------------------------------------------
  free energy    TOTEN  =      -109.02146927 eV

  energy without entropy =     -109.02072309  energy(sigma->0) =     -109.02109618


--------------------------------------------------------------------------------------------------------




----------------------------------------- Iteration    1(   6)  ---------------------------------------


    POTLOK:  VPU time   12.62: CPU time   61.36
    SETDIJ:  VPU time    3.54: CPU time   20.68
    EDDAV :  VPU time 4206.18: CPU time 6811.78
    DOS   :  VPU time    0.00: CPU time   -0.00
    CHARGE:  VPU time   94.49: CPU time   94.57
    MIXING:  VPU time    0.21: CPU time    1.34
    ------------------------------------------
      LOOP:  VPU time 4317.28: CPU time 6990.01

 eigenvalue-minimisations  : 87632
 total energy-change (2. order) : 0.6926689E+01  (-0.2125011E+01)
 number of electron  352.0000006 magnetization 
 augmentation part   129.2952130 magnetization 

 Broyden mixing:
  rms(total) = 0.36633E+00    rms(broyden)= 0.36633E+00
  rms(prec ) = 0.52320E+00
  weight for this iteration     100.00

 eigenvalues of (default mixing * dielectric matrix)
  average eigenvalue GAMMA=   1.1493
  1.1493

 Free energy of the ion-electron system (eV)
  ---------------------------------------------------
  alpha Z        PSCENC =      2932.96694511
  Ewald energy   TEWEN  =    -29452.43368388
  -1/2 Hartree   DENC   =     -4487.12103952
  -V(xc)+E(xc)   XCENC  =       462.04578331
  PAW double counting   =     23510.42758165   -22791.34862683
  entropy T*S    EENTRO =        -0.00060449
  eigenvalues    EBANDS =        89.57907208
  atomic energy  EATOM  =     29633.78979189
  ---------------------------------------------------
  free energy    TOTEN  =      -102.09478069 eV

  energy without entropy =     -102.09417620  energy(sigma->0) =     -102.09447845


--------------------------------------------------------------------------------------------------------




----------------------------------------- Iteration    1(   7)  ---------------------------------------


    POTLOK:  VPU time    0.94: CPU time    1.53
    SETDIJ:  VPU time    1.12: CPU time    1.23
    EDDAV :  VPU time 3359.47: CPU time 3358.76
    DOS   :  VPU time    0.00: CPU time   -0.00
    CHARGE:  VPU time  138.06: CPU time  138.02
    MIXING:  VPU time    0.10: CPU time    0.22
    ------------------------------------------
      LOOP:  VPU time 3499.93: CPU time 3500.00

 eigenvalue-minimisations  : 92372
 total energy-change (2. order) : 0.2560594E+00  (-0.9942444E-01)
 number of electron  352.0000006 magnetization 
 augmentation part   130.1377440 magnetization 

 Broyden mixing:
  rms(total) = 0.17982E+00    rms(broyden)= 0.17982E+00
  rms(prec ) = 0.21156E+00
  weight for this iteration     100.00

 eigenvalues of (default mixing * dielectric matrix)
  average eigenvalue GAMMA=   1.8250
  1.1635  2.4864

 Free energy of the ion-electron system (eV)
  ---------------------------------------------------
  alpha Z        PSCENC =      2932.96694511
  Ewald energy   TEWEN  =    -29452.43368388
  -1/2 Hartree   DENC   =     -4428.19712239
  -V(xc)+E(xc)   XCENC  =       459.27591015
  PAW double counting   =     23481.75000766   -22778.67547315
  entropy T*S    EENTRO =        -0.00055065
  eigenvalues    EBANDS =        49.68545398
  atomic energy  EATOM  =     29633.78979189
[...]
     68      -0.0338      2.00000
     69      -0.0332      2.00000
     70      -0.0332      2.00000
     71      -0.0331      2.00000
     72      -0.0331      2.00000
     73      -0.0328      2.00000
     74      -0.0328      2.00000
     75      -0.0328      2.00000
     76      -0.0327      2.00000
     77      -0.0321      2.00000
     78      -0.0321      2.00000
     79      -0.0317      2.00000
     80      -0.0317      2.00000
     81       0.0851      2.00000
     82       0.0851      2.00000
     83       0.0859      2.00000
     84       0.0864      2.00000
     85       0.0878      2.00000
     86       0.0884      2.00000
     87       0.0885      2.00000
     88       0.0885      2.00000
     89       0.0886      2.00000
     90       0.0886      2.00000
     91       0.0886      2.00000
     92       0.0886      2.00000
     93       0.0887      2.00000
     94       0.0887      2.00000
     95       0.0887      2.00000
     96       0.0887      2.00000
     97       0.0888      2.00000
     98       0.0888      2.00000
     99       0.0888      2.00000
    100       0.0894      2.00000
    101       0.0909      2.00000
    102       0.0913      2.00000
    103       0.0922      2.00000
    104       0.0922      2.00000
    105       0.6345      2.00000
    106       0.6357      2.00000
    107       0.6357      2.00000
    108       0.6377      2.00000
    109       0.6378      2.00000
    110       0.6379      2.00000
    111       0.6379      2.00000
    112       0.6382      2.00000
    113       0.6383      2.00000
    114       0.6383      2.00000
    115       0.6383      2.00000
    116       0.6383      2.00000
    117       0.6384      2.00000
    118       0.6384      2.00000
    119       0.6384      2.00000
    120       0.6384      2.00000
    121       0.6385      2.00000
    122       0.6387      2.00000
    123       0.6387      2.00000
    124       0.6388      2.00000
    125       0.6390      2.00000
    126       0.6409      2.00000
    127       0.6409      2.00000
    128       0.6422      2.00000
    129       0.9864      2.00000
    130       0.9876      2.00000
    131       0.9877      2.00000
    132       0.9877      2.00000
    133       0.9887      2.00000
    134       0.9887      2.00000
    135       0.9889      2.00000
    136       0.9889      2.00000
    137       0.9890      2.00000
    138       0.9891      2.00000
    139       0.9893      2.00000
    140       0.9893      2.00000
    141       0.9903      2.00000
    142       0.9903      2.00000
    143       0.9903      2.00000
    144       0.9916      2.00000
    145       1.7862      2.00000
    146       1.7862      2.00000
    147       1.7864      2.00000
    148       1.7866      2.00000
    149       1.7867      2.00000
    150       1.7867      2.00000
    151       1.7867      2.00000
    152       1.7867      2.00000
    153       1.7868      2.00000
    154       1.7869      2.00000
    155       1.7869      2.00000
    156       1.7869      2.00000
    157       1.7870      2.00000
    158       1.7871      2.00000
    159       1.7871      2.00000
    160       1.7872      2.00000
    161       1.7872      2.00000
    162       1.7873      2.00000
    163       1.7873      2.00000
    164       1.7873      2.00000
    165       1.7873      2.00000
    166       1.7875      2.00000
    167       1.7877      2.00000
    168       1.7877      2.00000
    169       4.4341      0.00000
    170       4.4375      0.00000
    171       4.4375      0.00000
    172       4.4391      0.00000
    173       4.4395      0.00000
    174       4.4398      0.00000
    175       4.4398      0.00000
    176       4.4398      0.00000
    177       4.4399      0.00000
    178       4.4399      0.00000
    179       4.4399      0.00000
    180       4.4400      0.00000
    181       4.4401      0.00000
    182       4.4402      0.00000
    183       4.4402      0.00000
    184       4.4402      0.00000
    185       4.4402      0.00000
    186       4.4402      0.00000
    187       4.4402      0.00000
    188       4.4405      0.00000
    189       4.4410      0.00000
    190       4.4425      0.00000
    191       4.4425      0.00000
    192       4.4460      0.00000
    193       8.5037      0.00000
    194       8.5042      0.00000
    195       8.5066      0.00000
    196       8.5069      0.00000
    197       8.5075      0.00000
    198       8.5077      0.00000
    199       8.5079      0.00000
    200       8.5081      0.00000
    201       8.5082      0.00000
    202       8.5082      0.00000
    203       8.5083      0.00000
    204       8.5083      0.00000
    205       8.5084      0.00000
    206       8.5087      0.00000
    207       8.5088      0.00000
    208       8.5089      0.00000
    209       8.5092      0.00000
    210       8.5098      0.00000
    211       8.5104      0.00000
    212       8.5116      0.00000


--------------------------------------------------------------------------------------------------------


 soft charge-density along one line, spin component           1
         0         1         2         3         4         5         6         7         8         9
 total charge-density along one line
 
 pseudopotential strength for first ion, spin component:           1
-10.473  -0.000   0.000  -0.000   0.000  -0.007   0.000  -0.000
 -0.000 -10.473   0.000  -0.000   0.000   0.000  -0.007  -0.000
  0.000   0.000 -10.461   0.000  -0.000  -0.000  -0.000  -0.009
 -0.000  -0.000   0.000 -10.473  -0.000   0.000   0.000  -0.000
  0.000   0.000  -0.000  -0.000 -10.461  -0.000  -0.000   0.000
 -0.007   0.000  -0.000   0.000  -0.000   0.271  -0.000   0.000
  0.000  -0.007  -0.000   0.000  -0.000  -0.000   0.271   0.000
 -0.000  -0.000  -0.009  -0.000   0.000   0.000   0.000   0.271
  0.000   0.000  -0.000  -0.007   0.000  -0.000  -0.000   0.000
 -0.000  -0.000   0.000   0.000  -0.009   0.000   0.000  -0.000
  0.000   0.000   0.000   0.000  -0.000   0.000   0.000  -0.000
 -0.000  -0.000  -0.000  -0.000   0.000   0.000   0.000   0.000
 -0.000  -0.000   0.000  -0.000  -0.000   0.000   0.000  -0.000
 -0.000  -0.000   0.000  -0.000  -0.000   0.000   0.000   0.000
 -0.000  -0.000   0.000  -0.000  -0.000   0.000   0.000  -0.000
  0.000   0.000  -0.000   0.000   0.000  -0.000  -0.000   0.000
  0.000  -0.000  -0.000   0.000   0.000  -0.000  -0.000   0.000
  0.000   0.000  -0.000   0.000   0.000  -0.000  -0.000   0.000
 total augmentation occupancy for first ion, spin component:           1
  1.907  -0.000  -0.002  -0.001  -0.001  -0.066   0.000  -0.000   0.001   0.001   0.004  -0.000   0.000   0.000  -0.000  -0.000
 -0.000   1.913  -0.001  -0.001  -0.002   0.000  -0.072   0.002   0.001   0.000   0.004  -0.000   0.000   0.000  -0.000  -0.000
 -0.002  -0.001   1.961  -0.000  -0.004  -0.000   0.002  -0.108   0.001   0.002   0.013   0.003   0.000  -0.000   0.000  -0.000
 -0.001  -0.001  -0.000   1.919   0.001   0.001   0.001   0.001  -0.077   0.001   0.003  -0.001   0.000   0.000  -0.000  -0.000
 -0.001  -0.002  -0.004   0.001   1.949   0.001   0.000   0.002   0.001  -0.100   0.007   0.002   0.000   0.000  -0.000  -0.000
 -0.066   0.000  -0.000   0.001   0.001   0.121  -0.000   0.002  -0.000  -0.000  -0.001   0.001   0.001  -0.000   0.000  -0.000
  0.000  -0.072   0.002   0.001   0.000  -0.000   0.125  -0.002  -0.001   0.001  -0.000   0.001  -0.000  -0.000   0.000   0.000
 -0.000   0.002  -0.108   0.001   0.002   0.002  -0.002   0.100  -0.002  -0.001  -0.008  -0.001   0.000   0.000  -0.000   0.000
  0.001   0.001   0.001  -0.077   0.001  -0.000  -0.001  -0.002   0.129  -0.002   0.000   0.002  -0.000   0.001   0.000   0.000
  0.001   0.000   0.002   0.001  -0.100  -0.000   0.001  -0.001  -0.002   0.096  -0.005  -0.001  -0.000  -0.000   0.001   0.000
  0.004   0.004   0.013   0.003   0.007  -0.001  -0.000  -0.008   0.000  -0.005   0.999  -0.282   0.000  -0.000   0.002  -0.000
 -0.000  -0.000   0.003  -0.001   0.002   0.001   0.001  -0.001   0.002  -0.001  -0.282   0.158   0.000   0.000  -0.001  -0.000
  0.000   0.000   0.000   0.000   0.000   0.001  -0.000   0.000  -0.000  -0.000   0.000   0.000   0.107   0.001   0.002  -0.008
  0.000   0.000  -0.000   0.000   0.000  -0.000  -0.000   0.000   0.001  -0.000  -0.000   0.000   0.001   0.108  -0.000  -0.000
 -0.000  -0.000   0.000  -0.000  -0.000   0.000   0.000  -0.000   0.000   0.001   0.002  -0.001   0.002  -0.000   0.108  -0.000
 -0.000  -0.000  -0.000  -0.000  -0.000  -0.000   0.000   0.000   0.000   0.000  -0.000  -0.000  -0.008  -0.000  -0.000   0.001
 -0.000  -0.000   0.000  -0.000   0.000   0.000   0.000  -0.000  -0.000  -0.000   0.000   0.000  -0.000  -0.008  -0.000   0.000
  0.000   0.000   0.000   0.000  -0.000  -0.000  -0.000   0.000  -0.000  -0.000  -0.000   0.000  -0.000  -0.000  -0.008   0.000


------------------------ aborting loop because EDIFF is reached ----------------------------------------




--------------------------------------------------------------------------------------------------------


    CHARGE:  VPU time  111.32: CPU time  111.28
    FORLOC:  VPU time    0.14: CPU time    0.14
    FORNL :  VPU time  960.77: CPU time  960.78
    STRESS:  VPU time 1508.10: CPU time 1507.54
    FORCOR:  VPU time    0.90: CPU time    0.90
    FORHAR:  VPU time    0.27: CPU time    0.28
    MIXING:  VPU time    0.03: CPU time    0.03


--------------------------------------------------------------------------------------------------------



  FREE ENERGIE OF THE ION-ELECTRON SYSTEM (eV)
  ---------------------------------------------------
  free  energy   TOTEN  =      -101.786508 eV

  energy  without entropy=     -101.785947  energy(sigma->0) =     -101.786227
 

  FORCE on cell =-STRESS in cart. coord.  units (eV/reduce length):
  Direction    X        Y        Z        XY       YZ       ZX
  --------------------------------------------------------------------------------------
  Alpha Z   2932.97   2932.97   2932.97
  Ewald    -9817.54  -9817.51  -9817.51     -0.00     -0.00     -0.00
  Hartree   1467.60   1467.62   1467.62     -0.00     -0.00     -0.00
  E(xc)    -1576.19  -1576.19  -1576.19      0.00     -0.00      0.00
  Local     2362.41   2362.36   2362.36     -0.00      0.00      0.00
  n-local  -1673.46  -1679.58  -1667.35      3.28      2.48      1.69
  augment   1376.98   1376.98   1376.98     -0.00     -0.00     -0.00
  Kinetic   4881.49   4875.49   4887.50      0.51     -0.49     -1.50
  -------------------------------------------------------------------------------------
  Total      -45.74    -45.74    -45.74      0.00      0.00      0.00
  in kB     -112.09   -112.09   -112.09      0.00      0.00      0.00
  external pressure =     -112.09 kB  Pullay stress =        0.00 kB


 VOLUME and BASIS-vectors are now :
 -----------------------------------------------------------------------------
  energy-cutoff  :      750.00
  volume of cell :      653.87
      direct lattice vectors                 reciprocal lattice vectors
     8.679531957  0.000000000  0.000000000     0.115213586  0.000000000  0.000000000
     0.000000000  8.679531957  0.000000000     0.000000000  0.115213586  0.000000000
     0.000000000  0.000000000  8.679531957     0.000000000  0.000000000  0.115213586

  length of vectors
     8.679531957  8.679531957  8.679531957     0.115213586  0.115213586  0.115213586


 FORCES acting on ions
    electron-ion (+dipol)            ewald-force                    non-local-force                 convergence-correction
 -----------------------------------------------------------------------------------------------
   0.348E+01 0.388E-13 0.172E-07   -.346E+01 0.178E-13 -.817E-13   -.363E-01 0.603E-19 -.361E-19   -.285E-04 0.905E-13 -.114E-12
   -.904E+00 0.102E-12 -.175E-07   0.913E+00 -.284E-13 -.568E-13   -.595E-02 -.266E-20 0.837E-21   -.899E-05 0.572E-13 -.178E-12
   0.288E+00 -.357E-13 0.307E-11   -.289E+00 -.107E-13 -.462E-13   0.672E-03 0.228E-19 -.616E-21   0.645E-06 -.205E-12 -.706E-13
   -.233E+00 0.118E-11 0.290E-11   0.227E+00 -.142E-13 -.426E-13   0.345E-02 -.156E-20 0.858E-21   0.324E-05 -.160E-12 -.943E-13
   0.288E+00 0.444E-13 0.837E-11   -.289E+00 0.711E-14 -.355E-13   0.672E-03 -.792E-20 0.715E-20   0.981E-06 0.907E-13 -.286E-15
   -.233E+00 0.548E-13 0.948E-11   0.227E+00 0.000E+00 -.284E-13   0.345E-02 -.546E-21 0.565E-21   0.316E-05 0.577E-13 0.573E-13
   0.121E+00 -.420E-13 -.292E-13   -.119E+00 -.107E-13 0.178E-13   -.126E-02 -.121E-20 -.155E-20   -.328E-05 -.206E-12 -.532E-13
   -.112E+00 -.490E-11 0.132E-11   0.112E+00 -.426E-13 0.142E-13   -.193E-03 0.110E-19 -.198E-20   0.160E-05 -.161E-12 -.282E-13
   -.440E+00 -.841E+00 0.570E-11   0.439E+00 0.843E+00 -.391E-13   0.392E-02 0.195E-02 -.766E-20   0.474E-05 0.339E-05 -.146E-12
   -.442E+00 0.835E+00 -.859E-12   0.441E+00 -.837E+00 -.391E-13   0.382E-02 -.186E-02 0.282E-20   0.442E-05 -.190E-05 -.102E-12
   -.440E+00 0.841E+00 0.561E-11   0.439E+00 -.843E+00 -.568E-13   0.392E-02 -.195E-02 0.505E-20   0.474E-05 -.339E-05 -.119E-12
   -.442E+00 -.835E+00 0.115E-10   0.441E+00 0.837E+00 -.568E-13   0.382E-02 0.186E-02 0.317E-20   0.442E-05 0.190E-05 -.865E-13
   -.127E-01 -.694E-01 -.260E-11   0.134E-01 0.693E-01 -.746E-13   -.426E-03 0.823E-04 0.118E-20   -.168E-05 -.939E-06 0.277E-13
   -.140E-01 0.693E-01 -.159E-11   0.147E-01 -.692E-01 -.746E-13   -.426E-03 -.805E-04 -.398E-21   -.877E-06 -.180E-07 -.139E-13
   -.127E-01 0.694E-01 -.251E-11   0.134E-01 -.693E-01 0.000E+00   -.426E-03 -.823E-04 -.431E-21   -.168E-05 0.939E-06 -.917E-14
   -.140E-01 -.693E-01 -.141E-10   0.147E-01 0.692E-01 0.568E-13   -.426E-03 0.805E-04 -.496E-21   -.877E-06 0.180E-07 -.349E-13
   -.440E+00 0.412E-13 -.841E+00   0.439E+00 -.320E-13 0.843E+00   0.392E-02 -.227E-20 0.195E-02   0.466E-05 0.519E-13 0.345E-05
   -.442E+00 0.466E-13 0.835E+00   0.441E+00 -.320E-13 -.837E+00   0.382E-02 -.576E-20 -.186E-02   0.435E-05 0.736E-13 -.196E-05
   -.127E-01 0.651E-12 -.694E-01   0.134E-01 -.639E-13 0.693E-01   -.426E-03 0.111E-20 0.823E-04   -.166E-05 -.158E-12 -.874E-06
   -.140E-01 0.760E-11 0.693E-01   0.147E-01 -.639E-13 -.692E-01   -.426E-03 0.862E-21 -.805E-04   -.857E-06 -.183E-12 -.820E-07
   -.440E+00 0.746E-13 0.841E+00   0.439E+00 -.568E-13 -.843E+00   0.392E-02 -.129E-19 -.195E-02   0.466E-05 0.836E-13 -.345E-05
   -.442E+00 0.528E-13 -.835E+00   0.441E+00 -.568E-13 0.837E+00   0.382E-02 0.456E-20 0.186E-02   0.435E-05 0.916E-13 0.196E-05
   -.127E-01 0.779E-12 0.694E-01   0.134E-01 -.568E-13 -.693E-01   -.426E-03 0.402E-21 -.823E-04   -.166E-05 -.190E-12 0.874E-06
   -.140E-01 -.507E-11 -.693E-01   0.147E-01 -.284E-13 0.692E-01   -.426E-03 -.155E-20 0.805E-04   -.857E-06 -.201E-12 0.820E-07
   0.541E+00 0.197E-02 0.197E-02   -.545E+00 -.198E-02 -.198E-02   0.246E-02 0.547E-05 0.547E-05   0.976E-06 0.325E-06 0.324E-06
   -.306E+00 -.581E-03 -.581E-03   0.307E+00 0.592E-03 0.592E-03   -.487E-03 -.802E-05 -.802E-05   0.184E-06 -.135E-06 -.135E-06
   0.541E+00 -.197E-02 0.197E-02   -.545E+00 0.198E-02 -.198E-02   0.246E-02 -.547E-05 0.547E-05   0.976E-06 -.325E-06 0.324E-06
   -.306E+00 0.581E-03 -.581E-03   0.307E+00 -.592E-03 0.592E-03   -.487E-03 0.802E-05 -.802E-05   0.184E-06 0.135E-06 -.135E-06
   0.541E+00 0.197E-02 -.197E-02   -.545E+00 -.198E-02 0.198E-02   0.246E-02 0.547E-05 -.547E-05   0.976E-06 0.325E-06 -.324E-06
   -.306E+00 -.581E-03 0.581E-03   0.307E+00 0.592E-03 -.592E-03   -.487E-03 -.802E-05 0.802E-05   0.184E-06 -.135E-06 0.135E-06
   0.541E+00 -.197E-02 -.197E-02   -.545E+00 0.198E-02 0.198E-02   0.246E-02 -.547E-05 -.547E-05   0.976E-06 -.325E-06 -.324E-06
   -.306E+00 0.581E-03 0.581E-03   0.307E+00 -.592E-03 -.592E-03   -.487E-03 0.802E-05 0.802E-05   0.184E-06 0.135E-06 0.135E-06
 -----------------------------------------------------------------------------------------------
   -.166E-05 0.379E-11 -.106E-09   0.131E-13 0.237E-13 -.145E-12   0.240E-05 0.202E-18 -.266E-18   -.311E-06 -.391E-12 -.573E-12
 
 
 POSITION                                       TOTAL-FORCE (eV/Angst)
 -----------------------------------------------------------------------------------
      0.01000      0.00000      0.00000        -0.019145      0.000000      0.000000
      4.33977      0.00000      0.00000         0.003724      0.000000     -0.000000
      0.00000      4.33977      0.00000        -0.000553     -0.000000     -0.000000
      4.33977      4.33977      0.00000        -0.001984      0.000000     -0.000000
      0.00000      0.00000      4.33977        -0.000553     -0.000000      0.000000
      4.33977      0.00000      4.33977        -0.001984     -0.000000     -0.000000
      0.00000      4.33977      4.33977         0.000323     -0.000000     -0.000000
      4.33977      4.33977      4.33977        -0.000165     -0.000000     -0.000000
      2.16988      2.16988      0.00000         0.003025      0.004117      0.000000
      6.50965      2.16988      0.00000         0.002873     -0.003913      0.000000
      2.16988      6.50965      0.00000         0.003025     -0.004117      0.000000
      6.50965      6.50965      0.00000         0.002873      0.003913      0.000000
      2.16988      2.16988      4.33977         0.000256      0.000029     -0.000000
      6.50965      2.16988      4.33977         0.000255     -0.000027      0.000000
      2.16988      6.50965      4.33977         0.000256     -0.000029      0.000000
      6.50965      6.50965      4.33977         0.000255      0.000027      0.000000
      2.16988      0.00000      2.16988         0.003025      0.000000      0.004117
      6.50965      0.00000      2.16988         0.002873     -0.000000     -0.003913
      2.16988      4.33977      2.16988         0.000256     -0.000000      0.000029
      6.50965      4.33977      2.16988         0.000255     -0.000000     -0.000027
      2.16988      0.00000      6.50965         0.003025      0.000000     -0.004117
      6.50965      0.00000      6.50965         0.002873     -0.000000      0.003913
      2.16988      4.33977      6.50965         0.000256      0.000000     -0.000029
      6.50965      4.33977      6.50965         0.000255     -0.000000      0.000027
      0.00000      2.16988      2.16988        -0.002038      0.000002      0.000002
      4.33977      2.16988      2.16988         0.000712      0.000003      0.000003
      0.00000      6.50965      2.16988        -0.002038     -0.000002      0.000002
      4.33977      6.50965      2.16988         0.000712     -0.000003      0.000003
      0.00000      2.16988      6.50965        -0.002038      0.000002     -0.000002
      4.33977      2.16988      6.50965         0.000712      0.000003     -0.000003
      0.00000      6.50965      6.50965        -0.002038     -0.000002     -0.000002
      4.33977      6.50965      6.50965         0.000712     -0.000003     -0.000003
 -----------------------------------------------------------------------------------
    total drift:                                0.000000      0.000000     -0.000000


--------------------------------------------------------------------------------------------------------



 mean value of Nose-termostat <S>:     1.000 mean value of <T> :     0.000
 mean temperature <T/S>/<1/S>  :     0.000

     LOOP+:  VPU time84160.76: CPU time********
  
  
 General timing and accounting informations for this job:
 ========================================================
  
                  Total CPU time used (sec):    84578.809
                            User time (sec):    57439.204
                          System time (sec):    27139.605
                         Elapsed time (sec):   171986.755
  
                   Maximum memory used (kb):     9481636.
                   Average memory used (kb):           0.
  
                          Minor page faults:     11037057
                          Major page faults:      1323636
                 Voluntary context switches:      1733212
