<?xml version="1.0" encoding="ISO-8859-1"?>
<modeling>
 <generator>
  <i name="program" type="string">vasp</i>
  <i name="version" type="string">4.6.28 </i>
  <i name="subversion" type="string">25Jul05 complex  parallel</i>
  <i name="platform" type="string">LinuxIFC</i>
  <i name="date" type="string">2017 01 11</i>
  <i name="time" type="string">02:54:14</i>
 </generator>
 <incar>
  <i type="string" name="PREC">accurate</i>
  <i type="int" name="IALGO">    38</i>
  <i type="logical" name="ADDGRID"> T  </i>
  <i name="EDIFF">      0.00000001</i>
  <i type="int" name="IBRION">    -1</i>
  <i name="ENCUT">    750.00000000</i>
  <i type="logical" name="LREAL"> F  </i>
  <i type="int" name="ISMEAR">     0</i>
  <i name="SIGMA">      0.01000000</i>
  <i type="logical" name="LWAVE"> F  </i>
  <i type="logical" name="LCHARG"> F  </i>
 </incar>
 <kpoints>
  <generation param="Gamma">
   <v type="int" name="divisions">      12      12      12</v>
   <v name="usershift">      0.00000000      0.00000000      0.00000000</v>
   <v name="genvec1">      0.08333333      0.00000000      0.00000000</v>
   <v name="genvec2">      0.00000000      0.08333333      0.00000000</v>
   <v name="genvec3">      0.00000000      0.00000000      0.08333333</v>
   <v name="shift">      0.00000000      0.00000000      0.00000000</v>
  </generation>
  <varray name="kpointlist" >
   <v>       0.00000000      0.00000000      0.00000000</v>
   <v>       0.08333333      0.00000000      0.00000000</v>
   <v>       0.16666667      0.00000000      0.00000000</v>
   <v>       0.25000000      0.00000000      0.00000000</v>
   <v>       0.33333333      0.00000000      0.00000000</v>
   <v>       0.41666667      0.00000000      0.00000000</v>
   <v>       0.50000000      0.00000000      0.00000000</v>
   <v>       0.00000000      0.08333333      0.00000000</v>
   <v>       0.08333333      0.08333333      0.00000000</v>
   <v>       0.16666667      0.08333333      0.00000000</v>
   <v>       0.25000000      0.08333333      0.00000000</v>
   <v>       0.33333333      0.08333333      0.00000000</v>
   <v>       0.41666667      0.08333333      0.00000000</v>
   <v>       0.50000000      0.08333333      0.00000000</v>
   <v>       0.00000000      0.16666667      0.00000000</v>
   <v>       0.08333333      0.16666667      0.00000000</v>
   <v>       0.16666667      0.16666667      0.00000000</v>
   <v>       0.25000000      0.16666667      0.00000000</v>
   <v>       0.33333333      0.16666667      0.00000000</v>
   <v>       0.41666667      0.16666667      0.00000000</v>
   <v>       0.50000000      0.16666667      0.00000000</v>
   <v>       0.00000000      0.25000000      0.00000000</v>
   <v>       0.08333333      0.25000000      0.00000000</v>
   <v>       0.16666667      0.25000000      0.00000000</v>
   <v>       0.25000000      0.25000000      0.00000000</v>
   <v>       0.33333333      0.25000000      0.00000000</v>
   <v>       0.41666667      0.25000000      0.00000000</v>
   <v>       0.50000000      0.25000000      0.00000000</v>
   <v>       0.00000000      0.33333333      0.00000000</v>
   <v>       0.08333333      0.33333333      0.00000000</v>
   <v>       0.16666667      0.33333333      0.00000000</v>
   <v>       0.25000000      0.33333333      0.00000000</v>
   <v>       0.33333333      0.33333333      0.00000000</v>
   <v>       0.41666667      0.33333333      0.00000000</v>
   <v>       0.50000000      0.33333333      0.00000000</v>
   <v>       0.00000000      0.41666667      0.00000000</v>
   <v>       0.08333333      0.41666667      0.00000000</v>
   <v>       0.16666667      0.41666667      0.00000000</v>
   <v>       0.25000000      0.41666667      0.00000000</v>
   <v>       0.33333333      0.41666667      0.00000000</v>
   <v>       0.41666667      0.41666667      0.00000000</v>
   <v>       0.50000000      0.41666667      0.00000000</v>
   <v>       0.00000000      0.50000000      0.00000000</v>
   <v>       0.08333333      0.50000000      0.00000000</v>
   <v>       0.16666667      0.50000000      0.00000000</v>
   <v>       0.25000000      0.50000000      0.00000000</v>
   <v>       0.33333333      0.50000000      0.00000000</v>
   <v>       0.41666667      0.50000000      0.00000000</v>
   <v>       0.50000000      0.50000000      0.00000000</v>
   <v>       0.00000000      0.08333333      0.08333333</v>
   <v>       0.08333333      0.08333333      0.08333333</v>
   <v>       0.16666667      0.08333333      0.08333333</v>
   <v>       0.25000000      0.08333333      0.08333333</v>
   <v>       0.33333333      0.08333333      0.08333333</v>
   <v>       0.41666667      0.08333333      0.08333333</v>
   <v>       0.50000000      0.08333333      0.08333333</v>
   <v>       0.00000000      0.16666667      0.08333333</v>
   <v>       0.08333333      0.16666667      0.08333333</v>
   <v>       0.16666667      0.16666667      0.08333333</v>
   <v>       0.25000000      0.16666667      0.08333333</v>
   <v>       0.33333333      0.16666667      0.08333333</v>
   <v>       0.41666667      0.16666667      0.08333333</v>
   <v>       0.50000000      0.16666667      0.08333333</v>
   <v>       0.00000000      0.25000000      0.08333333</v>
   <v>       0.08333333      0.25000000      0.08333333</v>
   <v>       0.16666667      0.25000000      0.08333333</v>
   <v>       0.25000000      0.25000000      0.08333333</v>
   <v>       0.33333333      0.25000000      0.08333333</v>
   <v>       0.41666667      0.25000000      0.08333333</v>
   <v>       0.50000000      0.25000000      0.08333333</v>
   <v>       0.00000000      0.33333333      0.08333333</v>
   <v>       0.08333333      0.33333333      0.08333333</v>
   <v>       0.16666667      0.33333333      0.08333333</v>
   <v>       0.25000000      0.33333333      0.08333333</v>
   <v>       0.33333333      0.33333333      0.08333333</v>
   <v>       0.41666667      0.33333333      0.08333333</v>
   <v>       0.50000000      0.33333333      0.08333333</v>
   <v>       0.00000000      0.41666667      0.08333333</v>
   <v>       0.08333333      0.41666667      0.08333333</v>
   <v>       0.16666667      0.41666667      0.08333333</v>
   <v>       0.25000000      0.41666667      0.08333333</v>
   <v>       0.33333333      0.41666667      0.08333333</v>
   <v>       0.41666667      0.41666667      0.08333333</v>
   <v>       0.50000000      0.41666667      0.08333333</v>
   <v>       0.00000000      0.50000000      0.08333333</v>
   <v>       0.08333333      0.50000000      0.08333333</v>
   <v>       0.16666667      0.50000000      0.08333333</v>
   <v>       0.25000000      0.50000000      0.08333333</v>
   <v>       0.33333333      0.50000000      0.08333333</v>
   <v>       0.41666667      0.50000000      0.08333333</v>
   <v>       0.50000000      0.50000000      0.08333333</v>
   <v>       0.00000000      0.16666667      0.16666667</v>
   <v>       0.08333333      0.16666667      0.16666667</v>
   <v>       0.16666667      0.16666667      0.16666667</v>
   <v>       0.25000000      0.16666667      0.16666667</v>
   <v>       0.33333333      0.16666667      0.16666667</v>
   <v>       0.41666667      0.16666667      0.16666667</v>
   <v>       0.50000000      0.16666667      0.16666667</v>
   <v>       0.00000000      0.25000000      0.16666667</v>
   <v>       0.08333333      0.25000000      0.16666667</v>
   <v>       0.16666667      0.25000000      0.16666667</v>
   <v>       0.25000000      0.25000000      0.16666667</v>
   <v>       0.33333333      0.25000000      0.16666667</v>
   <v>       0.41666667      0.25000000      0.16666667</v>
   <v>       0.50000000      0.25000000      0.16666667</v>
   <v>       0.00000000      0.33333333      0.16666667</v>
   <v>       0.08333333      0.33333333      0.16666667</v>
   <v>       0.16666667      0.33333333      0.16666667</v>
   <v>       0.25000000      0.33333333      0.16666667</v>
   <v>       0.33333333      0.33333333      0.16666667</v>
   <v>       0.41666667      0.33333333      0.16666667</v>
   <v>       0.50000000      0.33333333      0.16666667</v>
   <v>       0.00000000      0.41666667      0.16666667</v>
   <v>       0.08333333      0.41666667      0.16666667</v>
   <v>       0.16666667      0.41666667      0.16666667</v>
   <v>       0.25000000      0.41666667      0.16666667</v>
   <v>       0.33333333      0.41666667      0.16666667</v>
   <v>       0.41666667      0.41666667      0.16666667</v>
   <v>       0.50000000      0.41666667      0.16666667</v>
   <v>       0.00000000      0.50000000      0.16666667</v>
   <v>       0.08333333      0.50000000      0.16666667</v>
   <v>       0.16666667      0.50000000      0.16666667</v>
   <v>       0.25000000      0.50000000      0.16666667</v>
   <v>       0.33333333      0.50000000      0.16666667</v>
   <v>       0.41666667      0.50000000      0.16666667</v>
   <v>       0.50000000      0.50000000      0.16666667</v>
   <v>       0.00000000      0.25000000      0.25000000</v>
   <v>       0.08333333      0.25000000      0.25000000</v>
   <v>       0.16666667      0.25000000      0.25000000</v>
   <v>       0.25000000      0.25000000      0.25000000</v>
   <v>       0.33333333      0.25000000      0.25000000</v>
   <v>       0.41666667      0.25000000      0.25000000</v>
   <v>       0.50000000      0.25000000      0.25000000</v>
   <v>       0.00000000      0.33333333      0.25000000</v>
   <v>       0.08333333      0.33333333      0.25000000</v>
   <v>       0.16666667      0.33333333      0.25000000</v>
   <v>       0.25000000      0.33333333      0.25000000</v>
   <v>       0.33333333      0.33333333      0.25000000</v>
   <v>       0.41666667      0.33333333      0.25000000</v>
   <v>       0.50000000      0.33333333      0.25000000</v>
   <v>       0.00000000      0.41666667      0.25000000</v>
   <v>       0.08333333      0.41666667      0.25000000</v>
   <v>       0.16666667      0.41666667      0.25000000</v>
   <v>       0.25000000      0.41666667      0.25000000</v>
   <v>       0.33333333      0.41666667      0.25000000</v>
   <v>       0.41666667      0.41666667      0.25000000</v>
   <v>       0.50000000      0.41666667      0.25000000</v>
   <v>       0.00000000      0.50000000      0.25000000</v>
   <v>       0.08333333      0.50000000      0.25000000</v>
   <v>       0.16666667      0.50000000      0.25000000</v>
   <v>       0.25000000      0.50000000      0.25000000</v>
   <v>       0.33333333      0.50000000      0.25000000</v>
   <v>       0.41666667      0.50000000      0.25000000</v>
   <v>       0.50000000      0.50000000      0.25000000</v>
   <v>       0.00000000      0.33333333      0.33333333</v>
   <v>       0.08333333      0.33333333      0.33333333</v>
   <v>       0.16666667      0.33333333      0.33333333</v>
   <v>       0.25000000      0.33333333      0.33333333</v>
   <v>       0.33333333      0.33333333      0.33333333</v>
   <v>       0.41666667      0.33333333      0.33333333</v>
   <v>       0.50000000      0.33333333      0.33333333</v>
   <v>       0.00000000      0.41666667      0.33333333</v>
   <v>       0.08333333      0.41666667      0.33333333</v>
   <v>       0.16666667      0.41666667      0.33333333</v>
   <v>       0.25000000      0.41666667      0.33333333</v>
   <v>       0.33333333      0.41666667      0.33333333</v>
   <v>       0.41666667      0.41666667      0.33333333</v>
   <v>       0.50000000      0.41666667      0.33333333</v>
   <v>       0.00000000      0.50000000      0.33333333</v>
   <v>       0.08333333      0.50000000      0.33333333</v>
   <v>       0.16666667      0.50000000      0.33333333</v>
   <v>       0.25000000      0.50000000      0.33333333</v>
   <v>       0.33333333      0.50000000      0.33333333</v>
   <v>       0.41666667      0.50000000      0.33333333</v>
   <v>       0.50000000      0.50000000      0.33333333</v>
   <v>       0.00000000      0.41666667      0.41666667</v>
   <v>       0.08333333      0.41666667      0.41666667</v>
   <v>       0.16666667      0.41666667      0.41666667</v>
   <v>       0.25000000      0.41666667      0.41666667</v>
   <v>       0.33333333      0.41666667      0.41666667</v>
   <v>       0.41666667      0.41666667      0.41666667</v>
   <v>       0.50000000      0.41666667      0.41666667</v>
   <v>       0.00000000      0.50000000      0.41666667</v>
   <v>       0.08333333      0.50000000      0.41666667</v>
   <v>       0.16666667      0.50000000      0.41666667</v>
   <v>       0.25000000      0.50000000      0.41666667</v>
   <v>       0.33333333      0.50000000      0.41666667</v>
   <v>       0.41666667      0.50000000      0.41666667</v>
   <v>       0.50000000      0.50000000      0.41666667</v>
   <v>       0.00000000      0.50000000      0.50000000</v>
   <v>       0.08333333      0.50000000      0.50000000</v>
   <v>       0.16666667      0.50000000      0.50000000</v>
   <v>       0.25000000      0.50000000      0.50000000</v>
   <v>       0.33333333      0.50000000      0.50000000</v>
   <v>       0.41666667      0.50000000      0.50000000</v>
   <v>       0.50000000      0.50000000      0.50000000</v>
  </varray>
  <varray name="weights" >
   <v>       0.00057870</v>
   <v>       0.00115741</v>
   <v>       0.00115741</v>
   <v>       0.00115741</v>
   <v>       0.00115741</v>
   <v>       0.00115741</v>
   <v>       0.00057870</v>
   <v>       0.00231481</v>
   <v>       0.00462963</v>
   <v>       0.00462963</v>
   <v>       0.00462963</v>
   <v>       0.00462963</v>
   <v>       0.00462963</v>
   <v>       0.00231481</v>
   <v>       0.00231481</v>
   <v>       0.00462963</v>
   <v>       0.00462963</v>
   <v>       0.00462963</v>
   <v>       0.00462963</v>
   <v>       0.00462963</v>
   <v>       0.00231481</v>
   <v>       0.00231481</v>
   <v>       0.00462963</v>
   <v>       0.00462963</v>
   <v>       0.00462963</v>
   <v>       0.00462963</v>
   <v>       0.00462963</v>
   <v>       0.00231481</v>
   <v>       0.00231481</v>
   <v>       0.00462963</v>
   <v>       0.00462963</v>
   <v>       0.00462963</v>
   <v>       0.00462963</v>
   <v>       0.00462963</v>
   <v>       0.00231481</v>
   <v>       0.00231481</v>
   <v>       0.00462963</v>
   <v>       0.00462963</v>
   <v>       0.00462963</v>
   <v>       0.00462963</v>
   <v>       0.00462963</v>
   <v>       0.00231481</v>
   <v>       0.00115741</v>
   <v>       0.00231481</v>
   <v>       0.00231481</v>
   <v>       0.00231481</v>
   <v>       0.00231481</v>
   <v>       0.00231481</v>
   <v>       0.00115741</v>
   <v>       0.00231481</v>
   <v>       0.00462963</v>
   <v>       0.00462963</v>
   <v>       0.00462963</v>
   <v>       0.00462963</v>
   <v>       0.00462963</v>
   <v>       0.00231481</v>
   <v>       0.00462963</v>
   <v>       0.00925926</v>
   <v>       0.00925926</v>
   <v>       0.00925926</v>
   <v>       0.00925926</v>
   <v>       0.00925926</v>
   <v>       0.00462963</v>
   <v>       0.00462963</v>
   <v>       0.00925926</v>
   <v>       0.00925926</v>
   <v>       0.00925926</v>
   <v>       0.00925926</v>
   <v>       0.00925926</v>
   <v>       0.00462963</v>
   <v>       0.00462963</v>
   <v>       0.00925926</v>
   <v>       0.00925926</v>
   <v>       0.00925926</v>
   <v>       0.00925926</v>
   <v>       0.00925926</v>
   <v>       0.00462963</v>
   <v>       0.00462963</v>
   <v>       0.00925926</v>
   <v>       0.00925926</v>
   <v>       0.00925926</v>
   <v>       0.00925926</v>
   <v>       0.00925926</v>
   <v>       0.00462963</v>
   <v>       0.00231481</v>
   <v>       0.00462963</v>
   <v>       0.00462963</v>
   <v>       0.00462963</v>
   <v>       0.00462963</v>
   <v>       0.00462963</v>
   <v>       0.00231481</v>
   <v>       0.00231481</v>
   <v>       0.00462963</v>
   <v>       0.00462963</v>
   <v>       0.00462963</v>
   <v>       0.00462963</v>
   <v>       0.00462963</v>
   <v>       0.00231481</v>
   <v>       0.00462963</v>
   <v>       0.00925926</v>
   <v>       0.00925926</v>
   <v>       0.00925926</v>
   <v>       0.00925926</v>
   <v>       0.00925926</v>
   <v>       0.00462963</v>
   <v>       0.00462963</v>
   <v>       0.00925926</v>
   <v>       0.00925926</v>
   <v>       0.00925926</v>
   <v>       0.00925926</v>
   <v>       0.00925926</v>
   <v>       0.00462963</v>
   <v>       0.00462963</v>
   <v>       0.00925926</v>
   <v>       0.00925926</v>
   <v>       0.00925926</v>
   <v>       0.00925926</v>
   <v>       0.00925926</v>
   <v>       0.00462963</v>
   <v>       0.00231481</v>
   <v>       0.00462963</v>
   <v>       0.00462963</v>
   <v>       0.00462963</v>
   <v>       0.00462963</v>
   <v>       0.00462963</v>
   <v>       0.00231481</v>
   <v>       0.00231481</v>
   <v>       0.00462963</v>
   <v>       0.00462963</v>
   <v>       0.00462963</v>
   <v>       0.00462963</v>
   <v>       0.00462963</v>
   <v>       0.00231481</v>
   <v>       0.00462963</v>
   <v>       0.00925926</v>
   <v>       0.00925926</v>
   <v>       0.00925926</v>
   <v>       0.00925926</v>
   <v>       0.00925926</v>
   <v>       0.00462963</v>
   <v>       0.00462963</v>
   <v>       0.00925926</v>
   <v>       0.00925926</v>
   <v>       0.00925926</v>
   <v>       0.00925926</v>
   <v>       0.00925926</v>
   <v>       0.00462963</v>
   <v>       0.00231481</v>
   <v>       0.00462963</v>
   <v>       0.00462963</v>
   <v>       0.00462963</v>
   <v>       0.00462963</v>
   <v>       0.00462963</v>
   <v>       0.00231481</v>
   <v>       0.00231481</v>
   <v>       0.00462963</v>
   <v>       0.00462963</v>
   <v>       0.00462963</v>
   <v>       0.00462963</v>
   <v>       0.00462963</v>
   <v>       0.00231481</v>
   <v>       0.00462963</v>
   <v>       0.00925926</v>
   <v>       0.00925926</v>
   <v>       0.00925926</v>
   <v>       0.00925926</v>
   <v>       0.00925926</v>
   <v>       0.00462963</v>
   <v>       0.00231481</v>
   <v>       0.00462963</v>
   <v>       0.00462963</v>
   <v>       0.00462963</v>
   <v>       0.00462963</v>
   <v>       0.00462963</v>
   <v>       0.00231481</v>
   <v>       0.00231481</v>
   <v>       0.00462963</v>
   <v>       0.00462963</v>
   <v>       0.00462963</v>
   <v>       0.00462963</v>
   <v>       0.00462963</v>
   <v>       0.00231481</v>
   <v>       0.00231481</v>
   <v>       0.00462963</v>
   <v>       0.00462963</v>
   <v>       0.00462963</v>
   <v>       0.00462963</v>
   <v>       0.00462963</v>
   <v>       0.00231481</v>
   <v>       0.00057870</v>
   <v>       0.00115741</v>
   <v>       0.00115741</v>
   <v>       0.00115741</v>
   <v>       0.00115741</v>
   <v>       0.00115741</v>
   <v>       0.00057870</v>
  </varray>
 </kpoints>
 <parameters>
  <separator name="general" >
   <i type="string" name="SYSTEM">unknown system</i>
   <i type="logical" name="LCOMPAT"> F  </i>
  </separator>
  <separator name="electronic" >
   <i type="string" name="PREC">accura</i>
   <i name="ENMAX">    750.00000000</i>
   <i name="ENAUG">    356.67000000</i>
   <i name="EDIFF">      0.00000001</i>
   <i type="int" name="IALGO">    38</i>
   <i type="int" name="IWAVPR">    10</i>
   <i type="int" name="NBANDS">   211</i>
   <i name="NELECT">    352.00000000</i>
   <separator name="electronic smearing" >
    <i type="int" name="ISMEAR">     0</i>
    <i name="SIGMA">      0.01000000</i>
   </separator>
   <separator name="electronic projectors" >
    <i type="logical" name="LREAL"> F  </i>
    <v name="ROPT">      0.00000000</v>
    <i type="int" name="LMAXPAW">  -100</i>
    <i type="int" name="LMAXMIX">     2</i>
   </separator>
   <separator name="electronic startup" >
    <i type="int" name="ISTART">     0</i>
    <i type="int" name="ICHARG">     2</i>
    <i type="int" name="INIWAV">     1</i>
   </separator>
   <separator name="electronic spin" >
    <i type="int" name="ISPIN">     1</i>
    <i type="logical" name="LNONCOLLINEAR"> F  </i>
    <v name="MAGMOM">      1.00000000      1.00000000      1.00000000      1.00000000      1.00000000      1.00000000      1.00000000      1.00000000      1.00000000      1.00000000      1.00000000      1.00000000      1.00000000      1.00000000      1.00000000      1.00000000      1.00000000      1.00000000      1.00000000      1.00000000
      1.00000000      1.00000000      1.00000000      1.00000000      1.00000000      1.00000000      1.00000000      1.00000000      1.00000000      1.00000000      1.00000000      1.00000000</v>
    <i name="NUPDOWN">     -1.00000000</i>
    <i type="logical" name="LSORBIT"> F  </i>
    <v name="SAXIS">      0.00000000      0.00000000      1.00000000</v>
    <i type="logical" name="LSPIRAL"> F  </i>
    <v name="QSPIRAL">      0.00000000      0.00000000      0.00000000</v>
    <i type="logical" name="LZEROZ"> F  </i>
   </separator>
   <separator name="electronic exchange-correlation" >
    <i type="string" name="GGA">--</i>
    <i type="int" name="VOSKOWN">     0</i>
    <i type="logical" name="LASPH"> F  </i>
    <i type="logical" name="LMETAGGA"> F  </i>
    <i type="string" name="GGA2">--</i>
   </separator>
   <separator name="electronic convergence" >
    <i type="int" name="NELM">    60</i>
    <i type="int" name="NELMDL">     0</i>
    <i type="int" name="NELMIN">     2</i>
    <i name="ENINI">    750.00000000</i>
    <separator name="electronic convergence detail" >
     <i type="logical" name="LDIAG"> T  </i>
     <i name="WEIMIN">      0.00000000</i>
     <i name="EBREAK">      0.00000000</i>
     <i name="DEPER">      0.30000000</i>
     <i type="int" name="NRMM">     4</i>
     <i name="TIME">      0.10000000</i>
    </separator>
   </separator>
   <separator name="electronic mixer" >
    <i name="AMIX">      0.40000000</i>
    <i name="BMIX">      1.00000000</i>
    <i name="AMIN">      0.10000000</i>
    <i name="AMIX_MAG">      1.60000000</i>
    <i name="BMIX_MAG">      1.00000000</i>
    <separator name="electronic mixer details" >
     <i type="int" name="IMIX">     4</i>
     <i type="int" name="MAXMIX">   -45</i>
     <i name="WC">    100.00000000</i>
     <i type="int" name="INIMIX">     1</i>
     <i type="int" name="MIXPRE">     1</i>
     <i type="int" name="MREMOVE">     5</i>
    </separator>
   </separator>
   <separator name="electronic dipolcorrection" >
    <i type="int" name="IDIPOL">     0</i>
    <i type="logical" name="LDIPOL"> F  </i>
    <v name="DIPOL">   -100.00000000</v>
    <i name="EFIELD">      0.00000000</i>
   </separator>
  </separator>
  <separator name="grids" >
   <i type="int" name="NGX">    80</i>
   <i type="int" name="NGY">    80</i>
   <i type="int" name="NGZ">    80</i>
   <i type="int" name="NGXF">   160</i>
   <i type="int" name="NGYF">   160</i>
   <i type="int" name="NGZF">   160</i>
   <i type="logical" name="ADDGRID"> T  </i>
  </separator>
  <separator name="ionic" >
   <i type="int" name="NSW">     0</i>
   <i type="int" name="IBRION">    -1</i>
   <i type="int" name="ISIF">     2</i>
   <i name="PSTRESS">      0.00000000</i>
   <i name="EDIFFG">      0.00000010</i>
   <i type="int" name="NFREE">     0</i>
   <i name="POTIM">      0.50000000</i>
   <i name="SMASS">     -3.00000000</i>
  </separator>
  <separator name="ionic md" >
   <i name="TEBEG">      0.00010000</i>
   <i name="TEEND">      0.00010000</i>
   <i type="int" name="NBLOCK">     1</i>
   <i type="int" name="KBLOCK">     1</i>
   <i type="int" name="NPACO">   256</i>
   <i name="APACO">     16.00000000</i>
  </separator>
  <separator name="symmetry" >
   <i type="int" name="ISYM">     2</i>
   <i name="SYMPREC">      0.00001000</i>
  </separator>
  <separator name="dos" >
   <i type="logical" name="LORBIT"> F  </i>
   <v name="RWIGS">     -1.00000000</v>
   <i type="int" name="NEDOS">   301</i>
   <i name="EMIN">     10.00000000</i>
   <i name="EMAX">    -10.00000000</i>
  </separator>
  <separator name="writing" >
   <i type="int" name="NWRITE">     2</i>
   <i type="logical" name="LWAVE"> F  </i>
   <i type="logical" name="LCHARG"> F  </i>
   <i type="logical" name="LPARD"> F  </i>
   <i type="logical" name="LVTOT"> F  </i>
   <i type="logical" name="LELF"> F  </i>
   <i type="logical" name="LOPTICS"> F  </i>
   <i name="STM">      0.00000000</i>
  </separator>
  <separator name="performance" >
   <i type="int" name="NPAR">     4</i>
   <i type="int" name="NSIM">     4</i>
   <i type="int" name="NBLK">   256</i>
   <i type="logical" name="LPLANE"> T  </i>
   <i type="logical" name="LCRITICAL_MEM"> F  </i>
   <i type="logical" name="LSCALAPACK"> F  </i>
   <i type="logical" name="LSCALU"> F  </i>
   <i type="logical" name="LASYNC"> F  </i>
  </separator>
  <separator name="miscellaneous" >
   <i type="int" name="IDIOT">     3</i>
   <i type="logical" name="LMUSIC"> F  </i>
   <v name="POMASS">    196.96600000</v>
   <i type="logical" name="LCORR"> T  </i>
  </separator>
  <i type="logical" name="LREAL_COMPAT"> F  </i>
  <i type="logical" name="GGA_COMPAT"> T  </i>
  <i type="logical" name="LBERRY"> F  </i>
  <i type="int" name="ICORELEVEL">     0</i>
  <i type="logical" name="LDAU"> F  </i>
  <i type="int" name="I_CONSTRAINED_M">     0</i>
 </parameters>
 <atominfo>
  <atoms>      32</atoms>
  <types>       1</types>
  <array name="atoms" >
   <dimension dim="1">ion</dimension>
   <field type="string">element</field>
   <field type="int">atomtype</field>
   <set>
    <rc><c>Au</c><c>   1</c></rc>
    <rc><c>Au</c><c>   1</c></rc>
    <rc><c>Au</c><c>   1</c></rc>
    <rc><c>Au</c><c>   1</c></rc>
    <rc><c>Au</c><c>   1</c></rc>
    <rc><c>Au</c><c>   1</c></rc>
    <rc><c>Au</c><c>   1</c></rc>
    <rc><c>Au</c><c>   1</c></rc>
    <rc><c>Au</c><c>   1</c></rc>
    <rc><c>Au</c><c>   1</c></rc>
    <rc><c>Au</c><c>   1</c></rc>
    <rc><c>Au</c><c>   1</c></rc>
    <rc><c>Au</c><c>   1</c></rc>
    <rc><c>Au</c><c>   1</c></rc>
    <rc><c>Au</c><c>   1</c></rc>
    <rc><c>Au</c><c>   1</c></rc>
    <rc><c>Au</c><c>   1</c></rc>
    <rc><c>Au</c><c>   1</c></rc>
    <rc><c>Au</c><c>   1</c></rc>
    <rc><c>Au</c><c>   1</c></rc>
    <rc><c>Au</c><c>   1</c></rc>
    <rc><c>Au</c><c>   1</c></rc>
    <rc><c>Au</c><c>   1</c></rc>
    <rc><c>Au</c><c>   1</c></rc>
    <rc><c>Au</c><c>   1</c></rc>
    <rc><c>Au</c><c>   1</c></rc>
    <rc><c>Au</c><c>   1</c></rc>
    <rc><c>Au</c><c>   1</c></rc>
    <rc><c>Au</c><c>   1</c></rc>
    <rc><c>Au</c><c>   1</c></rc>
    <rc><c>Au</c><c>   1</c></rc>
    <rc><c>Au</c><c>   1</c></rc>
   </set>
  </array>
  <array name="atomtypes" >
   <dimension dim="1">type</dimension>
   <field type="int">atomspertype</field>
   <field type="string">element</field>
   <field>mass</field>
   <field>valence</field>
   <field type="string">pseudopotential</field>
   <set>
    <rc><c>  32</c><c>Au</c><c>    196.96600000</c><c>     11.00000000</c><c> PAW_PBE Au 06Sep2000                   </c></rc>
   </set>
  </array>
 </atominfo>
 <structure name="initialpos" >
  <crystal>
   <varray name="basis" >
    <v>       8.67953196      0.00000000      0.00000000</v>
    <v>       0.00000000      8.67953196      0.00000000</v>
    <v>       0.00000000      0.00000000      8.67953196</v>
   </varray>
   <i name="volume">    653.86624721</i>
   <varray name="rec_basis" >
    <v>       0.11521359      0.00000000      0.00000000</v>
    <v>       0.00000000      0.11521359      0.00000000</v>
    <v>       0.00000000      0.00000000      0.11521359</v>
   </varray>
  </crystal>
  <varray name="positions" >
   <v>       0.00115214      0.00000000      0.00000000</v>
   <v>       0.50000000      0.00000000      0.00000000</v>
   <v>       0.00000000      0.50000000      0.00000000</v>
   <v>       0.50000000      0.50000000      0.00000000</v>
   <v>       0.00000000      0.00000000      0.50000000</v>
   <v>       0.50000000      0.00000000      0.50000000</v>
   <v>       0.00000000      0.50000000      0.50000000</v>
   <v>       0.50000000      0.50000000      0.50000000</v>
   <v>       0.25000000      0.25000000      0.00000000</v>
   <v>       0.75000000      0.25000000      0.00000000</v>
   <v>       0.25000000      0.75000000      0.00000000</v>
   <v>       0.75000000      0.75000000      0.00000000</v>
   <v>       0.25000000      0.25000000      0.50000000</v>
   <v>       0.75000000      0.25000000      0.50000000</v>
   <v>       0.25000000      0.75000000      0.50000000</v>
   <v>       0.75000000      0.75000000      0.50000000</v>
   <v>       0.25000000      0.00000000      0.25000000</v>
   <v>       0.75000000      0.00000000      0.25000000</v>
   <v>       0.25000000      0.50000000      0.25000000</v>
   <v>       0.75000000      0.50000000      0.25000000</v>
   <v>       0.25000000      0.00000000      0.75000000</v>
   <v>       0.75000000      0.00000000      0.75000000</v>
   <v>       0.25000000      0.50000000      0.75000000</v>
   <v>       0.75000000      0.50000000      0.75000000</v>
   <v>       0.00000000      0.25000000      0.25000000</v>
   <v>       0.50000000      0.25000000      0.25000000</v>
   <v>       0.00000000      0.75000000      0.25000000</v>
   <v>       0.50000000      0.75000000      0.25000000</v>
   <v>       0.00000000      0.25000000      0.75000000</v>
   <v>       0.50000000      0.25000000      0.75000000</v>
   <v>       0.00000000      0.75000000      0.75000000</v>
   <v>       0.50000000      0.75000000      0.75000000</v>
  </varray>
 </structure>
 <calculation>
  <scstep>
   <time name="dav"> 3657.77 6501.87</time>
   <time name="total"> 3685.16 6589.00</time>
   <energy>
    <i name="alphaZ">   2932.96694511</i>
    <i name="ewald"> -29452.43368388</i>
    <i name="hartreedc">  -4736.65348745</i>
    <i name="XCdc">    473.13371810</i>
    <i name="pawpsdc">  23920.39735419</i>
    <i name="pawaedc"> -23172.13309131</i>
    <i name="eentropy">     -0.00057529</i>
    <i name="bandstr">   4920.11666705</i>
    <i name="atom">  29633.78979189</i>
    <i name="e_fr_energy">   4519.18363841</i>
    <i name="e_wo_entrp">   4519.18421370</i>
    <i name="e_0_energy">   4519.18392606</i>
   </energy>
  </scstep>
  <scstep>
   <time name="dav"> 3804.93 5856.42</time>
   <time name="total"> 3805.18 5856.77</time>
   <energy>
    <i name="e_fr_energy">    172.02496768</i>
    <i name="e_wo_entrp">    172.02553021</i>
    <i name="e_0_energy">    172.02524895</i>
   </energy>
  </scstep>
  <scstep>
   <time name="dav"> 2049.05 2107.08</time>
   <time name="total"> 2049.28 2107.32</time>
   <energy>
    <i name="e_fr_energy">    -98.11584166</i>
    <i name="e_wo_entrp">    -98.11503313</i>
    <i name="e_0_energy">    -98.11543739</i>
   </energy>
  </scstep>
  <scstep>
   <time name="dav"> 2440.81 2439.92</time>
   <time name="total"> 2441.05 2440.16</time>
   <energy>
    <i name="e_fr_energy">   -108.79420748</i>
    <i name="e_wo_entrp">   -108.79346543</i>
    <i name="e_0_energy">   -108.79383645</i>
   </energy>
  </scstep>
  <scstep>
   <time name="dav"> 6052.3910647.96</time>
   <time name="total"> 6594.6113067.92</time>
   <energy>
    <i name="e_fr_energy">   -109.02146927</i>
    <i name="e_wo_entrp">   -109.02072309</i>
    <i name="e_0_energy">   -109.02109618</i>
   </energy>
  </scstep>
  <scstep>
   <time name="dav"> 4206.18 6811.78</time>
   <time name="total"> 4317.28 6990.01</time>
   <energy>
    <i name="e_fr_energy">   -102.09478069</i>
    <i name="e_wo_entrp">   -102.09417620</i>
    <i name="e_0_energy">   -102.09447845</i>
   </energy>
  </scstep>
  <scstep>
   <time name="dav"> 3359.47 3358.76</time>
   <time name="total"> 3499.93 3500.00</time>
   <energy>
    <i name="e_fr_energy">   -101.83872127</i>
    <i name="e_wo_entrp">   -101.83817062</i>
    <i name="e_0_energy">   -101.83844595</i>
   </energy>
  </scstep>
  <scstep>
   <time name="dav"> 7440.1813090.06</time>
   <time name="total"> 7909.4919202.08</time>
   <energy>
    <i name="e_fr_energy">   -101.78613577</i>
    <i name="e_wo_entrp">   -101.78558284</i>
    <i name="e_0_energy">   -101.78585930</i>
   </energy>
  </scstep>
  <scstep>
   <time name="dav"> 7165.2314028.69</time>
   <time name="total"> 7336.4914422.41</time>
   <energy>
    <i name="e_fr_energy">   -101.78641155</i>
    <i name="e_wo_entrp">   -101.78584535</i>
    <i name="e_0_energy">   -101.78612845</i>
   </energy>
  </scstep>
  <scstep>
   <time name="dav"> 3902.12 5857.34</time>
   <time name="total"> 4009.13 6429.93</time>
   <energy>
    <i name="e_fr_energy">   -101.78649848</i>
    <i name="e_wo_entrp">   -101.78593689</i>
    <i name="e_0_energy">   -101.78621768</i>
   </energy>
  </scstep>
  <scstep>
   <time name="dav">12517.6729240.63</time>
   <time name="total">13113.4351216.15</time>
   <energy>
    <i name="e_fr_energy">   -101.78650679</i>
    <i name="e_wo_entrp">   -101.78594585</i>
    <i name="e_0_energy">   -101.78622632</i>
   </energy>
  </scstep>
  <scstep>
   <time name="dav">10270.3024206.92</time>
   <time name="total">10544.4324711.16</time>
   <energy>
    <i name="e_fr_energy">   -101.78650945</i>
    <i name="e_wo_entrp">   -101.78594873</i>
    <i name="e_0_energy">   -101.78622909</i>
   </energy>
  </scstep>
  <scstep>
   <time name="dav"> 3474.45 3473.53</time>
   <time name="total"> 3603.57 3602.66</time>
   <energy>
    <i name="e_fr_energy">   -101.78650829</i>
    <i name="e_wo_entrp">   -101.78594759</i>
    <i name="e_0_energy">   -101.78622794</i>
   </energy>
  </scstep>
  <scstep>
   <time name="dav"> 2313.06 2312.40</time>
   <time name="total"> 2443.83 2443.15</time>
   <energy>
    <i name="e_fr_energy">   -101.78650779</i>
    <i name="e_wo_entrp">   -101.78594708</i>
    <i name="e_0_energy">   -101.78622743</i>
   </energy>
  </scstep>
  <scstep>
   <time name="dav"> 2120.13 2119.46</time>
   <time name="total"> 2250.43 2249.74</time>
   <energy>
    <i name="e_fr_energy">   -101.78650783</i>
    <i name="e_wo_entrp">   -101.78594712</i>
    <i name="e_0_energy">   -101.78622748</i>
   </energy>
  </scstep>
  <scstep>
   <time name="dav"> 2407.79 2407.01</time>
   <time name="total"> 2538.33 2537.83</time>
   <energy>
    <i name="e_fr_energy">   -101.78650782</i>
    <i name="e_wo_entrp">   -101.78594711</i>
    <i name="e_0_energy">   -101.78622746</i>
   </energy>
  </scstep>
  <scstep>
   <time name="dav"> 1435.02 1437.22</time>
   <time name="total"> 1437.40 1439.63</time>
   <energy>
    <i name="alphaZ">   2932.96694511</i>
    <i name="ewald"> -29452.43368388</i>
    <i name="hartreedc">  -4402.84527374</i>
    <i name="XCdc">    457.88362466</i>
    <i name="pawpsdc">  23580.53501234</i>
    <i name="pawaedc"> -22891.54325943</i>
    <i name="eentropy">     -0.00056071</i>
    <i name="bandstr">     39.86089595</i>
    <i name="atom">  29633.78979189</i>
    <i name="e_fr_energy">   -101.78650782</i>
    <i name="e_wo_entrp">   -101.78594710</i>
    <i name="e_0_energy">   -101.78622746</i>
   </energy>
  </scstep>
  <structure>
   <crystal>
    <varray name="basis" >
     <v>       8.67953196      0.00000000      0.00000000</v>
     <v>       0.00000000      8.67953196      0.00000000</v>
     <v>       0.00000000      0.00000000      8.67953196</v>
    </varray>
    <i name="volume">    653.86624721</i>
    <varray name="rec_basis" >
     <v>       0.11521359      0.00000000      0.00000000</v>
     <v>       0.00000000      0.11521359      0.00000000</v>
     <v>       0.00000000      0.00000000      0.11521359</v>
    </varray>
   </crystal>
   <varray name="positions" >
    <v>       0.00115214      0.00000000      0.00000000</v>
    <v>       0.50000000      0.00000000      0.00000000</v>
    <v>       0.00000000      0.50000000      0.00000000</v>
    <v>       0.50000000      0.50000000      0.00000000</v>
    <v>       0.00000000      0.00000000      0.50000000</v>
    <v>       0.50000000      0.00000000      0.50000000</v>
    <v>       0.00000000      0.50000000      0.50000000</v>
    <v>       0.50000000      0.50000000      0.50000000</v>
    <v>       0.25000000      0.25000000      0.00000000</v>
    <v>       0.75000000      0.25000000      0.00000000</v>
    <v>       0.25000000      0.75000000      0.00000000</v>
    <v>       0.75000000      0.75000000      0.00000000</v>
    <v>       0.25000000      0.25000000      0.50000000</v>
    <v>       0.75000000      0.25000000      0.50000000</v>
    <v>       0.25000000      0.75000000      0.50000000</v>
    <v>       0.75000000      0.75000000      0.50000000</v>
    <v>       0.25000000      0.00000000      0.25000000</v>
    <v>       0.75000000      0.00000000      0.25000000</v>
    <v>       0.25000000      0.50000000      0.25000000</v>
    <v>       0.75000000      0.50000000      0.25000000</v>
    <v>       0.25000000      0.00000000      0.75000000</v>
    <v>       0.75000000      0.00000000      0.75000000</v>
    <v>       0.25000000      0.50000000      0.75000000</v>
    <v>       0.75000000      0.50000000      0.75000000</v>
    <v>       0.00000000      0.25000000      0.25000000</v>
    <v>       0.50000000      0.25000000      0.25000000</v>
    <v>       0.00000000      0.75000000      0.25000000</v>
    <v>       0.50000000      0.75000000      0.25000000</v>
    <v>       0.00000000      0.25000000      0.75000000</v>
    <v>       0.50000000      0.25000000      0.75000000</v>
    <v>       0.00000000      0.75000000      0.75000000</v>
    <v>       0.50000000      0.75000000      0.75000000</v>
   </varray>
  </structure>
  <varray name="forces" >
   <v>      -0.01914546      0.00000000      0.00000000</v>
   <v>       0.00372362      0.00000000     -0.00000000</v>
   <v>      -0.00055257     -0.00000000     -0.00000000</v>
   <v>      -0.00198384      0.00000000     -0.00000000</v>
   <v>      -0.00055257     -0.00000000      0.00000000</v>
   <v>      -0.00198384     -0.00000000     -0.00000000</v>
   <v>       0.00032335     -0.00000000     -0.00000000</v>
   <v>      -0.00016532     -0.00000000     -0.00000000</v>
   <v>       0.00302536      0.00411739      0.00000000</v>
   <v>       0.00287298     -0.00391310      0.00000000</v>
   <v>       0.00302536     -0.00411739      0.00000000</v>
   <v>       0.00287298      0.00391310      0.00000000</v>
   <v>       0.00025611      0.00002908     -0.00000000</v>
   <v>       0.00025535     -0.00002720      0.00000000</v>
   <v>       0.00025611     -0.00002908      0.00000000</v>
   <v>       0.00025535      0.00002720      0.00000000</v>
   <v>       0.00302536      0.00000000      0.00411739</v>
   <v>       0.00287298     -0.00000000     -0.00391310</v>
   <v>       0.00025611     -0.00000000      0.00002908</v>
   <v>       0.00025535     -0.00000000     -0.00002720</v>
   <v>       0.00302536      0.00000000     -0.00411739</v>
   <v>       0.00287298     -0.00000000      0.00391310</v>
   <v>       0.00025611      0.00000000     -0.00002908</v>
   <v>       0.00025535     -0.00000000      0.00002720</v>
   <v>      -0.00203777      0.00000171      0.00000171</v>
   <v>       0.00071213      0.00000281      0.00000281</v>
   <v>      -0.00203777     -0.00000171      0.00000171</v>
   <v>       0.00071213     -0.00000281      0.00000281</v>
   <v>      -0.00203777      0.00000171     -0.00000171</v>
   <v>       0.00071213      0.00000281     -0.00000281</v>
   <v>      -0.00203777     -0.00000171     -0.00000171</v>
   <v>       0.00071213     -0.00000281     -0.00000281</v>
  </varray>
  <varray name="stress" >
   <v>    -112.08743860      0.00000000      0.00000000</v>
   <v>       0.00000000   -112.08837006      0.00000000</v>
   <v>       0.00000000      0.00000000   -112.08837006</v>
  </varray>
  <energy>
   <i name="e_fr_energy">   -101.78650782</i>
   <i name="e_wo_entrp">   -101.78622746</i>
   <i name="e_0_energy">     -0.00056071</i>
  </energy>
  <eigenvalues>
   <array>
    <dimension dim="1">band</dimension>
    <dimension dim="2">kpoint</dimension>
    <dimension dim="3">spin</dimension>
    <field>eigene</field>
    <field>occ</field>
    <set>
     <set comment="spin 1">
      <set comment="kpoint 1">
       <r>  -4.4546  1.0000</r>
       <r>  -2.3590  1.0000</r>
       <r>  -2.3560  1.0000</r>
       <r>  -2.3560  1.0000</r>
       <r>  -2.3560  1.0000</r>
       <r>  -2.3560  1.0000</r>
       <r>  -2.3531  1.0000</r>
       <r>  -2.2266  1.0000</r>
       <r>  -2.2266  1.0000</r>
       <r>  -2.2266  1.0000</r>
       <r>  -2.2266  1.0000</r>
       <r>  -1.9761  1.0000</r>
       <r>  -1.9761  1.0000</r>
       <r>  -1.9761  1.0000</r>
       <r>  -1.7564  1.0000</r>
       <r>  -1.7564  1.0000</r>
       <r>  -1.7564  1.0000</r>
       <r>  -1.2577  1.0000</r>
       <r>  -1.2564  1.0000</r>
       <r>  -1.2564  1.0000</r>
       <r>  -1.2549  1.0000</r>
       <r>  -1.2547  1.0000</r>
       <r>  -1.2547  1.0000</r>
       <r>  -1.2547  1.0000</r>
       <r>  -1.2547  1.0000</r>
       <r>  -1.2545  1.0000</r>
       <r>  -1.2530  1.0000</r>
       <r>  -1.2530  1.0000</r>
       <r>  -1.2517  1.0000</r>
       <r>  -1.1201  1.0000</r>
       <r>  -1.1183  1.0000</r>
       <r>  -1.1183  1.0000</r>
       <r>  -1.1183  1.0000</r>
       <r>  -1.1183  1.0000</r>
       <r>  -1.1166  1.0000</r>
       <r>  -1.0548  1.0000</r>
       <r>  -1.0530  1.0000</r>
       <r>  -1.0530  1.0000</r>
       <r>  -1.0530  1.0000</r>
       <r>  -1.0530  1.0000</r>
       <r>  -1.0513  1.0000</r>
       <r>  -0.5979  1.0000</r>
       <r>  -0.5958  1.0000</r>
       <r>  -0.5958  1.0000</r>
       <r>  -0.5947  1.0000</r>
       <r>  -0.5947  1.0000</r>
       <r>  -0.5947  1.0000</r>
       <r>  -0.5947  1.0000</r>
       <r>  -0.5947  1.0000</r>
       <r>  -0.5947  1.0000</r>
       <r>  -0.5937  1.0000</r>
       <r>  -0.5937  1.0000</r>
       <r>  -0.5917  1.0000</r>
       <r>  -0.5403  1.0000</r>
       <r>  -0.5403  1.0000</r>
       <r>  -0.5383  1.0000</r>
       <r>  -0.5383  1.0000</r>
       <r>  -0.5383  1.0000</r>
       <r>  -0.5383  1.0000</r>
       <r>  -0.5383  1.0000</r>
       <r>  -0.5382  1.0000</r>
       <r>  -0.5382  1.0000</r>
       <r>  -0.5381  1.0000</r>
       <r>  -0.5362  1.0000</r>
       <r>  -0.5362  1.0000</r>
       <r>  -0.3095  1.0000</r>
       <r>  -0.3065  1.0000</r>
       <r>  -0.3064  1.0000</r>
       <r>  -0.3064  1.0000</r>
       <r>  -0.3062  1.0000</r>
       <r>  -0.3062  1.0000</r>
       <r>  -0.3062  1.0000</r>
       <r>  -0.3062  1.0000</r>
       <r>  -0.3060  1.0000</r>
       <r>  -0.3060  1.0000</r>
       <r>  -0.3059  1.0000</r>
       <r>  -0.3030  1.0000</r>
       <r>  -0.2625  1.0000</r>
       <r>  -0.2624  1.0000</r>
       <r>  -0.2624  1.0000</r>
       <r>  -0.2624  1.0000</r>
       <r>  -0.2624  1.0000</r>
       <r>  -0.2624  1.0000</r>
       <r>  -0.2624  1.0000</r>
       <r>  -0.2623  1.0000</r>
       <r>  -0.2446  1.0000</r>
       <r>  -0.2446  1.0000</r>
       <r>  -0.2445  1.0000</r>
       <r>   0.3258  1.0000</r>
       <r>   0.3276  1.0000</r>
       <r>   0.3276  1.0000</r>
       <r>   0.3276  1.0000</r>
       <r>   0.3276  1.0000</r>
       <r>   0.3293  1.0000</r>
       <r>   0.4471  1.0000</r>
       <r>   0.4478  1.0000</r>
       <r>   0.4487  1.0000</r>
       <r>   0.4487  1.0000</r>
       <r>   0.4492  1.0000</r>
       <r>   0.4492  1.0000</r>
       <r>   0.4492  1.0000</r>
       <r>   0.4492  1.0000</r>
       <r>   0.4497  1.0000</r>
       <r>   0.4497  1.0000</r>
       <r>   0.4507  1.0000</r>
       <r>   0.4513  1.0000</r>
       <r>   0.6704  1.0000</r>
       <r>   0.6704  1.0000</r>
       <r>   0.6726  1.0000</r>
       <r>   0.6726  1.0000</r>
       <r>   0.6727  1.0000</r>
       <r>   0.6727  1.0000</r>
       <r>   0.6728  1.0000</r>
       <r>   0.6728  1.0000</r>
       <r>   0.6729  1.0000</r>
       <r>   0.6729  1.0000</r>
       <r>   0.6750  1.0000</r>
       <r>   0.6750  1.0000</r>
       <r>   0.7891  1.0000</r>
       <r>   0.7906  1.0000</r>
       <r>   0.7906  1.0000</r>
       <r>   0.7906  1.0000</r>
       <r>   0.7906  1.0000</r>
       <r>   0.7920  1.0000</r>
       <r>   0.8530  1.0000</r>
       <r>   0.8532  1.0000</r>
       <r>   0.8637  1.0000</r>
       <r>   0.8637  1.0000</r>
       <r>   0.8657  1.0000</r>
       <r>   0.8661  1.0000</r>
       <r>   0.8661  1.0000</r>
       <r>   0.8661  1.0000</r>
       <r>   0.8661  1.0000</r>
       <r>   0.8662  1.0000</r>
       <r>   0.8664  1.0000</r>
       <r>   0.8665  1.0000</r>
       <r>   0.8687  1.0000</r>
       <r>   0.8687  1.0000</r>
       <r>   1.2556  1.0000</r>
       <r>   1.2566  1.0000</r>
       <r>   1.2566  1.0000</r>
       <r>   1.2566  1.0000</r>
       <r>   1.2566  1.0000</r>
       <r>   1.2577  1.0000</r>
       <r>   1.6880  1.0000</r>
       <r>   1.6880  1.0000</r>
       <r>   1.6880  1.0000</r>
       <r>   1.7239  1.0000</r>
       <r>   1.7239  1.0000</r>
       <r>   1.7239  1.0000</r>
       <r>   1.7239  1.0000</r>
       <r>   1.7239  1.0000</r>
       <r>   1.7239  1.0000</r>
       <r>   1.7239  1.0000</r>
       <r>   1.7239  1.0000</r>
       <r>   1.9540  1.0000</r>
       <r>   1.9543  1.0000</r>
       <r>   1.9543  1.0000</r>
       <r>   1.9543  1.0000</r>
       <r>   1.9543  1.0000</r>
       <r>   1.9543  1.0000</r>
       <r>   1.9554  1.0000</r>
       <r>   1.9554  1.0000</r>
       <r>   1.9554  1.0000</r>
       <r>   1.9554  1.0000</r>
       <r>   1.9555  1.0000</r>
       <r>   1.9557  1.0000</r>
       <r>   3.1820  1.0000</r>
       <r>   3.1829  1.0000</r>
       <r>   3.1829  1.0000</r>
       <r>   3.1835  1.0000</r>
       <r>   3.1839  1.0000</r>
       <r>   3.1839  1.0000</r>
       <r>   3.1839  1.0000</r>
       <r>   3.1839  1.0000</r>
       <r>   3.1844  1.0000</r>
       <r>   3.1850  1.0000</r>
       <r>   3.1850  1.0000</r>
       <r>   3.1858  1.0000</r>
       <r>   3.4559  1.0000</r>
       <r>   3.4559  1.0000</r>
       <r>   3.4559  1.0000</r>
       <r>   3.4559  1.0000</r>
       <r>   5.1388  0.0000</r>
       <r>   5.1388  0.0000</r>
       <r>   5.1388  0.0000</r>
       <r>   5.8563  0.0000</r>
       <r>   5.8563  0.0000</r>
       <r>   5.8563  0.0000</r>
       <r>   5.8563  0.0000</r>
       <r>   7.5073  0.0000</r>
       <r>   7.5074  0.0000</r>
       <r>   7.5074  0.0000</r>
       <r>   7.5074  0.0000</r>
       <r>   7.5074  0.0000</r>
       <r>   7.5076  0.0000</r>
       <r>   8.1255  0.0000</r>
       <r>   8.1256  0.0000</r>
       <r>   8.1256  0.0000</r>
       <r>   9.4008  0.0000</r>
       <r>   9.4008  0.0000</r>
       <r>   9.4036  0.0000</r>
       <r>   9.4036  0.0000</r>
       <r>   9.4040  0.0000</r>
       <r>   9.4040  0.0000</r>
       <r>   9.4040  0.0000</r>
       <r>   9.4041  0.0000</r>
       <r>   9.4044  0.0000</r>
       <r>   9.4044  0.0000</r>
       <r>   9.4073  0.0000</r>
       <r>   9.4073  0.0000</r>
       <r>  11.2557  0.0000</r>
      </set>
      <set comment="kpoint 2">
       <r>  -4.4373  1.0000</r>
       <r>  -2.6087  1.0000</r>
       <r>  -2.3436  1.0000</r>
       <r>  -2.3436  1.0000</r>
       <r>  -2.3436  1.0000</r>
       <r>  -2.3436  1.0000</r>
       <r>  -2.2175  1.0000</r>
       <r>  -2.2175  1.0000</r>
       <r>  -2.2175  1.0000</r>
       <r>  -2.2175  1.0000</r>
       <r>  -2.1391  1.0000</r>
       <r>  -1.9708  1.0000</r>
       <r>  -1.9654  1.0000</r>
       <r>  -1.9654  1.0000</r>
       <r>  -1.7508  1.0000</r>
       <r>  -1.7479  1.0000</r>
       <r>  -1.7479  1.0000</r>
       <r>  -1.3419  1.0000</r>
       <r>  -1.3419  1.0000</r>
       <r>  -1.3419  1.0000</r>
       <r>  -1.3419  1.0000</r>
       <r>  -1.3015  1.0000</r>
       <r>  -1.3015  1.0000</r>
       <r>  -1.3015  1.0000</r>
       <r>  -1.3015  1.0000</r>
       <r>  -1.1803  1.0000</r>
       <r>  -1.1803  1.0000</r>
       <r>  -1.1803  1.0000</r>
       <r>  -1.1803  1.0000</r>
       <r>  -1.1501  1.0000</r>
       <r>  -1.1404  1.0000</r>
       <r>  -1.1403  1.0000</r>
       <r>  -1.1110  1.0000</r>
       <r>  -1.1110  1.0000</r>
       <r>  -1.1110  1.0000</r>
       <r>  -1.1109  1.0000</r>
       <r>  -1.0482  1.0000</r>
       <r>  -1.0482  1.0000</r>
       <r>  -1.0482  1.0000</r>
       <r>  -1.0481  1.0000</r>
       <r>  -0.9542  1.0000</r>
       <r>  -0.7296  1.0000</r>
       <r>  -0.7296  1.0000</r>
       <r>  -0.6341  1.0000</r>
       <r>  -0.6340  1.0000</r>
       <r>  -0.6340  1.0000</r>
       <r>  -0.6340  1.0000</r>
       <r>  -0.5645  1.0000</r>
       <r>  -0.5638  1.0000</r>
       <r>  -0.5638  1.0000</r>
       <r>  -0.5638  1.0000</r>
       <r>  -0.5596  1.0000</r>
       <r>  -0.5596  1.0000</r>
       <r>  -0.5596  1.0000</r>
       <r>  -0.5590  1.0000</r>
       <r>  -0.5469  1.0000</r>
       <r>  -0.5469  1.0000</r>
       <r>  -0.5469  1.0000</r>
       <r>  -0.5469  1.0000</r>
       <r>  -0.5374  1.0000</r>
       <r>  -0.5374  1.0000</r>
       <r>  -0.5374  1.0000</r>
       <r>  -0.5372  1.0000</r>
       <r>  -0.3511  1.0000</r>
       <r>  -0.3511  1.0000</r>
       <r>  -0.3511  1.0000</r>
       <r>  -0.3511  1.0000</r>
       <r>  -0.3324  1.0000</r>
       <r>  -0.3324  1.0000</r>
       <r>  -0.2896  1.0000</r>
       <r>  -0.2892  1.0000</r>
       <r>  -0.2892  1.0000</r>
       <r>  -0.2892  1.0000</r>
       <r>  -0.2768  1.0000</r>
       <r>  -0.2768  1.0000</r>
       <r>  -0.2768  1.0000</r>
       <r>  -0.2764  1.0000</r>
       <r>  -0.2657  1.0000</r>
       <r>  -0.2657  1.0000</r>
       <r>  -0.2657  1.0000</r>
       <r>  -0.2655  1.0000</r>
       <r>  -0.2555  1.0000</r>
       <r>  -0.2554  1.0000</r>
       <r>  -0.2554  1.0000</r>
       <r>  -0.2554  1.0000</r>
       <r>  -0.2520  1.0000</r>
       <r>  -0.2377  1.0000</r>
       <r>  -0.2377  1.0000</r>
       <r>   0.2815  1.0000</r>
       <r>   0.2816  1.0000</r>
       <r>   0.2816  1.0000</r>
       <r>   0.2816  1.0000</r>
       <r>   0.3030  1.0000</r>
       <r>   0.4154  1.0000</r>
       <r>   0.4155  1.0000</r>
       <r>   0.4155  1.0000</r>
       <r>   0.4155  1.0000</r>
       <r>   0.4216  1.0000</r>
       <r>   0.4498  1.0000</r>
       <r>   0.4498  1.0000</r>
       <r>   0.4498  1.0000</r>
       <r>   0.4499  1.0000</r>
       <r>   0.4893  1.0000</r>
       <r>   0.4893  1.0000</r>
       <r>   0.4893  1.0000</r>
       <r>   0.4894  1.0000</r>
       <r>   0.5378  1.0000</r>
       <r>   0.5378  1.0000</r>
       <r>   0.6722  1.0000</r>
       <r>   0.6722  1.0000</r>
       <r>   0.6723  1.0000</r>
       <r>   0.6723  1.0000</r>
       <r>   0.7124  1.0000</r>
       <r>   0.7124  1.0000</r>
       <r>   0.7124  1.0000</r>
       <r>   0.7124  1.0000</r>
       <r>   0.7938  1.0000</r>
       <r>   0.7938  1.0000</r>
       <r>   0.7939  1.0000</r>
       <r>   0.7940  1.0000</r>
       <r>   0.8015  1.0000</r>
       <r>   0.8015  1.0000</r>
       <r>   0.8016  1.0000</r>
       <r>   0.8016  1.0000</r>
       <r>   0.8136  1.0000</r>
       <r>   0.8136  1.0000</r>
       <r>   0.8138  1.0000</r>
       <r>   0.8139  1.0000</r>
       <r>   0.8454  1.0000</r>
       <r>   0.8565  1.0000</r>
       <r>   0.9023  1.0000</r>
       <r>   0.9023  1.0000</r>
       <r>   0.9023  1.0000</r>
       <r>   0.9024  1.0000</r>
       <r>   0.9465  1.0000</r>
       <r>   0.9465  1.0000</r>
       <r>   0.9466  1.0000</r>
       <r>   0.9466  1.0000</r>
       <r>   1.2025  1.0000</r>
       <r>   1.2670  1.0000</r>
       <r>   1.2670  1.0000</r>
       <r>   1.2670  1.0000</r>
       <r>   1.2670  1.0000</r>
       <r>   1.3113  1.0000</r>
       <r>   1.6771  1.0000</r>
       <r>   1.6771  1.0000</r>
       <r>   1.6842  1.0000</r>
       <r>   1.6847  1.0000</r>
       <r>   1.6847  1.0000</r>
       <r>   1.6847  1.0000</r>
       <r>   1.6847  1.0000</r>
       <r>   1.7144  1.0000</r>
       <r>   1.7144  1.0000</r>
       <r>   1.7144  1.0000</r>
       <r>   1.7144  1.0000</r>
       <r>   1.9087  1.0000</r>
       <r>   1.9087  1.0000</r>
       <r>   1.9406  1.0000</r>
       <r>   1.9406  1.0000</r>
       <r>   1.9406  1.0000</r>
       <r>   1.9406  1.0000</r>
       <r>   1.9407  1.0000</r>
       <r>   1.9407  1.0000</r>
       <r>   1.9540  1.0000</r>
       <r>   1.9543  1.0000</r>
       <r>   1.9554  1.0000</r>
       <r>   1.9557  1.0000</r>
       <r>   2.9264  1.0000</r>
       <r>   2.9264  1.0000</r>
       <r>   2.9264  1.0000</r>
       <r>   2.9265  1.0000</r>
       <r>   3.1856  1.0000</r>
       <r>   3.1857  1.0000</r>
       <r>   3.1857  1.0000</r>
       <r>   3.1857  1.0000</r>
       <r>   3.4404  1.0000</r>
       <r>   3.4405  1.0000</r>
       <r>   3.4405  1.0000</r>
       <r>   3.4405  1.0000</r>
       <r>   3.4640  1.0000</r>
       <r>   3.4640  1.0000</r>
       <r>   3.4640  1.0000</r>
       <r>   3.4641  1.0000</r>
       <r>   4.9512  0.0000</r>
       <r>   5.1978  0.0000</r>
       <r>   5.1978  0.0000</r>
       <r>   5.9348  0.0000</r>
       <r>   5.9348  0.0000</r>
       <r>   5.9348  0.0000</r>
       <r>   5.9348  0.0000</r>
       <r>   7.3946  0.0000</r>
       <r>   7.3946  0.0000</r>
       <r>   7.3946  0.0000</r>
       <r>   7.3946  0.0000</r>
       <r>   7.5173  0.0000</r>
       <r>   7.5173  0.0000</r>
       <r>   8.1145  0.0000</r>
       <r>   8.1145  0.0000</r>
       <r>   8.3441  0.0000</r>
       <r>   8.9376  0.0000</r>
       <r>   8.9376  0.0000</r>
       <r>   9.4323  0.0000</r>
       <r>   9.4323  0.0000</r>
       <r>   9.4326  0.0000</r>
       <r>   9.4327  0.0000</r>
       <r>   9.4342  0.0000</r>
       <r>   9.4342  0.0000</r>
       <r>   9.4344  0.0000</r>
       <r>   9.4344  0.0000</r>
       <r>   9.8678  0.0000</r>
       <r>   9.8678  0.0000</r>
       <r>  10.9541  0.0000</r>
      </set>
      <set comment="kpoint 3">
       <r>  -4.3855  1.0000</r>
       <r>  -2.8769  1.0000</r>
       <r>  -2.3066  1.0000</r>
       <r>  -2.3066  1.0000</r>
       <r>  -2.3066  1.0000</r>
       <r>  -2.3066  1.0000</r>
       <r>  -2.1903  1.0000</r>
       <r>  -2.1903  1.0000</r>
       <r>  -2.1903  1.0000</r>
       <r>  -2.1903  1.0000</r>
       <r>  -1.9763  1.0000</r>
       <r>  -1.9554  1.0000</r>
       <r>  -1.9335  1.0000</r>
       <r>  -1.9335  1.0000</r>
       <r>  -1.7339  1.0000</r>
       <r>  -1.7221  1.0000</r>
       <r>  -1.7221  1.0000</r>
       <r>  -1.4444  1.0000</r>
       <r>  -1.4444  1.0000</r>
       <r>  -1.4444  1.0000</r>
       <r>  -1.4444  1.0000</r>
       <r>  -1.4111  1.0000</r>
       <r>  -1.4111  1.0000</r>
       <r>  -1.4111  1.0000</r>
       <r>  -1.4111  1.0000</r>
       <r>  -1.2438  1.0000</r>
       <r>  -1.2020  1.0000</r>
       <r>  -1.2020  1.0000</r>
       <r>  -1.1150  1.0000</r>
       <r>  -1.1150  1.0000</r>
       <r>  -1.1150  1.0000</r>
       <r>  -1.1150  1.0000</r>
       <r>  -1.0896  1.0000</r>
       <r>  -1.0896  1.0000</r>
       <r>  -1.0896  1.0000</r>
       <r>  -1.0896  1.0000</r>
       <r>  -1.0337  1.0000</r>
       <r>  -1.0337  1.0000</r>
       <r>  -1.0336  1.0000</r>
       <r>  -1.0336  1.0000</r>
       <r>  -0.9055  1.0000</r>
       <r>  -0.9055  1.0000</r>
       <r>  -0.8553  1.0000</r>
       <r>  -0.6804  1.0000</r>
       <r>  -0.6804  1.0000</r>
       <r>  -0.6804  1.0000</r>
       <r>  -0.6803  1.0000</r>
       <r>  -0.5714  1.0000</r>
       <r>  -0.5714  1.0000</r>
       <r>  -0.5714  1.0000</r>
       <r>  -0.5714  1.0000</r>
       <r>  -0.5421  1.0000</r>
       <r>  -0.5415  1.0000</r>
       <r>  -0.5415  1.0000</r>
       <r>  -0.5415  1.0000</r>
       <r>  -0.5350  1.0000</r>
       <r>  -0.5349  1.0000</r>
       <r>  -0.5349  1.0000</r>
       <r>  -0.5344  1.0000</r>
       <r>  -0.4979  1.0000</r>
       <r>  -0.4979  1.0000</r>
       <r>  -0.4979  1.0000</r>
       <r>  -0.4978  1.0000</r>
       <r>  -0.4199  1.0000</r>
       <r>  -0.4199  1.0000</r>
       <r>  -0.4199  1.0000</r>
       <r>  -0.4199  1.0000</r>
       <r>  -0.2896  1.0000</r>
       <r>  -0.2895  1.0000</r>
       <r>  -0.2894  1.0000</r>
       <r>  -0.2894  1.0000</r>
       <r>  -0.2753  1.0000</r>
       <r>  -0.2753  1.0000</r>
       <r>  -0.2752  1.0000</r>
       <r>  -0.2751  1.0000</r>
       <r>  -0.2743  1.0000</r>
       <r>  -0.2345  1.0000</r>
       <r>  -0.2345  1.0000</r>
       <r>  -0.2345  1.0000</r>
       <r>  -0.2345  1.0000</r>
       <r>  -0.2171  1.0000</r>
       <r>  -0.2171  1.0000</r>
       <r>  -0.1763  1.0000</r>
       <r>  -0.1763  1.0000</r>
       <r>  -0.1763  1.0000</r>
       <r>  -0.1762  1.0000</r>
       <r>  -0.1130  1.0000</r>
       <r>  -0.1130  1.0000</r>
       <r>   0.1846  1.0000</r>
       <r>   0.1847  1.0000</r>
       <r>   0.1847  1.0000</r>
       <r>   0.1847  1.0000</r>
       <r>   0.3260  1.0000</r>
       <r>   0.3376  1.0000</r>
       <r>   0.3377  1.0000</r>
       <r>   0.3377  1.0000</r>
       <r>   0.3377  1.0000</r>
       <r>   0.4104  1.0000</r>
       <r>   0.4104  1.0000</r>
       <r>   0.4883  1.0000</r>
       <r>   0.4884  1.0000</r>
       <r>   0.4884  1.0000</r>
       <r>   0.4884  1.0000</r>
       <r>   0.5569  1.0000</r>
       <r>   0.5569  1.0000</r>
       <r>   0.5569  1.0000</r>
       <r>   0.5569  1.0000</r>
       <r>   0.6050  1.0000</r>
       <r>   0.6710  1.0000</r>
       <r>   0.6710  1.0000</r>
       <r>   0.6710  1.0000</r>
       <r>   0.6710  1.0000</r>
       <r>   0.7524  1.0000</r>
       <r>   0.7524  1.0000</r>
       <r>   0.7524  1.0000</r>
       <r>   0.7524  1.0000</r>
       <r>   0.7833  1.0000</r>
       <r>   0.7834  1.0000</r>
       <r>   0.7834  1.0000</r>
       <r>   0.7834  1.0000</r>
       <r>   0.8027  1.0000</r>
       <r>   0.8028  1.0000</r>
       <r>   0.8028  1.0000</r>
       <r>   0.8028  1.0000</r>
       <r>   0.8221  1.0000</r>
       <r>   0.8664  1.0000</r>
       <r>   0.8787  1.0000</r>
       <r>   0.8788  1.0000</r>
       <r>   0.9578  1.0000</r>
       <r>   0.9578  1.0000</r>
       <r>   0.9873  1.0000</r>
       <r>   0.9873  1.0000</r>
       <r>   0.9873  1.0000</r>
       <r>   0.9873  1.0000</r>
       <r>   1.0418  1.0000</r>
       <r>   1.0418  1.0000</r>
       <r>   1.0419  1.0000</r>
       <r>   1.0419  1.0000</r>
       <r>   1.1497  1.0000</r>
       <r>   1.3049  1.0000</r>
       <r>   1.3049  1.0000</r>
       <r>   1.3049  1.0000</r>
       <r>   1.3049  1.0000</r>
       <r>   1.3654  1.0000</r>
       <r>   1.5721  1.0000</r>
       <r>   1.5721  1.0000</r>
       <r>   1.5721  1.0000</r>
       <r>   1.5721  1.0000</r>
       <r>   1.6445  1.0000</r>
       <r>   1.6445  1.0000</r>
       <r>   1.6728  1.0000</r>
       <r>   1.6860  1.0000</r>
       <r>   1.6860  1.0000</r>
       <r>   1.6860  1.0000</r>
       <r>   1.6860  1.0000</r>
       <r>   1.7813  1.0000</r>
       <r>   1.7813  1.0000</r>
       <r>   1.8970  1.0000</r>
       <r>   1.8970  1.0000</r>
       <r>   1.8970  1.0000</r>
       <r>   1.8970  1.0000</r>
       <r>   1.9004  1.0000</r>
       <r>   1.9004  1.0000</r>
       <r>   1.9541  1.0000</r>
       <r>   1.9543  1.0000</r>
       <r>   1.9554  1.0000</r>
       <r>   1.9556  1.0000</r>
       <r>   2.6867  1.0000</r>
       <r>   2.6867  1.0000</r>
       <r>   2.6867  1.0000</r>
       <r>   2.6867  1.0000</r>
       <r>   3.1909  1.0000</r>
       <r>   3.1909  1.0000</r>
       <r>   3.1909  1.0000</r>
       <r>   3.1909  1.0000</r>
       <r>   3.4025  1.0000</r>
       <r>   3.4025  1.0000</r>
       <r>   3.4025  1.0000</r>
       <r>   3.4025  1.0000</r>
       <r>   3.7714  0.0000</r>
       <r>   3.7714  0.0000</r>
       <r>   3.7714  0.0000</r>
       <r>   3.7714  0.0000</r>
       <r>   4.4994  0.0000</r>
       <r>   5.3653  0.0000</r>
       <r>   5.3653  0.0000</r>
       <r>   6.1569  0.0000</r>
       <r>   6.1569  0.0000</r>
       <r>   6.1569  0.0000</r>
       <r>   6.1569  0.0000</r>
       <r>   7.0980  0.0000</r>
       <r>   7.0980  0.0000</r>
       <r>   7.0980  0.0000</r>
       <r>   7.0980  0.0000</r>
       <r>   7.5463  0.0000</r>
       <r>   7.5463  0.0000</r>
       <r>   8.0823  0.0000</r>
       <r>   8.0823  0.0000</r>
       <r>   8.4723  0.0000</r>
       <r>   8.4723  0.0000</r>
       <r>   8.8886  0.0000</r>
       <r>   9.5007  0.0000</r>
       <r>   9.5007  0.0000</r>
       <r>   9.5007  0.0000</r>
       <r>   9.5007  0.0000</r>
       <r>   9.5237  0.0000</r>
       <r>   9.5237  0.0000</r>
       <r>   9.5237  0.0000</r>
       <r>   9.5237  0.0000</r>
       <r>  10.3261  0.0000</r>
       <r>  10.3298  0.0000</r>
       <r>  10.3783  0.0000</r>
      </set>
      <set comment="kpoint 4">
       <r>  -4.2996  1.0000</r>
       <r>  -3.1445  1.0000</r>
       <r>  -2.2461  1.0000</r>
       <r>  -2.2461  1.0000</r>
       <r>  -2.2461  1.0000</r>
       <r>  -2.2461  1.0000</r>
       <r>  -2.1452  1.0000</r>
       <r>  -2.1452  1.0000</r>
       <r>  -2.1452  1.0000</r>
       <r>  -2.1452  1.0000</r>
       <r>  -1.9312  1.0000</r>
       <r>  -1.8813  1.0000</r>
       <r>  -1.8812  1.0000</r>
       <r>  -1.8749  1.0000</r>
       <r>  -1.7059  1.0000</r>
       <r>  -1.6792  1.0000</r>
       <r>  -1.6792  1.0000</r>
       <r>  -1.5615  1.0000</r>
       <r>  -1.5615  1.0000</r>
       <r>  -1.5614  1.0000</r>
       <r>  -1.5614  1.0000</r>
       <r>  -1.5420  1.0000</r>
       <r>  -1.5420  1.0000</r>
       <r>  -1.5419  1.0000</r>
       <r>  -1.5419  1.0000</r>
       <r>  -1.3328  1.0000</r>
       <r>  -1.2924  1.0000</r>
       <r>  -1.2924  1.0000</r>
       <r>  -1.0658  1.0000</r>
       <r>  -1.0658  1.0000</r>
       <r>  -1.0570  1.0000</r>
       <r>  -1.0561  1.0000</r>
       <r>  -1.0561  1.0000</r>
       <r>  -1.0561  1.0000</r>
       <r>  -1.0558  1.0000</r>
       <r>  -1.0557  1.0000</r>
       <r>  -1.0557  1.0000</r>
       <r>  -1.0549  1.0000</r>
       <r>  -1.0098  1.0000</r>
       <r>  -1.0098  1.0000</r>
       <r>  -1.0098  1.0000</r>
       <r>  -1.0098  1.0000</r>
       <r>  -0.7581  1.0000</r>
       <r>  -0.7318  1.0000</r>
       <r>  -0.7318  1.0000</r>
       <r>  -0.7318  1.0000</r>
       <r>  -0.7318  1.0000</r>
       <r>  -0.6075  1.0000</r>
       <r>  -0.6075  1.0000</r>
       <r>  -0.6075  1.0000</r>
       <r>  -0.6075  1.0000</r>
       <r>  -0.5321  1.0000</r>
       <r>  -0.5313  1.0000</r>
       <r>  -0.5313  1.0000</r>
       <r>  -0.5312  1.0000</r>
       <r>  -0.5272  1.0000</r>
       <r>  -0.5272  1.0000</r>
       <r>  -0.5272  1.0000</r>
       <r>  -0.5264  1.0000</r>
       <r>  -0.5014  1.0000</r>
       <r>  -0.5014  1.0000</r>
       <r>  -0.5013  1.0000</r>
       <r>  -0.5013  1.0000</r>
       <r>  -0.4521  1.0000</r>
       <r>  -0.4521  1.0000</r>
       <r>  -0.4521  1.0000</r>
       <r>  -0.4520  1.0000</r>
       <r>  -0.3107  1.0000</r>
       <r>  -0.2911  1.0000</r>
       <r>  -0.2906  1.0000</r>
       <r>  -0.2906  1.0000</r>
       <r>  -0.2906  1.0000</r>
       <r>  -0.2890  1.0000</r>
       <r>  -0.2889  1.0000</r>
       <r>  -0.2889  1.0000</r>
       <r>  -0.2883  1.0000</r>
       <r>  -0.2000  1.0000</r>
       <r>  -0.1999  1.0000</r>
       <r>  -0.1999  1.0000</r>
       <r>  -0.1999  1.0000</r>
       <r>  -0.1828  1.0000</r>
       <r>  -0.1828  1.0000</r>
       <r>  -0.0051  1.0000</r>
       <r>  -0.0051  1.0000</r>
       <r>  -0.0051  1.0000</r>
       <r>  -0.0051  1.0000</r>
       <r>   0.0779  1.0000</r>
       <r>   0.0779  1.0000</r>
       <r>   0.0779  1.0000</r>
       <r>   0.0780  1.0000</r>
       <r>   0.1189  1.0000</r>
       <r>   0.1189  1.0000</r>
       <r>   0.2447  1.0000</r>
       <r>   0.2448  1.0000</r>
       <r>   0.2448  1.0000</r>
       <r>   0.2448  1.0000</r>
       <r>   0.2918  1.0000</r>
       <r>   0.2918  1.0000</r>
       <r>   0.3786  1.0000</r>
       <r>   0.5510  1.0000</r>
       <r>   0.5511  1.0000</r>
       <r>   0.5511  1.0000</r>
       <r>   0.5511  1.0000</r>
       <r>   0.6334  1.0000</r>
       <r>   0.6334  1.0000</r>
       <r>   0.6334  1.0000</r>
       <r>   0.6334  1.0000</r>
       <r>   0.6694  1.0000</r>
       <r>   0.6694  1.0000</r>
       <r>   0.6694  1.0000</r>
       <r>   0.6694  1.0000</r>
       <r>   0.7171  1.0000</r>
       <r>   0.7171  1.0000</r>
       <r>   0.7171  1.0000</r>
       <r>   0.7172  1.0000</r>
       <r>   0.7842  1.0000</r>
       <r>   0.8127  1.0000</r>
       <r>   0.8127  1.0000</r>
       <r>   0.8127  1.0000</r>
       <r>   0.8127  1.0000</r>
       <r>   0.8311  1.0000</r>
       <r>   0.8312  1.0000</r>
       <r>   0.8312  1.0000</r>
       <r>   0.8312  1.0000</r>
       <r>   0.8830  1.0000</r>
       <r>   0.8859  1.0000</r>
       <r>   0.9741  1.0000</r>
       <r>   0.9741  1.0000</r>
       <r>   1.0914  1.0000</r>
       <r>   1.0917  1.0000</r>
       <r>   1.0917  1.0000</r>
       <r>   1.0917  1.0000</r>
       <r>   1.0994  1.0000</r>
       <r>   1.1036  1.0000</r>
       <r>   1.1036  1.0000</r>
       <r>   1.1498  1.0000</r>
       <r>   1.1498  1.0000</r>
       <r>   1.1498  1.0000</r>
       <r>   1.1498  1.0000</r>
       <r>   1.3846  1.0000</r>
       <r>   1.3846  1.0000</r>
       <r>   1.3846  1.0000</r>
       <r>   1.3846  1.0000</r>
       <r>   1.3997  1.0000</r>
       <r>   1.3997  1.0000</r>
       <r>   1.3997  1.0000</r>
       <r>   1.3997  1.0000</r>
       <r>   1.4182  1.0000</r>
       <r>   1.5909  1.0000</r>
       <r>   1.5909  1.0000</r>
       <r>   1.5937  1.0000</r>
       <r>   1.5937  1.0000</r>
       <r>   1.6396  1.0000</r>
       <r>   1.6396  1.0000</r>
       <r>   1.6396  1.0000</r>
       <r>   1.6397  1.0000</r>
       <r>   1.6541  1.0000</r>
       <r>   1.8276  1.0000</r>
       <r>   1.8276  1.0000</r>
       <r>   1.8276  1.0000</r>
       <r>   1.8276  1.0000</r>
       <r>   1.8354  1.0000</r>
       <r>   1.8354  1.0000</r>
       <r>   1.9541  1.0000</r>
       <r>   1.9544  1.0000</r>
       <r>   1.9553  1.0000</r>
       <r>   1.9556  1.0000</r>
       <r>   2.4608  1.0000</r>
       <r>   2.4608  1.0000</r>
       <r>   2.4608  1.0000</r>
       <r>   2.4608  1.0000</r>
       <r>   3.1997  1.0000</r>
       <r>   3.1998  1.0000</r>
       <r>   3.1998  1.0000</r>
       <r>   3.1998  1.0000</r>
       <r>   3.3572  1.0000</r>
       <r>   3.3572  1.0000</r>
       <r>   3.3572  1.0000</r>
       <r>   3.3572  1.0000</r>
       <r>   3.9385  0.0000</r>
       <r>   4.1103  0.0000</r>
       <r>   4.1103  0.0000</r>
       <r>   4.1103  0.0000</r>
       <r>   4.1103  0.0000</r>
       <r>   5.6194  0.0000</r>
       <r>   5.6194  0.0000</r>
       <r>   6.4935  0.0000</r>
       <r>   6.4935  0.0000</r>
       <r>   6.4935  0.0000</r>
       <r>   6.4935  0.0000</r>
       <r>   6.6944  0.0000</r>
       <r>   6.6944  0.0000</r>
       <r>   6.6944  0.0000</r>
       <r>   6.6944  0.0000</r>
       <r>   7.5930  0.0000</r>
       <r>   7.5930  0.0000</r>
       <r>   8.0117  0.0000</r>
       <r>   8.0117  0.0000</r>
       <r>   8.0311  0.0000</r>
       <r>   8.0311  0.0000</r>
       <r>   9.5852  0.0000</r>
       <r>   9.5854  0.0000</r>
       <r>   9.5854  0.0000</r>
       <r>   9.5854  0.0000</r>
       <r>   9.6055  0.0000</r>
       <r>   9.6694  0.0000</r>
       <r>   9.6694  0.0000</r>
       <r>   9.6695  0.0000</r>
       <r>   9.6718  0.0000</r>
       <r>   9.7496  0.0000</r>
       <r>   9.7496  0.0000</r>
       <r>   9.7496  0.0000</r>
      </set>
      <set comment="kpoint 5">
       <r>  -4.1803  1.0000</r>
       <r>  -3.3999  1.0000</r>
       <r>  -2.1639  1.0000</r>
       <r>  -2.1638  1.0000</r>
       <r>  -2.1638  1.0000</r>
       <r>  -2.1638  1.0000</r>
       <r>  -2.0825  1.0000</r>
       <r>  -2.0825  1.0000</r>
       <r>  -2.0825  1.0000</r>
       <r>  -2.0825  1.0000</r>
       <r>  -1.9007  1.0000</r>
       <r>  -1.8283  1.0000</r>
       <r>  -1.8102  1.0000</r>
       <r>  -1.8102  1.0000</r>
       <r>  -1.6887  1.0000</r>
       <r>  -1.6887  1.0000</r>
       <r>  -1.6887  1.0000</r>
       <r>  -1.6886  1.0000</r>
       <r>  -1.6735  1.0000</r>
       <r>  -1.6734  1.0000</r>
       <r>  -1.6734  1.0000</r>
       <r>  -1.6734  1.0000</r>
       <r>  -1.6671  1.0000</r>
       <r>  -1.6192  1.0000</r>
       <r>  -1.6192  1.0000</r>
       <r>  -1.4158  1.0000</r>
       <r>  -1.3992  1.0000</r>
       <r>  -1.3992  1.0000</r>
       <r>  -1.2097  1.0000</r>
       <r>  -1.2097  1.0000</r>
       <r>  -1.0137  1.0000</r>
       <r>  -1.0135  1.0000</r>
       <r>  -1.0135  1.0000</r>
       <r>  -1.0135  1.0000</r>
       <r>  -1.0036  1.0000</r>
       <r>  -1.0036  1.0000</r>
       <r>  -1.0036  1.0000</r>
       <r>  -1.0034  1.0000</r>
       <r>  -0.9774  1.0000</r>
       <r>  -0.9774  1.0000</r>
       <r>  -0.9774  1.0000</r>
       <r>  -0.9773  1.0000</r>
       <r>  -0.7857  1.0000</r>
       <r>  -0.7857  1.0000</r>
       <r>  -0.7857  1.0000</r>
       <r>  -0.7857  1.0000</r>
       <r>  -0.6643  1.0000</r>
       <r>  -0.6484  1.0000</r>
       <r>  -0.6484  1.0000</r>
       <r>  -0.6484  1.0000</r>
       <r>  -0.6484  1.0000</r>
       <r>  -0.5834  1.0000</r>
       <r>  -0.5834  1.0000</r>
       <r>  -0.5834  1.0000</r>
       <r>  -0.5834  1.0000</r>
       <r>  -0.5273  1.0000</r>
       <r>  -0.5267  1.0000</r>
       <r>  -0.5267  1.0000</r>
       <r>  -0.5267  1.0000</r>
       <r>  -0.5197  1.0000</r>
       <r>  -0.5196  1.0000</r>
       <r>  -0.5196  1.0000</r>
       <r>  -0.5191  1.0000</r>
       <r>  -0.4184  1.0000</r>
       <r>  -0.4184  1.0000</r>
       <r>  -0.4184  1.0000</r>
       <r>  -0.4184  1.0000</r>
       <r>  -0.3604  1.0000</r>
       <r>  -0.3107  1.0000</r>
       <r>  -0.3107  1.0000</r>
       <r>  -0.3107  1.0000</r>
       <r>  -0.3107  1.0000</r>
       <r>  -0.2745  1.0000</r>
       <r>  -0.2744  1.0000</r>
       <r>  -0.2744  1.0000</r>
       <r>  -0.2744  1.0000</r>
       <r>  -0.1523  1.0000</r>
       <r>  -0.1522  1.0000</r>
       <r>  -0.1522  1.0000</r>
       <r>  -0.1522  1.0000</r>
       <r>  -0.1351  1.0000</r>
       <r>  -0.1351  1.0000</r>
       <r>  -0.0233  1.0000</r>
       <r>  -0.0233  1.0000</r>
       <r>  -0.0233  1.0000</r>
       <r>  -0.0233  1.0000</r>
       <r>   0.1505  1.0000</r>
       <r>   0.1505  1.0000</r>
       <r>   0.1505  1.0000</r>
       <r>   0.1505  1.0000</r>
       <r>   0.1832  1.0000</r>
       <r>   0.1832  1.0000</r>
       <r>   0.2097  1.0000</r>
       <r>   0.2097  1.0000</r>
       <r>   0.2097  1.0000</r>
       <r>   0.2097  1.0000</r>
       <r>   0.3615  1.0000</r>
       <r>   0.3615  1.0000</r>
       <r>   0.4475  1.0000</r>
       <r>   0.6238  1.0000</r>
       <r>   0.6238  1.0000</r>
       <r>   0.6238  1.0000</r>
       <r>   0.6238  1.0000</r>
       <r>   0.6682  1.0000</r>
       <r>   0.6682  1.0000</r>
       <r>   0.6682  1.0000</r>
       <r>   0.6682  1.0000</r>
       <r>   0.6935  1.0000</r>
       <r>   0.6936  1.0000</r>
       <r>   0.6936  1.0000</r>
       <r>   0.6936  1.0000</r>
       <r>   0.7037  1.0000</r>
       <r>   0.7037  1.0000</r>
       <r>   0.7037  1.0000</r>
       <r>   0.7037  1.0000</r>
       <r>   0.7330  1.0000</r>
       <r>   0.8186  1.0000</r>
       <r>   0.8186  1.0000</r>
       <r>   0.8187  1.0000</r>
       <r>   0.8187  1.0000</r>
       <r>   0.8381  1.0000</r>
       <r>   0.8381  1.0000</r>
       <r>   0.8381  1.0000</r>
       <r>   0.8381  1.0000</r>
       <r>   0.9058  1.0000</r>
       <r>   1.0516  1.0000</r>
       <r>   1.0868  1.0000</r>
       <r>   1.0868  1.0000</r>
       <r>   1.1853  1.0000</r>
       <r>   1.1853  1.0000</r>
       <r>   1.1853  1.0000</r>
       <r>   1.1853  1.0000</r>
       <r>   1.2008  1.0000</r>
       <r>   1.2008  1.0000</r>
       <r>   1.2008  1.0000</r>
       <r>   1.2009  1.0000</r>
       <r>   1.2482  1.0000</r>
       <r>   1.2482  1.0000</r>
       <r>   1.2582  1.0000</r>
       <r>   1.2671  1.0000</r>
       <r>   1.2671  1.0000</r>
       <r>   1.2671  1.0000</r>
       <r>   1.2671  1.0000</r>
       <r>   1.3682  1.0000</r>
       <r>   1.3682  1.0000</r>
       <r>   1.4685  1.0000</r>
       <r>   1.5094  1.0000</r>
       <r>   1.5095  1.0000</r>
       <r>   1.5095  1.0000</r>
       <r>   1.5095  1.0000</r>
       <r>   1.5175  1.0000</r>
       <r>   1.5176  1.0000</r>
       <r>   1.5766  1.0000</r>
       <r>   1.5766  1.0000</r>
       <r>   1.5766  1.0000</r>
       <r>   1.5767  1.0000</r>
       <r>   1.6284  1.0000</r>
       <r>   1.7368  1.0000</r>
       <r>   1.7368  1.0000</r>
       <r>   1.7368  1.0000</r>
       <r>   1.7368  1.0000</r>
       <r>   1.7482  1.0000</r>
       <r>   1.7482  1.0000</r>
       <r>   1.9542  1.0000</r>
       <r>   1.9545  1.0000</r>
       <r>   1.9551  1.0000</r>
       <r>   1.9555  1.0000</r>
       <r>   2.2461  1.0000</r>
       <r>   2.2461  1.0000</r>
       <r>   2.2461  1.0000</r>
       <r>   2.2461  1.0000</r>
       <r>   3.2124  1.0000</r>
       <r>   3.2125  1.0000</r>
       <r>   3.2125  1.0000</r>
       <r>   3.2125  1.0000</r>
       <r>   3.3151  1.0000</r>
       <r>   3.3151  1.0000</r>
       <r>   3.3151  1.0000</r>
       <r>   3.3152  1.0000</r>
       <r>   3.3490  1.0000</r>
       <r>   4.4826  0.0000</r>
       <r>   4.4826  0.0000</r>
       <r>   4.4826  0.0000</r>
       <r>   4.4826  0.0000</r>
       <r>   5.9375  0.0000</r>
       <r>   5.9375  0.0000</r>
       <r>   6.2426  0.0000</r>
       <r>   6.2426  0.0000</r>
       <r>   6.2426  0.0000</r>
       <r>   6.2426  0.0000</r>
       <r>   6.9161  0.0000</r>
       <r>   6.9161  0.0000</r>
       <r>   6.9161  0.0000</r>
       <r>   6.9161  0.0000</r>
       <r>   7.5597  0.0000</r>
       <r>   7.5597  0.0000</r>
       <r>   7.6548  0.0000</r>
       <r>   7.6548  0.0000</r>
       <r>   7.9649  0.0000</r>
       <r>   7.9649  0.0000</r>
       <r>   9.1231  0.0000</r>
       <r>   9.1231  0.0000</r>
       <r>   9.1231  0.0000</r>
       <r>   9.1231  0.0000</r>
       <r>   9.6807  0.0000</r>
       <r>   9.6807  0.0000</r>
       <r>   9.6807  0.0000</r>
       <r>   9.6807  0.0000</r>
       <r>   9.8672  0.0000</r>
       <r>   9.8672  0.0000</r>
       <r>   9.8672  0.0000</r>
       <r>   9.8672  0.0000</r>
      </set>
      <set comment="kpoint 6">
       <r>  -4.0286  1.0000</r>
       <r>  -3.6356  1.0000</r>
       <r>  -2.0626  1.0000</r>
       <r>  -2.0626  1.0000</r>
       <r>  -2.0626  1.0000</r>
       <r>  -2.0626  1.0000</r>
       <r>  -2.0029  1.0000</r>
       <r>  -2.0029  1.0000</r>
       <r>  -2.0029  1.0000</r>
       <r>  -2.0029  1.0000</r>
       <r>  -1.8679  1.0000</r>
       <r>  -1.8217  1.0000</r>
       <r>  -1.8193  1.0000</r>
       <r>  -1.8193  1.0000</r>
       <r>  -1.8193  1.0000</r>
       <r>  -1.8188  1.0000</r>
       <r>  -1.7965  1.0000</r>
       <r>  -1.7965  1.0000</r>
       <r>  -1.7965  1.0000</r>
       <r>  -1.7965  1.0000</r>
       <r>  -1.7225  1.0000</r>
       <r>  -1.7225  1.0000</r>
       <r>  -1.6181  1.0000</r>
       <r>  -1.5421  1.0000</r>
       <r>  -1.5421  1.0000</r>
       <r>  -1.5117  1.0000</r>
       <r>  -1.5117  1.0000</r>
       <r>  -1.4917  1.0000</r>
       <r>  -1.3372  1.0000</r>
       <r>  -1.3372  1.0000</r>
       <r>  -0.9720  1.0000</r>
       <r>  -0.9717  1.0000</r>
       <r>  -0.9717  1.0000</r>
       <r>  -0.9717  1.0000</r>
       <r>  -0.9632  1.0000</r>
       <r>  -0.9632  1.0000</r>
       <r>  -0.9632  1.0000</r>
       <r>  -0.9630  1.0000</r>
       <r>  -0.9373  1.0000</r>
       <r>  -0.9372  1.0000</r>
       <r>  -0.9372  1.0000</r>
       <r>  -0.9372  1.0000</r>
       <r>  -0.8395  1.0000</r>
       <r>  -0.8395  1.0000</r>
       <r>  -0.8395  1.0000</r>
       <r>  -0.8395  1.0000</r>
       <r>  -0.6825  1.0000</r>
       <r>  -0.6825  1.0000</r>
       <r>  -0.6825  1.0000</r>
       <r>  -0.6825  1.0000</r>
       <r>  -0.6524  1.0000</r>
       <r>  -0.6524  1.0000</r>
       <r>  -0.6524  1.0000</r>
       <r>  -0.6524  1.0000</r>
       <r>  -0.5759  1.0000</r>
       <r>  -0.5230  1.0000</r>
       <r>  -0.5222  1.0000</r>
       <r>  -0.5222  1.0000</r>
       <r>  -0.5222  1.0000</r>
       <r>  -0.5173  1.0000</r>
       <r>  -0.5173  1.0000</r>
       <r>  -0.5173  1.0000</r>
       <r>  -0.5165  1.0000</r>
       <r>  -0.4222  1.0000</r>
       <r>  -0.3888  1.0000</r>
       <r>  -0.3888  1.0000</r>
       <r>  -0.3888  1.0000</r>
       <r>  -0.3888  1.0000</r>
       <r>  -0.3345  1.0000</r>
       <r>  -0.3345  1.0000</r>
       <r>  -0.3345  1.0000</r>
       <r>  -0.3345  1.0000</r>
       <r>  -0.2403  1.0000</r>
       <r>  -0.2403  1.0000</r>
       <r>  -0.2403  1.0000</r>
       <r>  -0.2403  1.0000</r>
       <r>  -0.1127  1.0000</r>
       <r>  -0.1126  1.0000</r>
       <r>  -0.1126  1.0000</r>
       <r>  -0.1125  1.0000</r>
       <r>  -0.0921  1.0000</r>
       <r>  -0.0920  1.0000</r>
       <r>  -0.0920  1.0000</r>
       <r>  -0.0920  1.0000</r>
       <r>  -0.0742  1.0000</r>
       <r>  -0.0742  1.0000</r>
       <r>   0.0610  1.0000</r>
       <r>   0.0610  1.0000</r>
       <r>   0.0610  1.0000</r>
       <r>   0.0610  1.0000</r>
       <r>   0.0855  1.0000</r>
       <r>   0.0855  1.0000</r>
       <r>   0.4476  1.0000</r>
       <r>   0.4477  1.0000</r>
       <r>   0.4477  1.0000</r>
       <r>   0.4477  1.0000</r>
       <r>   0.5234  1.0000</r>
       <r>   0.6122  1.0000</r>
       <r>   0.6122  1.0000</r>
       <r>   0.6684  1.0000</r>
       <r>   0.6684  1.0000</r>
       <r>   0.6684  1.0000</r>
       <r>   0.6684  1.0000</r>
       <r>   0.6704  1.0000</r>
       <r>   0.6791  1.0000</r>
       <r>   0.6791  1.0000</r>
       <r>   0.6791  1.0000</r>
       <r>   0.6791  1.0000</r>
       <r>   0.6962  1.0000</r>
       <r>   0.6963  1.0000</r>
       <r>   0.6963  1.0000</r>
       <r>   0.6963  1.0000</r>
       <r>   0.7590  1.0000</r>
       <r>   0.7590  1.0000</r>
       <r>   0.7590  1.0000</r>
       <r>   0.7591  1.0000</r>
       <r>   0.8107  1.0000</r>
       <r>   0.8108  1.0000</r>
       <r>   0.8109  1.0000</r>
       <r>   0.8109  1.0000</r>
       <r>   0.8147  1.0000</r>
       <r>   0.8147  1.0000</r>
       <r>   0.8149  1.0000</r>
       <r>   0.8150  1.0000</r>
       <r>   0.9345  1.0000</r>
       <r>   0.9462  1.0000</r>
       <r>   0.9462  1.0000</r>
       <r>   0.9462  1.0000</r>
       <r>   0.9462  1.0000</r>
       <r>   1.0080  1.0000</r>
       <r>   1.1222  1.0000</r>
       <r>   1.1222  1.0000</r>
       <r>   1.2054  1.0000</r>
       <r>   1.2054  1.0000</r>
       <r>   1.3079  1.0000</r>
       <r>   1.3079  1.0000</r>
       <r>   1.3079  1.0000</r>
       <r>   1.3079  1.0000</r>
       <r>   1.3884  1.0000</r>
       <r>   1.3884  1.0000</r>
       <r>   1.3894  1.0000</r>
       <r>   1.3894  1.0000</r>
       <r>   1.3895  1.0000</r>
       <r>   1.3895  1.0000</r>
       <r>   1.4264  1.0000</r>
       <r>   1.4264  1.0000</r>
       <r>   1.4987  1.0000</r>
       <r>   1.4988  1.0000</r>
       <r>   1.4988  1.0000</r>
       <r>   1.4988  1.0000</r>
       <r>   1.5157  1.0000</r>
       <r>   1.5964  1.0000</r>
       <r>   1.6298  1.0000</r>
       <r>   1.6298  1.0000</r>
       <r>   1.6298  1.0000</r>
       <r>   1.6298  1.0000</r>
       <r>   1.6422  1.0000</r>
       <r>   1.6422  1.0000</r>
       <r>   1.6679  1.0000</r>
       <r>   1.6679  1.0000</r>
       <r>   1.6679  1.0000</r>
       <r>   1.6679  1.0000</r>
       <r>   1.7068  1.0000</r>
       <r>   1.9543  1.0000</r>
       <r>   1.9547  1.0000</r>
       <r>   1.9550  1.0000</r>
       <r>   1.9555  1.0000</r>
       <r>   2.0414  1.0000</r>
       <r>   2.0414  1.0000</r>
       <r>   2.0414  1.0000</r>
       <r>   2.0414  1.0000</r>
       <r>   2.7676  1.0000</r>
       <r>   3.2296  1.0000</r>
       <r>   3.2296  1.0000</r>
       <r>   3.2296  1.0000</r>
       <r>   3.2296  1.0000</r>
       <r>   3.2800  1.0000</r>
       <r>   3.2800  1.0000</r>
       <r>   3.2800  1.0000</r>
       <r>   3.2801  1.0000</r>
       <r>   4.8879  0.0000</r>
       <r>   4.8879  0.0000</r>
[...]
       <r>   0.1628  1.0000</r>
       <r>   0.1628  1.0000</r>
       <r>   0.1637  1.0000</r>
       <r>   0.1637  1.0000</r>
       <r>   0.2721  1.0000</r>
       <r>   0.2721  1.0000</r>
       <r>   0.2721  1.0000</r>
       <r>   0.2721  1.0000</r>
       <r>   0.4402  1.0000</r>
       <r>   0.4403  1.0000</r>
       <r>   0.4403  1.0000</r>
       <r>   0.4403  1.0000</r>
       <r>   0.5184  1.0000</r>
       <r>   0.5184  1.0000</r>
       <r>   0.5187  1.0000</r>
       <r>   0.5187  1.0000</r>
       <r>   0.5187  1.0000</r>
       <r>   0.5187  1.0000</r>
       <r>   0.5191  1.0000</r>
       <r>   0.5191  1.0000</r>
       <r>   0.7963  1.0000</r>
       <r>   0.7965  1.0000</r>
       <r>   0.7965  1.0000</r>
       <r>   0.7966  1.0000</r>
       <r>   0.8403  1.0000</r>
       <r>   0.8404  1.0000</r>
       <r>   0.8404  1.0000</r>
       <r>   0.8404  1.0000</r>
       <r>   0.8441  1.0000</r>
       <r>   0.8441  1.0000</r>
       <r>   0.8446  1.0000</r>
       <r>   0.8446  1.0000</r>
       <r>   0.8446  1.0000</r>
       <r>   0.8450  1.0000</r>
       <r>   0.8452  1.0000</r>
       <r>   0.8452  1.0000</r>
       <r>   1.0334  1.0000</r>
       <r>   1.0338  1.0000</r>
       <r>   1.0338  1.0000</r>
       <r>   1.0338  1.0000</r>
       <r>   1.0366  1.0000</r>
       <r>   1.0366  1.0000</r>
       <r>   1.0366  1.0000</r>
       <r>   1.0370  1.0000</r>
       <r>   1.1930  1.0000</r>
       <r>   1.1930  1.0000</r>
       <r>   1.1930  1.0000</r>
       <r>   1.1930  1.0000</r>
       <r>   1.7363  1.0000</r>
       <r>   1.7363  1.0000</r>
       <r>   1.7365  1.0000</r>
       <r>   1.7365  1.0000</r>
       <r>   1.7365  1.0000</r>
       <r>   1.7365  1.0000</r>
       <r>   1.7367  1.0000</r>
       <r>   1.7367  1.0000</r>
       <r>   1.7511  1.0000</r>
       <r>   1.7511  1.0000</r>
       <r>   1.7511  1.0000</r>
       <r>   1.7511  1.0000</r>
       <r>   1.7678  1.0000</r>
       <r>   1.7678  1.0000</r>
       <r>   1.7678  1.0000</r>
       <r>   1.7678  1.0000</r>
       <r>   1.7704  1.0000</r>
       <r>   1.7704  1.0000</r>
       <r>   1.7706  1.0000</r>
       <r>   1.7706  1.0000</r>
       <r>   1.7706  1.0000</r>
       <r>   1.7706  1.0000</r>
       <r>   1.7708  1.0000</r>
       <r>   1.7708  1.0000</r>
       <r>   3.4213  1.0000</r>
       <r>   3.4213  1.0000</r>
       <r>   3.4213  1.0000</r>
       <r>   3.4213  1.0000</r>
       <r>   4.0409  0.0000</r>
       <r>   4.0409  0.0000</r>
       <r>   4.0411  0.0000</r>
       <r>   4.0411  0.0000</r>
       <r>   4.0411  0.0000</r>
       <r>   4.0411  0.0000</r>
       <r>   4.0413  0.0000</r>
       <r>   4.0413  0.0000</r>
       <r>   4.9228  0.0000</r>
       <r>   4.9228  0.0000</r>
       <r>   4.9231  0.0000</r>
       <r>   4.9231  0.0000</r>
       <r>   4.9231  0.0000</r>
       <r>   4.9231  0.0000</r>
       <r>   4.9234  0.0000</r>
       <r>   4.9234  0.0000</r>
       <r>   5.5371  0.0000</r>
       <r>   5.5371  0.0000</r>
       <r>   5.5371  0.0000</r>
       <r>   5.5371  0.0000</r>
       <r>   7.5929  0.0000</r>
       <r>   7.5929  0.0000</r>
       <r>   7.5934  0.0000</r>
       <r>   7.5934  0.0000</r>
       <r>   7.5934  0.0000</r>
       <r>   7.5934  0.0000</r>
       <r>   7.5938  0.0000</r>
       <r>   7.5938  0.0000</r>
       <r>   8.0176  0.0000</r>
       <r>   8.0176  0.0000</r>
       <r>   8.0176  0.0000</r>
       <r>   8.0176  0.0000</r>
       <r>   9.1580  0.0000</r>
       <r>   9.1580  0.0000</r>
       <r>   9.1580  0.0000</r>
       <r>   9.1580  0.0000</r>
       <r>   9.5121  0.0000</r>
       <r>   9.5122  0.0000</r>
       <r>   9.5123  0.0000</r>
       <r>   9.5124  0.0000</r>
      </set>
      <set comment="kpoint 195">
       <r>  -3.0156  1.0000</r>
       <r>  -3.0155  1.0000</r>
       <r>  -3.0155  1.0000</r>
       <r>  -3.0155  1.0000</r>
       <r>  -2.7712  1.0000</r>
       <r>  -2.7712  1.0000</r>
       <r>  -2.7712  1.0000</r>
       <r>  -2.7712  1.0000</r>
       <r>  -1.5623  1.0000</r>
       <r>  -1.5623  1.0000</r>
       <r>  -1.5622  1.0000</r>
       <r>  -1.5622  1.0000</r>
       <r>  -1.5365  1.0000</r>
       <r>  -1.5365  1.0000</r>
       <r>  -1.5362  1.0000</r>
       <r>  -1.5362  1.0000</r>
       <r>  -1.5361  1.0000</r>
       <r>  -1.5361  1.0000</r>
       <r>  -1.5359  1.0000</r>
       <r>  -1.5359  1.0000</r>
       <r>  -1.5168  1.0000</r>
       <r>  -1.5163  1.0000</r>
       <r>  -1.5163  1.0000</r>
       <r>  -1.5157  1.0000</r>
       <r>  -1.5155  1.0000</r>
       <r>  -1.5155  1.0000</r>
       <r>  -1.5153  1.0000</r>
       <r>  -1.5153  1.0000</r>
       <r>  -1.5144  1.0000</r>
       <r>  -1.5140  1.0000</r>
       <r>  -1.5140  1.0000</r>
       <r>  -1.5134  1.0000</r>
       <r>  -0.9075  1.0000</r>
       <r>  -0.9075  1.0000</r>
       <r>  -0.9071  1.0000</r>
       <r>  -0.9071  1.0000</r>
       <r>  -0.9071  1.0000</r>
       <r>  -0.9071  1.0000</r>
       <r>  -0.9066  1.0000</r>
       <r>  -0.9066  1.0000</r>
       <r>  -0.8791  1.0000</r>
       <r>  -0.8790  1.0000</r>
       <r>  -0.8790  1.0000</r>
       <r>  -0.8790  1.0000</r>
       <r>  -0.7293  1.0000</r>
       <r>  -0.7291  1.0000</r>
       <r>  -0.7291  1.0000</r>
       <r>  -0.7290  1.0000</r>
       <r>  -0.7284  1.0000</r>
       <r>  -0.7284  1.0000</r>
       <r>  -0.7280  1.0000</r>
       <r>  -0.7280  1.0000</r>
       <r>  -0.7280  1.0000</r>
       <r>  -0.7278  1.0000</r>
       <r>  -0.7275  1.0000</r>
       <r>  -0.7275  1.0000</r>
       <r>  -0.3404  1.0000</r>
       <r>  -0.3404  1.0000</r>
       <r>  -0.3404  1.0000</r>
       <r>  -0.3403  1.0000</r>
       <r>  -0.2275  1.0000</r>
       <r>  -0.2275  1.0000</r>
       <r>  -0.2274  1.0000</r>
       <r>  -0.2274  1.0000</r>
       <r>  -0.0393  1.0000</r>
       <r>  -0.0393  1.0000</r>
       <r>  -0.0393  1.0000</r>
       <r>  -0.0392  1.0000</r>
       <r>  -0.0349  1.0000</r>
       <r>  -0.0349  1.0000</r>
       <r>  -0.0349  1.0000</r>
       <r>  -0.0348  1.0000</r>
       <r>  -0.0219  1.0000</r>
       <r>  -0.0219  1.0000</r>
       <r>  -0.0213  1.0000</r>
       <r>  -0.0213  1.0000</r>
       <r>  -0.0213  1.0000</r>
       <r>  -0.0213  1.0000</r>
       <r>  -0.0207  1.0000</r>
       <r>  -0.0207  1.0000</r>
       <r>   0.0002  1.0000</r>
       <r>   0.0003  1.0000</r>
       <r>   0.0003  1.0000</r>
       <r>   0.0003  1.0000</r>
       <r>   0.0508  1.0000</r>
       <r>   0.0508  1.0000</r>
       <r>   0.0522  1.0000</r>
       <r>   0.0522  1.0000</r>
       <r>   0.0522  1.0000</r>
       <r>   0.0522  1.0000</r>
       <r>   0.0536  1.0000</r>
       <r>   0.0536  1.0000</r>
       <r>   0.1282  1.0000</r>
       <r>   0.1282  1.0000</r>
       <r>   0.1293  1.0000</r>
       <r>   0.1293  1.0000</r>
       <r>   0.1293  1.0000</r>
       <r>   0.1293  1.0000</r>
       <r>   0.1305  1.0000</r>
       <r>   0.1305  1.0000</r>
       <r>   0.1818  1.0000</r>
       <r>   0.1818  1.0000</r>
       <r>   0.1818  1.0000</r>
       <r>   0.1818  1.0000</r>
       <r>   0.5373  1.0000</r>
       <r>   0.5374  1.0000</r>
       <r>   0.5374  1.0000</r>
       <r>   0.5374  1.0000</r>
       <r>   0.5696  1.0000</r>
       <r>   0.5696  1.0000</r>
       <r>   0.5700  1.0000</r>
       <r>   0.5701  1.0000</r>
       <r>   0.5701  1.0000</r>
       <r>   0.5701  1.0000</r>
       <r>   0.5705  1.0000</r>
       <r>   0.5705  1.0000</r>
       <r>   0.7291  1.0000</r>
       <r>   0.7291  1.0000</r>
       <r>   0.7296  1.0000</r>
       <r>   0.7296  1.0000</r>
       <r>   0.7297  1.0000</r>
       <r>   0.7297  1.0000</r>
       <r>   0.7302  1.0000</r>
       <r>   0.7302  1.0000</r>
       <r>   0.7405  1.0000</r>
       <r>   0.7405  1.0000</r>
       <r>   0.7405  1.0000</r>
       <r>   0.7405  1.0000</r>
       <r>   0.8899  1.0000</r>
       <r>   0.8899  1.0000</r>
       <r>   0.8899  1.0000</r>
       <r>   0.8899  1.0000</r>
       <r>   0.9913  1.0000</r>
       <r>   0.9914  1.0000</r>
       <r>   0.9914  1.0000</r>
       <r>   0.9914  1.0000</r>
       <r>   1.0085  1.0000</r>
       <r>   1.0085  1.0000</r>
       <r>   1.0085  1.0000</r>
       <r>   1.0086  1.0000</r>
       <r>   1.0909  1.0000</r>
       <r>   1.0909  1.0000</r>
       <r>   1.0909  1.0000</r>
       <r>   1.0909  1.0000</r>
       <r>   1.7675  1.0000</r>
       <r>   1.7675  1.0000</r>
       <r>   1.7675  1.0000</r>
       <r>   1.7676  1.0000</r>
       <r>   1.7676  1.0000</r>
       <r>   1.7676  1.0000</r>
       <r>   1.7676  1.0000</r>
       <r>   1.7676  1.0000</r>
       <r>   1.7751  1.0000</r>
       <r>   1.7751  1.0000</r>
       <r>   1.7752  1.0000</r>
       <r>   1.7752  1.0000</r>
       <r>   1.7848  1.0000</r>
       <r>   1.7848  1.0000</r>
       <r>   1.7848  1.0000</r>
       <r>   1.7848  1.0000</r>
       <r>   1.7893  1.0000</r>
       <r>   1.7893  1.0000</r>
       <r>   1.7894  1.0000</r>
       <r>   1.7894  1.0000</r>
       <r>   1.7894  1.0000</r>
       <r>   1.7894  1.0000</r>
       <r>   1.7896  1.0000</r>
       <r>   1.7896  1.0000</r>
       <r>   3.9165  0.0000</r>
       <r>   3.9165  0.0000</r>
       <r>   3.9165  0.0000</r>
       <r>   3.9165  0.0000</r>
       <r>   4.2274  0.0000</r>
       <r>   4.2274  0.0000</r>
       <r>   4.2276  0.0000</r>
       <r>   4.2276  0.0000</r>
       <r>   4.2276  0.0000</r>
       <r>   4.2276  0.0000</r>
       <r>   4.2279  0.0000</r>
       <r>   4.2279  0.0000</r>
       <r>   4.6727  0.0000</r>
       <r>   4.6727  0.0000</r>
       <r>   4.6730  0.0000</r>
       <r>   4.6731  0.0000</r>
       <r>   4.6731  0.0000</r>
       <r>   4.6731  0.0000</r>
       <r>   4.6734  0.0000</r>
       <r>   4.6734  0.0000</r>
       <r>   4.9844  0.0000</r>
       <r>   4.9844  0.0000</r>
       <r>   4.9844  0.0000</r>
       <r>   4.9844  0.0000</r>
       <r>   8.0370  0.0000</r>
       <r>   8.0370  0.0000</r>
       <r>   8.0373  0.0000</r>
       <r>   8.0373  0.0000</r>
       <r>   8.0373  0.0000</r>
       <r>   8.0374  0.0000</r>
       <r>   8.0377  0.0000</r>
       <r>   8.0377  0.0000</r>
       <r>   8.2387  0.0000</r>
       <r>   8.2387  0.0000</r>
       <r>   8.2387  0.0000</r>
       <r>   8.2387  0.0000</r>
       <r>   8.8169  0.0000</r>
       <r>   8.8170  0.0000</r>
       <r>   8.8170  0.0000</r>
       <r>   8.8170  0.0000</r>
       <r>   9.0022  0.0000</r>
       <r>   9.0023  0.0000</r>
       <r>   9.0024  0.0000</r>
       <r>   9.0025  0.0000</r>
      </set>
      <set comment="kpoint 196">
       <r>  -2.9042  1.0000</r>
       <r>  -2.9012  1.0000</r>
       <r>  -2.9012  1.0000</r>
       <r>  -2.9007  1.0000</r>
       <r>  -2.9004  1.0000</r>
       <r>  -2.9000  1.0000</r>
       <r>  -2.9000  1.0000</r>
       <r>  -2.8970  1.0000</r>
       <r>  -1.5326  1.0000</r>
       <r>  -1.5326  1.0000</r>
       <r>  -1.5326  1.0000</r>
       <r>  -1.5324  1.0000</r>
       <r>  -1.5321  1.0000</r>
       <r>  -1.5312  1.0000</r>
       <r>  -1.5306  1.0000</r>
       <r>  -1.5306  1.0000</r>
       <r>  -1.5306  1.0000</r>
       <r>  -1.5305  1.0000</r>
       <r>  -1.5305  1.0000</r>
       <r>  -1.5304  1.0000</r>
       <r>  -1.5303  1.0000</r>
       <r>  -1.5303  1.0000</r>
       <r>  -1.5303  1.0000</r>
       <r>  -1.5302  1.0000</r>
       <r>  -1.5302  1.0000</r>
       <r>  -1.5302  1.0000</r>
       <r>  -1.5296  1.0000</r>
       <r>  -1.5287  1.0000</r>
       <r>  -1.5284  1.0000</r>
       <r>  -1.5283  1.0000</r>
       <r>  -1.5283  1.0000</r>
       <r>  -1.5282  1.0000</r>
       <r>  -0.8145  1.0000</r>
       <r>  -0.8114  1.0000</r>
       <r>  -0.8113  1.0000</r>
       <r>  -0.8110  1.0000</r>
       <r>  -0.8110  1.0000</r>
       <r>  -0.8105  1.0000</r>
       <r>  -0.8102  1.0000</r>
       <r>  -0.8102  1.0000</r>
       <r>  -0.8100  1.0000</r>
       <r>  -0.8100  1.0000</r>
       <r>  -0.8100  1.0000</r>
       <r>  -0.8099  1.0000</r>
       <r>  -0.8099  1.0000</r>
       <r>  -0.8099  1.0000</r>
       <r>  -0.8099  1.0000</r>
       <r>  -0.8098  1.0000</r>
       <r>  -0.8097  1.0000</r>
       <r>  -0.8097  1.0000</r>
       <r>  -0.8093  1.0000</r>
       <r>  -0.8088  1.0000</r>
       <r>  -0.8088  1.0000</r>
       <r>  -0.8086  1.0000</r>
       <r>  -0.8084  1.0000</r>
       <r>  -0.8053  1.0000</r>
       <r>  -0.2796  1.0000</r>
       <r>  -0.2783  1.0000</r>
       <r>  -0.2778  1.0000</r>
       <r>  -0.2778  1.0000</r>
       <r>  -0.2776  1.0000</r>
       <r>  -0.2776  1.0000</r>
       <r>  -0.2770  1.0000</r>
       <r>  -0.2757  1.0000</r>
       <r>  -0.0344  1.0000</r>
       <r>  -0.0344  1.0000</r>
       <r>  -0.0340  1.0000</r>
       <r>  -0.0338  1.0000</r>
       <r>  -0.0332  1.0000</r>
       <r>  -0.0332  1.0000</r>
       <r>  -0.0331  1.0000</r>
       <r>  -0.0331  1.0000</r>
       <r>  -0.0328  1.0000</r>
       <r>  -0.0328  1.0000</r>
       <r>  -0.0328  1.0000</r>
       <r>  -0.0327  1.0000</r>
       <r>  -0.0321  1.0000</r>
       <r>  -0.0321  1.0000</r>
       <r>  -0.0317  1.0000</r>
       <r>  -0.0317  1.0000</r>
       <r>   0.0851  1.0000</r>
       <r>   0.0851  1.0000</r>
       <r>   0.0859  1.0000</r>
       <r>   0.0864  1.0000</r>
       <r>   0.0878  1.0000</r>
       <r>   0.0884  1.0000</r>
       <r>   0.0885  1.0000</r>
       <r>   0.0885  1.0000</r>
       <r>   0.0886  1.0000</r>
       <r>   0.0886  1.0000</r>
       <r>   0.0886  1.0000</r>
       <r>   0.0886  1.0000</r>
       <r>   0.0887  1.0000</r>
       <r>   0.0887  1.0000</r>
       <r>   0.0887  1.0000</r>
       <r>   0.0887  1.0000</r>
       <r>   0.0888  1.0000</r>
       <r>   0.0888  1.0000</r>
       <r>   0.0888  1.0000</r>
       <r>   0.0894  1.0000</r>
       <r>   0.0909  1.0000</r>
       <r>   0.0913  1.0000</r>
       <r>   0.0922  1.0000</r>
       <r>   0.0922  1.0000</r>
       <r>   0.6345  1.0000</r>
       <r>   0.6357  1.0000</r>
       <r>   0.6357  1.0000</r>
       <r>   0.6377  1.0000</r>
       <r>   0.6378  1.0000</r>
       <r>   0.6379  1.0000</r>
       <r>   0.6379  1.0000</r>
       <r>   0.6382  1.0000</r>
       <r>   0.6383  1.0000</r>
       <r>   0.6383  1.0000</r>
       <r>   0.6383  1.0000</r>
       <r>   0.6383  1.0000</r>
       <r>   0.6384  1.0000</r>
       <r>   0.6384  1.0000</r>
       <r>   0.6384  1.0000</r>
       <r>   0.6384  1.0000</r>
       <r>   0.6385  1.0000</r>
       <r>   0.6387  1.0000</r>
       <r>   0.6387  1.0000</r>
       <r>   0.6388  1.0000</r>
       <r>   0.6390  1.0000</r>
       <r>   0.6409  1.0000</r>
       <r>   0.6409  1.0000</r>
       <r>   0.6422  1.0000</r>
       <r>   0.9864  1.0000</r>
       <r>   0.9876  1.0000</r>
       <r>   0.9877  1.0000</r>
       <r>   0.9877  1.0000</r>
       <r>   0.9887  1.0000</r>
       <r>   0.9887  1.0000</r>
       <r>   0.9889  1.0000</r>
       <r>   0.9889  1.0000</r>
       <r>   0.9890  1.0000</r>
       <r>   0.9891  1.0000</r>
       <r>   0.9893  1.0000</r>
       <r>   0.9893  1.0000</r>
       <r>   0.9903  1.0000</r>
       <r>   0.9903  1.0000</r>
       <r>   0.9903  1.0000</r>
       <r>   0.9916  1.0000</r>
       <r>   1.7862  1.0000</r>
       <r>   1.7862  1.0000</r>
       <r>   1.7864  1.0000</r>
       <r>   1.7866  1.0000</r>
       <r>   1.7867  1.0000</r>
       <r>   1.7867  1.0000</r>
       <r>   1.7867  1.0000</r>
       <r>   1.7867  1.0000</r>
       <r>   1.7868  1.0000</r>
       <r>   1.7869  1.0000</r>
       <r>   1.7869  1.0000</r>
       <r>   1.7869  1.0000</r>
       <r>   1.7870  1.0000</r>
       <r>   1.7871  1.0000</r>
       <r>   1.7871  1.0000</r>
       <r>   1.7872  1.0000</r>
       <r>   1.7872  1.0000</r>
       <r>   1.7873  1.0000</r>
       <r>   1.7873  1.0000</r>
       <r>   1.7873  1.0000</r>
       <r>   1.7873  1.0000</r>
       <r>   1.7875  1.0000</r>
       <r>   1.7877  1.0000</r>
       <r>   1.7877  1.0000</r>
       <r>   4.4341  0.0000</r>
       <r>   4.4375  0.0000</r>
       <r>   4.4375  0.0000</r>
       <r>   4.4391  0.0000</r>
       <r>   4.4395  0.0000</r>
       <r>   4.4398  0.0000</r>
       <r>   4.4398  0.0000</r>
       <r>   4.4398  0.0000</r>
       <r>   4.4399  0.0000</r>
       <r>   4.4399  0.0000</r>
       <r>   4.4399  0.0000</r>
       <r>   4.4400  0.0000</r>
       <r>   4.4401  0.0000</r>
       <r>   4.4402  0.0000</r>
       <r>   4.4402  0.0000</r>
       <r>   4.4402  0.0000</r>
       <r>   4.4402  0.0000</r>
       <r>   4.4402  0.0000</r>
       <r>   4.4402  0.0000</r>
       <r>   4.4405  0.0000</r>
       <r>   4.4410  0.0000</r>
       <r>   4.4425  0.0000</r>
       <r>   4.4425  0.0000</r>
       <r>   4.4460  0.0000</r>
       <r>   8.5037  0.0000</r>
       <r>   8.5042  0.0000</r>
       <r>   8.5066  0.0000</r>
       <r>   8.5069  0.0000</r>
       <r>   8.5075  0.0000</r>
       <r>   8.5077  0.0000</r>
       <r>   8.5079  0.0000</r>
       <r>   8.5081  0.0000</r>
       <r>   8.5082  0.0000</r>
       <r>   8.5082  0.0000</r>
       <r>   8.5083  0.0000</r>
       <r>   8.5083  0.0000</r>
       <r>   8.5084  0.0000</r>
       <r>   8.5087  0.0000</r>
       <r>   8.5088  0.0000</r>
       <r>   8.5089  0.0000</r>
       <r>   8.5092  0.0000</r>
       <r>   8.5098  0.0000</r>
       <r>   8.5104  0.0000</r>
       <r>   8.5116  0.0000</r>
      </set>
     </set>
    </set>
   </array>
  </eigenvalues>
 </calculation>
 <structure name="finalpos" >
  <crystal>
   <varray name="basis" >
    <v>       8.67953196      0.00000000      0.00000000</v>
    <v>       0.00000000      8.67953196      0.00000000</v>
    <v>       0.00000000      0.00000000      8.67953196</v>
   </varray>
   <i name="volume">    653.86624721</i>
   <varray name="rec_basis" >
    <v>       0.11521359      0.00000000      0.00000000</v>
    <v>       0.00000000      0.11521359      0.00000000</v>
    <v>       0.00000000      0.00000000      0.11521359</v>
   </varray>
  </crystal>
  <varray name="positions" >
   <v>       0.00115214      0.00000000      0.00000000</v>
   <v>       0.50000000      0.00000000      0.00000000</v>
   <v>       0.00000000      0.50000000      0.00000000</v>
   <v>       0.50000000      0.50000000      0.00000000</v>
   <v>       0.00000000      0.00000000      0.50000000</v>
   <v>       0.50000000      0.00000000      0.50000000</v>
   <v>       0.00000000      0.50000000      0.50000000</v>
   <v>       0.50000000      0.50000000      0.50000000</v>
   <v>       0.25000000      0.25000000      0.00000000</v>
   <v>       0.75000000      0.25000000      0.00000000</v>
   <v>       0.25000000      0.75000000      0.00000000</v>
   <v>       0.75000000      0.75000000      0.00000000</v>
   <v>       0.25000000      0.25000000      0.50000000</v>
   <v>       0.75000000      0.25000000      0.50000000</v>
   <v>       0.25000000      0.75000000      0.50000000</v>
   <v>       0.75000000      0.75000000      0.50000000</v>
   <v>       0.25000000      0.00000000      0.25000000</v>
   <v>       0.75000000      0.00000000      0.25000000</v>
   <v>       0.25000000      0.50000000      0.25000000</v>
   <v>       0.75000000      0.50000000      0.25000000</v>
   <v>       0.25000000      0.00000000      0.75000000</v>
   <v>       0.75000000      0.00000000      0.75000000</v>
   <v>       0.25000000      0.50000000      0.75000000</v>
   <v>       0.75000000      0.50000000      0.75000000</v>
   <v>       0.00000000      0.25000000      0.25000000</v>
   <v>       0.50000000      0.25000000      0.25000000</v>
   <v>       0.00000000      0.75000000      0.25000000</v>
   <v>       0.50000000      0.75000000      0.25000000</v>
   <v>       0.00000000      0.25000000      0.75000000</v>
   <v>       0.50000000      0.25000000      0.75000000</v>
   <v>       0.00000000      0.75000000      0.75000000</v>
   <v>       0.50000000      0.75000000      0.75000000</v>
  </varray>
 </structure>
</modeling>
