 running on    8 nodes
 distr:  one band on    1 nodes,    8 groups
 vasp.4.6.28 25Jul05 complex 
 POSCAR found :  1 types and    4 ions
 LDA part: xc-table for Pade appr. of Perdew
 generate k-points for:  12  12  12
 POSCAR, INCAR and KPOINTS ok, starting setup
 WARNING: wrap around errors must be expected
 FFT: planning ...           1
 reading WAVECAR
 WARNING: random wavefunctions but no delay for mixing, default for NELMDL
 entering main loop
       N       E                     dE             d eps       ncg     rms          rms(c)
DAV:   1     0.458739531697E+01    0.45874E+01   -0.39229E+03  2688   0.550E+02
DAV:   2    -0.144010136019E+02   -0.18988E+02   -0.17805E+02  3616   0.802E+01
DAV:   3    -0.150037460381E+02   -0.60273E+00   -0.59971E+00  3472   0.110E+01
DAV:   4    -0.150077579302E+02   -0.40119E-02   -0.40115E-02  3392   0.119E+00
DAV:   5    -0.150078098486E+02   -0.51918E-04   -0.51918E-04  3448   0.135E-01    0.181E+00
DAV:   6    -0.149569146586E+02    0.50895E-01   -0.70819E-03  3288   0.418E-01    0.113E+00
DAV:   7    -0.149200700908E+02    0.36845E-01   -0.21436E-02  3056   0.683E-01    0.503E-02
DAV:   8    -0.149200750989E+02   -0.50081E-05   -0.15519E-04  3440   0.776E-02    0.126E-02
DAV:   9    -0.149200777731E+02   -0.26742E-05   -0.41389E-06  3512   0.965E-03    0.130E-03
DAV:  10    -0.149200765130E+02    0.12601E-05   -0.51845E-08  3504   0.149E-03    0.290E-04
DAV:  11    -0.149200763554E+02    0.15764E-06   -0.12642E-09  2472   0.195E-04    0.270E-05
DAV:  12    -0.149200763895E+02   -0.34181E-07   -0.18067E-10  2040   0.808E-05    0.794E-06
DAV:  13    -0.149200763911E+02   -0.15581E-08   -0.34881E-11  1776   0.289E-05
   1 F= -.14920076E+02 E0= -.14919947E+02  d E =-.259608E-03
