   4   4   0   0
  0.1645186E+02  0.4037306E-09  0.4037306E-09  0.4037306E-09  0.5000000E-15
  1.000000000000000E-004
  CAR 
 unknown system                          
     20.62905907     -4.25540745  301      8.00112114      1.00000000
     -4.255  0.0000E+00  0.0000E+00
     -4.172  0.0000E+00  0.0000E+00
     -4.090  0.0000E+00  0.0000E+00
     -4.007  0.0000E+00  0.0000E+00
     -3.924  0.0000E+00  0.0000E+00
     -3.841  0.0000E+00  0.0000E+00
     -3.758  0.0000E+00  0.0000E+00
     -3.675  0.0000E+00  0.0000E+00
     -3.592  0.0000E+00  0.0000E+00
     -3.509  0.0000E+00  0.0000E+00
     -3.426  0.0000E+00  0.0000E+00
     -3.343  0.0000E+00  0.0000E+00
     -3.260  0.0000E+00  0.0000E+00
     -3.177  0.5817E-15  0.4825E-16
     -3.094  0.1395E-01  0.1157E-02
     -3.011  0.8928E-01  0.8563E-02
     -2.928  0.2554E+00  0.2975E-01
     -2.845  0.8371E-01  0.3819E-01
     -2.762  0.3389E+00  0.6630E-01
     -2.679  0.3309E+00  0.9375E-01
     -2.596  0.1674E+00  0.1076E+00
     -2.513  0.4201E+00  0.1425E+00
     -2.431  0.5312E+00  0.1865E+00
     -2.348  0.1115E+00  0.2072E+00
     -2.265  0.3361E+00  0.2351E+00
     -2.182  0.6686E+00  0.2905E+00
     -2.099  0.8352E-01  0.2974E+00
     -2.016  0.6702E+00  0.3530E+00
     -1.933  0.6335E+00  0.4056E+00
     -1.850  0.3334E+00  0.4501E+00
     -1.767  0.6699E+00  0.5058E+00
     -1.684  0.3347E+00  0.5336E+00
     -1.601  0.3327E+00  0.5612E+00
     -1.518  0.4189E+00  0.5961E+00
     -1.435  0.1139E+01  0.6906E+00
     -1.352  0.3120E+00  0.7164E+00
     -1.269  0.1005E+01  0.7998E+00
     -1.186  0.6696E+00  0.8553E+00
     -1.103  0.1660E+00  0.8691E+00
     -1.020  0.6699E+00  0.9248E+00
     -0.937  0.8709E+00  0.9970E+00
     -0.855  0.8838E+00  0.1070E+01
     -0.772  0.3352E+00  0.1098E+01
     -0.689  0.1004E+01  0.1182E+01
     -0.606  0.3331E+00  0.1209E+01
     -0.523  0.1340E+01  0.1321E+01
     -0.440  0.7995E+00  0.1387E+01
     -0.357  0.3338E+00  0.1432E+01
     -0.274  0.1005E+01  0.1515E+01
     -0.191  0.6690E+00  0.1571E+01
     -0.108  0.1114E+00  0.1580E+01
     -0.025  0.7567E+00  0.1643E+01
      0.058  0.1571E+01  0.1773E+01
      0.141  0.3347E+00  0.1823E+01
      0.224  0.1015E+01  0.1907E+01
      0.307  0.1329E+01  0.2017E+01
      0.390  0.6696E+00  0.2073E+01
      0.473  0.6773E+00  0.2129E+01
      0.556  0.1171E+01  0.2226E+01
      0.639  0.1300E-05  0.2240E+01
      0.721  0.1078E+01  0.2329E+01
      0.804  0.1266E+01  0.2434E+01
      0.887  0.8375E-01  0.2441E+01
      0.970  0.1543E+01  0.2569E+01
      1.053  0.1463E+01  0.2690E+01
      1.136  0.6702E+00  0.2747E+01
      1.219  0.1522E+01  0.2873E+01
      1.302  0.4873E+00  0.2913E+01
      1.385  0.5038E+00  0.2955E+01
      1.468  0.1647E+01  0.3092E+01
      1.551  0.7808E+00  0.3214E+01
      1.634  0.3533E+00  0.3243E+01
      1.717  0.1848E+01  0.3397E+01
      1.800  0.1471E-05  0.3409E+01
      1.883  0.4520E+00  0.3446E+01
      1.966  0.1961E+01  0.3609E+01
      2.049  0.1005E+01  0.3693E+01
      2.132  0.9280E+00  0.3770E+01
      2.215  0.1925E+01  0.3942E+01
      2.298  0.2823E-03  0.3943E+01
      2.380  0.1606E+01  0.4077E+01
      2.463  0.1674E+01  0.4277E+01
      2.546  0.6698E+00  0.4332E+01
      2.629  0.5996E+00  0.4382E+01
      2.712  0.1340E+01  0.4499E+01
      2.795  0.6254E-01  0.4504E+01
      2.878  0.9374E+00  0.4582E+01
      2.961  0.1510E+01  0.4707E+01
      3.044  0.1263E+01  0.4812E+01
      3.127  0.2345E+01  0.5020E+01
      3.210  0.6683E+00  0.5075E+01
      3.293  0.9377E+00  0.5153E+01
      3.376  0.1340E+01  0.5270E+01
      3.459  0.1454E+01  0.5390E+01
      3.542  0.7212E+00  0.5481E+01
      3.625  0.1307E+01  0.5605E+01
      3.708  0.7128E+00  0.5696E+01
      3.791  0.6755E+00  0.5752E+01
      3.874  0.1375E+01  0.5866E+01
      3.956  0.1626E+01  0.6001E+01
      4.039  0.8235E+00  0.6069E+01
      4.122  0.2330E+01  0.6263E+01
      4.205  0.3327E+00  0.6307E+01
      4.288  0.1704E+01  0.6448E+01
      4.371  0.1185E+01  0.6564E+01
      4.454  0.2965E+00  0.6588E+01
      4.537  0.2946E+01  0.6837E+01
      4.620  0.1340E+01  0.6953E+01
      4.703  0.1472E+00  0.6965E+01
      4.786  0.1829E+01  0.7132E+01
      4.869  0.2008E+01  0.7300E+01
      4.952  0.1659E+01  0.7438E+01
      5.035  0.8715E+00  0.7511E+01
      5.118  0.1176E+01  0.7608E+01
      5.201  0.8718E+00  0.7681E+01
      5.284  0.2924E+01  0.7924E+01
      5.367  0.1107E+01  0.8039E+01
      5.450  0.1674E+01  0.8178E+01
      5.532  0.6698E+00  0.8234E+01
      5.615  0.1460E+01  0.8355E+01
      5.698  0.7743E+00  0.8455E+01
      5.781  0.1947E+01  0.8623E+01
      5.864  0.1665E+01  0.8761E+01
      5.947  0.1094E+01  0.8853E+01
      6.030  0.1714E+01  0.8996E+01
      6.113  0.8376E+00  0.9076E+01
      6.196  0.1234E+01  0.9193E+01
      6.279  0.2637E+01  0.9411E+01
      6.362  0.1335E+01  0.9548E+01
      6.445  0.4131E-01  0.9552E+01
      6.528  0.1009E+01  0.9636E+01
      6.611  0.1406E+01  0.9766E+01
      6.694  0.2032E+01  0.9957E+01
      6.777  0.1125E+01  0.1008E+02
      6.860  0.3005E+00  0.1012E+02
      6.943  0.2543E+01  0.1033E+02
      7.026  0.1491E+01  0.1046E+02
      7.108  0.1340E+01  0.1058E+02
      7.191  0.1289E+01  0.1069E+02
      7.274  0.1194E+01  0.1080E+02
      7.357  0.1156E+01  0.1091E+02
      7.440  0.2359E+01  0.1111E+02
      7.523  0.8157E+00  0.1121E+02
      7.606  0.5631E-06  0.1123E+02
      7.689  0.1778E+01  0.1137E+02
      7.772  0.1613E+01  0.1152E+02
      7.855  0.2162E+01  0.1170E+02
      7.938  0.1239E+01  0.1182E+02
      8.021  0.2422E+01  0.1203E+02
      8.104  0.2692E+01  0.1225E+02
      8.187  0.5793E+00  0.1231E+02
      8.270  0.1414E+01  0.1243E+02
      8.353  0.1701E+01  0.1257E+02
      8.436  0.7812E+00  0.1263E+02
      8.519  0.1316E+01  0.1274E+02
      8.602  0.2215E+01  0.1293E+02
      8.685  0.1674E+01  0.1309E+02
      8.767  0.3598E+00  0.1312E+02
      8.850  0.9812E+00  0.1320E+02
      8.933  0.1728E+01  0.1336E+02
      9.016  0.3182E+01  0.1363E+02
      9.099  0.2000E+01  0.1379E+02
      9.182  0.1821E+01  0.1397E+02
      9.265  0.1664E+01  0.1411E+02
      9.348  0.1475E+01  0.1424E+02
      9.431  0.3960E+00  0.1429E+02
      9.514  0.2750E+01  0.1452E+02
      9.597  0.7980E+00  0.1461E+02
      9.680  0.1335E+01  0.1473E+02
      9.763  0.2861E+01  0.1497E+02
      9.846  0.2724E+00  0.1503E+02
      9.929  0.2044E+01  0.1520E+02
     10.012  0.1068E+01  0.1536E+02
     10.095  0.1591E+01  0.1549E+02
     10.178  0.2599E+01  0.1574E+02
     10.261  0.9230E+00  0.1582E+02
     10.343  0.3540E+00  0.1585E+02
     10.426  0.2017E+01  0.1602E+02
     10.509  0.2537E+01  0.1625E+02
     10.592  0.1318E+01  0.1637E+02
     10.675  0.1505E+01  0.1650E+02
     10.758  0.2009E+01  0.1668E+02
     10.841  0.1357E+01  0.1679E+02
     10.924  0.2464E+01  0.1700E+02
     11.007  0.1916E+01  0.1716E+02
     11.090  0.1849E+01  0.1735E+02
     11.173  0.1497E+01  0.1747E+02
     11.256  0.2357E+01  0.1767E+02
     11.339  0.1750E+01  0.1783E+02
     11.422  0.2568E+01  0.1805E+02
     11.505  0.3926E+00  0.1809E+02
     11.588  0.3281E+01  0.1836E+02
     11.671  0.6813E+00  0.1843E+02
     11.754  0.1600E+01  0.1856E+02
     11.837  0.2362E+01  0.1876E+02
     11.919  0.1640E+01  0.1890E+02
     12.002  0.1967E+01  0.1906E+02
     12.085  0.1248E+01  0.1919E+02
     12.168  0.2095E+01  0.1941E+02
     12.251  0.2045E+01  0.1961E+02
     12.334  0.3580E+00  0.1966E+02
     12.417  0.1621E+01  0.1980E+02
     12.500  0.1546E+01  0.1993E+02
     12.583  0.2129E+01  0.2012E+02
     12.666  0.3024E+01  0.2039E+02
     12.749  0.3450E+01  0.2069E+02
     12.832  0.2061E+01  0.2086E+02
     12.915  0.3615E+00  0.2093E+02
     12.998  0.1680E+01  0.2107E+02
     13.081  0.2176E+01  0.2126E+02
     13.164  0.1382E+01  0.2138E+02
     13.247  0.2264E+01  0.2158E+02
     13.330  0.2471E+01  0.2182E+02
     13.413  0.1509E+01  0.2196E+02
     13.496  0.1918E+01  0.2212E+02
     13.578  0.2957E+01  0.2238E+02
     13.661  0.2739E+01  0.2261E+02
     13.744  0.1844E+01  0.2276E+02
     13.827  0.2119E+01  0.2295E+02
     13.910  0.1804E+01  0.2312E+02
     13.993  0.1498E+01  0.2325E+02
     14.076  0.3151E+01  0.2354E+02
     14.159  0.2362E+01  0.2377E+02
     14.242  0.1647E+01  0.2395E+02
     14.325  0.2167E+01  0.2413E+02
     14.408  0.6692E+00  0.2419E+02
     14.491  0.1941E+01  0.2435E+02
     14.574  0.1445E+01  0.2447E+02
     14.657  0.2406E+01  0.2467E+02
     14.740  0.2404E+01  0.2488E+02
     14.823  0.3077E+01  0.2514E+02
     14.906  0.2642E+01  0.2538E+02
     14.989  0.2778E+01  0.2563E+02
     15.072  0.6789E+00  0.2570E+02
     15.154  0.3079E+01  0.2596E+02
     15.237  0.1935E+01  0.2612E+02
     15.320  0.1027E+01  0.2620E+02
     15.403  0.1748E+01  0.2638E+02
     15.486  0.2581E+01  0.2659E+02
     15.569  0.2589E+01  0.2680E+02
     15.652  0.1628E+01  0.2694E+02
     15.735  0.1232E+01  0.2705E+02
     15.818  0.2582E+01  0.2727E+02
     15.901  0.2997E+01  0.2753E+02
     15.984  0.1011E+01  0.2762E+02
     16.067  0.1935E+01  0.2778E+02
     16.150  0.7671E+00  0.2785E+02
     16.233  0.2321E+01  0.2804E+02
     16.316  0.1872E+01  0.2825E+02
     16.399  0.2270E+01  0.2844E+02
     16.482  0.1072E+01  0.2858E+02
     16.565  0.2583E+01  0.2879E+02
     16.648  0.1866E+01  0.2897E+02
     16.730  0.3289E+01  0.2925E+02
     16.813  0.1035E+01  0.2936E+02
     16.896  0.1935E+01  0.2952E+02
     16.979  0.9807E+00  0.2961E+02
     17.062  0.2575E+01  0.2982E+02
     17.145  0.8298E+00  0.2991E+02
     17.228  0.2110E+01  0.3009E+02
     17.311  0.1429E+01  0.3021E+02
     17.394  0.6640E+00  0.3027E+02
     17.477  0.1359E+01  0.3041E+02
     17.560  0.2081E+01  0.3059E+02
     17.643  0.2535E+01  0.3080E+02
     17.726  0.1919E+01  0.3099E+02
     17.809  0.1004E+01  0.3107E+02
     17.892  0.9131E-05  0.3107E+02
     17.975  0.7659E+00  0.3114E+02
     18.058  0.1881E+01  0.3129E+02
     18.141  0.1005E+01  0.3137E+02
     18.224  0.1325E+00  0.3139E+02
     18.307  0.6656E+00  0.3144E+02
     18.389  0.2121E+00  0.3146E+02
     18.472  0.2381E+01  0.3166E+02
     18.555  0.0000E+00  0.3167E+02
     18.638  0.6690E+00  0.3172E+02
     18.721  0.3349E+00  0.3175E+02
     18.804  0.7056E+00  0.3181E+02
     18.887  0.9929E+00  0.3189E+02
     18.970  0.4062E-04  0.3194E+02
     19.053  0.5581E+00  0.3199E+02
     19.136  0.0000E+00  0.3199E+02
     19.219  0.0000E+00  0.3199E+02
     19.302  0.0000E+00  0.3199E+02
     19.385  0.0000E+00  0.3199E+02
     19.468  0.2618E-01  0.3199E+02
     19.551  0.6711E-01  0.3200E+02
     19.634  0.0000E+00  0.3200E+02
     19.717  0.0000E+00  0.3200E+02
     19.800  0.0000E+00  0.3200E+02
     19.883  0.0000E+00  0.3200E+02
     19.965  0.0000E+00  0.3200E+02
     20.048  0.0000E+00  0.3200E+02
     20.131  0.0000E+00  0.3200E+02
     20.214  0.0000E+00  0.3200E+02
     20.297  0.0000E+00  0.3200E+02
     20.380  0.0000E+00  0.3200E+02
     20.463  0.0000E+00  0.3200E+02
     20.546  0.0000E+00  0.3200E+02
     20.629  0.0000E+00  0.3200E+02
