<?xml version="1.0" encoding="ISO-8859-1"?>
<modeling>
 <generator>
  <i name="program" type="string">vasp</i>
  <i name="version" type="string">4.6.28 </i>
  <i name="subversion" type="string">25Jul05 complex  parallel</i>
  <i name="platform" type="string">LinuxIFC</i>
  <i name="date" type="string">2016 10 19</i>
  <i name="time" type="string">17:44:16</i>
 </generator>
 <incar>
  <i type="string" name="PREC">accurate</i>
  <i type="int" name="IALGO">    38</i>
  <i name="EDIFF">      0.00000001</i>
  <i type="int" name="IBRION">    -1</i>
  <i name="ENCUT">    500.00000000</i>
  <i type="logical" name="LREAL"> F  </i>
  <i type="int" name="ISMEAR">     0</i>
  <i name="SIGMA">      0.01000000</i>
  <i type="logical" name="LWAVE"> F  </i>
  <i type="logical" name="LCHARG"> F  </i>
 </incar>
 <kpoints>
  <generation param="Auto">
   <i name="subdivisionlength">     50.00000000</i>
   <v type="int" name="divisions">      12      12      12</v>
   <v name="usershift">      0.00000000      0.00000000      0.00000000</v>
   <v name="genvec1">      0.08333333      0.00000000      0.00000000</v>
   <v name="genvec2">      0.00000000      0.08333333      0.00000000</v>
   <v name="genvec3">      0.00000000      0.00000000      0.08333333</v>
   <v name="shift">      0.00000000      0.00000000      0.00000000</v>
  </generation>
  <varray name="kpointlist" >
   <v>       0.00000000      0.00000000      0.00000000</v>
   <v>       0.08333333      0.00000000      0.00000000</v>
   <v>       0.16666667      0.00000000      0.00000000</v>
   <v>       0.25000000      0.00000000      0.00000000</v>
   <v>       0.33333333      0.00000000      0.00000000</v>
   <v>       0.41666667      0.00000000      0.00000000</v>
   <v>       0.50000000      0.00000000      0.00000000</v>
   <v>       0.08333333      0.08333333      0.00000000</v>
   <v>       0.16666667      0.08333333      0.00000000</v>
   <v>       0.25000000      0.08333333      0.00000000</v>
   <v>       0.33333333      0.08333333      0.00000000</v>
   <v>       0.41666667      0.08333333      0.00000000</v>
   <v>       0.50000000      0.08333333      0.00000000</v>
   <v>       0.16666667      0.16666667      0.00000000</v>
   <v>       0.25000000      0.16666667      0.00000000</v>
   <v>       0.33333333      0.16666667      0.00000000</v>
   <v>       0.41666667      0.16666667      0.00000000</v>
   <v>       0.50000000      0.16666667      0.00000000</v>
   <v>       0.25000000      0.25000000      0.00000000</v>
   <v>       0.33333333      0.25000000      0.00000000</v>
   <v>       0.41666667      0.25000000      0.00000000</v>
   <v>       0.50000000      0.25000000      0.00000000</v>
   <v>       0.33333333      0.33333333      0.00000000</v>
   <v>       0.41666667      0.33333333      0.00000000</v>
   <v>       0.50000000      0.33333333      0.00000000</v>
   <v>       0.41666667      0.41666667      0.00000000</v>
   <v>       0.50000000      0.41666667      0.00000000</v>
   <v>       0.50000000      0.50000000      0.00000000</v>
   <v>       0.08333333      0.08333333      0.08333333</v>
   <v>       0.16666667      0.08333333      0.08333333</v>
   <v>       0.25000000      0.08333333      0.08333333</v>
   <v>       0.33333333      0.08333333      0.08333333</v>
   <v>       0.41666667      0.08333333      0.08333333</v>
   <v>       0.50000000      0.08333333      0.08333333</v>
   <v>       0.16666667      0.16666667      0.08333333</v>
   <v>       0.25000000      0.16666667      0.08333333</v>
   <v>       0.33333333      0.16666667      0.08333333</v>
   <v>       0.41666667      0.16666667      0.08333333</v>
   <v>       0.50000000      0.16666667      0.08333333</v>
   <v>       0.25000000      0.25000000      0.08333333</v>
   <v>       0.33333333      0.25000000      0.08333333</v>
   <v>       0.41666667      0.25000000      0.08333333</v>
   <v>       0.50000000      0.25000000      0.08333333</v>
   <v>       0.33333333      0.33333333      0.08333333</v>
   <v>       0.41666667      0.33333333      0.08333333</v>
   <v>       0.50000000      0.33333333      0.08333333</v>
   <v>       0.41666667      0.41666667      0.08333333</v>
   <v>       0.50000000      0.41666667      0.08333333</v>
   <v>       0.50000000      0.50000000      0.08333333</v>
   <v>       0.16666667      0.16666667      0.16666667</v>
   <v>       0.25000000      0.16666667      0.16666667</v>
   <v>       0.33333333      0.16666667      0.16666667</v>
   <v>       0.41666667      0.16666667      0.16666667</v>
   <v>       0.50000000      0.16666667      0.16666667</v>
   <v>       0.25000000      0.25000000      0.16666667</v>
   <v>       0.33333333      0.25000000      0.16666667</v>
   <v>       0.41666667      0.25000000      0.16666667</v>
   <v>       0.50000000      0.25000000      0.16666667</v>
   <v>       0.33333333      0.33333333      0.16666667</v>
   <v>       0.41666667      0.33333333      0.16666667</v>
   <v>       0.50000000      0.33333333      0.16666667</v>
   <v>       0.41666667      0.41666667      0.16666667</v>
   <v>       0.50000000      0.41666667      0.16666667</v>
   <v>       0.50000000      0.50000000      0.16666667</v>
   <v>       0.25000000      0.25000000      0.25000000</v>
   <v>       0.33333333      0.25000000      0.25000000</v>
   <v>       0.41666667      0.25000000      0.25000000</v>
   <v>       0.50000000      0.25000000      0.25000000</v>
   <v>       0.33333333      0.33333333      0.25000000</v>
   <v>       0.41666667      0.33333333      0.25000000</v>
   <v>       0.50000000      0.33333333      0.25000000</v>
   <v>       0.41666667      0.41666667      0.25000000</v>
   <v>       0.50000000      0.41666667      0.25000000</v>
   <v>       0.50000000      0.50000000      0.25000000</v>
   <v>       0.33333333      0.33333333      0.33333333</v>
   <v>       0.41666667      0.33333333      0.33333333</v>
   <v>       0.50000000      0.33333333      0.33333333</v>
   <v>       0.41666667      0.41666667      0.33333333</v>
   <v>       0.50000000      0.41666667      0.33333333</v>
   <v>       0.50000000      0.50000000      0.33333333</v>
   <v>       0.41666667      0.41666667      0.41666667</v>
   <v>       0.50000000      0.41666667      0.41666667</v>
   <v>       0.50000000      0.50000000      0.41666667</v>
   <v>       0.50000000      0.50000000      0.50000000</v>
  </varray>
  <varray name="weights" >
   <v>       0.00057870</v>
   <v>       0.00347222</v>
   <v>       0.00347222</v>
   <v>       0.00347222</v>
   <v>       0.00347222</v>
   <v>       0.00347222</v>
   <v>       0.00173611</v>
   <v>       0.00694444</v>
   <v>       0.01388889</v>
   <v>       0.01388889</v>
   <v>       0.01388889</v>
   <v>       0.01388889</v>
   <v>       0.00694444</v>
   <v>       0.00694444</v>
   <v>       0.01388889</v>
   <v>       0.01388889</v>
   <v>       0.01388889</v>
   <v>       0.00694444</v>
   <v>       0.00694444</v>
   <v>       0.01388889</v>
   <v>       0.01388889</v>
   <v>       0.00694444</v>
   <v>       0.00694444</v>
   <v>       0.01388889</v>
   <v>       0.00694444</v>
   <v>       0.00694444</v>
   <v>       0.00694444</v>
   <v>       0.00173611</v>
   <v>       0.00462963</v>
   <v>       0.01388889</v>
   <v>       0.01388889</v>
   <v>       0.01388889</v>
   <v>       0.01388889</v>
   <v>       0.00694444</v>
   <v>       0.01388889</v>
   <v>       0.02777778</v>
   <v>       0.02777778</v>
   <v>       0.02777778</v>
   <v>       0.01388889</v>
   <v>       0.01388889</v>
   <v>       0.02777778</v>
   <v>       0.02777778</v>
   <v>       0.01388889</v>
   <v>       0.01388889</v>
   <v>       0.02777778</v>
   <v>       0.01388889</v>
   <v>       0.01388889</v>
   <v>       0.01388889</v>
   <v>       0.00347222</v>
   <v>       0.00462963</v>
   <v>       0.01388889</v>
   <v>       0.01388889</v>
   <v>       0.01388889</v>
   <v>       0.00694444</v>
   <v>       0.01388889</v>
   <v>       0.02777778</v>
   <v>       0.02777778</v>
   <v>       0.01388889</v>
   <v>       0.01388889</v>
   <v>       0.02777778</v>
   <v>       0.01388889</v>
   <v>       0.01388889</v>
   <v>       0.01388889</v>
   <v>       0.00347222</v>
   <v>       0.00462963</v>
   <v>       0.01388889</v>
   <v>       0.01388889</v>
   <v>       0.00694444</v>
   <v>       0.01388889</v>
   <v>       0.02777778</v>
   <v>       0.01388889</v>
   <v>       0.01388889</v>
   <v>       0.01388889</v>
   <v>       0.00347222</v>
   <v>       0.00462963</v>
   <v>       0.01388889</v>
   <v>       0.00694444</v>
   <v>       0.01388889</v>
   <v>       0.01388889</v>
   <v>       0.00347222</v>
   <v>       0.00462963</v>
   <v>       0.00694444</v>
   <v>       0.00347222</v>
   <v>       0.00057870</v>
  </varray>
 </kpoints>
 <parameters>
  <separator name="general" >
   <i type="string" name="SYSTEM">unknown system</i>
   <i type="logical" name="LCOMPAT"> F  </i>
  </separator>
  <separator name="electronic" >
   <i type="string" name="PREC">accura</i>
   <i name="ENMAX">    500.00000000</i>
   <i name="ENAUG">    291.05200000</i>
   <i name="EDIFF">      0.00000001</i>
   <i type="int" name="IALGO">    38</i>
   <i type="int" name="IWAVPR">    10</i>
   <i type="int" name="NBANDS">    10</i>
   <i name="NELECT">     12.00000000</i>
   <separator name="electronic smearing" >
    <i type="int" name="ISMEAR">     0</i>
    <i name="SIGMA">      0.01000000</i>
   </separator>
   <separator name="electronic projectors" >
    <i type="logical" name="LREAL"> F  </i>
    <v name="ROPT">      0.00000000</v>
    <i type="int" name="LMAXPAW">  -100</i>
    <i type="int" name="LMAXMIX">     2</i>
   </separator>
   <separator name="electronic startup" >
    <i type="int" name="ISTART">     0</i>
    <i type="int" name="ICHARG">     2</i>
    <i type="int" name="INIWAV">     1</i>
   </separator>
   <separator name="electronic spin" >
    <i type="int" name="ISPIN">     1</i>
    <i type="logical" name="LNONCOLLINEAR"> F  </i>
    <v name="MAGMOM">      1.00000000      1.00000000      1.00000000      1.00000000</v>
    <i name="NUPDOWN">     -1.00000000</i>
    <i type="logical" name="LSORBIT"> F  </i>
    <v name="SAXIS">      0.00000000      0.00000000      1.00000000</v>
    <i type="logical" name="LSPIRAL"> F  </i>
    <v name="QSPIRAL">      0.00000000      0.00000000      0.00000000</v>
    <i type="logical" name="LZEROZ"> F  </i>
   </separator>
   <separator name="electronic exchange-correlation" >
    <i type="string" name="GGA">--</i>
    <i type="int" name="VOSKOWN">     0</i>
    <i type="logical" name="LASPH"> F  </i>
    <i type="logical" name="LMETAGGA"> F  </i>
    <i type="string" name="GGA2">--</i>
   </separator>
   <separator name="electronic convergence" >
    <i type="int" name="NELM">    60</i>
    <i type="int" name="NELMDL">     0</i>
    <i type="int" name="NELMIN">     2</i>
    <i name="ENINI">    500.00000000</i>
    <separator name="electronic convergence detail" >
     <i type="logical" name="LDIAG"> T  </i>
     <i name="WEIMIN">      0.00000000</i>
     <i name="EBREAK">      0.00000000</i>
     <i name="DEPER">      0.30000000</i>
     <i type="int" name="NRMM">     4</i>
     <i name="TIME">      0.10000000</i>
    </separator>
   </separator>
   <separator name="electronic mixer" >
    <i name="AMIX">      0.40000000</i>
    <i name="BMIX">      1.00000000</i>
    <i name="AMIN">      0.10000000</i>
    <i name="AMIX_MAG">      1.60000000</i>
    <i name="BMIX_MAG">      1.00000000</i>
    <separator name="electronic mixer details" >
     <i type="int" name="IMIX">     4</i>
     <i type="int" name="MAXMIX">   -45</i>
     <i name="WC">    100.00000000</i>
     <i type="int" name="INIMIX">     1</i>
     <i type="int" name="MIXPRE">     1</i>
     <i type="int" name="MREMOVE">     5</i>
    </separator>
   </separator>
   <separator name="electronic dipolcorrection" >
    <i type="int" name="IDIPOL">     0</i>
    <i type="logical" name="LDIPOL"> F  </i>
    <v name="DIPOL">   -100.00000000</v>
    <i name="EFIELD">      0.00000000</i>
   </separator>
  </separator>
  <separator name="grids" >
   <i type="int" name="NGX">    30</i>
   <i type="int" name="NGY">    30</i>
   <i type="int" name="NGZ">    30</i>
   <i type="int" name="NGXF">    60</i>
   <i type="int" name="NGYF">    60</i>
   <i type="int" name="NGZF">    60</i>
   <i type="logical" name="ADDGRID"> F  </i>
  </separator>
  <separator name="ionic" >
   <i type="int" name="NSW">     0</i>
   <i type="int" name="IBRION">    -1</i>
   <i type="int" name="ISIF">     2</i>
   <i name="PSTRESS">      0.00000000</i>
   <i name="EDIFFG">      0.00000010</i>
   <i type="int" name="NFREE">     0</i>
   <i name="POTIM">      0.50000000</i>
   <i name="SMASS">     -3.00000000</i>
  </separator>
  <separator name="ionic md" >
   <i name="TEBEG">      0.00010000</i>
   <i name="TEEND">      0.00010000</i>
   <i type="int" name="NBLOCK">     1</i>
   <i type="int" name="KBLOCK">     1</i>
   <i type="int" name="NPACO">   256</i>
   <i name="APACO">     16.00000000</i>
  </separator>
  <separator name="symmetry" >
   <i type="int" name="ISYM">     2</i>
   <i name="SYMPREC">      0.00001000</i>
  </separator>
  <separator name="dos" >
   <i type="logical" name="LORBIT"> F  </i>
   <v name="RWIGS">     -1.00000000</v>
   <i type="int" name="NEDOS">   301</i>
   <i name="EMIN">     10.00000000</i>
   <i name="EMAX">    -10.00000000</i>
  </separator>
  <separator name="writing" >
   <i type="int" name="NWRITE">     2</i>
   <i type="logical" name="LWAVE"> F  </i>
   <i type="logical" name="LCHARG"> F  </i>
   <i type="logical" name="LPARD"> F  </i>
   <i type="logical" name="LVTOT"> F  </i>
   <i type="logical" name="LELF"> F  </i>
   <i type="logical" name="LOPTICS"> F  </i>
   <i name="STM">      0.00000000</i>
  </separator>
  <separator name="performance" >
   <i type="int" name="NPAR">     8</i>
   <i type="int" name="NSIM">     4</i>
   <i type="int" name="NBLK">   160</i>
   <i type="logical" name="LPLANE"> T  </i>
   <i type="logical" name="LCRITICAL_MEM"> F  </i>
   <i type="logical" name="LSCALAPACK"> F  </i>
   <i type="logical" name="LSCALU"> F  </i>
   <i type="logical" name="LASYNC"> F  </i>
  </separator>
  <separator name="miscellaneous" >
   <i type="int" name="IDIOT">     3</i>
   <i type="logical" name="LMUSIC"> F  </i>
   <v name="POMASS">     26.98200000</v>
   <i type="logical" name="LCORR"> T  </i>
  </separator>
  <i type="logical" name="LREAL_COMPAT"> F  </i>
  <i type="logical" name="GGA_COMPAT"> T  </i>
  <i type="logical" name="LBERRY"> F  </i>
  <i type="int" name="ICORELEVEL">     0</i>
  <i type="logical" name="LDAU"> F  </i>
  <i type="int" name="I_CONSTRAINED_M">     0</i>
 </parameters>
 <atominfo>
  <atoms>       4</atoms>
  <types>       1</types>
  <array name="atoms" >
   <dimension dim="1">ion</dimension>
   <field type="string">element</field>
   <field type="int">atomtype</field>
   <set>
    <rc><c>Al</c><c>   1</c></rc>
    <rc><c>Al</c><c>   1</c></rc>
    <rc><c>Al</c><c>   1</c></rc>
    <rc><c>Al</c><c>   1</c></rc>
   </set>
  </array>
  <array name="atomtypes" >
   <dimension dim="1">type</dimension>
   <field type="int">atomspertype</field>
   <field type="string">element</field>
   <field>mass</field>
   <field>valence</field>
   <field type="string">pseudopotential</field>
   <set>
    <rc><c>   4</c><c>Al</c><c>     26.98200000</c><c>      3.00000000</c><c> PAW_PBE Al 04Jan2001                   </c></rc>
   </set>
  </array>
 </atominfo>
 <structure name="initialpos" >
  <crystal>
   <varray name="basis" >
    <v>       4.03730637      0.00000000      0.00000000</v>
    <v>       0.00000000      4.03730637      0.00000000</v>
    <v>       0.00000000      0.00000000      4.03730637</v>
   </varray>
   <i name="volume">     65.80745885</i>
   <varray name="rec_basis" >
    <v>       0.24768990      0.00000000      0.00000000</v>
    <v>       0.00000000      0.24768990      0.00000000</v>
    <v>       0.00000000      0.00000000      0.24768990</v>
   </varray>
  </crystal>
  <varray name="positions" >
   <v>       0.50000000      0.50000000      0.00000000</v>
   <v>       0.50000000      0.00000000      0.50000000</v>
   <v>       0.00000000      0.50000000      0.50000000</v>
   <v>       0.00000000      0.00000000      0.00000000</v>
  </varray>
 </structure>
 <calculation>
  <scstep>
   <time name="dav">    0.55    0.59</time>
   <time name="total">    0.57    0.61</time>
   <energy>
    <i name="alphaZ">     -0.81663983</i>
    <i name="ewald">   -294.34939755</i>
    <i name="hartreedc">     -0.40126919</i>
    <i name="XCdc">   -104.93792283</i>
    <i name="pawpsdc">    142.21701965</i>
    <i name="pawaedc">    -14.39593217</i>
    <i name="eentropy">     -0.00008739</i>
    <i name="bandstr">     63.73406336</i>
    <i name="atom">    214.15364153</i>
    <i name="e_fr_energy">      5.20347558</i>
    <i name="e_wo_entrp">      5.20356297</i>
    <i name="e_0_energy">      5.20351927</i>
   </energy>
  </scstep>
  <scstep>
   <time name="dav">    0.69    0.69</time>
   <time name="total">    0.69    0.69</time>
   <energy>
    <i name="e_fr_energy">    -14.46160457</i>
    <i name="e_wo_entrp">    -14.46156139</i>
    <i name="e_0_energy">    -14.46158298</i>
   </energy>
  </scstep>
  <scstep>
   <time name="dav">    0.67    0.67</time>
   <time name="total">    0.67    0.67</time>
   <energy>
    <i name="e_fr_energy">    -15.05782627</i>
    <i name="e_wo_entrp">    -15.05778014</i>
    <i name="e_0_energy">    -15.05780321</i>
   </energy>
  </scstep>
  <scstep>
   <time name="dav">    0.65    0.65</time>
   <time name="total">    0.65    0.65</time>
   <energy>
    <i name="e_fr_energy">    -15.06162037</i>
    <i name="e_wo_entrp">    -15.06157418</i>
    <i name="e_0_energy">    -15.06159728</i>
   </energy>
  </scstep>
  <scstep>
   <time name="dav">    0.67    0.67</time>
   <time name="total">    0.70    0.70</time>
   <energy>
    <i name="e_fr_energy">    -15.06166888</i>
    <i name="e_wo_entrp">    -15.06162269</i>
    <i name="e_0_energy">    -15.06164578</i>
   </energy>
  </scstep>
  <scstep>
   <time name="dav">    0.62    0.62</time>
   <time name="total">    0.67    0.67</time>
   <energy>
    <i name="e_fr_energy">    -15.00866890</i>
    <i name="e_wo_entrp">    -15.00862188</i>
    <i name="e_0_energy">    -15.00864539</i>
   </energy>
  </scstep>
  <scstep>
   <time name="dav">    0.60    0.61</time>
   <time name="total">    0.65    0.65</time>
   <energy>
    <i name="e_fr_energy">    -14.97001387</i>
    <i name="e_wo_entrp">    -14.96994795</i>
    <i name="e_0_energy">    -14.96998091</i>
   </energy>
  </scstep>
  <scstep>
   <time name="dav">    0.67    0.67</time>
   <time name="total">    0.72    0.72</time>
   <energy>
    <i name="e_fr_energy">    -14.97003636</i>
    <i name="e_wo_entrp">    -14.96996920</i>
    <i name="e_0_energy">    -14.97000278</i>
   </energy>
  </scstep>
  <scstep>
   <time name="dav">    0.65    0.65</time>
   <time name="total">    0.69    0.70</time>
   <energy>
    <i name="e_fr_energy">    -14.97003954</i>
    <i name="e_wo_entrp">    -14.96997138</i>
    <i name="e_0_energy">    -14.97000546</i>
   </energy>
  </scstep>
  <scstep>
   <time name="dav">    0.69    0.69</time>
   <time name="total">    0.73    0.74</time>
   <energy>
    <i name="e_fr_energy">    -14.97003857</i>
    <i name="e_wo_entrp">    -14.96997039</i>
    <i name="e_0_energy">    -14.97000448</i>
   </energy>
  </scstep>
  <scstep>
   <time name="dav">    0.53    0.53</time>
   <time name="total">    0.57    0.58</time>
   <energy>
    <i name="e_fr_energy">    -14.97003840</i>
    <i name="e_wo_entrp">    -14.96997020</i>
    <i name="e_0_energy">    -14.97000430</i>
   </energy>
  </scstep>
  <scstep>
   <time name="dav">    0.46    0.46</time>
   <time name="total">    0.51    0.51</time>
   <energy>
    <i name="e_fr_energy">    -14.97003842</i>
    <i name="e_wo_entrp">    -14.96997023</i>
    <i name="e_0_energy">    -14.97000433</i>
   </energy>
  </scstep>
  <scstep>
   <time name="dav">    0.42    0.42</time>
   <time name="total">    0.43    0.44</time>
   <energy>
    <i name="alphaZ">     -0.81663983</i>
    <i name="ewald">   -294.34939755</i>
    <i name="hartreedc">     -0.41619948</i>
    <i name="XCdc">   -104.49700169</i>
    <i name="pawpsdc">    142.67201070</i>
    <i name="pawaedc">    -14.90184203</i>
    <i name="eentropy">     -0.00006819</i>
    <i name="bandstr">     43.18545813</i>
    <i name="atom">    214.15364153</i>
    <i name="e_fr_energy">    -14.97003843</i>
    <i name="e_wo_entrp">    -14.96997023</i>
    <i name="e_0_energy">    -14.97000433</i>
   </energy>
  </scstep>
  <structure>
   <crystal>
    <varray name="basis" >
     <v>       4.03730637      0.00000000      0.00000000</v>
     <v>       0.00000000      4.03730637      0.00000000</v>
     <v>       0.00000000      0.00000000      4.03730637</v>
    </varray>
    <i name="volume">     65.80745885</i>
    <varray name="rec_basis" >
     <v>       0.24768990      0.00000000      0.00000000</v>
     <v>       0.00000000      0.24768990      0.00000000</v>
     <v>       0.00000000      0.00000000      0.24768990</v>
    </varray>
   </crystal>
   <varray name="positions" >
    <v>       0.50000000      0.50000000      0.00000000</v>
    <v>       0.50000000      0.00000000      0.50000000</v>
    <v>       0.00000000      0.50000000      0.50000000</v>
    <v>       0.00000000      0.00000000      0.00000000</v>
   </varray>
  </structure>
  <varray name="forces" >
   <v>      -0.00000000      0.00000000      0.00000000</v>
   <v>      -0.00000000     -0.00000000      0.00000000</v>
   <v>      -0.00000000      0.00000000     -0.00000000</v>
   <v>       0.00000000     -0.00000000      0.00000000</v>
  </varray>
  <varray name="stress" >
   <v>      -0.00011045      0.00000000      0.00000000</v>
   <v>       0.00000000     -0.00011045      0.00000000</v>
   <v>      -0.00000000     -0.00000000     -0.00011045</v>
  </varray>
  <energy>
   <i name="e_fr_energy">    -14.97003843</i>
   <i name="e_wo_entrp">    -14.97000433</i>
   <i name="e_0_energy">     -0.00006819</i>
  </energy>
  <eigenvalues>
   <array>
    <dimension dim="1">band</dimension>
    <dimension dim="2">kpoint</dimension>
    <dimension dim="3">spin</dimension>
    <field>eigene</field>
    <field>occ</field>
    <set>
     <set comment="spin 1">
      <set comment="kpoint 1">
       <r>  -3.1243  1.0000</r>
       <r>   5.0993  1.0000</r>
       <r>   5.0993  1.0000</r>
       <r>   5.0993  1.0000</r>
       <r>   6.4292  1.0000</r>
       <r>   6.4292  1.0000</r>
       <r>   6.4292  1.0000</r>
       <r>  13.2887  0.0000</r>
       <r>  13.2887  0.0000</r>
       <r>  13.2887  0.0000</r>
       <r>  13.6383  0.0000</r>
       <r>  13.6383  0.0000</r>
       <r>  13.6383  0.0000</r>
       <r>  13.6383  0.0000</r>
       <r>  13.6383  0.0000</r>
       <r>  13.6383  0.0000</r>
      </set>
      <set comment="kpoint 2">
       <r>  -3.0612  1.0000</r>
       <r>   4.2309  1.0000</r>
       <r>   5.1570  1.0000</r>
       <r>   5.1570  1.0000</r>
       <r>   6.4901  1.0000</r>
       <r>   6.4901  1.0000</r>
       <r>   7.4068  1.0000</r>
       <r>  12.1124  0.0000</r>
       <r>  12.1124  0.0000</r>
       <r>  13.2020  0.0000</r>
       <r>  13.2020  0.0000</r>
       <r>  13.3509  0.0000</r>
       <r>  13.6918  0.0000</r>
       <r>  13.6918  0.0000</r>
       <r>  14.9312  0.0000</r>
       <r>  14.9312  0.0000</r>
      </set>
      <set comment="kpoint 3">
       <r>  -2.8722  1.0000</r>
       <r>   3.0251  1.0000</r>
       <r>   5.3301  1.0000</r>
       <r>   5.3301  1.0000</r>
       <r>   6.6720  1.0000</r>
       <r>   6.6720  1.0000</r>
       <r>   8.9398  0.0000</r>
       <r>  10.8948  0.0000</r>
       <r>  10.8948  0.0000</r>
       <r>  12.3022  0.0000</r>
       <r>  12.3022  0.0000</r>
       <r>  13.5375  0.0000</r>
       <r>  13.8523  0.0000</r>
       <r>  13.8523  0.0000</r>
       <r>  16.4982  0.0000</r>
       <r>  16.4982  0.0000</r>
      </set>
      <set comment="kpoint 4">
       <r>  -2.5578  1.0000</r>
       <r>   1.8876  1.0000</r>
       <r>   5.6188  1.0000</r>
       <r>   5.6188  1.0000</r>
       <r>   6.9715  1.0000</r>
       <r>   6.9715  1.0000</r>
       <r>   9.7911  0.0000</r>
       <r>   9.7911  0.0000</r>
       <r>  10.6220  0.0000</r>
       <r>  11.3243  0.0000</r>
       <r>  11.3243  0.0000</r>
       <r>  13.8480  0.0000</r>
       <r>  14.1199  0.0000</r>
       <r>  14.1199  0.0000</r>
       <r>  17.6394  0.0000</r>
       <r>  17.9627  0.0000</r>
      </set>
      <set comment="kpoint 5">
       <r>  -2.1187  1.0000</r>
       <r>   0.8536  1.0000</r>
       <r>   6.0232  1.0000</r>
       <r>   6.0232  1.0000</r>
       <r>   7.3797  1.0000</r>
       <r>   7.3797  1.0000</r>
       <r>   8.8040  0.0000</r>
       <r>   8.8040  0.0000</r>
       <r>  10.3972  0.0000</r>
       <r>  10.3972  0.0000</r>
       <r>  12.4171  0.0000</r>
       <r>  14.2817  0.0000</r>
       <r>  14.4946  0.0000</r>
       <r>  14.4946  0.0000</r>
       <r>  17.0616  0.0000</r>
       <r>  17.0618  0.0000</r>
      </set>
      <set comment="kpoint 6">
       <r>  -1.5562  1.0000</r>
       <r>  -0.0676  1.0000</r>
       <r>   6.5437  1.0000</r>
       <r>   6.5437  1.0000</r>
       <r>   7.8641  1.0000</r>
       <r>   7.8641  1.0000</r>
       <r>   7.9338  1.0000</r>
       <r>   7.9338  1.0000</r>
       <r>   9.5924  0.0000</r>
       <r>   9.5924  0.0000</r>
       <r>  14.3137  0.0000</r>
       <r>  14.8373  0.0000</r>
       <r>  14.9767  0.0000</r>
       <r>  14.9767  0.0000</r>
       <r>  16.2613  0.0000</r>
       <r>  16.2639  0.0000</r>
      </set>
      <set comment="kpoint 7">
       <r>  -0.8718  1.0000</r>
       <r>  -0.8718  1.0000</r>
       <r>   7.1804  1.0000</r>
       <r>   7.1804  1.0000</r>
       <r>   7.1804  1.0000</r>
       <r>   7.1804  1.0000</r>
       <r>   8.1954  0.0000</r>
       <r>   8.1954  0.0000</r>
       <r>   9.1531  0.0000</r>
       <r>   9.1531  0.0000</r>
       <r>  15.5127  0.0000</r>
       <r>  15.5127  0.0000</r>
       <r>  15.5658  0.0000</r>
       <r>  15.5658  0.0000</r>
       <r>  15.5658  0.0000</r>
       <r>  15.5658  0.0000</r>
      </set>
      <set comment="kpoint 8">
       <r>  -2.9982  1.0000</r>
       <r>   4.2902  1.0000</r>
       <r>   4.2902  1.0000</r>
       <r>   5.2147  1.0000</r>
       <r>   6.5507  1.0000</r>
       <r>   7.4658  1.0000</r>
       <r>   7.4658  1.0000</r>
       <r>  11.2633  0.0000</r>
       <r>  12.1709  0.0000</r>
       <r>  12.1709  0.0000</r>
       <r>  13.2569  0.0000</r>
       <r>  13.2569  0.0000</r>
       <r>  13.7461  0.0000</r>
       <r>  14.8549  0.0000</r>
       <r>  14.9884  0.0000</r>
       <r>  14.9884  0.0000</r>
      </set>
      <set comment="kpoint 9">
       <r>  -2.8093  1.0000</r>
       <r>   3.0853  1.0000</r>
       <r>   4.4679  1.0000</r>
       <r>   5.3879  1.0000</r>
       <r>   6.7310  1.0000</r>
       <r>   7.6420  1.0000</r>
       <r>   8.9969  0.0000</r>
       <r>  10.1080  0.0000</r>
       <r>  10.9531  0.0000</r>
       <r>  12.3462  0.0000</r>
       <r>  12.3599  0.0000</r>
       <r>  13.1429  0.0000</r>
       <r>  13.4219  0.0000</r>
       <r>  15.1599  0.0000</r>
       <r>  15.9999  0.0000</r>
       <r>  16.5554  0.0000</r>
      </set>
      <set comment="kpoint 10">
       <r>  -2.4949  1.0000</r>
       <r>   1.9484  1.0000</r>
       <r>   4.7636  1.0000</r>
       <r>   5.6766  1.0000</r>
       <r>   7.0247  1.0000</r>
       <r>   7.9316  1.0000</r>
       <r>   9.0283  0.0000</r>
       <r>   9.8493  0.0000</r>
       <r>  10.6761  0.0000</r>
       <r>  11.3859  0.0000</r>
       <r>  12.1863  0.0000</r>
       <r>  12.6380  0.0000</r>
       <r>  13.6973  0.0000</r>
       <r>  15.4458  0.0000</r>
       <r>  16.7755  0.0000</r>
       <r>  17.5420  0.0000</r>
      </set>
      <set comment="kpoint 11">
       <r>  -2.0561  1.0000</r>
       <r>   0.9149  1.0000</r>
       <r>   5.1765  1.0000</r>
       <r>   6.0810  1.0000</r>
       <r>   7.3866  1.0000</r>
       <r>   8.0980  0.0000</r>
       <r>   8.3211  0.0000</r>
       <r>   8.8620  0.0000</r>
       <r>  10.4698  0.0000</r>
       <r>  11.2588  0.0000</r>
       <r>  12.4632  0.0000</r>
       <r>  13.0457  0.0000</r>
       <r>  14.0860  0.0000</r>
       <r>  15.8127  0.0000</r>
       <r>  15.8458  0.0000</r>
       <r>  16.6478  0.0000</r>
      </set>
      <set comment="kpoint 12">
       <r>  -1.4938  1.0000</r>
       <r>  -0.0059  1.0000</r>
       <r>   5.7052  1.0000</r>
       <r>   6.6015  1.0000</r>
       <r>   7.0759  1.0000</r>
       <r>   7.9918  0.9067</r>
       <r>   8.0538  0.0000</r>
       <r>   8.7276  0.0000</r>
       <r>   9.7349  0.0000</r>
       <r>  10.4265  0.0000</r>
       <r>  13.5686  0.0000</r>
       <r>  14.2817  0.0000</r>
       <r>  14.6521  0.0000</r>
       <r>  14.9544  0.0000</r>
       <r>  15.8443  0.0000</r>
       <r>  16.3593  0.0000</r>
      </set>
      <set comment="kpoint 13">
       <r>  -0.8098  1.0000</r>
       <r>  -0.8098  1.0000</r>
       <r>   6.3457  1.0000</r>
       <r>   6.3457  1.0000</r>
       <r>   7.2384  1.0000</r>
       <r>   7.2384  1.0000</r>
       <r>   8.5883  0.0000</r>
       <r>   8.5883  0.0000</r>
       <r>   9.7621  0.0000</r>
       <r>   9.7621  0.0000</r>
       <r>  14.2054  0.0000</r>
       <r>  14.2054  0.0000</r>
       <r>  15.1334  0.0000</r>
       <r>  15.1334  0.0000</r>
       <r>  16.3835  0.0000</r>
       <r>  16.3835  0.0000</r>
      </set>
      <set comment="kpoint 14">
       <r>  -2.6206  1.0000</r>
       <r>   3.2658  1.0000</r>
       <r>   3.2658  1.0000</r>
       <r>   5.5611  1.0000</r>
       <r>   6.9036  1.0000</r>
       <r>   8.9744  0.0000</r>
       <r>   9.1664  0.0000</r>
       <r>   9.1664  0.0000</r>
       <r>  11.1277  0.0000</r>
       <r>  11.1277  0.0000</r>
       <r>  12.5335  0.0000</r>
       <r>  12.5335  0.0000</r>
       <r>  14.0697  0.0000</r>
       <r>  15.5487  0.0000</r>
       <r>  16.6590  0.0000</r>
       <r>  16.7268  0.0000</r>
      </set>
      <set comment="kpoint 15">
       <r>  -2.3067  1.0000</r>
       <r>   2.1307  1.0000</r>
       <r>   3.5660  1.0000</r>
       <r>   5.8499  1.0000</r>
       <r>   7.1446  1.0000</r>
       <r>   7.9482  1.0000</r>
       <r>   9.4380  0.0000</r>
       <r>  10.0236  0.0000</r>
       <r>  10.8315  0.0000</r>
       <r>  11.4186  0.0000</r>
       <r>  11.5762  0.0000</r>
       <r>  12.8282  0.0000</r>
       <r>  13.5647  0.0000</r>
       <r>  15.5781  0.0000</r>
       <r>  16.6764  0.0000</r>
       <r>  16.6796  0.0000</r>
      </set>
      <set comment="kpoint 16">
       <r>  -1.8684  1.0000</r>
       <r>   1.0986  1.0000</r>
       <r>   3.9851  1.0000</r>
       <r>   6.2545  1.0000</r>
       <r>   6.7732  1.0000</r>
       <r>   7.7501  1.0000</r>
       <r>   9.0362  0.0000</r>
       <r>   9.7455  0.0000</r>
       <r>  10.7377  0.0000</r>
       <r>  11.8256  0.0000</r>
       <r>  12.5483  0.0000</r>
       <r>  12.6980  0.0000</r>
       <r>  13.2943  0.0000</r>
       <r>  14.6030  0.0000</r>
       <r>  15.7893  0.0000</r>
       <r>  17.4106  0.0000</r>
      </set>
      <set comment="kpoint 17">
       <r>  -1.3069  1.0000</r>
       <r>   0.1790  1.0000</r>
       <r>   4.5219  1.0000</r>
       <r>   5.9349  1.0000</r>
       <r>   6.7751  1.0000</r>
       <r>   8.1658  0.0000</r>
       <r>   8.2403  0.0000</r>
       <r>   9.5383  0.0000</r>
       <r>  10.6089  0.0000</r>
       <r>  11.8751  0.0000</r>
       <r>  12.3483  0.0000</r>
       <r>  13.6078  0.0000</r>
       <r>  13.7382  0.0000</r>
       <r>  14.6262  0.0000</r>
       <r>  14.9790  0.0000</r>
       <r>  17.9203  0.0000</r>
      </set>
      <set comment="kpoint 18">
       <r>  -0.6237  1.0000</r>
       <r>  -0.6237  1.0000</r>
       <r>   5.1738  1.0000</r>
       <r>   5.1738  1.0000</r>
       <r>   7.4121  1.0000</r>
       <r>   7.4121  1.0000</r>
       <r>   8.8664  0.0000</r>
       <r>   8.8664  0.0000</r>
       <r>  11.1556  0.0000</r>
       <r>  11.1556  0.0000</r>
       <r>  12.9862  0.0000</r>
       <r>  12.9862  0.0000</r>
       <r>  14.2583  0.0000</r>
       <r>  14.2583  0.0000</r>
       <r>  16.5618  0.0000</r>
       <r>  16.5618  0.0000</r>
      </set>
      <set comment="kpoint 19">
       <r>  -1.9935  1.0000</r>
       <r>   2.4340  1.0000</r>
       <r>   2.4340  1.0000</r>
       <r>   6.1388  1.0000</r>
       <r>   6.6647  1.0000</r>
       <r>   7.6382  1.0000</r>
       <r>  10.3142  0.0000</r>
       <r>  10.3142  0.0000</r>
       <r>  11.0278  0.0000</r>
       <r>  11.0278  0.0000</r>
       <r>  11.9479  0.0000</r>
       <r>  11.9479  0.0000</r>
       <r>  14.4859  0.0000</r>
       <r>  14.6097  0.0000</r>
       <r>  15.7448  0.0000</r>
       <r>  16.2514  0.0000</r>
      </set>
      <set comment="kpoint 20">
       <r>  -1.5562  1.0000</r>
       <r>   1.4043  1.0000</r>
       <r>   2.8574  1.0000</r>
       <r>   5.7133  1.0000</r>
       <r>   6.5437  1.0000</r>
       <r>   8.0148  0.0267</r>
       <r>   9.3265  0.0000</r>
       <r>  10.7098  0.0000</r>
       <r>  10.7210  0.0000</r>
       <r>  11.7329  0.0000</r>
       <r>  12.0832  0.0000</r>
       <r>  13.0781  0.0000</r>
       <r>  13.5044  0.0000</r>
       <r>  14.2303  0.0000</r>
       <r>  14.8497  0.0000</r>
       <r>  17.4458  0.0000</r>
      </set>
      <set comment="kpoint 21">
       <r>  -0.9959  1.0000</r>
       <r>   0.4868  1.0000</r>
       <r>   3.3999  1.0000</r>
       <r>   4.8330  1.0000</r>
       <r>   7.0646  1.0000</r>
       <r>   8.4558  0.0000</r>
       <r>   8.5436  0.0000</r>
       <r>   9.9300  0.0000</r>
       <r>  11.2437  0.0000</r>
       <r>  12.1702  0.0000</r>
       <r>  12.6360  0.0000</r>
       <r>  12.6670  0.0000</r>
       <r>  13.4799  0.0000</r>
       <r>  14.0310  0.0000</r>
       <r>  14.8866  0.0000</r>
       <r>  18.8337  0.0000</r>
      </set>
      <set comment="kpoint 22">
       <r>  -0.3142  1.0000</r>
       <r>  -0.3142  1.0000</r>
       <r>   4.0595  1.0000</r>
       <r>   4.0595  1.0000</r>
       <r>   7.7019  1.0000</r>
       <r>   7.7019  1.0000</r>
       <r>   9.1881  0.0000</r>
       <r>   9.1881  0.0000</r>
       <r>  11.8822  0.0000</r>
       <r>  11.8822  0.0000</r>
       <r>  12.7733  0.0000</r>
       <r>  12.7733  0.0000</r>
       <r>  13.3030  0.0000</r>
       <r>  13.3030  0.0000</r>
       <r>  16.8308  0.0000</r>
       <r>  16.8308  0.0000</r>
      </set>
      <set comment="kpoint 23">
       <r>  -1.1202  1.0000</r>
       <r>   1.8312  1.0000</r>
       <r>   1.8312  1.0000</r>
       <r>   4.7177  1.0000</r>
       <r>   6.9488  1.0000</r>
       <r>   8.4291  0.0000</r>
       <r>   9.7330  0.0000</r>
       <r>   9.7330  0.0000</r>
       <r>  11.2062  0.0000</r>
       <r>  11.2062  0.0000</r>
       <r>  12.5192  0.0000</r>
       <r>  13.4195  0.0000</r>
       <r>  13.4195  0.0000</r>
       <r>  13.9464  0.0000</r>
       <r>  15.3666  0.0000</r>
       <r>  17.1332  0.0000</r>
      </set>
      <set comment="kpoint 24">
       <r>  -0.5616  1.0000</r>
       <r>   0.9165  1.0000</r>
       <r>   2.3782  1.0000</r>
       <r>   3.8247  1.0000</r>
       <r>   7.4700  1.0000</r>
       <r>   8.8619  0.0000</r>
       <r>   8.9647  0.0000</r>
       <r>  10.2556  0.0000</r>
       <r>  10.3655  0.0000</r>
       <r>  11.6490  0.0000</r>
       <r>  11.7471  0.0000</r>
       <r>  13.1189  0.0000</r>
       <r>  13.9078  0.0000</r>
       <r>  15.1211  0.0000</r>
       <r>  15.2636  0.0000</r>
       <r>  18.4020  0.0000</r>
      </set>
      <set comment="kpoint 25">
       <r>   0.1180  1.0000</r>
       <r>   0.1180  1.0000</r>
       <r>   3.0434  1.0000</r>
       <r>   3.0434  1.0000</r>
       <r>   8.1077  0.0000</r>
       <r>   8.1077  0.0000</r>
       <r>   9.6131  0.0000</r>
       <r>   9.6131  0.0000</r>
       <r>  10.8943  0.0000</r>
       <r>  10.8943  0.0000</r>
       <r>  12.3837  0.0000</r>
       <r>  12.3837  0.0000</r>
       <r>  14.4953  0.0000</r>
       <r>  14.4953  0.0000</r>
       <r>  17.1821  0.0000</r>
       <r>  17.1821  0.0000</r>
      </set>
      <set comment="kpoint 26">
       <r>  -0.0053  1.0000</r>
       <r>   1.4671  1.0000</r>
       <r>   1.4671  1.0000</r>
       <r>   2.9240  1.0000</r>
       <r>   7.9916  0.9098</r>
       <r>   9.3843  0.0000</r>
       <r>   9.3843  0.0000</r>
       <r>   9.5011  0.0000</r>
       <r>  10.7779  0.0000</r>
       <r>  10.9007  0.0000</r>
       <r>  10.9007  0.0000</r>
       <r>  12.2832  0.0000</r>
       <r>  15.7322  0.0000</r>
       <r>  15.7322  0.0000</r>
       <r>  16.3406  0.0000</r>
       <r>  18.2178  0.0000</r>
      </set>
      <set comment="kpoint 27">
       <r>   0.6717  1.0000</r>
       <r>   0.6717  1.0000</r>
       <r>   2.1370  1.0000</r>
       <r>   2.1370  1.0000</r>
       <r>   8.6297  0.0000</r>
       <r>   8.6297  0.0000</r>
       <r>  10.0229  0.0000</r>
       <r>  10.0229  0.0000</r>
       <r>  10.1485  0.0000</r>
       <r>  10.1485  0.0000</r>
       <r>  11.5410  0.0000</r>
       <r>  11.5410  0.0000</r>
       <r>  16.2310  0.0000</r>
       <r>  16.2310  0.0000</r>
       <r>  17.5544  0.0000</r>
       <r>  17.5544  0.0000</r>
      </set>
      <set comment="kpoint 28">
       <r>   1.3454  1.0000</r>
       <r>   1.3454  1.0000</r>
       <r>   1.3454  1.0000</r>
       <r>   1.3454  1.0000</r>
       <r>   9.2680  0.0000</r>
       <r>   9.2680  0.0000</r>
       <r>   9.2680  0.0000</r>
       <r>   9.2680  0.0000</r>
       <r>  10.7928  0.0000</r>
       <r>  10.7928  0.0000</r>
       <r>  10.7928  0.0000</r>
       <r>  10.7928  0.0000</r>
       <r>  17.5305  0.0000</r>
       <r>  17.5305  0.0000</r>
       <r>  17.5305  0.0000</r>
       <r>  17.5305  0.0000</r>
      </set>
      <set comment="kpoint 29">
       <r>  -2.9352  1.0000</r>
       <r>   4.3494  1.0000</r>
       <r>   4.3494  1.0000</r>
       <r>   4.3494  1.0000</r>
       <r>   7.5244  1.0000</r>
       <r>   7.5244  1.0000</r>
       <r>   7.5244  1.0000</r>
       <r>  11.3221  0.0000</r>
       <r>  11.3221  0.0000</r>
       <r>  11.3221  0.0000</r>
       <r>  13.7996  0.0000</r>
       <r>  13.7996  0.0000</r>
       <r>  13.7996  0.0000</r>
       <r>  14.9145  0.0000</r>
       <r>  14.9145  0.0000</r>
       <r>  14.9145  0.0000</r>
      </set>
      <set comment="kpoint 30">
       <r>  -2.7464  1.0000</r>
       <r>   3.1455  1.0000</r>
       <r>   4.5270  1.0000</r>
       <r>   4.5270  1.0000</r>
       <r>   7.6981  1.0000</r>
       <r>   7.6981  1.0000</r>
       <r>   9.0526  0.0000</r>
       <r>  10.1685  0.0000</r>
       <r>  10.1685  0.0000</r>
       <r>  11.4988  0.0000</r>
       <r>  13.1990  0.0000</r>
       <r>  13.1990  0.0000</r>
       <r>  13.9602  0.0000</r>
       <r>  15.0931  0.0000</r>
       <r>  16.0579  0.0000</r>
       <r>  16.0579  0.0000</r>
      </set>
      <set comment="kpoint 31">
       <r>  -2.4322  1.0000</r>
       <r>   2.0092  1.0000</r>
       <r>   4.8225  1.0000</r>
       <r>   4.8225  1.0000</r>
       <r>   7.9738  0.9999</r>
       <r>   7.9738  0.9999</r>
       <r>   9.0991  0.0000</r>
       <r>   9.0991  0.0000</r>
       <r>  10.7221  0.0000</r>
       <r>  11.7994  0.0000</r>
       <r>  12.2449  0.0000</r>
       <r>  12.2449  0.0000</r>
       <r>  14.2279  0.0000</r>
       <r>  15.3898  0.0000</r>
       <r>  15.8899  0.0000</r>
       <r>  17.6609  0.0000</r>
      </set>
      <set comment="kpoint 32">
       <r>  -1.9935  1.0000</r>
       <r>   0.9762  1.0000</r>
       <r>   5.2348  1.0000</r>
       <r>   5.2348  1.0000</r>
       <r>   7.9836  0.9934</r>
       <r>   7.9836  0.9934</r>
       <r>   8.5095  0.0000</r>
       <r>   8.5095  0.0000</r>
       <r>  11.3216  0.0000</r>
       <r>  11.3216  0.0000</r>
       <r>  12.1351  0.0000</r>
       <r>  12.5836  0.0000</r>
       <r>  14.6029  0.0000</r>
       <r>  14.9330  0.0000</r>
       <r>  15.8036  0.0000</r>
       <r>  17.1717  0.0000</r>
      </set>
      <set comment="kpoint 33">
       <r>  -1.4315  1.0000</r>
       <r>   0.0558  1.0000</r>
       <r>   5.7608  1.0000</r>
       <r>   5.7608  1.0000</r>
       <r>   7.1788  1.0000</r>
       <r>   7.1788  1.0000</r>
       <r>   8.9381  0.0000</r>
       <r>   8.9381  0.0000</r>
       <r>  10.5054  0.0000</r>
       <r>  10.5054  0.0000</r>
       <r>  12.6939  0.0000</r>
       <r>  14.0789  0.0000</r>
       <r>  14.4346  0.0000</r>
       <r>  15.0853  0.0000</r>
       <r>  16.3334  0.0000</r>
       <r>  16.3708  0.0000</r>
      </set>
      <set comment="kpoint 34">
       <r>  -0.7477  1.0000</r>
       <r>  -0.7477  1.0000</r>
       <r>   6.3023  1.0000</r>
       <r>   6.3023  1.0000</r>
       <r>   6.5280  1.0000</r>
       <r>   6.5280  1.0000</r>
       <r>   9.3091  0.0000</r>
       <r>   9.3091  0.0000</r>
       <r>  10.0201  0.0000</r>
       <r>  10.0201  0.0000</r>
       <r>  13.3322  0.0000</r>
       <r>  13.3322  0.0000</r>
       <r>  15.6748  0.0000</r>
       <r>  15.6748  0.0000</r>
       <r>  16.3911  0.0000</r>
       <r>  16.3911  0.0000</r>
      </set>
      <set comment="kpoint 35">
       <r>  -2.5578  1.0000</r>
       <r>   3.3258  1.0000</r>
       <r>   3.3258  1.0000</r>
       <r>   4.7042  1.0000</r>
       <r>   7.8549  1.0000</r>
       <r>   9.0472  0.0000</r>
       <r>   9.2110  0.0000</r>
       <r>   9.2110  0.0000</r>
       <r>  10.3570  0.0000</r>
       <r>  10.3570  0.0000</r>
       <r>  13.3674  0.0000</r>
       <r>  13.3674  0.0000</r>
       <r>  14.1233  0.0000</r>
       <r>  15.6090  0.0000</r>
       <r>  15.8112  0.0000</r>
       <r>  16.2318  0.0000</r>
      </set>
      <set comment="kpoint 36">
       <r>  -2.2440  1.0000</r>
       <r>   2.1914  1.0000</r>
       <r>   3.6259  1.0000</r>
       <r>   4.9988  1.0000</r>
       <r>   7.7842  1.0000</r>
       <r>   8.3269  0.0000</r>
       <r>   9.1468  0.0000</r>
       <r>   9.6184  0.0000</r>
       <r>  10.5398  0.0000</r>
       <r>  10.9936  0.0000</r>
       <r>  12.4218  0.0000</r>
       <r>  13.6208  0.0000</r>
       <r>  13.6487  0.0000</r>
       <r>  14.7514  0.0000</r>
       <r>  16.5205  0.0000</r>
       <r>  16.7341  0.0000</r>
      </set>
      <set comment="kpoint 37">
       <r>  -1.8059  1.0000</r>
       <r>   1.1598  1.0000</r>
       <r>   4.0447  1.0000</r>
       <r>   5.4076  1.0000</r>
       <r>   6.8912  1.0000</r>
       <r>   8.2295  0.0000</r>
       <r>   8.6452  0.0000</r>
       <r>   9.9306  0.0000</r>
       <r>  11.0091  0.0000</r>
       <r>  11.5193  0.0000</r>
       <r>  12.7093  0.0000</r>
       <r>  12.7563  0.0000</r>
       <r>  13.7870  0.0000</r>
       <r>  14.0484  0.0000</r>
       <r>  16.6327  0.0000</r>
       <r>  16.9224  0.0000</r>
      </set>
      <set comment="kpoint 38">
       <r>  -1.2446  1.0000</r>
       <r>   0.2406  1.0000</r>
       <r>   4.5807  1.0000</r>
       <r>   5.8493  1.0000</r>
       <r>   6.1083  1.0000</r>
       <r>   7.3627  1.0000</r>
       <r>   9.1556  0.0000</r>
       <r>  10.2285  0.0000</r>
       <r>  10.8861  0.0000</r>
       <r>  11.5387  0.0000</r>
       <r>  11.9371  0.0000</r>
       <r>  12.9276  0.0000</r>
       <r>  14.3860  0.0000</r>
       <r>  14.7494  0.0000</r>
       <r>  15.8224  0.0000</r>
       <r>  17.4341  0.0000</r>
      </set>
      <set comment="kpoint 39">
       <r>  -0.5618  1.0000</r>
       <r>  -0.5618  1.0000</r>
       <r>   5.2290  1.0000</r>
       <r>   5.2290  1.0000</r>
       <r>   6.6080  1.0000</r>
       <r>   6.6080  1.0000</r>
       <r>   9.7626  0.0000</r>
       <r>   9.7626  0.0000</r>
       <r>  11.2329  0.0000</r>
       <r>  11.2329  0.0000</r>
       <r>  12.1776  0.0000</r>
       <r>  12.1776  0.0000</r>
       <r>  15.1045  0.0000</r>
       <r>  15.1045  0.0000</r>
       <r>  16.6065  0.0000</r>
       <r>  16.6065  0.0000</r>
      </set>
      <set comment="kpoint 40">
       <r>  -1.9309  1.0000</r>
       <r>   2.4945  1.0000</r>
       <r>   2.4945  1.0000</r>
       <r>   5.2897  1.0000</r>
       <r>   6.7856  1.0000</r>
       <r>   8.5341  0.0000</r>
       <r>   9.5100  0.0000</r>
       <r>   9.5100  0.0000</r>
       <r>  11.2010  0.0000</r>
       <r>  11.2010  0.0000</r>
       <r>  12.7260  0.0000</r>
       <r>  12.7260  0.0000</r>
       <r>  13.6825  0.0000</r>
       <r>  14.6634  0.0000</r>
       <r>  16.3107  0.0000</r>
       <r>  16.6133  0.0000</r>
      </set>
      <set comment="kpoint 41">
       <r>  -1.4938  1.0000</r>
       <r>   1.4654  1.0000</r>
       <r>   2.9178  1.0000</r>
       <r>   5.6181  1.0000</r>
       <r>   5.8839  1.0000</r>
       <r>   8.5312  0.0000</r>
       <r>   8.9370  0.0000</r>
       <r>   9.9270  0.0000</r>
       <r>  11.3957  0.0000</r>
       <r>  12.0004  0.0000</r>
       <r>  12.7117  0.0000</r>
       <r>  12.7939  0.0000</r>
       <r>  13.3056  0.0000</r>
       <r>  14.2861  0.0000</r>
       <r>  15.7187  0.0000</r>
       <r>  17.5022  0.0000</r>
      </set>
      <set comment="kpoint 42">
       <r>  -0.9338  1.0000</r>
       <r>   0.5483  1.0000</r>
       <r>   3.4599  1.0000</r>
       <r>   4.8885  1.0000</r>
       <r>   6.2575  1.0000</r>
       <r>   7.6583  1.0000</r>
       <r>   9.4615  0.0000</r>
       <r>  10.4542  0.0000</r>
       <r>  10.8156  0.0000</r>
       <r>  11.8477  0.0000</r>
       <r>  12.2444  0.0000</r>
       <r>  13.5372  0.0000</r>
       <r>  13.5377  0.0000</r>
       <r>  14.9009  0.0000</r>
       <r>  14.9469  0.0000</r>
       <r>  18.8890  0.0000</r>
      </set>
      <set comment="kpoint 43">
       <r>  -0.2524  1.0000</r>
       <r>  -0.2524  1.0000</r>
       <r>   4.1186  1.0000</r>
       <r>   4.1186  1.0000</r>
       <r>   6.8985  1.0000</r>
       <r>   6.8985  1.0000</r>
       <r>  10.0953  0.0000</r>
       <r>  10.0953  0.0000</r>
       <r>  11.0945  0.0000</r>
       <r>  11.0945  0.0000</r>
       <r>  12.8341  0.0000</r>
       <r>  12.8341  0.0000</r>
       <r>  14.1749  0.0000</r>
       <r>  14.1749  0.0000</r>
       <r>  16.8830  0.0000</r>
       <r>  16.8830  0.0000</r>
      </set>
      <set comment="kpoint 44">
       <r>  -1.0580  1.0000</r>
       <r>   1.8921  1.0000</r>
       <r>   1.8921  1.0000</r>
       <r>   4.7732  1.0000</r>
       <r>   6.1402  1.0000</r>
       <r>   8.9438  0.0000</r>
       <r>   8.9438  0.0000</r>
       <r>   9.3498  0.0000</r>
       <r>  11.7360  0.0000</r>
       <r>  12.0826  0.0000</r>
       <r>  12.0826  0.0000</r>
       <r>  13.4884  0.0000</r>
       <r>  13.4884  0.0000</r>
       <r>  14.8187  0.0000</r>
       <r>  15.4205  0.0000</r>
       <r>  17.1904  0.0000</r>
      </set>
      <set comment="kpoint 45">
       <r>  -0.4997  1.0000</r>
       <r>   0.9778  1.0000</r>
       <r>   2.4388  1.0000</r>
       <r>   3.8840  1.0000</r>
       <r>   6.6645  1.0000</r>
       <r>   8.0698  0.0000</r>
       <r>   9.4709  0.0000</r>
       <r>   9.8781  0.0000</r>
       <r>  10.8685  0.0000</r>
       <r>  11.2590  0.0000</r>
       <r>  12.6287  0.0000</r>
       <r>  13.9669  0.0000</r>
       <r>  13.9937  0.0000</r>
       <r>  15.1765  0.0000</r>
       <r>  15.3201  0.0000</r>
       <r>  18.4561  0.0000</r>
      </set>
      <set comment="kpoint 46">
       <r>   0.1796  1.0000</r>
       <r>   0.1796  1.0000</r>
       <r>   3.1036  1.0000</r>
       <r>   3.1036  1.0000</r>
       <r>   7.3091  1.0000</r>
       <r>   7.3091  1.0000</r>
       <r>  10.1128  0.0000</r>
       <r>  10.1128  0.0000</r>
       <r>  10.5171  0.0000</r>
       <r>  10.5171  0.0000</r>
       <r>  13.2619  0.0000</r>
       <r>  13.2619  0.0000</r>
       <r>  14.5521  0.0000</r>
       <r>  14.5521  0.0000</r>
       <r>  17.2356  0.0000</r>
       <r>  17.2356  0.0000</r>
      </set>
      <set comment="kpoint 47">
       <r>   0.0564  1.0000</r>
       <r>   1.5282  1.0000</r>
       <r>   1.5282  1.0000</r>
       <r>   2.9843  1.0000</r>
       <r>   7.1923  1.0000</r>
       <r>   8.5974  0.0000</r>
       <r>   8.5974  0.0000</r>
       <r>   9.9983  0.0000</r>
       <r>  10.4071  0.0000</r>
       <r>  11.7902  0.0000</r>
       <r>  11.7902  0.0000</r>
       <r>  13.1620  0.0000</r>
       <r>  15.7877  0.0000</r>
       <r>  15.7877  0.0000</r>
       <r>  16.3947  0.0000</r>
       <r>  18.2714  0.0000</r>
      </set>
      <set comment="kpoint 48">
       <r>   0.7331  1.0000</r>
       <r>   0.7331  1.0000</r>
       <r>   2.1978  1.0000</r>
       <r>   2.1978  1.0000</r>
       <r>   7.8372  1.0000</r>
       <r>   7.8372  1.0000</r>
       <r>   9.2406  0.0000</r>
       <r>   9.2406  0.0000</r>
       <r>  11.0462  0.0000</r>
       <r>  11.0462  0.0000</r>
       <r>  12.4249  0.0000</r>
       <r>  12.4249  0.0000</r>
       <r>  16.2858  0.0000</r>
       <r>  16.2858  0.0000</r>
       <r>  17.6083  0.0000</r>
       <r>  17.6083  0.0000</r>
      </set>
      <set comment="kpoint 49">
       <r>   1.4065  1.0000</r>
       <r>   1.4065  1.0000</r>
       <r>   1.4065  1.0000</r>
       <r>   1.4065  1.0000</r>
       <r>   8.4814  0.0000</r>
       <r>   8.4814  0.0000</r>
       <r>   8.4814  0.0000</r>
       <r>   8.4814  0.0000</r>
       <r>  11.6834  0.0000</r>
       <r>  11.6834  0.0000</r>
       <r>  11.6834  0.0000</r>
       <r>  11.6834  0.0000</r>
       <r>  17.5848  0.0000</r>
       <r>  17.5848  0.0000</r>
       <r>  17.5848  0.0000</r>
       <r>  17.5848  0.0000</r>
      </set>
      <set comment="kpoint 50">
       <r>  -2.3694  1.0000</r>
       <r>   3.5059  1.0000</r>
       <r>   3.5059  1.0000</r>
       <r>   3.5059  1.0000</r>
       <r>   9.0580  0.0000</r>
       <r>   9.0580  0.0000</r>
       <r>   9.0580  0.0000</r>
       <r>   9.5441  0.0000</r>
       <r>   9.5441  0.0000</r>
       <r>   9.5441  0.0000</r>
       <r>  14.2842  0.0000</r>
       <r>  14.2842  0.0000</r>
       <r>  14.2842  0.0000</r>
       <r>  14.6833  0.0000</r>
       <r>  15.7892  0.0000</r>
       <r>  15.7892  0.0000</r>
      </set>
      <set comment="kpoint 51">
       <r>  -2.0561  1.0000</r>
       <r>   2.3734  1.0000</r>
       <r>   3.8054  1.0000</r>
       <r>   3.8054  1.0000</r>
       <r>   8.0588  0.0000</r>
       <r>   8.0588  0.0000</r>
       <r>   9.4456  0.0000</r>
       <r>   9.7466  0.0000</r>
       <r>   9.7466  0.0000</r>
       <r>  11.1235  0.0000</r>
       <r>  13.6195  0.0000</r>
       <r>  13.7891  0.0000</r>
       <r>  13.7891  0.0000</r>
       <r>  14.5523  0.0000</r>
       <r>  16.0877  0.0000</r>
       <r>  16.9068  0.0000</r>
      </set>
      <set comment="kpoint 52">
       <r>  -1.6186  1.0000</r>
       <r>   1.3433  1.0000</r>
       <r>   4.2229  1.0000</r>
       <r>   4.2229  1.0000</r>
       <r>   7.0794  1.0000</r>
       <r>   7.0794  1.0000</r>
       <r>   9.8659  0.0000</r>
       <r>  10.1383  0.0000</r>
       <r>  10.1383  0.0000</r>
       <r>  12.6513  0.0000</r>
       <r>  12.8972  0.0000</r>
       <r>  12.9322  0.0000</r>
       <r>  12.9322  0.0000</r>
       <r>  14.9280  0.0000</r>
       <r>  16.5012  0.0000</r>
       <r>  17.5019  0.0000</r>
      </set>
      <set comment="kpoint 53">
       <r>  -1.0581  1.0000</r>
       <r>   0.4253  1.0000</r>
       <r>   4.7543  1.0000</r>
       <r>   4.7543  1.0000</r>
       <r>   6.2055  1.0000</r>
       <r>   6.2055  1.0000</r>
       <r>  10.3944  0.0000</r>
       <r>  10.6320  0.0000</r>
       <r>  10.6320  0.0000</r>
       <r>  11.7885  0.0000</r>
       <r>  12.1319  0.0000</r>
       <r>  12.1319  0.0000</r>
       <r>  14.7737  0.0000</r>
       <r>  15.4111  0.0000</r>
       <r>  16.6992  0.0000</r>
       <r>  17.0246  0.0000</r>
      </set>
      <set comment="kpoint 54">
       <r>  -0.3761  1.0000</r>
       <r>  -0.3761  1.0000</r>
       <r>   5.2842  1.0000</r>
       <r>   5.2842  1.0000</r>
       <r>   5.5608  1.0000</r>
       <r>   5.5608  1.0000</r>
       <r>  11.0315  0.0000</r>
       <r>  11.0315  0.0000</r>
       <r>  11.0354  0.0000</r>
       <r>  11.0354  0.0000</r>
       <r>  11.6276  0.0000</r>
       <r>  11.6276  0.0000</r>
       <r>  16.0017  0.0000</r>
       <r>  16.0017  0.0000</r>
       <r>  16.7258  0.0000</r>
       <r>  16.7258  0.0000</r>
      </set>
      <set comment="kpoint 55">
       <r>  -1.7434  1.0000</r>
       <r>   2.6761  1.0000</r>
       <r>   2.6761  1.0000</r>
       <r>   4.1035  1.0000</r>
       <r>   6.9746  1.0000</r>
       <r>   8.3651  0.0000</r>
       <r>   8.3651  0.0000</r>
       <r>  10.0335  0.0000</r>
       <r>  11.4016  0.0000</r>
       <r>  11.4016  0.0000</r>
       <r>  12.5498  0.0000</r>
       <r>  14.0702  0.0000</r>
       <r>  14.0702  0.0000</r>
       <r>  14.8247  0.0000</r>
       <r>  16.4878  0.0000</r>
       <r>  17.1925  0.0000</r>
      </set>
      <set comment="kpoint 56">
       <r>  -1.3069  1.0000</r>
       <r>   1.6485  1.0000</r>
       <r>   3.0986  1.0000</r>
       <r>   4.5164  1.0000</r>
       <r>   5.9854  1.0000</r>
       <r>   7.3775  1.0000</r>
       <r>   8.7801  0.0000</r>
       <r>  10.4386  0.0000</r>
       <r>  11.5764  0.0000</r>
       <r>  11.7806  0.0000</r>
       <r>  13.1680  0.0000</r>
       <r>  13.2340  0.0000</r>
       <r>  14.4536  0.0000</r>
       <r>  14.4688  0.0000</r>
       <r>  17.0427  0.0000</r>
       <r>  17.5874  0.0000</r>
      </set>
      <set comment="kpoint 57">
       <r>  -0.7476  1.0000</r>
       <r>   0.7325  1.0000</r>
       <r>   3.6393  1.0000</r>
       <r>   4.9374  1.0000</r>
       <r>   5.2128  1.0000</r>
       <r>   6.4977  1.0000</r>
       <r>   9.3092  0.0000</r>
       <r>  10.7091  0.0000</r>
       <r>  10.9540  0.0000</r>
       <r>  12.0794  0.0000</r>
       <r>  12.6247  0.0000</r>
       <r>  13.7116  0.0000</r>
       <r>  14.8285  0.0000</r>
       <r>  15.1787  0.0000</r>
       <r>  16.2424  0.0000</r>
       <r>  18.0844  0.0000</r>
      </set>
      <set comment="kpoint 58">
       <r>  -0.0671  1.0000</r>
       <r>  -0.0671  1.0000</r>
       <r>   4.2935  1.0000</r>
       <r>   4.2935  1.0000</r>
       <r>   5.7347  1.0000</r>
       <r>   5.7347  1.0000</r>
       <r>   9.9526  0.0000</r>
       <r>   9.9526  0.0000</r>
       <r>  11.5632  0.0000</r>
       <r>  11.5632  0.0000</r>
       <r>  13.0242  0.0000</r>
       <r>  13.0242  0.0000</r>
       <r>  15.5287  0.0000</r>
       <r>  15.5287  0.0000</r>
       <r>  17.0339  0.0000</r>
       <r>  17.0339  0.0000</r>
      </set>
      <set comment="kpoint 59">
       <r>  -0.8717  1.0000</r>
       <r>   2.0746  1.0000</r>
       <r>   2.0746  1.0000</r>
       <r>   4.8213  1.0000</r>
       <r>   5.0949  1.0000</r>
       <r>   7.7915  1.0000</r>
       <r>   7.7915  1.0000</r>
       <r>  10.5983  0.0000</r>
       <r>  10.8488  0.0000</r>
       <r>  13.3571  0.0000</r>
       <r>  13.3571  0.0000</r>
       <r>  13.8243  0.0000</r>
       <r>  13.8243  0.0000</r>
       <r>  15.5822  0.0000</r>
       <r>  16.2088  0.0000</r>
       <r>  17.3606  0.0000</r>
      </set>
      <set comment="kpoint 60">
       <r>  -0.3141  1.0000</r>
       <r>   1.1616  1.0000</r>
       <r>   2.6204  1.0000</r>
       <r>   4.0595  1.0000</r>
       <r>   5.4976  1.0000</r>
       <r>   6.9112  1.0000</r>
       <r>   8.3218  0.0000</r>
       <r>   9.7271  0.0000</r>
       <r>  11.3694  0.0000</r>
       <r>  12.7121  0.0000</r>
       <r>  14.0565  0.0000</r>
       <r>  14.1496  0.0000</r>
       <r>  15.3426  0.0000</r>
       <r>  15.4066  0.0000</r>
       <r>  15.4911  0.0000</r>
       <r>  18.6167  0.0000</r>
      </set>
      <set comment="kpoint 61">
       <r>   0.3644  1.0000</r>
       <r>   0.3644  1.0000</r>
       <r>   3.2838  1.0000</r>
       <r>   3.2838  1.0000</r>
       <r>   6.1446  1.0000</r>
       <r>   6.1446  1.0000</r>
       <r>   8.9675  0.0000</r>
       <r>   8.9675  0.0000</r>
       <r>  11.9957  0.0000</r>
       <r>  11.9957  0.0000</r>
       <r>  14.6874  0.0000</r>
       <r>  14.6874  0.0000</r>
       <r>  14.7230  0.0000</r>
       <r>  14.7230  0.0000</r>
       <r>  17.3943  0.0000</r>
       <r>  17.3943  0.0000</r>
      </set>
      <set comment="kpoint 62">
       <r>   0.2414  1.0000</r>
       <r>   1.7112  1.0000</r>
       <r>   1.7112  1.0000</r>
       <r>   3.1647  1.0000</r>
       <r>   6.0265  1.0000</r>
       <r>   7.4426  1.0000</r>
       <r>   7.4426  1.0000</r>
       <r>   8.8527  0.0000</r>
       <r>  11.8919  0.0000</r>
       <r>  13.2487  0.0000</r>
       <r>  13.2487  0.0000</r>
       <r>  14.5995  0.0000</r>
       <r>  15.9539  0.0000</r>
       <r>  15.9539  0.0000</r>
       <r>  16.5569  0.0000</r>
       <r>  18.4295  0.0000</r>
      </set>
      <set comment="kpoint 63">
       <r>   0.9172  1.0000</r>
       <r>   0.9172  1.0000</r>
       <r>   2.3798  1.0000</r>
       <r>   2.3798  1.0000</r>
       <r>   6.6764  1.0000</r>
       <r>   6.6764  1.0000</r>
       <r>   8.0903  0.0000</r>
       <r>   8.0903  0.0000</r>
       <r>  12.5206  0.0000</r>
       <r>  12.5206  0.0000</r>
       <r>  13.8758  0.0000</r>
       <r>  13.8758  0.0000</r>
       <r>  16.4498  0.0000</r>
       <r>  16.4498  0.0000</r>
       <r>  17.7692  0.0000</r>
       <r>  17.7692  0.0000</r>
      </set>
      <set comment="kpoint 64">
       <r>   1.5897  1.0000</r>
       <r>   1.5897  1.0000</r>
       <r>   1.5897  1.0000</r>
       <r>   1.5897  1.0000</r>
       <r>   7.3258  1.0000</r>
       <r>   7.3258  1.0000</r>
       <r>   7.3258  1.0000</r>
       <r>   7.3258  1.0000</r>
       <r>  13.1486  0.0000</r>
       <r>  13.1486  0.0000</r>
       <r>  13.1486  0.0000</r>
       <r>  13.1486  0.0000</r>
       <r>  17.7476  0.0000</r>
       <r>  17.7476  0.0000</r>
       <r>  17.7476  0.0000</r>
       <r>  17.7476  0.0000</r>
      </set>
      <set comment="kpoint 65">
       <r>  -1.4315  1.0000</r>
       <r>   2.9780  1.0000</r>
       <r>   2.9780  1.0000</r>
       <r>   2.9780  1.0000</r>
       <r>   7.2733  1.0000</r>
       <r>   7.2733  1.0000</r>
       <r>   7.2733  1.0000</r>
       <r>  11.4754  0.0000</r>
       <r>  11.6952  0.0000</r>
       <r>  11.6952  0.0000</r>
       <r>  11.6952  0.0000</r>
       <r>  15.0935  0.0000</r>
       <r>  15.0935  0.0000</r>
       <r>  15.0935  0.0000</r>
       <r>  16.7798  0.0000</r>
       <r>  16.7798  0.0000</r>
      </set>
      <set comment="kpoint 66">
       <r>  -0.9959  1.0000</r>
       <r>   1.9530  1.0000</r>
       <r>   3.3990  1.0000</r>
       <r>   3.3990  1.0000</r>
       <r>   6.2785  1.0000</r>
       <r>   6.2785  1.0000</r>
       <r>   7.6879  1.0000</r>
       <r>  10.4972  0.0000</r>
       <r>  12.0945  0.0000</r>
       <r>  12.0945  0.0000</r>
       <r>  13.4684  0.0000</r>
       <r>  14.7330  0.0000</r>
       <r>  14.7330  0.0000</r>
       <r>  15.4701  0.0000</r>
       <r>  17.1810  0.0000</r>
       <r>  17.9481  0.0000</r>
      </set>
      <set comment="kpoint 67">
       <r>  -0.4378  1.0000</r>
       <r>   1.0391  1.0000</r>
       <r>   3.9351  1.0000</r>
       <r>   3.9351  1.0000</r>
       <r>   5.3956  1.0000</r>
       <r>   5.3956  1.0000</r>
       <r>   8.2189  0.0000</r>
       <r>   9.6256  0.0000</r>
       <r>  12.5891  0.0000</r>
       <r>  12.5891  0.0000</r>
       <r>  14.0086  0.0000</r>
       <r>  14.0086  0.0000</r>
       <r>  15.3334  0.0000</r>
       <r>  15.9545  0.0000</r>
       <r>  17.2464  0.0000</r>
       <r>  17.6810  0.0000</r>
      </set>
      <set comment="kpoint 68">
       <r>   0.2412  1.0000</r>
       <r>   0.2412  1.0000</r>
       <r>   4.4741  1.0000</r>
       <r>   4.4741  1.0000</r>
       <r>   4.7407  1.0000</r>
       <r>   4.7407  1.0000</r>
       <r>   8.8653  0.0000</r>
       <r>   8.8653  0.0000</r>
       <r>  13.0064  0.0000</r>
       <r>  13.0064  0.0000</r>
       <r>  13.5013  0.0000</r>
       <r>  13.5013  0.0000</r>
       <r>  16.5468  0.0000</r>
       <r>  16.5468  0.0000</r>
       <r>  17.2661  0.0000</r>
       <r>  17.2661  0.0000</r>
      </set>
      <set comment="kpoint 69">
       <r>  -0.5616  1.0000</r>
       <r>   2.3781  1.0000</r>
       <r>   2.3781  1.0000</r>
       <r>   3.8155  1.0000</r>
       <r>   5.2805  1.0000</r>
       <r>   6.6930  1.0000</r>
       <r>   6.6930  1.0000</r>
       <r>   9.5143  0.0000</r>
       <r>  12.5020  0.0000</r>
       <r>  13.8526  0.0000</r>
       <r>  13.8526  0.0000</r>
       <r>  15.1281  0.0000</r>
       <r>  15.1281  0.0000</r>
       <r>  15.8518  0.0000</r>
       <r>  17.6391  0.0000</r>
       <r>  17.6397  0.0000</r>
      </set>
      <set comment="kpoint 70">
       <r>  -0.0052  1.0000</r>
       <r>   1.4673  1.0000</r>
       <r>   2.9222  1.0000</r>
       <r>   4.2415  1.0000</r>
       <r>   4.5005  1.0000</r>
       <r>   5.8073  1.0000</r>
       <r>   7.2257  1.0000</r>
       <r>   8.6387  0.0000</r>
       <r>  13.0124  0.0000</r>
       <r>  14.1609  0.0000</r>
       <r>  14.5822  0.0000</r>
       <r>  15.5051  0.0000</r>
       <r>  15.6193  0.0000</r>
       <r>  15.8234  0.0000</r>
       <r>  16.8874  0.0000</r>
       <r>  18.7935  0.0000</r>
      </set>
      <set comment="kpoint 71">
       <r>   0.6718  1.0000</r>
       <r>   0.6718  1.0000</r>
       <r>   3.5811  1.0000</r>
       <r>   3.5811  1.0000</r>
       <r>   5.0385  1.0000</r>
       <r>   5.0385  1.0000</r>
       <r>   7.8749  1.0000</r>
       <r>   7.8749  1.0000</r>
       <r>  13.6150  0.0000</r>
       <r>  13.6150  0.0000</r>
       <r>  15.0121  0.0000</r>
       <r>  15.0121  0.0000</r>
       <r>  16.1875  0.0000</r>
       <r>  16.1875  0.0000</r>
       <r>  17.6508  0.0000</r>
       <r>  17.6508  0.0000</r>
      </set>
      <set comment="kpoint 72">
       <r>   0.5491  1.0000</r>
       <r>   2.0157  1.0000</r>
       <r>   2.0157  1.0000</r>
       <r>   3.4625  1.0000</r>
       <r>   4.9190  1.0000</r>
       <r>   6.3411  1.0000</r>
       <r>   6.3411  1.0000</r>
       <r>   7.7594  1.0000</r>
       <r>  13.5279  0.0000</r>
       <r>  14.8366  0.0000</r>
       <r>  14.8366  0.0000</r>
       <r>  16.1537  0.0000</r>
       <r>  16.2309  0.0000</r>
       <r>  16.2309  0.0000</r>
       <r>  16.8274  0.0000</r>
       <r>  18.6833  0.0000</r>
      </set>
      <set comment="kpoint 73">
       <r>   1.2235  1.0000</r>
       <r>   1.2235  1.0000</r>
       <r>   2.6824  1.0000</r>
       <r>   2.6824  1.0000</r>
       <r>   5.5703  1.0000</r>
       <r>   5.5703  1.0000</r>
       <r>   6.9925  1.0000</r>
       <r>   6.9925  1.0000</r>
       <r>  14.1412  0.0000</r>
       <r>  14.1412  0.0000</r>
       <r>  15.4555  0.0000</r>
       <r>  15.4555  0.0000</r>
       <r>  16.7223  0.0000</r>
       <r>  16.7223  0.0000</r>
       <r>  18.0342  0.0000</r>
       <r>  18.0342  0.0000</r>
      </set>
      <set comment="kpoint 74">
       <r>   1.8945  1.0000</r>
       <r>   1.8945  1.0000</r>
       <r>   1.8945  1.0000</r>
       <r>   1.8945  1.0000</r>
       <r>   6.2233  1.0000</r>
       <r>   6.2233  1.0000</r>
       <r>   6.2233  1.0000</r>
       <r>   6.2233  1.0000</r>
       <r>  14.7560  0.0000</r>
       <r>  14.7560  0.0000</r>
       <r>  14.7560  0.0000</r>
       <r>  14.7560  0.0000</r>
       <r>  18.0191  0.0000</r>
       <r>  18.0191  0.0000</r>
       <r>  18.0191  0.0000</r>
       <r>  18.0191  0.0000</r>
      </set>
      <set comment="kpoint 75">
       <r>  -0.1286  1.0000</r>
       <r>   2.8015  1.0000</r>
       <r>   2.8015  1.0000</r>
       <r>   2.8015  1.0000</r>
       <r>   5.6927  1.0000</r>
       <r>   5.6927  1.0000</r>
       <r>   5.6927  1.0000</r>
       <r>   8.5268  0.0000</r>
       <r>  14.2608  0.0000</r>
       <r>  14.2608  0.0000</r>
       <r>  14.2608  0.0000</r>
       <r>  16.2296  0.0000</r>
       <r>  16.2296  0.0000</r>
       <r>  16.2296  0.0000</r>
       <r>  18.0157  0.0000</r>
       <r>  18.0157  0.0000</r>
      </set>
      <set comment="kpoint 76">
       <r>   0.4262  1.0000</r>
       <r>   1.8941  1.0000</r>
       <r>   3.3412  1.0000</r>
       <r>   3.3412  1.0000</r>
       <r>   4.8046  1.0000</r>
       <r>   4.8046  1.0000</r>
       <r>   6.2271  1.0000</r>
       <r>   7.6468  1.0000</r>
       <r>  14.7516  0.0000</r>
       <r>  14.7516  0.0000</r>
       <r>  16.0084  0.0000</r>
       <r>  16.0084  0.0000</r>
       <r>  16.1010  0.0000</r>
       <r>  16.7156  0.0000</r>
       <r>  18.0121  0.0000</r>
       <r>  18.4673  0.0000</r>
      </set>
      <set comment="kpoint 77">
       <r>   1.1011  1.0000</r>
       <r>   1.1011  1.0000</r>
       <r>   3.8923  1.0000</r>
       <r>   3.8923  1.0000</r>
       <r>   4.1370  1.0000</r>
       <r>   4.1370  1.0000</r>
       <r>   6.8792  1.0000</r>
       <r>   6.8792  1.0000</r>
       <r>  15.1888  0.0000</r>
       <r>  15.1888  0.0000</r>
       <r>  15.5407  0.0000</r>
       <r>  15.5407  0.0000</r>
       <r>  17.3099  0.0000</r>
       <r>  17.3099  0.0000</r>
       <r>  17.9865  0.0000</r>
       <r>  17.9865  0.0000</r>
      </set>
      <set comment="kpoint 78">
       <r>   0.9788  1.0000</r>
       <r>   2.4404  1.0000</r>
       <r>   2.4404  1.0000</r>
       <r>   3.7757  1.0000</r>
       <r>   4.0149  1.0000</r>
       <r>   5.3379  1.0000</r>
       <r>   5.3379  1.0000</r>
       <r>   6.7629  1.0000</r>
       <r>  15.2597  0.0000</r>
       <r>  16.4012  0.0000</r>
       <r>  16.4012  0.0000</r>
       <r>  16.6593  0.0000</r>
       <r>  16.6593  0.0000</r>
       <r>  17.2065  0.0000</r>
       <r>  17.7062  0.0000</r>
       <r>  19.0102  0.0000</r>
      </set>
      <set comment="kpoint 79">
       <r>   1.6511  1.0000</r>
       <r>   1.6511  1.0000</r>
       <r>   3.1025  1.0000</r>
       <r>   3.1025  1.0000</r>
       <r>   4.5653  1.0000</r>
       <r>   4.5653  1.0000</r>
       <r>   5.9922  1.0000</r>
       <r>   5.9922  1.0000</r>
       <r>  15.8421  0.0000</r>
       <r>  15.8421  0.0000</r>
       <r>  17.0581  0.0000</r>
       <r>  17.0581  0.0000</r>
       <r>  17.1013  0.0000</r>
       <r>  17.1013  0.0000</r>
       <r>  18.3940  0.0000</r>
       <r>  18.3940  0.0000</r>
      </set>
      <set comment="kpoint 80">
       <r>   2.3197  1.0000</r>
       <r>   2.3197  1.0000</r>
       <r>   2.3197  1.0000</r>
       <r>   2.3197  1.0000</r>
       <r>   5.2191  1.0000</r>
       <r>   5.2191  1.0000</r>
       <r>   5.2191  1.0000</r>
       <r>   5.2191  1.0000</r>
       <r>  16.4345  0.0000</r>
       <r>  16.4345  0.0000</r>
       <r>  16.4345  0.0000</r>
       <r>  16.4345  0.0000</r>
       <r>  18.3995  0.0000</r>
       <r>  18.3995  0.0000</r>
       <r>  18.3995  0.0000</r>
       <r>  18.3995  0.0000</r>
      </set>
      <set comment="kpoint 81">
       <r>   1.5293  1.0000</r>
       <r>   2.9823  1.0000</r>
       <r>   2.9823  1.0000</r>
       <r>   2.9823  1.0000</r>
       <r>   4.4466  1.0000</r>
       <r>   4.4466  1.0000</r>
       <r>   4.4466  1.0000</r>
       <r>   5.8751  1.0000</r>
       <r>  17.0477  0.0000</r>
       <r>  17.0477  0.0000</r>
       <r>  17.0477  0.0000</r>
       <r>  17.6942  0.0000</r>
       <r>  17.6942  0.0000</r>
       <r>  17.6942  0.0000</r>
       <r>  18.9953  0.0000</r>
       <r>  18.9953  0.0000</r>
      </set>
      <set comment="kpoint 82">
       <r>   2.1985  1.0000</r>
       <r>   2.1985  1.0000</r>
       <r>   3.5425  1.0000</r>
       <r>   3.5425  1.0000</r>
       <r>   3.7696  1.0000</r>
       <r>   3.7696  1.0000</r>
       <r>   5.1012  1.0000</r>
       <r>   5.1012  1.0000</r>
       <r>  17.4876  0.0000</r>
       <r>  17.4876  0.0000</r>
       <r>  17.6381  0.0000</r>
       <r>  17.6381  0.0000</r>
       <r>  18.2906  0.0000</r>
       <r>  18.2906  0.0000</r>
       <r>  18.8092  0.0000</r>
       <r>  18.8092  0.0000</r>
      </set>
      <set comment="kpoint 83">
       <r>   2.8623  1.0000</r>
       <r>   2.8623  1.0000</r>
       <r>   2.8623  1.0000</r>
       <r>   2.8623  1.0000</r>
       <r>   4.3268  1.0000</r>
       <r>   4.3268  1.0000</r>
       <r>   4.3268  1.0000</r>
       <r>   4.3268  1.0000</r>
       <r>  18.0961  0.0000</r>
       <r>  18.0961  0.0000</r>
       <r>  18.0961  0.0000</r>
       <r>  18.0961  0.0000</r>
       <r>  18.8888  0.0000</r>
       <r>  18.8888  0.0000</r>
       <r>  18.8888  0.0000</r>
       <r>  18.8888  0.0000</r>
      </set>
      <set comment="kpoint 84">
       <r>   3.4259  1.0000</r>
       <r>   3.4259  1.0000</r>
       <r>   3.4259  1.0000</r>
       <r>   3.4259  1.0000</r>
       <r>   3.6464  1.0000</r>
       <r>   3.6464  1.0000</r>
       <r>   3.6464  1.0000</r>
       <r>   3.6464  1.0000</r>
       <r>  19.4706  0.0000</r>
       <r>  19.4706  0.0000</r>
       <r>  19.4714  0.0000</r>
       <r>  19.4719  0.0000</r>
       <r>  19.4727  0.0000</r>
       <r>  19.4733  0.0000</r>
       <r>  19.4752  0.0000</r>
       <r>  19.4979  0.0000</r>
      </set>
     </set>
    </set>
   </array>
  </eigenvalues>
 </calculation>
 <structure name="finalpos" >
  <crystal>
   <varray name="basis" >
    <v>       4.03730637      0.00000000      0.00000000</v>
    <v>       0.00000000      4.03730637      0.00000000</v>
    <v>       0.00000000      0.00000000      4.03730637</v>
   </varray>
   <i name="volume">     65.80745885</i>
   <varray name="rec_basis" >
    <v>       0.24768990      0.00000000      0.00000000</v>
    <v>       0.00000000      0.24768990      0.00000000</v>
    <v>       0.00000000      0.00000000      0.24768990</v>
   </varray>
  </crystal>
  <varray name="positions" >
   <v>       0.50000000      0.50000000      0.00000000</v>
   <v>       0.50000000      0.00000000      0.50000000</v>
   <v>       0.00000000      0.50000000      0.50000000</v>
   <v>       0.00000000      0.00000000      0.00000000</v>
  </varray>
 </structure>
</modeling>
