32   
1    

1    
  0.0100000000000000   0.0000000000000000   0.0000000000000000
  -0.0322472200   -0.0000000000    0.0000000000
   0.0018252800    0.0000000000   -0.0000000000
  -0.0002939700    0.0000000000   -0.0000000000
   0.0005705400   -0.0000000000    0.0000000000
  -0.0002939700    0.0000000000   -0.0000000000
   0.0005705400   -0.0000000000    0.0000000000
   0.0002963900   -0.0000000000    0.0000000000
  -0.0006724200   -0.0000000000   -0.0000000000
  -0.0013690800    0.0000132300   -0.0000132300
  -0.0005790800    0.0000012800   -0.0000012800
  -0.0013690800   -0.0000132300   -0.0000132300
  -0.0005790800   -0.0000012800   -0.0000012800
  -0.0013690800    0.0000132300    0.0000132300
  -0.0005790800    0.0000012800    0.0000012800
  -0.0013690800   -0.0000132300    0.0000132300
  -0.0005790800   -0.0000012800    0.0000012800
   0.0047049900    0.0000000000   -0.0046582400
   0.0048205100   -0.0000000000    0.0048162300
  -0.0000092100   -0.0000000000    0.0000989500
  -0.0000069100    0.0000000000   -0.0000984200
   0.0047049900    0.0000000000    0.0046582400
   0.0048205100    0.0000000000   -0.0048162300
  -0.0000092100   -0.0000000000   -0.0000989500
  -0.0000069100    0.0000000000    0.0000984200
   0.0047049900    0.0046582400   -0.0000000000
   0.0048205100   -0.0048162300   -0.0000000000
   0.0047049900   -0.0046582400    0.0000000000
   0.0048205100    0.0048162300    0.0000000000
  -0.0000092100   -0.0000989500    0.0000000000
  -0.0000069100    0.0000984200   -0.0000000000
  -0.0000092100    0.0000989500    0.0000000000
  -0.0000069100   -0.0000984200    0.0000000000
