mesh: [    48,    48,    48 ]
nqpoint: 2600   
reciprocal_lattice:
- [   0.24047563,   0.00000000,   0.00000000 ] # a*
- [   0.00000000,   0.24047563,   0.00000000 ] # b*
- [   0.00000000,   0.00000000,   0.24047563 ] # c*
natom:   4      
lattice:
- [     4.158425560763000,     0.000000000000000,     0.000000000000000 ] # a
- [     0.000000000000000,     4.158425560763000,     0.000000000000000 ] # b
- [     0.000000000000000,     0.000000000000000,     4.158425560763000 ] # c
points:
- symbol: Al # 1
  coordinates: [  0.500000000000000,  0.500000000000000,  0.000000000000000 ]
  mass: 26.981539
- symbol: Al # 2
  coordinates: [  0.500000000000000,  0.000000000000000,  0.500000000000000 ]
  mass: 26.981539
- symbol: Al # 3
  coordinates: [  0.000000000000000,  0.500000000000000,  0.500000000000000 ]
  mass: 26.981539
- symbol: Al # 4
  coordinates: [  0.000000000000000,  0.000000000000000,  0.000000000000000 ]
  mass: 26.981539
phonon:
- q-position: [    0.0104167,    0.0104167,    0.0104167 ]
  weight: 8    
  band:
  - # 1
    frequency:     0.1036505434
  - # 2
    frequency:     0.1036505434
  - # 3
    frequency:     0.2544049247
  - # 4
    frequency:     4.5094815513
  - # 5
    frequency:     4.5094815513
  - # 6
    frequency:     4.5094815513
  - # 7
    frequency:     4.5134683039
  - # 8
    frequency:     4.5134683039
  - # 9
    frequency:     4.5134683039
  - # 10
    frequency:     8.2984568084
  - # 11
    frequency:     8.2984568084
  - # 12
    frequency:     8.2984568084

- q-position: [    0.0312500,    0.0104167,    0.0104167 ]
  weight: 24   
  band:
  - # 1
    frequency:     0.2100300080
  - # 2
    frequency:     0.2285456617
  - # 3
    frequency:     0.4689741630
  - # 4
    frequency:     4.5044289476
  - # 5
    frequency:     4.5084097814
  - # 6
    frequency:     4.5148957864
  - # 7
    frequency:     4.5148957864
  - # 8
    frequency:     4.5273161683
  - # 9
    frequency:     4.5273161683
  - # 10
    frequency:     8.2895602224
  - # 11
    frequency:     8.2921377757
  - # 12
    frequency:     8.2921377757

- q-position: [    0.0520833,    0.0104167,    0.0104167 ]
  weight: 24   
  band:
  - # 1
    frequency:     0.3529047256
  - # 2
    frequency:     0.3675062255
  - # 3
    frequency:     0.7182603383
  - # 4
    frequency:     4.4943312892
  - # 5
    frequency:     4.4983002673
  - # 6
    frequency:     4.5290339034
  - # 7
    frequency:     4.5290339034
  - # 8
    frequency:     4.5513945072
  - # 9
    frequency:     4.5513945072
  - # 10
    frequency:     8.2717767757
  - # 11
    frequency:     8.2795131752
  - # 12
    frequency:     8.2795131752

- q-position: [    0.0729167,    0.0104167,    0.0104167 ]
  weight: 24   
  band:
  - # 1
    frequency:     0.4977530103
  - # 2
    frequency:     0.5088451963
  - # 3
    frequency:     0.9774074046
  - # 4
    frequency:     4.4792036463
  - # 5
    frequency:     4.4831547958
  - # 6
    frequency:     4.5512062362
  - # 7
    frequency:     4.5512062362
  - # 8
    frequency:     4.5857893178
  - # 9
    frequency:     4.5857893178
  - # 10
    frequency:     8.2451259068
  - # 11
    frequency:     8.2606099578
  - # 12
    frequency:     8.2606099578

- q-position: [    0.0937500,    0.0104167,    0.0104167 ]
  weight: 24   
  band:
  - # 1
    frequency:     0.6420289695
  - # 2
    frequency:     0.6506664131
  - # 3
    frequency:     1.2399422640
  - # 4
    frequency:     4.4590685552
  - # 5
    frequency:     4.4629958490
  - # 6
    frequency:     4.5806754378
  - # 7
    frequency:     4.5806754378
  - # 8
    frequency:     4.6303609377
  - # 9
    frequency:     4.6303609377
  - # 10
    frequency:     8.2096367443
  - # 11
    frequency:     8.2354686030
  - # 12
    frequency:     8.2354686030

- q-position: [    0.1145833,    0.0104167,    0.0104167 ]
  weight: 24   
  band:
  - # 1
    frequency:     0.7854579048
  - # 2
    frequency:     0.7923296688
  - # 3
    frequency:     1.5033750420
  - # 4
    frequency:     4.4339559359
  - # 5
    frequency:     4.4378532749
  - # 6
    frequency:     4.6166513383
  - # 7
    frequency:     4.6166513383
  - # 8
    frequency:     4.6847806135
  - # 9
    frequency:     4.6847806135
  - # 10
    frequency:     8.1653480715
  - # 11
    frequency:     8.2041431829
  - # 12
    frequency:     8.2041431829

- q-position: [    0.1354167,    0.0104167,    0.0104167 ]
  weight: 24   
  band:
  - # 1
    frequency:     0.9279634172
  - # 2
    frequency:     0.9335030376
  - # 3
    frequency:     1.7664660182
  - # 4
    frequency:     4.4039029832
  - # 5
    frequency:     4.4077641784
  - # 6
    frequency:     4.6582831977
  - # 7
    frequency:     4.6582831977
  - # 8
    frequency:     4.7485760093
  - # 9
    frequency:     4.7485760093
  - # 10
    frequency:     8.1123082793
  - # 11
    frequency:     8.1667014517
  - # 12
    frequency:     8.1667014517

- q-position: [    0.1562500,    0.0104167,    0.0104167 ]
  weight: 24   
  band:
  - # 1
    frequency:     1.0694688206
  - # 2
    frequency:     1.0739595841
  - # 3
    frequency:     2.0284572823
  - # 4
    frequency:     4.3689540320
  - # 5
    frequency:     4.3727727865
  - # 6
    frequency:     4.7046621526
  - # 7
    frequency:     4.7046621526
  - # 8
    frequency:     4.8211701235
  - # 9
    frequency:     4.8211701235
  - # 10
    frequency:     8.0505753084
  - # 11
    frequency:     8.1232249597
  - # 12
    frequency:     8.1232249597

- q-position: [    0.1770833,    0.0104167,    0.0104167 ]
  weight: 24   
  band:
  - # 1
    frequency:     1.2098803451
  - # 2
    frequency:     1.2135158640
  - # 3
    frequency:     2.2888065666
  - # 4
    frequency:     4.3291603981
  - # 5
    frequency:     4.3329302894
  - # 6
    frequency:     4.7548326929
  - # 7
    frequency:     4.7548326929
  - # 8
    frequency:     4.9019121600
  - # 9
    frequency:     4.9019121600
  - # 10
    frequency:     7.9802165793
  - # 11
    frequency:     8.0738091961
  - # 12
    frequency:     8.0738091961

- q-position: [    0.1979167,    0.0104167,    0.0104167 ]
  weight: 24   
  band:
  - # 1
    frequency:     1.3490907655
  - # 2
    frequency:     1.3520089273
  - # 3
    frequency:     2.5470799277
  - # 4
    frequency:     4.2845801950
  - # 5
    frequency:     4.2882946571
  - # 6
    frequency:     4.8078092387
  - # 7
    frequency:     4.8078092387
  - # 8
    frequency:     4.9901020391
  - # 9
    frequency:     4.9901020391
  - # 10
    frequency:     7.9013089122
  - # 11
    frequency:     8.0185637626
  - # 12
    frequency:     8.0185637626

- q-position: [    0.2187500,    0.0104167,    0.0104167 ]
  weight: 24   
  band:
  - # 1
    frequency:     1.4869837656
  - # 2
    frequency:     1.4892863798
  - # 3
    frequency:     2.8029032293
  - # 4
    frequency:     4.2352781286
  - # 5
    frequency:     4.2389304337
  - # 6
    frequency:     4.8625944936
  - # 7
    frequency:     4.8625944936
  - # 8
    frequency:     5.0850101558
  - # 9
    frequency:     5.0850101558
  - # 10
    frequency:     7.8139384356
  - # 11
    frequency:     7.9576125829
  - # 12
    frequency:     7.9576125829

- q-position: [    0.2395833,    0.0104167,    0.0104167 ]
  weight: 24   
  band:
  - # 1
    frequency:     1.6234369720
  - # 2
    frequency:     1.6252016144
  - # 3
    frequency:     3.0559381933
  - # 4
    frequency:     4.1813252708
  - # 5
    frequency:     4.1849085112
  - # 6
    frequency:     4.9181974298
  - # 7
    frequency:     4.9181974298
  - # 8
    frequency:     5.1858933955
  - # 9
    frequency:     5.1858933955
  - # 10
    frequency:     7.7182004840
  - # 11
    frequency:     7.8910941490
  - # 12
    frequency:     7.8910941490

- q-position: [    0.2604167,    0.0104167,    0.0104167 ]
  weight: 24   
  band:
  - # 1
    frequency:     1.7583239045
  - # 2
    frequency:     1.7596113456
  - # 3
    frequency:     3.3058697476
  - # 4
    frequency:     4.1227988145
  - # 5
    frequency:     4.1263058837
  - # 6
    frequency:     4.9736497106
  - # 7
    frequency:     4.9736497106
  - # 8
    frequency:     5.2920080057
  - # 9
    frequency:     5.2920080057
  - # 10
    frequency:     7.6141994864
  - # 11
    frequency:     7.8191618122
  - # 12
    frequency:     7.8191618122

- q-position: [    0.2812500,    0.0104167,    0.0104167 ]
  weight: 24   
  band:
  - # 1
    frequency:     1.8915152352
  - # 2
    frequency:     1.8923742661
  - # 3
    frequency:     3.5523989835
  - # 4
    frequency:     4.0597818107
  - # 5
    frequency:     4.0632053837
  - # 6
    frequency:     5.0280199980
  - # 7
    frequency:     5.0280199980
  - # 8
    frequency:     5.4026197352
  - # 9
    frequency:     5.4026197352
  - # 10
    frequency:     7.5020488446
  - # 11
    frequency:     7.7419841216
  - # 12
    frequency:     7.7419841216

- q-position: [    0.3020833,    0.0104167,    0.0104167 ]
  weight: 24   
  band:
  - # 1
    frequency:     2.0228796325
  - # 2
    frequency:     2.0233502983
  - # 3
    frequency:     3.7952390797
  - # 4
    frequency:     3.9923628898
  - # 5
    frequency:     3.9956954027
  - # 6
    frequency:     5.0804259954
  - # 7
    frequency:     5.0804259954
  - # 8
    frequency:     5.5170115848
  - # 9
    frequency:     5.5170115848
  - # 10
    frequency:     7.3818708017
  - # 11
    frequency:     7.6597452167
  - # 12
    frequency:     7.6597452167

- q-position: [    0.3229167,    0.0104167,    0.0104167 ]
  weight: 24   
  band:
  - # 1
    frequency:     2.1522843565
  - # 2
    frequency:     2.1524001821
  - # 3
    frequency:     3.9206359703
  - # 4
    frequency:     3.9238695981
  - # 5
    frequency:     4.0341128818
  - # 6
    frequency:     5.1300443108
  - # 7
    frequency:     5.1300443108
  - # 8
    frequency:     5.6344894988
  - # 9
    frequency:     5.6344894988
  - # 10
    frequency:     7.2537963024
  - # 11
    frequency:     7.5726452788
  - # 12
    frequency:     7.5726452788

- q-position: [    0.3437500,    0.0104167,    0.0104167 ]
  weight: 24   
  band:
  - # 1
    frequency:     2.2793852657
  - # 2
    frequency:     2.2795957067
  - # 3
    frequency:     3.8446999556
  - # 4
    frequency:     3.8478265884
  - # 5
    frequency:     4.2687514444
  - # 6
    frequency:     5.1761183550
  - # 7
    frequency:     5.1761183550
  - # 8
    frequency:     5.7543863203
  - # 9
    frequency:     5.7543863203
  - # 10
    frequency:     7.1179648448
  - # 11
    frequency:     7.4809010509
  - # 12
    frequency:     7.4809010509

- q-position: [    0.3645833,    0.0104167,    0.0104167 ]
  weight: 24   
  band:
  - # 1
    frequency:     2.4041674279
  - # 2
    frequency:     2.4046793855
  - # 3
    frequency:     3.7646584217
  - # 4
    frequency:     3.7676696380
  - # 5
    frequency:     4.4988931573
  - # 6
    frequency:     5.2179645424
  - # 7
    frequency:     5.2179645424
  - # 8
    frequency:     5.8760643198
  - # 9
    frequency:     5.8760643198
  - # 10
    frequency:     6.9745243244
  - # 11
    frequency:     7.3847464299
  - # 12
    frequency:     7.3847464299

- q-position: [    0.3854167,    0.0104167,    0.0104167 ]
  weight: 24   
  band:
  - # 1
    frequency:     2.5266090904
  - # 2
    frequency:     2.5274008119
  - # 3
    frequency:     3.6806192983
  - # 4
    frequency:     3.6835063348
  - # 5
    frequency:     4.7242832365
  - # 6
    frequency:     5.2549770725
  - # 7
    frequency:     5.2549770725
  - # 8
    frequency:     5.9989165786
  - # 9
    frequency:     5.9989165786
  - # 10
    frequency:     6.8236308716
  - # 11
    frequency:     7.2844331465
  - # 12
    frequency:     7.2844331465

- q-position: [    0.4062500,    0.0104167,    0.0104167 ]
  weight: 24   
  band:
  - # 1
    frequency:     2.6465732944
  - # 2
    frequency:     2.6476254105
  - # 3
    frequency:     3.5926945454
  - # 4
    frequency:     3.5954482628
  - # 5
    frequency:     4.9446734482
  - # 6
    frequency:     5.2866315550
  - # 7
    frequency:     5.2866315550
  - # 8
    frequency:     6.1223674722
  - # 9
    frequency:     6.1223674722
  - # 10
    frequency:     6.6654486823
  - # 11
    frequency:     7.1802315495
  - # 12
    frequency:     7.1802315495

- q-position: [    0.4270833,    0.0104167,    0.0104167 ]
  weight: 24   
  band:
  - # 1
    frequency:     2.7639238281
  - # 2
    frequency:     2.7652188895
  - # 3
    frequency:     3.5009998278
  - # 4
    frequency:     3.5036106705
  - # 5
    frequency:     5.1598219866
  - # 6
    frequency:     5.3124877100
  - # 7
    frequency:     5.3124877100
  - # 8
    frequency:     6.2458724254
  - # 9
    frequency:     6.2458724254
  - # 10
    frequency:     6.5001498446
  - # 11
    frequency:     7.0724315470
  - # 12
    frequency:     7.0724315470

- q-position: [    0.4479167,    0.0104167,    0.0104167 ]
  weight: 24   
  band:
  - # 1
    frequency:     2.8785253921
  - # 2
    frequency:     2.8800475163
  - # 3
    frequency:     3.4056541905
  - # 4
    frequency:     3.4081121387
  - # 5
    frequency:     5.3321913377
  - # 6
    frequency:     5.3321913377
  - # 7
    frequency:     5.3694934547
  - # 8
    frequency:     6.3279141605
  - # 9
    frequency:     6.3689169252
  - # 10
    frequency:     6.3689169252
  - # 11
    frequency:     6.9613439090
  - # 12
    frequency:     6.9613439090

- q-position: [    0.4687500,    0.0104167,    0.0104167 ]
  weight: 24   
  band:
  - # 1
    frequency:     2.9902437978
  - # 2
    frequency:     2.9919783968
  - # 3
    frequency:     3.3067797366
  - # 4
    frequency:     3.3090742491
  - # 5
    frequency:     5.3454757163
  - # 6
    frequency:     5.3454757163
  - # 7
    frequency:     5.5734589132
  - # 8
    frequency:     6.1489289661
  - # 9
    frequency:     6.4910136764
  - # 10
    frequency:     6.4910136764
  - # 11
    frequency:     6.8473031945
  - # 12
    frequency:     6.8473031945

- q-position: [    0.4895833,    0.0104167,    0.0104167 ]
  weight: 24   
  band:
  - # 1
    frequency:     3.0989461934
  - # 2
    frequency:     3.1008797607
  - # 3
    frequency:     3.2045013113
  - # 4
    frequency:     3.2066212557
  - # 5
    frequency:     5.3521625493
  - # 6
    frequency:     5.3521625493
  - # 7
    frequency:     5.7714959784
  - # 8
    frequency:     5.9633889508
  - # 9
    frequency:     6.6116765288
  - # 10
    frequency:     6.6116765288
  - # 11
    frequency:     6.7306937896
  - # 12
    frequency:     6.7306937896

- q-position: [    0.0312500,    0.0312500,    0.0104167 ]
  weight: 24   
  band:
  - # 1
    frequency:     0.2360228309
  - # 2
    frequency:     0.3028149440
  - # 3
    frequency:     0.6315992614
  - # 4
    frequency:     4.5098410486
  - # 5
    frequency:     4.5098410486
  - # 6
    frequency:     4.5128270632
  - # 7
    frequency:     4.5222517892
  - # 8
    frequency:     4.5222517892
  - # 9
    frequency:     4.5484539725
  - # 10
    frequency:     8.2832899899
  - # 11
    frequency:     8.2832899899
  - # 12
    frequency:     8.2858274841

- q-position: [    0.0520833,    0.0312500,    0.0104167 ]
  weight: 48   
  band:
  - # 1
    frequency:     0.3409284886
  - # 2
    frequency:     0.4181256529
  - # 3
    frequency:     0.8452243941
  - # 4
    frequency:     4.4997389647
  - # 5
    frequency:     4.5121305880
  - # 6
    frequency:     4.5198683013
  - # 7
    frequency:     4.5239606071
  - # 8
    frequency:     4.5463321482
  - # 9
    frequency:     4.5792491040
  - # 10
    frequency:     8.2656040801
  - # 11
    frequency:     8.2707632010
  - # 12
    frequency:     8.2732202846

- q-position: [    0.0729167,    0.0312500,    0.0104167 ]
  weight: 48   
  band:
  - # 1
    frequency:     0.4770325438
  - # 2
    frequency:     0.5471017186
  - # 3
    frequency:     1.0793384249
  - # 4
    frequency:     4.4846042898
  - # 5
    frequency:     4.4969676530
  - # 6
    frequency:     4.5357714328
  - # 7
    frequency:     4.5460937382
  - # 8
    frequency:     4.5807399841
  - # 9
    frequency:     4.6193573676
  - # 10
    frequency:     8.2390993603
  - # 11
    frequency:     8.2520072321
  - # 12
    frequency:     8.2543429660

- q-position: [    0.0937500,    0.0312500,    0.0104167 ]
  weight: 48   
  band:
  - # 1
    frequency:     0.6207905641
  - # 2
    frequency:     0.6816394520
  - # 3
    frequency:     1.3238878675
  - # 4
    frequency:     4.4644590862
  - # 5
    frequency:     4.4767855517
  - # 6
    frequency:     4.5599963073
  - # 7
    frequency:     4.5755015527
  - # 8
    frequency:     4.6253355986
  - # 9
    frequency:     4.6684578513
  - # 10
    frequency:     8.2038047777
  - # 11
    frequency:     8.2270632074
  - # 12
    frequency:     8.2292357663

- q-position: [    0.1145833,    0.0312500,    0.0104167 ]
  weight: 48   
  band:
  - # 1
    frequency:     0.7659275201
  - # 2
    frequency:     0.8186226802
  - # 3
    frequency:     1.5740066876
  - # 4
    frequency:     4.4393326392
  - # 5
    frequency:     4.4516142548
  - # 6
    frequency:     4.5918324857
  - # 7
    frequency:     4.6113936197
  - # 8
    frequency:     4.6797884921
  - # 9
    frequency:     4.7261613631
  - # 10
    frequency:     8.1597588843
  - # 11
    frequency:     8.1959860728
  - # 12
    frequency:     8.1979524403

- q-position: [    0.1354167,    0.0312500,    0.0104167 ]
  weight: 48   
  band:
  - # 1
    frequency:     0.9106385470
  - # 2
    frequency:     0.9566036593
  - # 3
    frequency:     1.8269298115
  - # 4
    frequency:     4.4092613461
  - # 5
    frequency:     4.4214910342
  - # 6
    frequency:     4.6304245762
  - # 7
    frequency:     4.6529192029
  - # 8
    frequency:     4.7436239544
  - # 9
    frequency:     4.7920215400
  - # 10
    frequency:     8.1070097992
  - # 11
    frequency:     8.1588446952
  - # 12
    frequency:     8.1605603509

- q-position: [    0.1562500,    0.0312500,    0.0104167 ]
  weight: 48   
  band:
  - # 1
    frequency:     1.0543232016
  - # 2
    frequency:     1.0947906205
  - # 3
    frequency:     2.0809274601
  - # 4
    frequency:     4.3742885782
  - # 5
    frequency:     4.3864603382
  - # 6
    frequency:     4.6747976118
  - # 7
    frequency:     4.6991692427
  - # 8
    frequency:     4.8162625098
  - # 9
    frequency:     4.8655495565
  - # 10
    frequency:     8.0456151619
  - # 11
    frequency:     8.1157219924
  - # 12
    frequency:     8.1171405880

- q-position: [    0.1770833,    0.0312500,    0.0104167 ]
  weight: 48   
  band:
  - # 1
    frequency:     1.1967362548
  - # 2
    frequency:     1.2326865855
  - # 3
    frequency:     2.3348285603
  - # 4
    frequency:     4.3344645168
  - # 5
    frequency:     4.3465736439
  - # 6
    frequency:     4.7238868729
  - # 7
    frequency:     4.7491876760
  - # 8
    frequency:     4.8970510015
  - # 9
    frequency:     4.9462255316
  - # 10
    frequency:     7.9756420768
  - # 11
    frequency:     8.0667150922
  - # 12
    frequency:     8.0677881160

- q-position: [    0.1979167,    0.0312500,    0.0104167 ]
  weight: 48   
  band:
  - # 1
    frequency:     1.3377406216
  - # 2
    frequency:     1.3699415730
  - # 3
    frequency:     2.5877821974
  - # 4
    frequency:     4.2898459651
  - # 5
    frequency:     4.3018892882
  - # 6
    frequency:     4.7765707097
  - # 7
    frequency:     4.8019879744
  - # 8
    frequency:     4.9852871826
  - # 9
    frequency:     5.0335059136
  - # 10
    frequency:     7.8971670495
  - # 11
    frequency:     8.0119355274
  - # 12
    frequency:     8.0126119538

- q-position: [    0.2187500,    0.0312500,    0.0104167 ]
  weight: 48   
  band:
  - # 1
    frequency:     1.4772294354
  - # 2
    frequency:     1.5062850888
  - # 3
    frequency:     2.8391302134
  - # 4
    frequency:     4.2404961352
  - # 5
    frequency:     4.2524722781
  - # 6
    frequency:     4.8317037265
  - # 7
    frequency:     4.8565714944
  - # 8
    frequency:     5.0802395046
  - # 9
    frequency:     5.1268277939
  - # 10
    frequency:     7.8102759145
  - # 11
    frequency:     7.9515094675
  - # 12
    frequency:     7.9517353910

- q-position: [    0.2395833,    0.0312500,    0.0104167 ]
  weight: 48   
  band:
  - # 1
    frequency:     1.6151006493
  - # 2
    frequency:     1.6414924673
  - # 3
    frequency:     3.0883357687
  - # 4
    frequency:     4.1864844147
  - # 5
    frequency:     4.1983940839
  - # 6
    frequency:     4.8881476068
  - # 7
    frequency:     4.9119454616
  - # 8
    frequency:     5.1811631427
  - # 9
    frequency:     5.2256117222
  - # 10
    frequency:     7.7150637564
  - # 11
    frequency:     7.8852962435
  - # 12
    frequency:     7.8855779929

- q-position: [    0.2604167,    0.0312500,    0.0104167 ]
  weight: 48   
  band:
  - # 1
    frequency:     1.7512491047
  - # 2
    frequency:     1.7753668685
  - # 3
    frequency:     3.3349416051
  - # 4
    frequency:     4.1278861106
  - # 5
    frequency:     4.1397324137
  - # 6
    frequency:     4.9447974746
  - # 7
    frequency:     4.9671393882
  - # 8
    frequency:     5.2873128661
  - # 9
    frequency:     5.3292644983
  - # 10
    frequency:     7.6116348232
  - # 11
    frequency:     7.8134471548
  - # 12
    frequency:     7.8142974152

- q-position: [    0.2812500,    0.0312500,    0.0104167 ]
  weight: 48   
  band:
  - # 1
    frequency:     1.8855646093
  - # 2
    frequency:     1.9077290870
  - # 3
    frequency:     3.5785447760
  - # 4
    frequency:     4.0647821758
  - # 5
    frequency:     4.0765709733
  - # 6
    frequency:     5.0006026895
  - # 7
    frequency:     5.0212193692
  - # 8
    frequency:     5.3979531658
  - # 9
    frequency:     5.4371828479
  - # 10
    frequency:     7.5001024338
  - # 11
    frequency:     7.7363559489
  - # 12
    frequency:     7.7378396492

- q-position: [    0.3020833,    0.0312500,    0.0104167 ]
  weight: 48   
  band:
  - # 1
    frequency:     2.0179320561
  - # 2
    frequency:     2.0384115111
  - # 3
    frequency:     3.8187808653
  - # 4
    frequency:     3.9972589191
  - # 5
    frequency:     4.0089992114
  - # 6
    frequency:     5.0545820098
  - # 7
    frequency:     5.0733001092
  - # 8
    frequency:     5.5123659862
  - # 9
    frequency:     5.5487581909
  - # 10
    frequency:     7.3805888810
  - # 11
    frequency:     7.6542060414
  - # 12
    frequency:     7.6563926432

- q-position: [    0.3229167,    0.0312500,    0.0104167 ]
  weight: 48   
  band:
  - # 1
    frequency:     2.1482321702
  - # 2
    frequency:     2.1672544084
  - # 3
    frequency:     3.9254077005
  - # 4
    frequency:     3.9371120527
  - # 5
    frequency:     4.0553138641
  - # 6
    frequency:     5.1058338189
  - # 7
    frequency:     5.1225547683
  - # 8
    frequency:     5.6298563845
  - # 9
    frequency:     5.6633821692
  - # 10
    frequency:     7.2532253292
  - # 11
    frequency:     7.5671969193
  - # 12
    frequency:     7.5701608754

- q-position: [    0.3437500,    0.0312500,    0.0104167 ]
  weight: 48   
  band:
  - # 1
    frequency:     2.2763423790
  - # 2
    frequency:     2.2941035779
  - # 3
    frequency:     3.8493246165
  - # 4
    frequency:     3.8610096182
  - # 5
    frequency:     4.2878295305
  - # 6
    frequency:     5.1535424883
  - # 7
    frequency:     5.1682228424
  - # 8
    frequency:     5.7497564377
  - # 9
    frequency:     5.7804523558
  - # 10
    frequency:     7.1181517101
  - # 11
    frequency:     7.4755447042
  - # 12
    frequency:     7.4793659286

- q-position: [    0.3645833,    0.0312500,    0.0104167 ]
  weight: 48   
  band:
  - # 1
    frequency:     2.4021376389
  - # 2
    frequency:     2.4188088390
  - # 3
    frequency:     3.7691101771
  - # 4
    frequency:     3.7807969359
  - # 5
    frequency:     4.5160309509
  - # 6
    frequency:     5.1969819872
  - # 7
    frequency:     5.2096163506
  - # 8
    frequency:     5.8714276898
  - # 9
    frequency:     5.8993775616
  - # 10
    frequency:     6.9755166170
  - # 11
    frequency:     7.3794828251
  - # 12
    frequency:     7.3842471636

- q-position: [    0.3854167,    0.0312500,    0.0104167 ]
  weight: 48   
  band:
  - # 1
    frequency:     2.5254911752
  - # 2
    frequency:     2.5412230546
  - # 3
    frequency:     3.6848689792
  - # 4
    frequency:     3.6965836403
  - # 5
    frequency:     4.7396355311
  - # 6
    frequency:     5.2355176911
  - # 7
    frequency:     5.2461246110
  - # 8
    frequency:     5.9942623848
  - # 9
    frequency:     6.0195822920
  - # 10
    frequency:     6.8254772001
  - # 11
    frequency:     7.2792628544
  - # 12
    frequency:     7.2850625380

- q-position: [    0.4062500,    0.0312500,    0.0104167 ]
  weight: 48   
  band:
  - # 1
    frequency:     2.6462751328
  - # 2
    frequency:     2.6612015090
  - # 3
    frequency:     3.5967093790
  - # 4
    frequency:     3.6084836635
  - # 5
    frequency:     4.9583729346
  - # 6
    frequency:     5.2686070977
  - # 7
    frequency:     5.2772178747
  - # 8
    frequency:     6.1176836206
  - # 9
    frequency:     6.1405100114
  - # 10
    frequency:     6.6681990656
  - # 11
    frequency:     7.1751556523
  - # 12
    frequency:     7.1820896905

- q-position: [    0.4270833,    0.0312500,    0.0104167 ]
  weight: 48   
  band:
  - # 1
    frequency:     2.7643611487
  - # 2
    frequency:     2.7786015326
  - # 3
    frequency:     3.5047431681
  - # 4
    frequency:     3.5166149190
  - # 5
    frequency:     5.1719836636
  - # 6
    frequency:     5.2957999334
  - # 7
    frequency:     5.3024500549
  - # 8
    frequency:     6.2411442528
  - # 9
    frequency:     6.2616247244
  - # 10
    frequency:     6.5038561807
  - # 11
    frequency:     7.0674532807
  - # 12
    frequency:     7.0756276830

- q-position: [    0.4479167,    0.0312500,    0.0104167 ]
  weight: 48   
  band:
  - # 1
    frequency:     2.8796208586
  - # 2
    frequency:     2.8932823056
  - # 3
    frequency:     3.4090852534
  - # 4
    frequency:     3.4210989791
  - # 5
    frequency:     5.3167379492
  - # 6
    frequency:     5.3214607589
  - # 7
    frequency:     5.3802180814
  - # 8
    frequency:     6.3326307905
  - # 9
    frequency:     6.3641230996
  - # 10
    frequency:     6.3824089957
  - # 11
    frequency:     6.9564736471
  - # 12
    frequency:     6.9660010227

- q-position: [    0.4687500,    0.0312500,    0.0104167 ]
  weight: 48   
  band:
  - # 1
    frequency:     2.9919263479
  - # 2
    frequency:     3.0051047990
  - # 3
    frequency:     3.3098533450
  - # 4
    frequency:     3.3220607508
  - # 5
    frequency:     5.3311545733
  - # 6
    frequency:     5.3339767928
  - # 7
    frequency:     5.5828357456
  - # 8
    frequency:     6.1547133502
  - # 9
    frequency:     6.4861086053
  - # 10
    frequency:     6.5023457594
  - # 11
    frequency:     6.8425806697
  - # 12
    frequency:     6.8535759442

- q-position: [    0.4895833,    0.0312500,    0.0104167 ]
  weight: 48   
  band:
  - # 1
    frequency:     3.1011505568
  - # 2
    frequency:     3.1139318223
  - # 3
    frequency:     3.2071676478
  - # 4
    frequency:     3.2196281558
  - # 5
    frequency:     5.3388745054
  - # 6
    frequency:     5.3398132801
  - # 7
    frequency:     5.7796049592
  - # 8
    frequency:     5.9703024813
  - # 9
    frequency:     6.6064178441
  - # 10
    frequency:     6.6206432197
  - # 11
    frequency:     6.7264608167
  - # 12
    frequency:     6.7389411652

- q-position: [    0.0520833,    0.0520833,    0.0104167 ]
  weight: 24   
  band:
  - # 1
    frequency:     0.3827585812
  - # 2
    frequency:     0.5087802175
  - # 3
    frequency:     1.0291226330
  - # 4
    frequency:     4.5138209525
  - # 5
    frequency:     4.5138209525
  - # 6
    frequency:     4.5193067885
  - # 7
    frequency:     4.5362151924
  - # 8
    frequency:     4.5362151924
  - # 9
    frequency:     4.6168982937
  - # 10
    frequency:     8.2532727773
  - # 11
    frequency:     8.2532727773
  - # 12
    frequency:     8.2606477252

- q-position: [    0.0729167,    0.0520833,    0.0104167 ]
  weight: 48   
  band:
  - # 1
    frequency:     0.4806649896
  - # 2
    frequency:     0.6202515004
  - # 3
    frequency:     1.2388861811
  - # 4
    frequency:     4.4986287953
  - # 5
    frequency:     4.5210591336
  - # 6
    frequency:     4.5277363057
  - # 7
    frequency:     4.5358750609
  - # 8
    frequency:     4.5706493618
  - # 9
    frequency:     4.6633848999
  - # 10
    frequency:     8.2270609482
  - # 11
    frequency:     8.2348110730
  - # 12
    frequency:     8.2418219635

- q-position: [    0.0937500,    0.0520833,    0.0104167 ]
  weight: 48   
  band:
  - # 1
    frequency:     0.6071033336
  - # 2
    frequency:     0.7428511412
  - # 3
    frequency:     1.4630988845
  - # 4
    frequency:     4.4784048659
  - # 5
    frequency:     4.5008871369
  - # 6
    frequency:     4.5448426232
  - # 7
    frequency:     4.5651595128
  - # 8
    frequency:     4.6152931744
  - # 9
    frequency:     4.7181929425
  - # 10
    frequency:     8.1921562669
  - # 11
    frequency:     8.2102613473
  - # 12
    frequency:     8.2167827587

- q-position: [    0.1145833,    0.0520833,    0.0104167 ]
  weight: 48   
  band:
  - # 1
    frequency:     0.7453567666
  - # 2
    frequency:     0.8715290895
  - # 3
    frequency:     1.6961771698
  - # 4
    frequency:     4.4531767083
  - # 5
    frequency:     4.4757299474
  - # 6
    frequency:     4.5700926927
  - # 7
    frequency:     4.6008835105
  - # 8
    frequency:     4.6698125474
  - # 9
    frequency:     4.7807932516
  - # 10
    frequency:     8.1485967809
  - # 11
    frequency:     8.1796802431
  - # 12
    frequency:     8.1855832338

- q-position: [    0.1354167,    0.0520833,    0.0104167 ]
  weight: 48   
  band:
  - # 1
    frequency:     0.8880723825
  - # 2