  32  32   0   0
  0.1858633E+02  0.8409714E-09  0.8409714E-09  0.8409714E-09  0.5000000E-15
  1.000000000000000E-004
  CAR 
 unknown system                          
     12.17102262     -5.15810805  301      2.79915640      1.00000000
     -5.158  0.0000E+00  0.0000E+00
     -5.100  0.0000E+00  0.0000E+00
     -5.043  0.0000E+00  0.0000E+00
     -4.985  0.0000E+00  0.0000E+00
     -4.927  0.0000E+00  0.0000E+00
     -4.869  0.0000E+00  0.0000E+00
     -4.812  0.0000E+00  0.0000E+00
     -4.754  0.0000E+00  0.0000E+00
     -4.696  0.0000E+00  0.0000E+00
     -4.638  0.0000E+00  0.0000E+00
     -4.580  0.0000E+00  0.0000E+00
     -4.523  0.0000E+00  0.0000E+00
     -4.465  0.0000E+00  0.0000E+00
     -4.407  0.2013E-08  0.1163E-09
     -4.349  0.1137E+00  0.6568E-02
     -4.292  0.6354E+00  0.4327E-01
     -4.234  0.1024E+01  0.1024E+00
     -4.176  0.1634E+01  0.1969E+00
     -4.118  0.1617E+01  0.2903E+00
     -4.061  0.1852E+01  0.3972E+00
     -4.003  0.2250E+01  0.5272E+00
     -3.945  0.1679E+01  0.6242E+00
     -3.887  0.3002E+01  0.7975E+00
     -3.830  0.2105E+01  0.9191E+00
     -3.772  0.2796E+01  0.1081E+01
     -3.714  0.3041E+01  0.1256E+01
     -3.656  0.3793E+01  0.1475E+01
     -3.598  0.2720E+01  0.1632E+01
     -3.541  0.3878E+01  0.1856E+01
     -3.483  0.4558E+01  0.2120E+01
     -3.425  0.3500E+01  0.2322E+01
     -3.367  0.4542E+01  0.2584E+01
     -3.310  0.5495E+01  0.2902E+01
     -3.252  0.5139E+01  0.3199E+01
     -3.194  0.6039E+01  0.3548E+01
     -3.136  0.6307E+01  0.3912E+01
     -3.079  0.1962E+02  0.5045E+01
     -3.021  0.3572E+02  0.7109E+01
     -2.963  0.5843E+02  0.1048E+02
     -2.905  0.7200E+02  0.1464E+02
     -2.848  0.8208E+02  0.1938E+02
     -2.790  0.8962E+02  0.2456E+02
     -2.732  0.1060E+03  0.3068E+02
     -2.674  0.1379E+03  0.3865E+02
     -2.617  0.1411E+03  0.4680E+02
     -2.559  0.1216E+03  0.5382E+02
     -2.501  0.1077E+03  0.6004E+02
     -2.443  0.1084E+03  0.6630E+02
     -2.385  0.9448E+02  0.7176E+02
     -2.328  0.8075E+02  0.7643E+02
     -2.270  0.7451E+02  0.8073E+02
     -2.212  0.7322E+02  0.8496E+02
     -2.154  0.8206E+02  0.8970E+02
     -2.097  0.9907E+02  0.9542E+02
     -2.039  0.9635E+02  0.1010E+03
     -1.981  0.1093E+03  0.1073E+03
     -1.923  0.9811E+02  0.1130E+03
     -1.866  0.9431E+02  0.1184E+03
     -1.808  0.9299E+02  0.1238E+03
     -1.750  0.1001E+03  0.1296E+03
     -1.692  0.9356E+02  0.1350E+03
     -1.635  0.1241E+03  0.1421E+03
     -1.577  0.1443E+03  0.1505E+03
     -1.519  0.1753E+03  0.1606E+03
     -1.461  0.1746E+03  0.1707E+03
     -1.403  0.1199E+03  0.1776E+03
     -1.346  0.1094E+03  0.1839E+03
     -1.288  0.9201E+02  0.1893E+03
     -1.230  0.8464E+02  0.1941E+03
     -1.172  0.1079E+03  0.2004E+03
     -1.115  0.9582E+02  0.2059E+03
     -1.057  0.9697E+02  0.2115E+03
     -0.999  0.1226E+03  0.2186E+03
     -0.941  0.1198E+03  0.2255E+03
     -0.884  0.1121E+03  0.2320E+03
     -0.826  0.1284E+03  0.2394E+03
     -0.768  0.1225E+03  0.2465E+03
     -0.710  0.1019E+03  0.2524E+03
     -0.653  0.1001E+03  0.2582E+03
     -0.595  0.1036E+03  0.2641E+03
     -0.537  0.9261E+02  0.2695E+03
     -0.479  0.9269E+02  0.2748E+03
     -0.421  0.1062E+03  0.2810E+03
     -0.364  0.9955E+02  0.2867E+03
     -0.306  0.1179E+03  0.2935E+03
     -0.248  0.1379E+03  0.3015E+03
     -0.190  0.1826E+03  0.3121E+03
     -0.133  0.1488E+03  0.3207E+03
     -0.075  0.9350E+02  0.3261E+03
     -0.017  0.5877E+02  0.3294E+03
      0.041  0.1815E+02  0.3305E+03
      0.098  0.9216E+01  0.3310E+03
      0.156  0.9435E+01  0.3316E+03
      0.214  0.3114E+01  0.3318E+03
      0.272  0.7023E+01  0.3322E+03
      0.329  0.1130E+02  0.3328E+03
      0.387  0.6728E+01  0.3332E+03
      0.445  0.6295E+01  0.3336E+03
      0.503  0.1902E+01  0.3337E+03
      0.561  0.1120E+02  0.3343E+03
      0.618  0.9934E+01  0.3349E+03
      0.676  0.5640E+01  0.3352E+03
      0.734  0.6734E+01  0.3356E+03
      0.792  0.2471E+01  0.3358E+03
      0.849  0.1232E+02  0.3365E+03
      0.907  0.8092E+01  0.3369E+03
      0.965  0.8550E+01  0.3374E+03
      1.023  0.4754E+01  0.3377E+03
      1.080  0.5600E+01  0.3380E+03
      1.138  0.5035E+01  0.3383E+03
      1.196  0.1226E+02  0.3390E+03
      1.254  0.7835E+01  0.3395E+03
      1.311  0.6565E+01  0.3399E+03
      1.369  0.5988E+01  0.3402E+03
      1.427  0.6138E+01  0.3406E+03
      1.485  0.7496E+01  0.3410E+03
      1.542  0.1164E+02  0.3417E+03
      1.600  0.5766E+01  0.3420E+03
      1.658  0.7677E+01  0.3424E+03
      1.716  0.6855E+01  0.3428E+03
      1.774  0.6529E+01  0.3432E+03
      1.831  0.5982E+01  0.3436E+03
      1.889  0.1051E+02  0.3442E+03
      1.947  0.9159E+01  0.3447E+03
      2.005  0.9524E+01  0.3452E+03
      2.062  0.5562E+01  0.3456E+03
      2.120  0.7161E+01  0.3460E+03
      2.178  0.6100E+01  0.3463E+03
      2.236  0.1157E+02  0.3470E+03
      2.293  0.8278E+01  0.3475E+03
      2.351  0.7975E+01  0.3479E+03
      2.409  0.7275E+01  0.3484E+03
      2.467  0.8761E+01  0.3489E+03
      2.524  0.8440E+01  0.3494E+03
      2.582  0.7010E+01  0.3498E+03
      2.640  0.1176E+02  0.3504E+03
      2.698  0.7697E+01  0.3509E+03
      2.756  0.1088E+02  0.3515E+03
      2.813  0.1133E+02  0.3522E+03
      2.871  0.5517E+01  0.3525E+03
      2.929  0.8004E+01  0.3529E+03
      2.987  0.7994E+01  0.3534E+03
      3.044  0.1026E+02  0.3540E+03
      3.102  0.9744E+01  0.3546E+03
      3.160  0.9845E+01  0.3551E+03
      3.218  0.1060E+02  0.3557E+03
      3.275  0.8337E+01  0.3562E+03
      3.333  0.6584E+01  0.3566E+03
      3.391  0.8936E+01  0.3571E+03
      3.449  0.8803E+01  0.3576E+03
      3.506  0.8144E+01  0.3581E+03
      3.564  0.1080E+02  0.3587E+03
      3.622  0.1059E+02  0.3593E+03
      3.680  0.1025E+02  0.3599E+03
      3.738  0.5793E+01  0.3603E+03
      3.795  0.6176E+01  0.3606E+03
      3.853  0.8802E+01  0.3611E+03
      3.911  0.1041E+02  0.3617E+03
      3.969  0.1012E+02  0.3623E+03
      4.026  0.8196E+01  0.3628E+03
      4.084  0.8353E+01  0.3633E+03
      4.142  0.9845E+01  0.3638E+03
      4.200  0.1032E+02  0.3644E+03
      4.257  0.4594E+01  0.3647E+03
      4.315  0.6225E+01  0.3651E+03
      4.373  0.1243E+02  0.3658E+03
      4.431  0.9905E+01  0.3663E+03
      4.488  0.8156E+01  0.3668E+03
      4.546  0.8942E+01  0.3673E+03
      4.604  0.8002E+01  0.3678E+03
      4.662  0.8156E+01  0.3683E+03
      4.719  0.9107E+01  0.3688E+03
      4.777  0.5972E+01  0.3691E+03
      4.835  0.1063E+02  0.3698E+03
      4.893  0.9003E+01  0.3703E+03
      4.951  0.9000E+01  0.3708E+03
      5.008  0.7891E+01  0.3712E+03
      5.066  0.6987E+01  0.3717E+03
      5.124  0.7780E+01  0.3721E+03
      5.182  0.5861E+01  0.3724E+03
      5.239  0.6933E+01  0.3728E+03
      5.297  0.9966E+01  0.3734E+03
      5.355  0.8606E+01  0.3739E+03
      5.413  0.6503E+01  0.3743E+03
      5.470  0.7462E+01  0.3747E+03
      5.528  0.5046E+01  0.3750E+03
      5.586  0.8010E+01  0.3755E+03
      5.644  0.6054E+01  0.3758E+03
      5.701  0.5310E+01  0.3761E+03
      5.759  0.8638E+01  0.3766E+03
      5.817  0.7569E+01  0.3771E+03
      5.875  0.4559E+01  0.3773E+03
      5.933  0.7995E+01  0.3778E+03
      5.990  0.5237E+01  0.3781E+03
      6.048  0.9386E+01  0.3786E+03
      6.106  0.1239E+02  0.3794E+03
      6.164  0.8772E+01  0.3799E+03
      6.221  0.1053E+02  0.3805E+03
      6.279  0.1240E+02  0.3812E+03
      6.337  0.1278E+02  0.3819E+03
      6.395  0.1212E+02  0.3826E+03
      6.452  0.9762E+01  0.3832E+03
      6.510  0.1200E+02  0.3839E+03
      6.568  0.1091E+02  0.3845E+03
      6.626  0.8547E+01  0.3850E+03
      6.683  0.1254E+02  0.3857E+03
      6.741  0.1152E+02  0.3864E+03
      6.799  0.1138E+02  0.3871E+03
      6.857  0.9334E+01  0.3876E+03
      6.915  0.1357E+02  0.3884E+03
      6.972  0.1025E+02  0.3890E+03
      7.030  0.8320E+01  0.3894E+03
      7.088  0.1083E+02  0.3901E+03
      7.146  0.1153E+02  0.3907E+03
      7.203  0.9124E+01  0.3913E+03
      7.261  0.1070E+02  0.3919E+03
      7.319  0.1206E+02  0.3926E+03
      7.377  0.8383E+01  0.3931E+03
      7.434  0.9925E+01  0.3936E+03
      7.492  0.1092E+02  0.3943E+03
      7.550  0.1027E+02  0.3949E+03
      7.608  0.8641E+01  0.3954E+03
      7.665  0.1162E+02  0.3960E+03
      7.723  0.7851E+01  0.3965E+03
      7.781  0.9613E+01  0.3970E+03
      7.839  0.9558E+01  0.3976E+03
      7.897  0.1048E+02  0.3982E+03
      7.954  0.8697E+01  0.3987E+03
      8.012  0.1019E+02  0.3993E+03
      8.070  0.9729E+01  0.3999E+03
      8.128  0.1015E+02  0.4004E+03
      8.185  0.8769E+01  0.4009E+03
      8.243  0.5754E+01  0.4013E+03
      8.301  0.1015E+02  0.4019E+03
      8.359  0.9224E+01  0.4024E+03
      8.416  0.1037E+02  0.4030E+03
      8.474  0.1001E+02  0.4036E+03
      8.532  0.9733E+01  0.4041E+03
      8.590  0.9005E+01  0.4047E+03
      8.647  0.6603E+01  0.4050E+03
      8.705  0.9864E+01  0.4056E+03
      8.763  0.9390E+01  0.4061E+03
      8.821  0.7612E+01  0.4066E+03
      8.878  0.9889E+01  0.4072E+03
      8.936  0.1419E+02  0.4080E+03
      8.994  0.1100E+02  0.4086E+03
      9.052  0.9397E+01  0.4092E+03
      9.110  0.2055E+02  0.4103E+03
      9.167  0.1508E+02  0.4112E+03
      9.225  0.1198E+02  0.4119E+03
      9.283  0.6504E+01  0.4123E+03
      9.341  0.1242E+02  0.4130E+03
      9.398  0.7757E+01  0.4134E+03
      9.456  0.1183E+02  0.4141E+03
      9.514  0.1417E+02  0.4150E+03
      9.572  0.1622E+02  0.4159E+03
      9.629  0.1796E+02  0.4169E+03
      9.687  0.1211E+02  0.4176E+03
      9.745  0.1754E+02  0.4186E+03
      9.803  0.1603E+02  0.4196E+03
      9.860  0.1016E+02  0.4202E+03
      9.918  0.1031E+02  0.4207E+03
      9.976  0.1382E+02  0.4215E+03
     10.034  0.1194E+02  0.4222E+03
     10.092  0.8530E+01  0.4227E+03
     10.149  0.1675E+02  0.4237E+03
     10.207  0.2627E+02  0.4252E+03
     10.265  0.1249E+02  0.4259E+03
     10.323  0.1258E+02  0.4267E+03
     10.380  0.1153E+02  0.4273E+03
     10.438  0.7428E+01  0.4278E+03
     10.496  0.1124E+02  0.4284E+03
     10.554  0.9953E+01  0.4290E+03
     10.611  0.7584E+01  0.4294E+03
     10.669  0.9310E+01  0.4300E+03
     10.727  0.8264E+01  0.4304E+03
     10.785  0.7822E+01  0.4309E+03
     10.842  0.6440E+01  0.4313E+03
     10.900  0.3056E+01  0.4314E+03
     10.958  0.2097E+01  0.4316E+03
     11.016  0.3560E+01  0.4318E+03
     11.074  0.1637E+01  0.4319E+03
     11.131  0.1170E+01  0.4319E+03
     11.189  0.5302E-01  0.4319E+03
     11.247  0.7310E-02  0.4319E+03
     11.305  0.5323E+00  0.4320E+03
     11.362  0.2642E+00  0.4320E+03
     11.420  0.4785E+00  0.4320E+03
     11.478  0.0000E+00  0.4320E+03
     11.536  0.0000E+00  0.4320E+03
     11.593  0.0000E+00  0.4320E+03
     11.651  0.0000E+00  0.4320E+03
     11.709  0.0000E+00  0.4320E+03
     11.767  0.0000E+00  0.4320E+03
     11.824  0.0000E+00  0.4320E+03
     11.882  0.0000E+00  0.4320E+03
     11.940  0.0000E+00  0.4320E+03
     11.998  0.0000E+00  0.4320E+03
     12.055  0.0000E+00  0.4320E+03
     12.113  0.0000E+00  0.4320E+03
     12.171  0.0000E+00  0.4320E+03
