   32   32    1    1
  0.1858633E+02  0.8409714E-09  0.8409714E-09  0.8409714E-09  0.5000000E-15
  1.000000000000000E-004
  CAR 
 unknown system                          
  352  196  216
 
  0.0000000E+00  0.0000000E+00  0.0000000E+00  0.5787037E-03
   1       -4.3704
   2       -3.1493
   3       -3.1493
   4       -3.1493
   5       -3.1208
   6       -3.1208
   7       -3.1208
   8       -3.1208
   9       -3.0410
  10       -3.0410
  11       -3.0410
  12       -2.7247
  13       -2.7230
  14       -2.7230
  15       -2.7230
  16       -2.7230
  17       -2.7213
  18       -2.4915
  19       -2.4900
  20       -2.4900
  21       -2.4900
  22       -2.4900
  23       -2.4885
  24       -2.4306
  25       -2.4291
  26       -2.4291
  27       -2.4290
  28       -2.4290
  29       -2.4275
  30       -2.2093
  31       -2.2093
  32       -2.2090
  33       -2.2083
  34       -2.2080
  35       -2.2080
  36       -2.2080
  37       -2.2080
  38       -2.2077
  39       -2.2070
  40       -2.2067
  41       -2.2067
  42       -2.0227
  43       -2.0208
  44       -2.0208
  45       -2.0200
  46       -2.0199
  47       -2.0199
  48       -2.0199
  49       -2.0199
  50       -2.0199
  51       -2.0191
  52       -2.0191
  53       -2.0173
  54       -1.9692
  55       -1.9692
  56       -1.9676
  57       -1.9676
  58       -1.9676
  59       -1.9675
  60       -1.9675
  61       -1.9675
  62       -1.9675
  63       -1.9674
  64       -1.9658
  65       -1.9658
  66       -1.7681
  67       -1.7681
  68       -1.7681
  69       -1.7680
  70       -1.7680
  71       -1.7680
  72       -1.7680
  73       -1.7680
  74       -1.7524
  75       -1.7524
  76       -1.7524
  77       -1.6453
  78       -1.6434
  79       -1.6431
  80       -1.6431
  81       -1.6430
  82       -1.6430
  83       -1.6430
  84       -1.6429
  85       -1.6428
  86       -1.6428
  87       -1.6425
  88       -1.6406
  89       -1.1817
  90       -1.1811
  91       -1.1803
  92       -1.1803
  93       -1.1799
  94       -1.1799
  95       -1.1799
  96       -1.1799
  97       -1.1795
  98       -1.1795
  99       -1.1787
 100       -1.1782
 101       -0.9970
 102       -0.9970
 103       -0.9952
 104       -0.9952
 105       -0.9950
 106       -0.9950
 107       -0.9950
 108       -0.9950
 109       -0.9949
 110       -0.9949
 111       -0.9932
 112       -0.9932
 113       -0.8647
 114       -0.8646
 115       -0.8502
 116       -0.8502
 117       -0.8485
 118       -0.8484
 119       -0.8481
 120       -0.8480
 121       -0.8480
 122       -0.8480
 123       -0.8480
 124       -0.8477
 125       -0.8463
 126       -0.8463
 127       -0.8439
 128       -0.8431
 129       -0.8431
 130       -0.8426
 131       -0.8426
 132       -0.8418
 133       -0.7932
 134       -0.7916
 135       -0.7916
 136       -0.7916
 137       -0.7916
 138       -0.7900
 139       -0.5453
 140       -0.5445
 141       -0.5445
 142       -0.5445
 143       -0.5445
 144       -0.5436
 145       -0.2094
 146       -0.2094
 147       -0.2094
 148       -0.1809
 149       -0.1809
 150       -0.1809
 151       -0.1809
 152       -0.1809
 153       -0.1809
 154       -0.1809
 155       -0.1809
 156       -0.0036
 157       -0.0033
 158       -0.0033
 159       -0.0033
 160       -0.0033
 161       -0.0033
 162       -0.0025
 163       -0.0024
 164       -0.0024
 165       -0.0024
 166       -0.0024
 167       -0.0022
 168        2.1735
 169        2.1743
 170        2.1743
 171        2.1753
 172        2.1756
 173        2.1756
 174        2.1756
 175        2.1756
 176        2.1759
 177        2.1769
 178        2.1769
 179        2.1777
 180        2.6099
 181        2.6099
 182        2.6099
 183        2.6099
 184        4.4793
 185        4.4793
 186        4.4794
 187        5.9440
 188        5.9440
 189        5.9440
 190        5.9441
 191        8.4292
 192        8.4292
 193        8.4318
 194        8.4318
 195        8.4321
 196        8.4321
 197        8.4321
 198        8.4321
 199        8.4324
 200        8.4324
 201        8.4349
 202        8.4349
 203        8.8936
 204        8.8936
 205        8.8936
 206        9.2801
 207        9.2801
 208        9.2801
 209        9.2802
 210        9.2802
 211        9.2802
 212       10.5039
 213       10.5053
 214       10.5053
 215       10.5053
 216       10.5067
 
  0.8333333E-01  0.0000000E+00  0.0000000E+00  0.1157407E-02
   1       -4.3534
   2       -3.1426
   3       -3.1406
   4       -3.1406
   5       -3.1128
   6       -3.1128
   7       -3.1128
   8       -3.1128
   9       -3.0360
  10       -3.0333
  11       -3.0333
  12       -2.8168
  13       -2.7120
  14       -2.7120
  15       -2.7120
  16       -2.7120
  17       -2.6893
  18       -2.5123
  19       -2.5059
  20       -2.5058
  21       -2.4836
  22       -2.4836
  23       -2.4836
  24       -2.4835
  25       -2.4248
  26       -2.4248
  27       -2.4248
  28       -2.4247
  29       -2.3447
  30       -2.2696
  31       -2.2696
  32       -2.2696
  33       -2.2696
  34       -2.2252
  35       -2.2251
  36       -2.2251
  37       -2.2251
  38       -2.1885
  39       -2.1885
  40       -2.1885
  41       -2.1885
  42       -2.1342
  43       -2.1342
  44       -2.0554
  45       -2.0553
  46       -2.0553
  47       -2.0553
  48       -1.9926
  49       -1.9921
  50       -1.9921
  51       -1.9921
  52       -1.9874
  53       -1.9874
  54       -1.9874
  55       -1.9870
  56       -1.9702
  57       -1.9702
  58       -1.9702
  59       -1.9702
  60       -1.9668
  61       -1.9668
  62       -1.9668
  63       -1.9666
  64       -1.7893
  65       -1.7893
  66       -1.7706
  67       -1.7706
  68       -1.7706
  69       -1.7706
  70       -1.7622
  71       -1.7622
  72       -1.7622
  73       -1.7622
  74       -1.7585
  75       -1.7466
  76       -1.7466
  77       -1.6826
  78       -1.6826
  79       -1.6826
  80       -1.6826
  81       -1.6525
  82       -1.6525
  83       -1.6525
  84       -1.6525
  85       -1.6019
  86       -1.6019
  87       -1.6019
  88       -1.6019
  89       -1.2076
  90       -1.2075
  91       -1.2075
  92       -1.2075
  93       -1.1720
  94       -1.1719
  95       -1.1719
  96       -1.1719
  97       -1.1427
  98       -1.1427
  99       -1.1427
 100       -1.1426
 101       -1.1044
 102       -1.1044
 103       -1.0801
 104       -1.0801
 105       -1.0801
 106       -1.0800
 107       -0.9955
 108       -0.9955
 109       -0.9955
 110       -0.9955
 111       -0.9909
 112       -0.8993
 113       -0.8993
 114       -0.8992
 115       -0.8992
 116       -0.8818
 117       -0.8818
 118       -0.8707
 119       -0.8620
 120       -0.8432
 121       -0.8431
 122       -0.8431
 123       -0.8431
 124       -0.8276
 125       -0.8275
 126       -0.8191
 127       -0.8191
 128       -0.8191
 129       -0.8190
 130       -0.7840
 131       -0.7840
 132       -0.7840
 133       -0.7840
 134       -0.7138
 135       -0.7138
 136       -0.7138
 137       -0.7138
 138       -0.5871
 139       -0.5325
 140       -0.5325
 141       -0.5325
 142       -0.5325
 143       -0.5016
 144       -0.5003
 145       -0.2175
 146       -0.2175
 147       -0.2123
 148       -0.2020
 149       -0.2019
 150       -0.2019
 151       -0.2019
 152       -0.1882
 153       -0.1882
 154       -0.1882
 155       -0.1881
 156       -0.0320
 157       -0.0320
 158       -0.0134
 159       -0.0134
 160       -0.0134
 161       -0.0134
 162       -0.0133
 163       -0.0133
 164       -0.0036
 165       -0.0033
 166       -0.0025
 167       -0.0022
 168        1.8123
 169        1.8123
 170        1.8123
 171        1.8123
 172        2.1795
 173        2.1795
 174        2.1795
 175        2.1795
 176        2.5699
 177        2.5699
 178        2.5699
 179        2.5699
 180        2.5949
 181        2.5950
 182        2.5950
 183        2.5950
 184        4.3465
 185        4.5225
 186        4.5225
 187        6.0049
 188        6.0049
 189        6.0049
 190        6.0049
 191        7.9496
 192        7.9496
 193        8.0965
 194        8.0965
 195        8.0965
 196        8.0965
 197        8.4584
 198        8.4584
 199        8.4584
 200        8.4584
 201        8.8968
 202        8.8968
 203        8.9230
 204        8.9230
 205        9.0540
 206        9.2648
 207        9.2648
 208        9.4826
 209        9.4826
 210        9.4826
 211        9.4826
 212       10.5474
 213       10.5474
 214       10.6750
 215       10.6751
 216       10.6754
 
  0.1666667E+00  0.0000000E+00  0.0000000E+00  0.1157407E-02
   1       -4.3025
   2       -3.1229
   3       -3.1150
   4       -3.1150
   5       -3.0887
   6       -3.0887
   7       -3.0887
   8       -3.0887
   9       -3.0211
  10       -3.0104
  11       -3.0104
  12       -2.9698
  13       -2.7021
  14       -2.6794
  15       -2.6794
  16       -2.6794
  17       -2.6794
  18       -2.5930
  19       -2.5505
  20       -2.5505
  21       -2.4648
  22       -2.4648
  23       -2.4648
  24       -2.4648
  25       -2.4119
  26       -2.4119
  27       -2.4119
  28       -2.4119
  29       -2.3859
  30       -2.3859
  31       -2.3859
  32       -2.3859
  33       -2.2883
  34       -2.2883
  35       -2.2607
  36       -2.2387
  37       -2.2387
  38       -2.2387
  39       -2.2387
  40       -2.1724
  41       -2.1724
  42       -2.1724
  43       -2.1724
  44       -2.0971
  45       -2.0970
  46       -2.0970
  47       -2.0970
  48       -1.9777
  49       -1.9777
  50       -1.9777
  51       -1.9776
  52       -1.9724
  53       -1.9719
  54       -1.9719
  55       -1.9719
  56       -1.9647
  57       -1.9647
  58       -1.9647
  59       -1.9643
  60       -1.9460
  61       -1.9460
  62       -1.9459
  63       -1.9459
  64       -1.7783
  65       -1.7783
  66       -1.7783
  67       -1.7783
  68       -1.7767
  69       -1.7511
  70       -1.7511
  71       -1.7511
  72       -1.7510
  73       -1.7447
  74       -1.7447
  75       -1.7447
  76       -1.7447
  77       -1.7292
  78       -1.7292
  79       -1.7016
  80       -1.7016
  81       -1.7016
  82       -1.7016
  83       -1.6008
  84       -1.6008
  85       -1.4917
  86       -1.4917
  87       -1.4917
  88       -1.4917
  89       -1.2713
  90       -1.2713
  91       -1.2713
  92       -1.2712
  93       -1.2157
  94       -1.2157
  95       -1.2157
  96       -1.2156
  97       -1.2084
  98       -1.2084
  99       -1.1205
 100       -1.1205
 101       -1.1205
 102       -1.1205
 103       -1.1000
 104       -1.0831
 105       -1.0831
 106       -1.0830
 107       -1.0830
 108       -0.9967
 109       -0.9967
 110       -0.9967
 111       -0.9967
 112       -0.9379
 113       -0.9379
 114       -0.9378
 115       -0.9378
 116       -0.8888
 117       -0.8540
 118       -0.8436
 119       -0.8436
 120       -0.8436
 121       -0.8436
 122       -0.7840
 123       -0.7839
 124       -0.7666
 125       -0.7666
 126       -0.7514
 127       -0.7514
 128       -0.7514
 129       -0.7514
 130       -0.7080
 131       -0.7080
 132       -0.7080
 133       -0.7080
 134       -0.6491
 135       -0.6491
 136       -0.6491
 137       -0.6491
 138       -0.6287
 139       -0.4593
 140       -0.4469
 141       -0.4469
 142       -0.4469
 143       -0.4469
 144       -0.2636
 145       -0.2636
 146       -0.2636
 147       -0.2636
 148       -0.2416
 149       -0.2416
 150       -0.2211
 151       -0.2096
 152       -0.2096
 153       -0.2096
 154       -0.2096
 155       -0.1301
 156       -0.1146
 157       -0.1146
 158       -0.0457
 159       -0.0457
 160       -0.0457
 161       -0.0457
 162       -0.0428
 163       -0.0428
 164       -0.0035
 165       -0.0032
 166       -0.0025
 167       -0.0022
 168        1.4776
 169        1.4776
 170        1.4776
 171        1.4776
 172        2.1912
 173        2.1912
 174        2.1912
 175        2.1912
 176        2.5542
 177        2.5542
 178        2.5542
 179        2.5542
 180        2.9968
 181        2.9968
 182        2.9969
 183        2.9969
 184        3.9953
 185        4.6485
 186        4.6485
 187        6.1818
 188        6.1818
 189        6.1818
 190        6.1818
 191        7.4787
 192        7.4787
 193        7.5000
 194        7.5000
 195        7.5000
 196        7.5000
 197        8.5366
 198        8.5366
 199        8.5366
 200        8.5366
 201        8.9063
 202        8.9063
 203        9.2244
 204        9.2244
 205        9.4193
 206        9.4193
 207        9.4880
 208        9.7026
 209        9.7026
 210        9.7026
 211        9.7026
 212       10.1710
 213       10.1710
 214       10.1710
 215       10.1710
 216       10.6712
 
  0.2500000E+00  0.0000000E+00  0.0000000E+00  0.1157407E-02
   1       -4.2183
   2       -3.1642
   3       -3.0906
   4       -3.0732
   5       -3.0731
   6       -3.0488
   7       -3.0488
   8       -3.0488
   9       -3.0488
  10       -2.9964
  11       -2.9723
  12       -2.9723
  13       -2.7443
  14       -2.6701
  15       -2.6267
  16       -2.6265
  17       -2.6265
  18       -2.6265
  19       -2.6170
  20       -2.6169
  21       -2.5102
  22       -2.5102
  23       -2.5102
  24       -2.5102
  25       -2.4350
  26       -2.4350
  27       -2.4350
  28       -2.4350
  29       -2.4292
  30       -2.4292
  31       -2.3908
  32       -2.3908
  33       -2.3908
  34       -2.3908
  35       -2.2501
  36       -2.2501
  37       -2.2501
  38       -2.2501
  39       -2.1786
  40       -2.1736
  41       -2.1736
  42       -2.1736
  43       -2.1736
  44       -2.1432
  45       -2.1432
  46       -2.1432
  47       -2.1432
  48       -1.9875
  49       -1.9875
  50       -1.9875
  51       -1.9875
  52       -1.9624
  53       -1.9615
  54       -1.9615
  55       -1.9615
  56       -1.9590
  57       -1.9589
  58       -1.9589
  59       -1.9581
  60       -1.9162
  61       -1.9162
  62       -1.9162
  63       -1.9162
  64       -1.8275
  65       -1.8275
  66       -1.8275
  67       -1.8275
  68       -1.8065
  69       -1.7905
  70       -1.7905
  71       -1.7905
  72       -1.7905
  73       -1.7530
  74       -1.7530
  75       -1.7530
  76       -1.7530
  77       -1.7158
  78       -1.7158
  79       -1.7158
  80       -1.7158
  81       -1.7005
  82       -1.7005
  83       -1.4038
  84       -1.4038
  85       -1.3492
  86       -1.3491
  87       -1.3491
  88       -1.3491
  89       -1.3475
  90       -1.3474
  91       -1.3474
  92       -1.3473
  93       -1.3401
  94       -1.3401
  95       -1.3401
  96       -1.3401
  97       -1.3058
  98       -1.3058
  99       -1.1380
 100       -1.0466
 101       -1.0466
 102       -1.0465
 103       -1.0465
 104       -1.0209
 105       -1.0209
 106       -1.0209
 107       -1.0208
 108       -0.9984
 109       -0.9984
 110       -0.9984
 111       -0.9984
 112       -0.9651
 113       -0.9651
 114       -0.9651
 115       -0.9651
 116       -0.9180
 117       -0.8462
 118       -0.8461
 119       -0.8461
 120       -0.8461
 121       -0.8407
 122       -0.7190
 123       -0.7190
 124       -0.6699
 125       -0.6690
 126       -0.6690
 127       -0.6690
 128       -0.6677
 129       -0.6591
 130       -0.6591
 131       -0.6591
 132       -0.6591
 133       -0.6513
 134       -0.6513
 135       -0.6222
 136       -0.6222
 137       -0.6221
 138       -0.6221
 139       -0.4181
 140       -0.3620
 141       -0.3620
 142       -0.3620
 143       -0.3620
 144       -0.2811
 145       -0.2810
 146       -0.2777
 147       -0.2777
 148       -0.2777
 149       -0.2776
 150       -0.2449
 151       -0.2449
 152       -0.2449
 153       -0.2448
 154       -0.2425
 155       -0.2425
 156       -0.2355
 157       -0.0975
 158       -0.0975
 159       -0.0974
 160       -0.0974
 161       -0.0910
 162       -0.0909
 163       -0.0035
 164       -0.0032
 165       -0.0026
 166       -0.0022
 167        0.3023
 168        1.1689
 169        1.1689
 170        1.1689
 171        1.1689
 172        2.2110
 173        2.2110
 174        2.2110
 175        2.2110
 176        2.4977
 177        2.4977
 178        2.4977
 179        2.4977
 180        3.4572
 181        3.4572
 182        3.4572
 183        3.4572
 184        3.5142
 185        4.8484
 186        4.8484
 187        6.4608
 188        6.4608
 189        6.4608
 190        6.4609
 191        6.8647
 192        6.8647
 193        6.8647
 194        6.8647
 195        7.0224
 196        7.0224
 197        8.6649
 198        8.6649
 199        8.6649
 200        8.6649
 201        8.9226
 202        8.9226
 203        9.1710
 204        9.1710
 205        9.5133
 206        9.5133
 207        9.5133
 208        9.5133
 209        9.8420
 210        9.8420
 211        9.8420
 212        9.8420
 213        9.9175
 214        9.9175
 215       10.1072
 216       10.3013
 
  0.3333333E+00  0.0000000E+00  0.0000000E+00  0.1157407E-02
   1       -4.1020
   2       -3.3760
   3       -3.0470
   4       -3.0165
   5       -3.0165
   6       -2.9934
   7       -2.9934
   8       -2.9934
   9       -2.9934
  10       -2.9623
  11       -2.9190
  12       -2.9190
  13       -2.8027
  14       -2.7422
  15       -2.6972
  16       -2.6972
  17       -2.6298
  18       -2.6298
  19       -2.6298
  20       -2.6298
  21       -2.5562
  22       -2.5562
  23       -2.5555
  24       -2.5555
  25       -2.5555
  26       -2.5555
  27       -2.3967
  28       -2.3966
  29       -2.3966
  30       -2.3966
  31       -2.3620
  32       -2.3620
  33       -2.3620
  34       -2.3620
  35       -2.2632
  36       -2.2632
  37       -2.2632
  38       -2.2632
  39       -2.2105
  40       -2.2105
  41       -2.2105
  42       -2.2105
  43       -2.1915
  44       -2.1914
  45       -2.1914
  46       -2.1914
  47       -2.0998
  48       -1.9961
  49       -1.9961
  50       -1.9961
  51       -1.9961
  52       -1.9581
  53       -1.9576
  54       -1.9576
  55       -1.9576
  56       -1.9521
  57       -1.9520
  58       -1.9520
  59       -1.9515
  60       -1.8983
  61       -1.8982
  62       -1.8982
  63       -1.8982
  64       -1.8917
  65       -1.8917
  66       -1.8917
  67       -1.8916
  68       -1.8474
  69       -1.8066
  70       -1.8066
  71       -1.8066
  72       -1.8066
  73       -1.7696
  74       -1.7695
  75       -1.7695
  76       -1.7695
  77       -1.6760
  78       -1.6760
  79       -1.6760
  80       -1.6759
  81       -1.6605
  82       -1.6605
  83       -1.4720
  84       -1.4720
  85       -1.4720
  86       -1.4720
  87       -1.4250
  88       -1.4250
  89       -1.4250
  90       -1.4250
  91       -1.3955
  92       -1.3955
  93       -1.2004
  94       -1.2004
  95       -1.1688
  96       -1.1688
  97       -1.1688
  98       -1.1688
  99       -1.1299
 100       -0.9999
 101       -0.9999
 102       -0.9999
 103       -0.9999
 104       -0.9830
 105       -0.9830
 106       -0.9830
 107       -0.9830
 108       -0.9669
 109       -0.9662
 110       -0.9659
 111       -0.9659
 112       -0.9657
 113       -0.9657
 114       -0.9653
 115       -0.9646
 116       -0.9565
 117       -0.8529
 118       -0.8528
 119       -0.8528
 120       -0.8528
 121       -0.8226
 122       -0.7063
 123       -0.6968
 124       -0.6968
 125       -0.6968
 126       -0.6968
 127       -0.6411
 128       -0.6411
 129       -0.5833
 130       -0.5833
 131       -0.5833
 132       -0.5833
 133       -0.5381
 134       -0.5381
 135       -0.5294
 136       -0.5294
 137       -0.5294
 138       -0.5294
 139       -0.4911
 140       -0.4911
 141       -0.4911
 142       -0.4911
 143       -0.4044
 144       -0.4044
 145       -0.3789
 146       -0.3346
 147       -0.3346
 148       -0.2929
 149       -0.2929
 150       -0.2929
 151       -0.2929
 152       -0.2552
 153       -0.1658
 154       -0.1658
 155       -0.1658
 156       -0.1658
 157       -0.1559
 158       -0.1559
 159       -0.0784
 160       -0.0784
 161       -0.0784
 162       -0.0784
 163       -0.0035
 164       -0.0031
 165       -0.0027
 166       -0.0023
 167        0.7829
 168        0.8832
 169        0.8832
 170        0.8833
 171        0.8833
 172        2.2391
 173        2.2391
 174        2.2391
 175        2.2391
 176        2.4355
 177        2.4355
 178        2.4355
 179        2.4355
 180        2.9716
 181        3.9510
 182        3.9510
 183        3.9510
 184        3.9510
 185        5.1108
 186        5.1108
 187        6.2340
 188        6.2340
 189        6.2341
 190        6.2341
 191        6.5842
 192        6.5842
 193        6.8257
 194        6.8257
 195        6.8257
 196        6.8257
 197        8.8406
 198        8.8406
 199        8.8406
 200        8.8406
 201        8.8884
 202        8.8885
 203        8.8885
 204        8.8885
 205        8.9460
 206        8.9460
 207        9.1148
 208        9.1148
 209        9.9442
 210        9.9442
 211        9.9442
 212        9.9442
 213        9.9606
 214        9.9606
 215        9.9606
 216        9.9606
 
  0.4166667E+00  0.0000000E+00  0.0000000E+00  0.1157407E-02
   1       -3.9556
   2       -3.5862
   3       -2.9937
   4       -2.9472
   5       -2.9472
   6       -2.9230
   7       -2.9230
   8       -2.9230
   9       -2.9229
  10       -2.9192
  11       -2.8676
  12       -2.8506
  13       -2.8506
  14       -2.8083
  15       -2.7831
  16       -2.7830
  17       -2.7399
  18       -2.7399
  19       -2.7399
  20       -2.7399
  21       -2.6690
  22       -2.6690
  23       -2.4702
  24       -2.4702
  25       -2.4702
  26       -2.4702
  27       -2.3543
  28       -2.3543
  29       -2.3543
  30       -2.3543
  31       -2.3264
  32       -2.3264
  33       -2.3264
  34       -2.3264
  35       -2.2845
  36       -2.2842
  37       -2.2842
  38       -2.2842
  39       -2.2832
  40       -2.2832
  41       -2.2832
  42       -2.2829
  43       -2.2395
  44       -2.2395
  45       -2.2395
  46       -2.2395
  47       -2.0259
  48       -1.9980
  49       -1.9980
  50       -1.9980
  51       -1.9979
  52       -1.9545
  53       -1.9539
  54       -1.9539
  55       -1.9538
  56       -1.9530
  57       -1.9529
  58       -1.9529
  59       -1.9529
  60       -1.9498
  61       -1.9497
  62       -1.9497
  63       -1.9491
  64       -1.8983
  65       -1.8689
  66       -1.8689
  67       -1.8689
  68       -1.8688
  69       -1.8257
  70       -1.8257
  71       -1.8257
  72       -1.8257
  73       -1.7389
  74       -1.7389
  75       -1.7389
  76       -1.7388
  77       -1.6259
  78       -1.6259
  79       -1.6259
  80       -1.6259
  81       -1.6095
  82       -1.6095
  83       -1.5809
  84       -1.5809
  85       -1.5809
  86       -1.5809
  87       -1.4989
  88       -1.4989
  89       -1.4989
  90       -1.4989
  91       -1.4764
  92       -1.4764
  93       -1.0961
  94       -1.0020
  95       -1.0005
  96       -1.0005
  97       -1.0005
  98       -1.0004
  99       -0.9946
 100       -0.9946
 101       -0.9937
 102       -0.9935
 103       -0.9929
 104       -0.9929
 105       -0.9902
 106       -0.9901
 107       -0.9901
 108       -0.9900
 109       -0.9213
 110       -0.9212
 111       -0.9212
 112       -0.9212
 113       -0.8867
 114       -0.8867
 115       -0.8867
 116       -0.8866
 117       -0.8661
 118       -0.8661
 119       -0.8661
 120       -0.8661
 121       -0.7996
 122       -0.7494
 123       -0.7494
 124       -0.7494
 125       -0.7494
 126       -0.7410
 127       -0.6439
 128       -0.6439
 129       -0.6439
 130       -0.6439
 131       -0.5895
 132       -0.5895
 133       -0.5580
 134       -0.5580
 135       -0.4999
 136       -0.4999
 137       -0.4999
 138       -0.4999
 139       -0.4333
 140       -0.4333
 141       -0.4333
 142       -0.4333
 143       -0.4293
 144       -0.4293
 145       -0.4005
 146       -0.4005
 147       -0.3525
 148       -0.3525
 149       -0.3525
 150       -0.3525
 151       -0.3423
 152       -0.2800
 153       -0.2473
 154       -0.2473
 155       -0.2473
 156       -0.2473
 157       -0.2356
 158       -0.2356
 159       -0.0034
 160       -0.0030
 161       -0.0027
 162       -0.0023
 163        0.1381
 164        0.1381
 165        0.1381
 166        0.1381
 167        0.6177
 168        0.6177
 169        0.6177
 170        0.6177
 171        1.3007
 172        2.2759
 173        2.2759
 174        2.2760
 175        2.2760
 176        2.3753
 177        2.3753
 178        2.3753
 179        2.3753
 180        2.4078
 181        4.4775
 182        4.4775
 183        4.4775
 184        4.4775
 185        5.4244
 186        5.4244
 187        5.6221
 188        5.6221
 189        5.6221
 190        5.6221
 191        6.1682
 192        6.1682
 193        7.2615
 194        7.2615
 195        7.2615
 196        7.2615
 197        8.3010
 198        8.3010
 199        8.3010
 200        8.3010
 201        8.9769
 202        8.9769
 203        9.0602
 204        9.0602
 205        9.0602
 206        9.0602
 207        9.0620
 208        9.0620
 209        9.6159
 210        9.6159
 211        9.6159
 212        9.6159
 213       10.0863
 214       10.0863
 215       10.0863
 216       10.0863
 
  0.5000000E+00  0.0000000E+00  0.0000000E+00  0.5787037E-03
   1       -3.7832
   2       -3.7809
   3       -2.9337
   4       -2.9319
   5       -2.8693
   6       -2.8687
   7       -2.8685
   8       -2.8675
   9       -2.8668
  10       -2.8667
  11       -2.8392
  12       -2.8392
  13       -2.8390
  14       -2.8389
  15       -2.8373
  16       -2.8372
  17       -2.8371
  18       -2.8371
  19       -2.7681
  20       -2.7681
  21       -2.7662
  22       -2.7662
  23       -2.3783
  24       -2.3776
  25       -2.3766
  26       -2.3766
  27       -2.3761
  28       -2.3761
  29       -2.3752
  30       -2.3745
  31       -2.3166
  32       -2.3143
  33       -2.3143
  34       -2.3143
  35       -2.3142
  36       -2.3142
  37       -2.3142
  38       -2.3120
  39       -2.2863
  40       -2.2861
  41       -2.2861
  42       -2.2853
  43       -2.2848
  44       -2.2841
  45       -2.2841
  46       -2.2838
  47       -1.9869
  48       -1.9863
  49       -1.9863
  50       -1.9858
  51       -1.9858
  52       -1.9854
  53       -1.9854
  54       -1.9848
  55       -1.9588
  56       -1.9581
  57       -1.9524
  58       -1.9512
  59       -1.9512
  60       -1.9510
  61       -1.9506
  62       -1.9504
  63       -1.9504
  64       -1.9488
  65       -1.8472
  66       -1.8470
  67       -1.8469
  68       -1.8469
  69       -1.8465
  70       -1.8465
  71       -1.8465
  72       -1.8463
  73       -1.6731
  74       -1.6729
  75       -1.6729
  76       -1.6721
  77       -1.6721
  78       -1.6713
  79       -1.6713
  80       -1.6711
  81       -1.5680
  82       -1.5676
  83       -1.5676
  84       -1.5667
  85       -1.5662
  86       -1.5653
  87       -1.5653
  88       -1.5649
  89       -1.5488
  90       -1.5488
  91       -1.5471
  92       -1.5471
  93       -1.0510
  94       -1.0500
  95       -0.9991
  96       -0.9991
  97       -0.9990
  98       -0.9988
  99       -0.9987
 100       -0.9985
 101       -0.9984
 102       -0.9984
 103       -0.8891
 104       -0.8890
 105       -0.8885
 106       -0.8885
 107       -0.8882
 108       -0.8882
 109       -0.8877
 110       -0.8876
 111       -0.8150
 112       -0.8139
 113       -0.8139
 114       -0.8137
 115       -0.8136
 116       -0.8136
 117       -0.8134
 118       -0.8133
 119       -0.8133
 120       -0.8130
 121       -0.8130
 122       -0.8123
 123       -0.8123
 124       -0.8123
 125       -0.8119
 126       -0.8116
 127       -0.7890
 128       -0.7890
 129       -0.7879
 130       -0.7879
 131       -0.7730
 132       -0.7716
 133       -0.4764
 134       -0.4763
 135       -0.4762
 136       -0.4760
 137       -0.4231
 138       -0.4227
 139       -0.4227
 140       -0.4225
 141       -0.4218
 142       -0.4217
 143       -0.4217
 144       -0.4213
 145       -0.3390
 146       -0.3390
 147       -0.3381
 148       -0.3381
 149       -0.3377
 150       -0.3376
 151       -0.3368
 152       -0.3368
 153       -0.3279
 154       -0.3279
 155       -0.3273
 156       -0.3273
 157       -0.3093
 158       -0.3091
 159       -0.0034
 160       -0.0029
 161       -0.0029
 162       -0.0023
 163        0.3692
 164        0.3693
 165        0.3700
 166        0.3700
 167        0.3700
 168        0.3700
 169        0.3706
 170        0.3707
 171        1.8456
 172        1.8462
 173        2.3197
 174        2.3208
 175        2.3211
 176        2.3211
 177        2.3219
 178        2.3219
 179        2.3222
 180        2.3234
 181        5.0337
 182        5.0337
 183        5.0338
 184        5.0350
 185        5.0357
 186        5.0368
 187        5.0370
 188        5.0370
 189        5.7784
 190        5.7784
 191        5.7807
 192        5.7807
 193        7.7545
 194        7.7545
 195        7.7549
 196        7.7559
 197        7.7568
 198        7.7577
 199        7.7581
 200        7.7581
 201        9.0154
 202        9.0156
 203        9.0157
 204        9.0159
 205        9.3184
 206        9.3184
 207        9.3195
 208        9.3197
 209        9.3202
 210        9.3204
 211        9.3215
 212        9.3215
 213       10.2295
 214       10.2297
 215       10.2298
 216       10.2302
 
  0.0000000E+00  0.8333333E-01  0.0000000E+00  0.2314815E-02
   1       -4.3534
   2       -3.1426
   3       -3.1406
   4       -3.1406
   5       -3.1128
   6       -3.1128
   7       -3.1128
   8       -3.1127
   9       -3.0360
  10       -3.0333
  11       -3.0333
  12       -2.8168
  13       -2.7132
  14       -2.7120
  15       -2.7120
  16       -2.7108
  17       -2.6893
  18       -2.5123
  19       -2.5059
  20       -2.5058
  21       -2.4847
  22       -2.4836
  23       -2.4836
  24       -2.4825
  25       -2.4260
  26       -2.4248
  27       -2.4247
  28       -2.4235
  29       -2.3447
  30       -2.2697