       N       E                     dE             d eps       ncg     rms          rms(c)
DAV:   1     0.422244887846E+04    0.42224E+04   -0.21203E+05 84720   0.223E+03
DAV:   2     0.117398363617E+03   -0.41051E+04   -0.39137E+04 84672   0.537E+02
DAV:   3    -0.930787897872E+02   -0.21048E+03   -0.20124E+03 89104   0.147E+02
DAV:   4    -0.971278836380E+02   -0.40491E+01   -0.40232E+01 91136   0.196E+01
DAV:   5    -0.971501151959E+02   -0.22232E-01   -0.22208E-01 90040   0.119E+00    0.154E+01
DAV:   6    -0.905643990041E+02    0.65857E+01   -0.24988E+01 89344   0.191E+01    0.277E+00
DAV:   7    -0.904184373661E+02    0.14596E+00   -0.44075E-01 88216   0.165E+00    0.152E+00
DAV:   8    -0.903446329860E+02    0.73804E-01   -0.36887E-02 89496   0.762E-01    0.118E-01
DAV:   9    -0.903455805675E+02   -0.94758E-03   -0.22117E-03 90064   0.144E-01    0.741E-02
DAV:  10    -0.903454771521E+02    0.10342E-03   -0.19423E-04 88808   0.435E-02    0.915E-03
DAV:  11    -0.903454732551E+02    0.38970E-05   -0.60033E-06 90160   0.676E-03    0.223E-03
DAV:  12    -0.903454694267E+02    0.38284E-05   -0.16936E-07 89104   0.161E-03    0.636E-04
DAV:  13    -0.903454674515E+02    0.19752E-05   -0.30260E-08 68816   0.659E-04    0.926E-05
DAV:  14    -0.903454672722E+02    0.17937E-06   -0.23921E-09 47072   0.167E-04    0.809E-05
DAV:  15    -0.903454672808E+02   -0.86075E-08   -0.23525E-10 46592   0.873E-05
   1 F= -.90345467E+02 E0= -.90345153E+02  d E =-.629380E-03
