 vasp.4.6.28 25Jul05 complex 
 executed on             LinuxIFC date 2017.01.10  10:43:44
 running on    8 nodes
 distr:  one band on    1 nodes,    8 groups


--------------------------------------------------------------------------------------------------------


 INCAR:
 POTCAR:   PAW_PBE Ag 06Sep2000                   
 POTCAR:   PAW_PBE Ag 06Sep2000                   
   VRHFIN =Ag : s1 d10                                                          
   LEXCH  = PE                                                                  
   EATOM  =  1037.4134 eV,   76.2477 Ry                                         
                                                                                
   TITEL  = PAW_PBE Ag 06Sep2000                                                
   LULTRA =        F    use ultrasoft PP ?                                      
   IUNSCR =        1    unscreen: 0-lin 1-nonlin 2-no                           
   RPACOR =    2.000    partial core radius                                     
   POMASS =  107.868; ZVAL   =   11.000    mass and valenz                      
   RCORE  =    2.400    outmost cutoff radius                                   
   RWIGS  =    2.840; RWIGS  =    1.503    wigner-seitz radius (au A)           
   ENMAX  =  249.846; ENMIN  =  187.385 eV                                      
   RCLOC  =    1.962    cutoff for local pot                                    
   LCOR   =        T    correct aug charges                                     
   LPAW   =        T    paw PP                                                  
   EAUG   =  412.496                                                            
   DEXC   =    -.047                                                            
   RMAX   =    2.917    core radius for proj-oper                               
   RAUG   =    1.300    factor for augmentation sphere                          
   RDEP   =    2.416    radius for radial grids                                 
   QCUT   =   -4.285; QGAM   =    8.570    optimization parameters              
                                                                                
   Description                                                                  
     l     E      TYP  RCUT    TYP  RCUT                                        
     2   .000     23  2.400                                                     
     2   .000     23  2.400                                                     
     0   .000     23  2.400                                                     
     0   .000     23  2.400                                                     
     1  -.200     23  2.400                                                     
     1  1.500     23  2.400                                                     
     3   .000      7   .000                                                     
  local pseudopotential read in
  partial core-charges read in
  atomic valenz-charges read in
  non local Contribution for L=           2  read in
    real space projection operators read in
  non local Contribution for L=           2  read in
    real space projection operators read in
  non local Contribution for L=           0  read in
    real space projection operators read in
  non local Contribution for L=           0  read in
    real space projection operators read in
  non local Contribution for L=           1  read in
    real space projection operators read in
  non local Contribution for L=           1  read in
    real space projection operators read in
    PAW grid and wavefunctions read in
 
   number of l-projection  operators is LMAX  =           6
   number of lm-projection operators is LMMAX =          18
 

 ----------------------------------------------------------------------------- 
|                                                                             |
|  ADVICE TO THIS USER RUNNING 'VASP/VAMP'   (HEAR YOUR MASTER'S VOICE ...):  |
|                                                                             |
|      You have a (more or less) 'large supercell' and for larger cells       |
|      it might be more efficient to use real space projection operators      |
|      So try LREAL= Auto  in the INCAR   file.                               |
|      Mind: If you want to do an extremely accurate calculations keep the    |
|      reciprocal projection scheme          (i.e. LREAL=.FALSE.)             |
|                                                                             |
 ----------------------------------------------------------------------------- 

 PAW_PBE Ag 06Sep2000                   :
 energy of atom  1       EATOM=-1037.4134
 kinetic energy error for atom=    0.0010 (will be added to EATOM!!)
 
 EXHCAR: internal setup
 exchange correlation table for  LEXCH =        8
   RHO(1)=    0.500       N(1)  =     2000
   RHO(2)=  100.500       N(2)  =     4000
 
 POSCAR: Ag                                      
  positions in direct lattice
  No initial velocities read in
 


--------------------------------------------------------------------------------------------------------


 ion  position               nearest neighbor table
   1  0.001  0.000  0.000-   9 2.97  11 2.97  17 2.97  21 2.97  25 2.97  27 2.97  29 2.97  31 2.97
                            10 2.98  18 2.98  12 2.98  22 2.98
   2  0.500  0.000  0.000-   9 2.97  10 2.97  11 2.97  12 2.97  17 2.97  18 2.97  21 2.97  22 2.97
                            26 2.97  28 2.97  30 2.97  32 2.97
   3  0.000  0.500  0.000-   9 2.97  10 2.97  11 2.97  12 2.97  19 2.97  20 2.97  23 2.97  24 2.97
                            25 2.97  27 2.97  29 2.97  31 2.97
   4  0.500  0.500  0.000-   9 2.97  10 2.97  11 2.97  12 2.97  19 2.97  20 2.97  23 2.97  24 2.97
                            26 2.97  28 2.97  30 2.97  32 2.97
   5  0.000  0.000  0.500-  13 2.97  14 2.97  15 2.97  16 2.97  17 2.97  18 2.97  21 2.97  22 2.97
                            25 2.97  27 2.97  29 2.97  31 2.97
   6  0.500  0.000  0.500-  13 2.97  14 2.97  15 2.97  16 2.97  17 2.97  18 2.97  21 2.97  22 2.97
                            26 2.97  28 2.97  30 2.97  32 2.97
   7  0.000  0.500  0.500-  13 2.97  14 2.97  15 2.97  16 2.97  19 2.97  20 2.97  23 2.97  24 2.97
                            25 2.97  27 2.97  29 2.97  31 2.97
   8  0.500  0.500  0.500-  13 2.97  14 2.97  15 2.97  16 2.97  19 2.97  20 2.97  23 2.97  24 2.97
                            26 2.97  28 2.97  30 2.97  32 2.97
   9  0.250  0.250  0.000-   1 2.97   2 2.97   3 2.97   4 2.97  17 2.97  19 2.97  21 2.97  23 2.97
                            25 2.97  26 2.97  29 2.97  30 2.97
  10  0.750  0.250  0.000-   2 2.97   3 2.97   4 2.97  18 2.97  20 2.97  22 2.97  24 2.97  25 2.97
                            26 2.97  29 2.97  30 2.97   1 2.98
  11  0.250  0.750  0.000-   1 2.97   2 2.97   3 2.97   4 2.97  17 2.97  19 2.97  21 2.97  23 2.97
                            27 2.97  28 2.97  31 2.97  32 2.97
  12  0.750  0.750  0.000-   2 2.97   3 2.97   4 2.97  18 2.97  20 2.97  22 2.97  24 2.97  27 2.97
                            28 2.97  31 2.97  32 2.97   1 2.98
  13  0.250  0.250  0.500-   5 2.97   6 2.97   7 2.97   8 2.97  17 2.97  19 2.97  21 2.97  23 2.97
                            25 2.97  26 2.97  29 2.97  30 2.97
  14  0.750  0.250  0.500-   5 2.97   6 2.97   7 2.97   8 2.97  18 2.97  20 2.97  22 2.97  24 2.97
                            25 2.97  26 2.97  29 2.97  30 2.97
  15  0.250  0.750  0.500-   5 2.97   6 2.97   7 2.97   8 2.97  17 2.97  19 2.97  21 2.97  23 2.97
                            27 2.97  28 2.97  31 2.97  32 2.97
  16  0.750  0.750  0.500-   5 2.97   6 2.97   7 2.97   8 2.97  18 2.97  20 2.97  22 2.97  24 2.97
                            27 2.97  28 2.97  31 2.97  32 2.97
  17  0.250  0.000  0.250-   1 2.97   2 2.97   5 2.97   6 2.97   9 2.97  11 2.97  13 2.97  15 2.97
                            25 2.97  26 2.97  27 2.97  28 2.97
  18  0.750  0.000  0.250-   2 2.97   5 2.97   6 2.97  10 2.97  12 2.97  14 2.97  16 2.97  25 2.97
                            26 2.97  27 2.97  28 2.97   1 2.98
  19  0.250  0.500  0.250-   3 2.97   4 2.97   7 2.97   8 2.97   9 2.97  11 2.97  13 2.97  15 2.97
                            25 2.97  26 2.97  27 2.97  28 2.97
  20  0.750  0.500  0.250-   3 2.97   4 2.97   7 2.97   8 2.97  10 2.97  12 2.97  14 2.97  16 2.97
                            25 2.97  26 2.97  27 2.97  28 2.97
  21  0.250  0.000  0.750-   1 2.97   2 2.97   5 2.97   6 2.97   9 2.97  11 2.97  13 2.97  15 2.97
                            29 2.97  30 2.97  31 2.97  32 2.97
  22  0.750  0.000  0.750-   2 2.97   5 2.97   6 2.97  10 2.97  12 2.97  14 2.97  16 2.97  29 2.97
                            30 2.97  31 2.97  32 2.97   1 2.98
  23  0.250  0.500  0.750-   3 2.97   4 2.97   7 2.97   8 2.97   9 2.97  11 2.97  13 2.97  15 2.97
                            29 2.97  30 2.97  31 2.97  32 2.97
  24  0.750  0.500  0.750-   3 2.97   4 2.97   7 2.97   8 2.97  10 2.97  12 2.97  14 2.97  16 2.97
                            29 2.97  30 2.97  31 2.97  32 2.97
  25  0.000  0.250  0.250-   3 2.97   5 2.97   7 2.97   9 2.97  10 2.97  13 2.97  14 2.97  17 2.97
                            18 2.97  19 2.97  20 2.97   1 2.97
  26  0.500  0.250  0.250-   2 2.97   4 2.97   6 2.97   8 2.97   9 2.97  10 2.97  13 2.97  14 2.97
                            17 2.97  18 2.97  19 2.97  20 2.97
  27  0.000  0.750  0.250-   3 2.97   5 2.97   7 2.97  11 2.97  12 2.97  15 2.97  16 2.97  17 2.97
                            18 2.97  19 2.97  20 2.97   1 2.97
  28  0.500  0.750  0.250-   2 2.97   4 2.97   6 2.97   8 2.97  11 2.97  12 2.97  15 2.97  16 2.97
                            17 2.97  18 2.97  19 2.97  20 2.97
  29  0.000  0.250  0.750-   3 2.97   5 2.97   7 2.97   9 2.97  10 2.97  13 2.97  14 2.97  21 2.97
                            22 2.97  23 2.97  24 2.97   1 2.97
  30  0.500  0.250  0.750-   2 2.97   4 2.97   6 2.97   8 2.97   9 2.97  10 2.97  13 2.97  14 2.97
                            21 2.97  22 2.97  23 2.97  24 2.97
  31  0.000  0.750  0.750-   3 2.97   5 2.97   7 2.97  11 2.97  12 2.97  15 2.97  16 2.97  21 2.97
                            22 2.97  23 2.97  24 2.97   1 2.97
  32  0.500  0.750  0.750-   2 2.97   4 2.97   6 2.97   8 2.97  11 2.97  12 2.97  15 2.97  16 2.97
                            21 2.97  22 2.97  23 2.97  24 2.97
 
  LATTYP: Found a simple cubic cell.
 ALAT       =     8.4097140589
  
  Lattice vectors:
  
 A1 = (   8.4097140589,   0.0000000000,   0.0000000000)
 A2 = (   0.0000000000,   8.4097140589,   0.0000000000)
 A3 = (   0.0000000000,   0.0000000000,   8.4097140589)
 Subroutine PRICEL returns:
 Original cell was already a primitive cell.
 

Analysis of symmetry for initial positions (statically):

 Routine SETGRP: Setting up the symmetry group for a 
 simple cubic supercell.


 Subroutine GETGRP returns: Found  8 space group operations
 (whereof  8 operations were pure point group operations)
 out of a pool of 48 trial point group operations.


The static configuration has the point symmetry C_4v.

Analysis of symmetry for dynamics (positions and initial velocities):

 Subroutine DYNSYM returns: Found  8 space group operations
 (whereof  8 operations were pure point group operations)
 out of a pool of  8 trial space group operations
 (whereof  8 operations were pure point group operations)
 and found also     1 'primitive' translations


The dynamic configuration has the point symmetry C_4v.
 
 
 KPOINTS: Automatic mesh                          

Automatic generation of k-mesh.
 
 Subroutine IBZKPT returns following result:
 ===========================================
 
 Found    196 irreducible k-points:
 
 Following reciprocal coordinates:
            Coordinates               Weight
  0.000000  0.000000  0.000000      1.000000
  0.083333  0.000000  0.000000      2.000000
  0.166667  0.000000  0.000000      2.000000
  0.250000  0.000000  0.000000      2.000000
  0.333333  0.000000  0.000000      2.000000
  0.416667  0.000000  0.000000      2.000000
  0.500000  0.000000  0.000000      1.000000
  0.000000  0.083333  0.000000      4.000000
  0.083333  0.083333  0.000000      8.000000
  0.166667  0.083333  0.000000      8.000000
  0.250000  0.083333  0.000000      8.000000
  0.333333  0.083333  0.000000      8.000000
  0.416667  0.083333  0.000000      8.000000
  0.500000  0.083333  0.000000      4.000000
  0.000000  0.166667  0.000000      4.000000
  0.083333  0.166667  0.000000      8.000000
  0.166667  0.166667  0.000000      8.000000
  0.250000  0.166667  0.000000      8.000000
  0.333333  0.166667  0.000000      8.000000
  0.416667  0.166667  0.000000      8.000000
  0.500000  0.166667  0.000000      4.000000
  0.000000  0.250000  0.000000      4.000000
  0.083333  0.250000  0.000000      8.000000
  0.166667  0.250000  0.000000      8.000000
  0.250000  0.250000  0.000000      8.000000
  0.333333  0.250000  0.000000      8.000000
  0.416667  0.250000  0.000000      8.000000
  0.500000  0.250000  0.000000      4.000000
  0.000000  0.333333  0.000000      4.000000
  0.083333  0.333333  0.000000      8.000000
  0.166667  0.333333  0.000000      8.000000
  0.250000  0.333333  0.000000      8.000000
  0.333333  0.333333  0.000000      8.000000
  0.416667  0.333333  0.000000      8.000000
  0.500000  0.333333  0.000000      4.000000
  0.000000  0.416667  0.000000      4.000000
  0.083333  0.416667  0.000000      8.000000
  0.166667  0.416667  0.000000      8.000000
  0.250000  0.416667  0.000000      8.000000
  0.333333  0.416667  0.000000      8.000000
  0.416667  0.416667  0.000000      8.000000
  0.500000  0.416667  0.000000      4.000000
  0.000000  0.500000  0.000000      2.000000
  0.083333  0.500000  0.000000      4.000000
  0.166667  0.500000  0.000000      4.000000
  0.250000  0.500000  0.000000      4.000000
  0.333333  0.500000  0.000000      4.000000
  0.416667  0.500000  0.000000      4.000000
  0.500000  0.500000  0.000000      2.000000
  0.000000  0.083333  0.083333      4.000000
  0.083333  0.083333  0.083333      8.000000
  0.166667  0.083333  0.083333      8.000000
  0.250000  0.083333  0.083333      8.000000
  0.333333  0.083333  0.083333      8.000000
  0.416667  0.083333  0.083333      8.000000
  0.500000  0.083333  0.083333      4.000000
  0.000000  0.166667  0.083333      8.000000
  0.083333  0.166667  0.083333     16.000000
  0.166667  0.166667  0.083333     16.000000
  0.250000  0.166667  0.083333     16.000000
  0.333333  0.166667  0.083333     16.000000
  0.416667  0.166667  0.083333     16.000000
  0.500000  0.166667  0.083333      8.000000
  0.000000  0.250000  0.083333      8.000000
  0.083333  0.250000  0.083333     16.000000
  0.166667  0.250000  0.083333     16.000000
  0.250000  0.250000  0.083333     16.000000
  0.333333  0.250000  0.083333     16.000000
  0.416667  0.250000  0.083333     16.000000
  0.500000  0.250000  0.083333      8.000000
  0.000000  0.333333  0.083333      8.000000
  0.083333  0.333333  0.083333     16.000000
  0.166667  0.333333  0.083333     16.000000
  0.250000  0.333333  0.083333     16.000000
  0.333333  0.333333  0.083333     16.000000
  0.416667  0.333333  0.083333     16.000000
  0.500000  0.333333  0.083333      8.000000
  0.000000  0.416667  0.083333      8.000000
  0.083333  0.416667  0.083333     16.000000
  0.166667  0.416667  0.083333     16.000000
  0.250000  0.416667  0.083333     16.000000
  0.333333  0.416667  0.083333     16.000000
  0.416667  0.416667  0.083333     16.000000
  0.500000  0.416667  0.083333      8.000000
  0.000000  0.500000  0.083333      4.000000
  0.083333  0.500000  0.083333      8.000000
  0.166667  0.500000  0.083333      8.000000
  0.250000  0.500000  0.083333      8.000000
  0.333333  0.500000  0.083333      8.000000
  0.416667  0.500000  0.083333      8.000000
  0.500000  0.500000  0.083333      4.000000
  0.000000  0.166667  0.166667      4.000000
  0.083333  0.166667  0.166667      8.000000
  0.166667  0.166667  0.166667      8.000000
  0.250000  0.166667  0.166667      8.000000
  0.333333  0.166667  0.166667      8.000000
  0.416667  0.166667  0.166667      8.000000
  0.500000  0.166667  0.166667      4.000000
  0.000000  0.250000  0.166667      8.000000
  0.083333  0.250000  0.166667     16.000000
  0.166667  0.250000  0.166667     16.000000
  0.250000  0.250000  0.166667     16.000000
  0.333333  0.250000  0.166667     16.000000
  0.416667  0.250000  0.166667     16.000000
  0.500000  0.250000  0.166667      8.000000
  0.000000  0.333333  0.166667      8.000000
  0.083333  0.333333  0.166667     16.000000
  0.166667  0.333333  0.166667     16.000000
  0.250000  0.333333  0.166667     16.000000
  0.333333  0.333333  0.166667     16.000000
  0.416667  0.333333  0.166667     16.000000
  0.500000  0.333333  0.166667      8.000000
  0.000000  0.416667  0.166667      8.000000
  0.083333  0.416667  0.166667     16.000000
  0.166667  0.416667  0.166667     16.000000
  0.250000  0.416667  0.166667     16.000000
  0.333333  0.416667  0.166667     16.000000
  0.416667  0.416667  0.166667     16.000000
  0.500000  0.416667  0.166667      8.000000
  0.000000  0.500000  0.166667      4.000000
  0.083333  0.500000  0.166667      8.000000
  0.166667  0.500000  0.166667      8.000000
  0.250000  0.500000  0.166667      8.000000
  0.333333  0.500000  0.166667      8.000000
  0.416667  0.500000  0.166667      8.000000
  0.500000  0.500000  0.166667      4.000000
  0.000000  0.250000  0.250000      4.000000
  0.083333  0.250000  0.250000      8.000000
  0.166667  0.250000  0.250000      8.000000
  0.250000  0.250000  0.250000      8.000000
  0.333333  0.250000  0.250000      8.000000
  0.416667  0.250000  0.250000      8.000000
  0.500000  0.250000  0.250000      4.000000
  0.000000  0.333333  0.250000      8.000000
  0.083333  0.333333  0.250000     16.000000
  0.166667  0.333333  0.250000     16.000000
  0.250000  0.333333  0.250000     16.000000
  0.333333  0.333333  0.250000     16.000000
  0.416667  0.333333  0.250000     16.000000
  0.500000  0.333333  0.250000      8.000000
  0.000000  0.416667  0.250000      8.000000
  0.083333  0.416667  0.250000     16.000000
  0.166667  0.416667  0.250000     16.000000
  0.250000  0.416667  0.250000     16.000000
  0.333333  0.416667  0.250000     16.000000
  0.416667  0.416667  0.250000     16.000000
  0.500000  0.416667  0.250000      8.000000
  0.000000  0.500000  0.250000      4.000000
  0.083333  0.500000  0.250000      8.000000
  0.166667  0.500000  0.250000      8.000000
  0.250000  0.500000  0.250000      8.000000
  0.333333  0.500000  0.250000      8.000000
  0.416667  0.500000  0.250000      8.000000
  0.500000  0.500000  0.250000      4.000000
  0.000000  0.333333  0.333333      4.000000
  0.083333  0.333333  0.333333      8.000000
  0.166667  0.333333  0.333333      8.000000
  0.250000  0.333333  0.333333      8.000000
  0.333333  0.333333  0.333333      8.000000
  0.416667  0.333333  0.333333      8.000000
  0.500000  0.333333  0.333333      4.000000
  0.000000  0.416667  0.333333      8.000000
  0.083333  0.416667  0.333333     16.000000
  0.166667  0.416667  0.333333     16.000000
  0.250000  0.416667  0.333333     16.000000
  0.333333  0.416667  0.333333     16.000000
  0.416667  0.416667  0.333333     16.000000
  0.500000  0.416667  0.333333      8.000000
  0.000000  0.500000  0.333333      4.000000
  0.083333  0.500000  0.333333      8.000000
  0.166667  0.500000  0.333333      8.000000
  0.250000  0.500000  0.333333      8.000000
  0.333333  0.500000  0.333333      8.000000
  0.416667  0.500000  0.333333      8.000000
  0.500000  0.500000  0.333333      4.000000
  0.000000  0.416667  0.416667      4.000000
  0.083333  0.416667  0.416667      8.000000
  0.166667  0.416667  0.416667      8.000000
  0.250000  0.416667  0.416667      8.000000
  0.333333  0.416667  0.416667      8.000000
  0.416667  0.416667  0.416667      8.000000
  0.500000  0.416667  0.416667      4.000000
  0.000000  0.500000  0.416667      4.000000
  0.083333  0.500000  0.416667      8.000000
  0.166667  0.500000  0.416667      8.000000
  0.250000  0.500000  0.416667      8.000000
  0.333333  0.500000  0.416667      8.000000
  0.416667  0.500000  0.416667      8.000000
  0.500000  0.500000  0.416667      4.000000
  0.000000  0.500000  0.500000      1.000000
  0.083333  0.500000  0.500000      2.000000
  0.166667  0.500000  0.500000      2.000000
  0.250000  0.500000  0.500000      2.000000
  0.333333  0.500000  0.500000      2.000000
  0.416667  0.500000  0.500000      2.000000
  0.500000  0.500000  0.500000      1.000000
 
 Following cartesian coordinates:
            Coordinates               Weight
  0.000000  0.000000  0.000000      1.000000
  0.009909  0.000000  0.000000      2.000000
  0.019818  0.000000  0.000000      2.000000
  0.029728  0.000000  0.000000      2.000000
  0.039637  0.000000  0.000000      2.000000
  0.049546  0.000000  0.000000      2.000000
  0.059455  0.000000  0.000000      1.000000
  0.000000  0.009909  0.000000      4.000000
  0.009909  0.009909  0.000000      8.000000
  0.019818  0.009909  0.000000      8.000000
  0.029728  0.009909  0.000000      8.000000
  0.039637  0.009909  0.000000      8.000000
  0.049546  0.009909  0.000000      8.000000
  0.059455  0.009909  0.000000      4.000000
  0.000000  0.019818  0.000000      4.000000
  0.009909  0.019818  0.000000      8.000000
  0.019818  0.019818  0.000000      8.000000
  0.029728  0.019818  0.000000      8.000000
  0.039637  0.019818  0.000000      8.000000
  0.049546  0.019818  0.000000      8.000000
  0.059455  0.019818  0.000000      4.000000
  0.000000  0.029728  0.000000      4.000000
  0.009909  0.029728  0.000000      8.000000
  0.019818  0.029728  0.000000      8.000000
  0.029728  0.029728  0.000000      8.000000
  0.039637  0.029728  0.000000      8.000000
  0.049546  0.029728  0.000000      8.000000
  0.059455  0.029728  0.000000      4.000000
  0.000000  0.039637  0.000000      4.000000
  0.009909  0.039637  0.000000      8.000000
  0.019818  0.039637  0.000000      8.000000
  0.029728  0.039637  0.000000      8.000000
  0.039637  0.039637  0.000000      8.000000
  0.049546  0.039637  0.000000      8.000000
  0.059455  0.039637  0.000000      4.000000
  0.000000  0.049546  0.000000      4.000000
  0.009909  0.049546  0.000000      8.000000
  0.019818  0.049546  0.000000      8.000000
  0.029728  0.049546  0.000000      8.000000
  0.039637  0.049546  0.000000      8.000000
  0.049546  0.049546  0.000000      8.000000
  0.059455  0.049546  0.000000      4.000000
  0.000000  0.059455  0.000000      2.000000
  0.009909  0.059455  0.000000      4.000000
  0.019818  0.059455  0.000000      4.000000
  0.029728  0.059455  0.000000      4.000000
  0.039637  0.059455  0.000000      4.000000
  0.049546  0.059455  0.000000      4.000000
  0.059455  0.059455  0.000000      2.000000
  0.000000  0.009909  0.009909      4.000000
  0.009909  0.009909  0.009909      8.000000
  0.019818  0.009909  0.009909      8.000000
  0.029728  0.009909  0.009909      8.000000
  0.039637  0.009909  0.009909      8.000000
  0.049546  0.009909  0.009909      8.000000
  0.059455  0.009909  0.009909      4.000000
  0.000000  0.019818  0.009909      8.000000
  0.009909  0.019818  0.009909     16.000000
  0.019818  0.019818  0.009909     16.000000
  0.029728  0.019818  0.009909     16.000000
  0.039637  0.019818  0.009909     16.000000
  0.049546  0.019818  0.009909     16.000000
  0.059455  0.019818  0.009909      8.000000
  0.000000  0.029728  0.009909      8.000000
  0.009909  0.029728  0.009909     16.000000
  0.019818  0.029728  0.009909     16.000000
  0.029728  0.029728  0.009909     16.000000
  0.039637  0.029728  0.009909     16.000000
  0.049546  0.029728  0.009909     16.000000
  0.059455  0.029728  0.009909      8.000000
  0.000000  0.039637  0.009909      8.000000
  0.009909  0.039637  0.009909     16.000000
  0.019818  0.039637  0.009909     16.000000
  0.029728  0.039637  0.009909     16.000000
  0.039637  0.039637  0.009909     16.000000
  0.049546  0.039637  0.009909     16.000000
  0.059455  0.039637  0.009909      8.000000
  0.000000  0.049546  0.009909      8.000000
  0.009909  0.049546  0.009909     16.000000
  0.019818  0.049546  0.009909     16.000000
  0.029728  0.049546  0.009909     16.000000
  0.039637  0.049546  0.009909     16.000000
  0.049546  0.049546  0.009909     16.000000
  0.059455  0.049546  0.009909      8.000000
  0.000000  0.059455  0.009909      4.000000
  0.009909  0.059455  0.009909      8.000000
  0.019818  0.059455  0.009909      8.000000
  0.029728  0.059455  0.009909      8.000000
  0.039637  0.059455  0.009909      8.000000
  0.049546  0.059455  0.009909      8.000000
  0.059455  0.059455  0.009909      4.000000
  0.000000  0.019818  0.019818      4.000000
  0.009909  0.019818  0.019818      8.000000
  0.019818  0.019818  0.019818      8.000000
  0.029728  0.019818  0.019818      8.000000
  0.039637  0.019818  0.019818      8.000000
  0.049546  0.019818  0.019818      8.000000
  0.059455  0.019818  0.019818      4.000000
  0.000000  0.029728  0.019818      8.000000
  0.009909  0.029728  0.019818     16.000000
  0.019818  0.029728  0.019818     16.000000
  0.029728  0.029728  0.019818     16.000000
  0.039637  0.029728  0.019818     16.000000
  0.049546  0.029728  0.019818     16.000000
  0.059455  0.029728  0.019818      8.000000
  0.000000  0.039637  0.019818      8.000000
  0.009909  0.039637  0.019818     16.000000
  0.019818  0.039637  0.019818     16.000000
  0.029728  0.039637  0.019818     16.000000
  0.039637  0.039637  0.019818     16.000000
  0.049546  0.039637  0.019818     16.000000
  0.059455  0.039637  0.019818      8.000000
  0.000000  0.049546  0.019818      8.000000
  0.009909  0.049546  0.019818     16.000000
  0.019818  0.049546  0.019818     16.000000
  0.029728  0.049546  0.019818     16.000000
  0.039637  0.049546  0.019818     16.000000
  0.049546  0.049546  0.019818     16.000000
  0.059455  0.049546  0.019818      8.000000
  0.000000  0.059455  0.019818      4.000000
  0.009909  0.059455  0.019818      8.000000
  0.019818  0.059455  0.019818      8.000000
  0.029728  0.059455  0.019818      8.000000
  0.039637  0.059455  0.019818      8.000000
  0.049546  0.059455  0.019818      8.000000
  0.059455  0.059455  0.019818      4.000000
  0.000000  0.029728  0.029728      4.000000
  0.009909  0.029728  0.029728      8.000000
  0.019818  0.029728  0.029728      8.000000
  0.029728  0.029728  0.029728      8.000000
  0.039637  0.029728  0.029728      8.000000
  0.049546  0.029728  0.029728      8.000000
  0.059455  0.029728  0.029728      4.000000
  0.000000  0.039637  0.029728      8.000000
  0.009909  0.039637  0.029728     16.000000
  0.019818  0.039637  0.029728     16.000000
  0.029728  0.039637  0.029728     16.000000
  0.039637  0.039637  0.029728     16.000000
  0.049546  0.039637  0.029728     16.000000
  0.059455  0.039637  0.029728      8.000000
  0.000000  0.049546  0.029728      8.000000
  0.009909  0.049546  0.029728     16.000000
  0.019818  0.049546  0.029728     16.000000
  0.029728  0.049546  0.029728     16.000000
  0.039637  0.049546  0.029728     16.000000
  0.049546  0.049546  0.029728     16.000000
  0.059455  0.049546  0.029728      8.000000
  0.000000  0.059455  0.029728      4.000000
  0.009909  0.059455  0.029728      8.000000
  0.019818  0.059455  0.029728      8.000000
  0.029728  0.059455  0.029728      8.000000
  0.039637  0.059455  0.029728      8.000000
  0.049546  0.059455  0.029728      8.000000
  0.059455  0.059455  0.029728      4.000000
  0.000000  0.039637  0.039637      4.000000
  0.009909  0.039637  0.039637      8.000000
  0.019818  0.039637  0.039637      8.000000
  0.029728  0.039637  0.039637      8.000000
  0.039637  0.039637  0.039637      8.000000
  0.049546  0.039637  0.039637      8.000000
  0.059455  0.039637  0.039637      4.000000
  0.000000  0.049546  0.039637      8.000000
  0.009909  0.049546  0.039637     16.000000
  0.019818  0.049546  0.039637     16.000000
  0.029728  0.049546  0.039637     16.000000
  0.039637  0.049546  0.039637     16.000000
  0.049546  0.049546  0.039637     16.000000
  0.059455  0.049546  0.039637      8.000000
  0.000000  0.059455  0.039637      4.000000
  0.009909  0.059455  0.039637      8.000000
  0.019818  0.059455  0.039637      8.000000
  0.029728  0.059455  0.039637      8.000000
  0.039637  0.059455  0.039637      8.000000
  0.049546  0.059455  0.039637      8.000000
  0.059455  0.059455  0.039637      4.000000
  0.000000  0.049546  0.049546      4.000000
  0.009909  0.049546  0.049546      8.000000
  0.019818  0.049546  0.049546      8.000000
  0.029728  0.049546  0.049546      8.000000
  0.039637  0.049546  0.049546      8.000000
  0.049546  0.049546  0.049546      8.000000
  0.059455  0.049546  0.049546      4.000000
  0.000000  0.059455  0.049546      4.000000
  0.009909  0.059455  0.049546      8.000000
  0.019818  0.059455  0.049546      8.000000
  0.029728  0.059455  0.049546      8.000000
  0.039637  0.059455  0.049546      8.000000
  0.049546  0.059455  0.049546      8.000000
  0.059455  0.059455  0.049546      4.000000
  0.000000  0.059455  0.059455      1.000000
  0.009909  0.059455  0.059455      2.000000
  0.019818  0.059455  0.059455      2.000000
  0.029728  0.059455  0.059455      2.000000
  0.039637  0.059455  0.059455      2.000000
  0.049546  0.059455  0.059455      2.000000
  0.059455  0.059455  0.059455      1.000000
 


--------------------------------------------------------------------------------------------------------




 Dimension of arrays:
   k-Points           NKPTS =    196   number of bands    NBANDS=    216
   number of dos      NEDOS =    301   number of ions     NIONS =     32
   non local maximal  LDIM  =      6   non local SUM 2l+1 LMDIM =     18
   total plane-waves  NPLWV = 512000
   max r-space proj   IRMAX =      1   max aug-charges    IRDMAX= 338774
   dimension x,y,z NGX =    80 NGY =   80 NGZ =   80
   dimension x,y,z NGXF=   160 NGYF=  160 NGZF=  160
   support grid    NGXF=   320 NGYF=  320 NGZF=  320
   ions per type =              32
 NGX,Y,Z   is equivalent  to a cutoff of  15.81, 15.81, 15.81 a.u.
 NGXF,Y,Z  is equivalent  to a cutoff of  31.63, 31.63, 31.63 a.u.


 I would recommend the setting:
   dimension x,y,z NGX =    75 NGY =   75 NGZ =   75
 SYSTEM =  unknown system                          
 POSCAR =  Ag                                      

 Startparameter for this run:
   NWRITE =      2    write-flag & timer
   PREC   = accura    medium, high low
   ISTART =      0    job   : 0-new  1-cont  2-samecut
   ICHARG =      2    charge: 1-file 2-atom 10-const
   ISPIN  =      1    spin polarized calculation?
   LNONCOLLINEAR =      F non collinear calculations
   LSORBIT =      F    spin-orbit coupling
   INIWAV =      1    electr: 0-lowe 1-rand  2-diag
   LASPH  =      F    aspherical Exc in radial PAW
   METAGGA=      F    non-selfconsistent MetaGGA calc.

 Electronic Relaxation 1
   ENCUT  =  750.0 eV  55.12 Ry    7.42 a.u.  18.78 18.78 18.78*2*pi/ulx,y,z
   ENINI  =  750.0     initial cutoff
   ENAUG  =  412.5 eV  augmentation charge cutoff
   NELM   =     60;   NELMIN=  2; NELMDL= -5     # of ELM steps 
   EDIFF  = 0.1E-07   stopping-criterion for ELM
   LREAL  =      F    real-space projection
   LCOMPAT=      F    compatible to vasp.4.4
   LREAL_COMPAT= F    compatible to vasp.4.5.1-3
   GGA_COMPAT  = T    GGA compatible to vasp.4.4-vasp.4.6
   LMAXPAW     = -100 max onsite density
   LMAXMIX     =    2 max onsite mixed and CHGCAR
   VOSKOWN=      0    Vosko Wilk Nusair interpolation
   ROPT   =    0.00000
 Ionic relaxation
   EDIFFG = 0.1E-06   stopping-criterion for IOM
   NSW    =      0    number of steps for IOM
   NBLOCK =      1;   KBLOCK =      1    inner block; outer block 
   IBRION =     -1    ionic relax: 0-MD 1-quasi-New 2-CG
   NFREE  =      0    steps in history (QN), initial steepest desc. (CG)
   ISIF   =      2    stress and relaxation
   IWAVPR =     10    prediction:  0-non 1-charg 2-wave 3-comb
   ISYM   =      2    0-nonsym 1-usesym 2-fastsym
   LCORR  =      T    Harris-Foulkes like correction to forces

   POTIM  =   0.50    time-step for ionic-motion
   TEIN   =    0.0    initial temperature
   TEBEG  =    0.0;   TEEND  =   0.0 temperature during run
   SMASS  =  -3.00    Nose mass-parameter (am)
   estimated Nose-frequenzy (Omega)   =  0.10E-29 period in steps =****** mass=  -0.162E-26a.u.
   NPACO  =    256;   APACO  = 16.0  distance and # of slots for P.C.
   PSTRESS=    0.0 pullay stress

  Mass of Ions in am
   POMASS = 107.87
  Ionic Valenz
   ZVAL   =  11.00
  Atomic Wigner-Seitz radii
   RWIGS  =  -1.00
   NELECT =     352.0000    total number of electrons
   NUPDOWN=      -1.0000    fix difference up-down

 DOS related values:
   EMIN   =  10.00;   EMAX   =-10.00  energy-range for DOS
   ISMEAR =     0;   SIGMA  =   0.01  broadening in eV -4-tet -1-fermi 0-gaus

 Electronic relaxation 2 (details)
   IALGO  =     38    algorithm
   LDIAG  =      T    sub-space diagonalisation
   IMIX   =      4    mixing-type and parameters
     AMIX     =   0.40;   BMIX     =  1.00
     AMIX_MAG =   1.60;   BMIX_MAG =  1.00
     AMIN     =   0.10
     WC   =   100.;   INIMIX=   1;  MIXPRE=   1

 Intra band minimization:
   WEIMIN = 0.0000     energy-eigenvalue tresh-hold
   EBREAK =  0.12E-10  absolut break condition
   DEPER  =   0.30     relativ break condition  

   TIME   =   0.10     timestep for ELM

  volume/ion in A,a.u.               =      18.59       125.43
  Fermi-wavevector in a.u.,eV,Ry     =   1.374489 25.704385  1.889219

 Second variation
   LSECVAR=     F    do a second variation
 
 Write flags
   LWAVE  =      F    write WAVECAR
   LCHARG =      F    write CHGCAR
   LVTOT  =      F    write LOCPOT, local potential
   LELF   =      F    write electronic localiz. function (ELF)
   LORBIT =      0    0 simple, 1 ext, 2 COOP (PROOUT)


 Dipole corrections
   IDIPOL =      0    1-x, 2-y, 3-z
   LDIPOL =      F    correct potential



--------------------------------------------------------------------------------------------------------


 Static calculation
 charge density will be updated during run
 non-spin polarized calculation
 Variant of blocked Davidson
 Davidson routine will perform the subspace rotation
 performe sub-space diagonalisation
    after iterative eigenvector-optimisation
 modified Broyden-mixing scheme, WC =      100.0
 initial mixing is a Kerker type mixing with AMIX =  0.4000 and BMIX =      1.0000
 Hartree-type preconditioning will be used
 using additional bands           40
 reciprocal scheme for non local part
 use partial core corrections
 calculate Harris-corrections to forces 
   (improved forces if not selfconsistent)
 use gradient corrections 
 use of overlap-Matrix (Vanderbilt PP)
 Gauss-broadening in eV      SIGMA  =   0.01


--------------------------------------------------------------------------------------------------------


  energy-cutoff  :      750.00
  volume of cell :      594.76
      direct lattice vectors                 reciprocal lattice vectors
     8.409714059  0.000000000  0.000000000     0.118910107  0.000000000  0.000000000
     0.000000000  8.409714059  0.000000000     0.000000000  0.118910107  0.000000000
     0.000000000  0.000000000  8.409714059     0.000000000  0.000000000  0.118910107

  length of vectors
     8.409714059  8.409714059  8.409714059     0.118910107  0.118910107  0.118910107


 
 k-points in units of 2pi/SCALE and weight: Automatic mesh                          
   0.00000000  0.00000000  0.00000000       0.001
   0.00990918  0.00000000  0.00000000       0.001
   0.01981835  0.00000000  0.00000000       0.001
   0.02972753  0.00000000  0.00000000       0.001
   0.03963670  0.00000000  0.00000000       0.001
   0.04954588  0.00000000  0.00000000       0.001
   0.05945505  0.00000000  0.00000000       0.001
   0.00000000  0.00990918  0.00000000       0.002
   0.00990918  0.00990918  0.00000000       0.005
   0.01981835  0.00990918  0.00000000       0.005
   0.02972753  0.00990918  0.00000000       0.005
   0.03963670  0.00990918  0.00000000       0.005
   0.04954588  0.00990918  0.00000000       0.005
   0.05945505  0.00990918  0.00000000       0.002
   0.00000000  0.01981835  0.00000000       0.002
   0.00990918  0.01981835  0.00000000       0.005
   0.01981835  0.01981835  0.00000000       0.005
   0.02972753  0.01981835  0.00000000       0.005
   0.03963670  0.01981835  0.00000000       0.005
   0.04954588  0.01981835  0.00000000       0.005
   0.05945505  0.01981835  0.00000000       0.002
   0.00000000  0.02972753  0.00000000       0.002
   0.00990918  0.02972753  0.00000000       0.005
   0.01981835  0.02972753  0.00000000       0.005
   0.02972753  0.02972753  0.00000000       0.005
   0.03963670  0.02972753  0.00000000       0.005
   0.04954588  0.02972753  0.00000000       0.005
   0.05945505  0.02972753  0.00000000       0.002
   0.00000000  0.03963670  0.00000000       0.002
   0.00990918  0.03963670  0.00000000       0.005
   0.01981835  0.03963670  0.00000000       0.005
   0.02972753  0.03963670  0.00000000       0.005
   0.03963670  0.03963670  0.00000000       0.005
   0.04954588  0.03963670  0.00000000       0.005
   0.05945505  0.03963670  0.00000000       0.002
   0.00000000  0.04954588  0.00000000       0.002
   0.00990918  0.04954588  0.00000000       0.005
   0.01981835  0.04954588  0.00000000       0.005
   0.02972753  0.04954588  0.00000000       0.005
   0.03963670  0.04954588  0.00000000       0.005
   0.04954588  0.04954588  0.00000000       0.005
   0.05945505  0.04954588  0.00000000       0.002
   0.00000000  0.05945505  0.00000000       0.001
   0.00990918  0.05945505  0.00000000       0.002
   0.01981835  0.05945505  0.00000000       0.002
   0.02972753  0.05945505  0.00000000       0.002
   0.03963670  0.05945505  0.00000000       0.002
   0.04954588  0.05945505  0.00000000       0.002
   0.05945505  0.05945505  0.00000000       0.001
   0.00000000  0.00990918  0.00990918       0.002
   0.00990918  0.00990918  0.00990918       0.005
   0.01981835  0.00990918  0.00990918       0.005
   0.02972753  0.00990918  0.00990918       0.005
   0.03963670  0.00990918  0.00990918       0.005
   0.04954588  0.00990918  0.00990918       0.005
   0.05945505  0.00990918  0.00990918       0.002
   0.00000000  0.01981835  0.00990918       0.005
   0.00990918  0.01981835  0.00990918       0.009
   0.01981835  0.01981835  0.00990918       0.009
   0.02972753  0.01981835  0.00990918       0.009
   0.03963670  0.01981835  0.00990918       0.009
   0.04954588  0.01981835  0.00990918       0.009
   0.05945505  0.01981835  0.00990918       0.005
   0.00000000  0.02972753  0.00990918       0.005
   0.00990918  0.02972753  0.00990918       0.009
   0.01981835  0.02972753  0.00990918       0.009
   0.02972753  0.02972753  0.00990918       0.009
   0.03963670  0.02972753  0.00990918       0.009
   0.04954588  0.02972753  0.00990918       0.009
   0.05945505  0.02972753  0.00990918       0.005
   0.00000000  0.03963670  0.00990918       0.005
   0.00990918  0.03963670  0.00990918       0.009
   0.01981835  0.03963670  0.00990918       0.009
   0.02972753  0.03963670  0.00990918       0.009
   0.03963670  0.03963670  0.00990918       0.009
   0.04954588  0.03963670  0.00990918       0.009
   0.05945505  0.03963670  0.00990918       0.005
   0.00000000  0.04954588  0.00990918       0.005
   0.00990918  0.04954588  0.00990918       0.009
   0.01981835  0.04954588  0.00990918       0.009
   0.02972753  0.04954588  0.00990918       0.009
   0.03963670  0.04954588  0.00990918       0.009
   0.04954588  0.04954588  0.00990918       0.009
   0.05945505  0.04954588  0.00990918       0.005
   0.00000000  0.05945505  0.00990918       0.002
   0.00990918  0.05945505  0.00990918       0.005
   0.01981835  0.05945505  0.00990918       0.005
   0.02972753  0.05945505  0.00990918       0.005
   0.03963670  0.05945505  0.00990918       0.005
   0.04954588  0.05945505  0.00990918       0.005
   0.05945505  0.05945505  0.00990918       0.002
   0.00000000  0.01981835  0.01981835       0.002
   0.00990918  0.01981835  0.01981835       0.005
   0.01981835  0.01981835  0.01981835       0.005
   0.02972753  0.01981835  0.01981835       0.005
   0.03963670  0.01981835  0.01981835       0.005
   0.04954588  0.01981835  0.01981835       0.005
   0.05945505  0.01981835  0.01981835       0.002
   0.00000000  0.02972753  0.01981835       0.005
   0.00990918  0.02972753  0.01981835       0.009
   0.01981835  0.02972753  0.01981835       0.009
   0.02972753  0.02972753  0.01981835       0.009
   0.03963670  0.02972753  0.01981835       0.009
   0.04954588  0.02972753  0.01981835       0.009
   0.05945505  0.02972753  0.01981835       0.005
   0.00000000  0.03963670  0.01981835       0.005
   0.00990918  0.03963670  0.01981835       0.009
   0.01981835  0.03963670  0.01981835       0.009
   0.02972753  0.03963670  0.01981835       0.009
   0.03963670  0.03963670  0.01981835       0.009
   0.04954588  0.03963670  0.01981835       0.009
   0.05945505  0.03963670  0.01981835       0.005
   0.00000000  0.04954588  0.01981835       0.005
   0.00990918  0.04954588  0.01981835       0.009
   0.01981835  0.04954588  0.01981835       0.009
   0.02972753  0.04954588  0.01981835       0.009
   0.03963670  0.04954588  0.01981835       0.009
   0.04954588  0.04954588  0.01981835       0.009
   0.05945505  0.04954588  0.01981835       0.005
   0.00000000  0.05945505  0.01981835       0.002
   0.00990918  0.05945505  0.01981835       0.005
   0.01981835  0.05945505  0.01981835       0.005
   0.02972753  0.05945505  0.01981835       0.005
   0.03963670  0.05945505  0.01981835       0.005
   0.04954588  0.05945505  0.01981835       0.005
   0.05945505  0.05945505  0.01981835       0.002
   0.00000000  0.02972753  0.02972753       0.002
   0.00990918  0.02972753  0.02972753       0.005
   0.01981835  0.02972753  0.02972753       0.005
   0.02972753  0.02972753  0.02972753       0.005
   0.03963670  0.02972753  0.02972753       0.005
   0.04954588  0.02972753  0.02972753       0.005
   0.05945505  0.02972753  0.02972753       0.002
   0.00000000  0.03963670  0.02972753       0.005
   0.00990918  0.03963670  0.02972753       0.009
   0.01981835  0.03963670  0.02972753       0.009
   0.02972753  0.03963670  0.02972753       0.009
   0.03963670  0.03963670  0.02972753       0.009
   0.04954588  0.03963670  0.02972753       0.009
   0.05945505  0.03963670  0.02972753       0.005
   0.00000000  0.04954588  0.02972753       0.005
   0.00990918  0.04954588  0.02972753       0.009
   0.01981835  0.04954588  0.02972753       0.009
   0.02972753  0.04954588  0.02972753       0.009
   0.03963670  0.04954588  0.02972753       0.009
   0.04954588  0.04954588  0.02972753       0.009
   0.05945505  0.04954588  0.02972753       0.005
   0.00000000  0.05945505  0.02972753       0.002
   0.00990918  0.05945505  0.02972753       0.005
   0.01981835  0.05945505  0.02972753       0.005
   0.02972753  0.05945505  0.02972753       0.005
   0.03963670  0.05945505  0.02972753       0.005
   0.04954588  0.05945505  0.02972753       0.005
   0.05945505  0.05945505  0.02972753       0.002
   0.00000000  0.03963670  0.03963670       0.002
   0.00990918  0.03963670  0.03963670       0.005
   0.01981835  0.03963670  0.03963670       0.005
   0.02972753  0.03963670  0.03963670       0.005
   0.03963670  0.03963670  0.03963670       0.005
   0.04954588  0.03963670  0.03963670       0.005
   0.05945505  0.03963670  0.03963670       0.002
   0.00000000  0.04954588  0.03963670       0.005
   0.00990918  0.04954588  0.03963670       0.009
   0.01981835  0.04954588  0.03963670       0.009
   0.02972753  0.04954588  0.03963670       0.009
   0.03963670  0.04954588  0.03963670       0.009
   0.04954588  0.04954588  0.03963670       0.009
   0.05945505  0.04954588  0.03963670       0.005
   0.00000000  0.05945505  0.03963670       0.002
   0.00990918  0.05945505  0.03963670       0.005
   0.01981835  0.05945505  0.03963670       0.005
   0.02972753  0.05945505  0.03963670       0.005
   0.03963670  0.05945505  0.03963670       0.005
   0.04954588  0.05945505  0.03963670       0.005
   0.05945505  0.05945505  0.03963670       0.002
   0.00000000  0.04954588  0.04954588       0.002
   0.00990918  0.04954588  0.04954588       0.005
   0.01981835  0.04954588  0.04954588       0.005
   0.02972753  0.04954588  0.04954588       0.005
   0.03963670  0.04954588  0.04954588       0.005
   0.04954588  0.04954588  0.04954588       0.005
   0.05945505  0.04954588  0.04954588       0.002
   0.00000000  0.05945505  0.04954588       0.002
   0.00990918  0.05945505  0.04954588       0.005
   0.01981835  0.05945505  0.04954588       0.005
   0.02972753  0.05945505  0.04954588       0.005
   0.03963670  0.05945505  0.04954588       0.005
   0.04954588  0.05945505  0.04954588       0.005
   0.05945505  0.05945505  0.04954588       0.002
   0.00000000  0.05945505  0.05945505       0.001
   0.00990918  0.05945505  0.05945505       0.001
   0.01981835  0.05945505  0.05945505       0.001
   0.02972753  0.05945505  0.05945505       0.001
   0.03963670  0.05945505  0.05945505       0.001
   0.04954588  0.05945505  0.05945505       0.001
   0.05945505  0.05945505  0.05945505       0.001
 
 k-points in reciprocal lattice and weights: Automatic mesh                          
   0.00000000  0.00000000  0.00000000       0.001
   0.08333333  0.00000000  0.00000000       0.001
   0.16666667  0.00000000  0.00000000       0.001
   0.25000000  0.00000000  0.00000000       0.001
   0.33333333  0.00000000  0.00000000       0.001
   0.41666667  0.00000000  0.00000000       0.001
   0.50000000  0.00000000  0.00000000       0.001
   0.00000000  0.08333333  0.00000000       0.002
   0.08333333  0.08333333  0.00000000       0.005
   0.16666667  0.08333333  0.00000000       0.005
   0.25000000  0.08333333  0.00000000       0.005
   0.33333333  0.08333333  0.00000000       0.005
   0.41666667  0.08333333  0.00000000       0.005
   0.50000000  0.08333333  0.00000000       0.002
   0.00000000  0.16666667  0.00000000       0.002
   0.08333333  0.16666667  0.00000000       0.005
   0.16666667  0.16666667  0.00000000       0.005
   0.25000000  0.16666667  0.00000000       0.005
   0.33333333  0.16666667  0.00000000       0.005
   0.41666667  0.16666667  0.00000000       0.005
   0.50000000  0.16666667  0.00000000       0.002
   0.00000000  0.25000000  0.00000000       0.002
   0.08333333  0.25000000  0.00000000       0.005
   0.16666667  0.25000000  0.00000000       0.005
   0.25000000  0.25000000  0.00000000       0.005
   0.33333333  0.25000000  0.00000000       0.005
   0.41666667  0.25000000  0.00000000       0.005
   0.50000000  0.25000000  0.00000000       0.002
   0.00000000  0.33333333  0.00000000       0.002
   0.08333333  0.33333333  0.00000000       0.005
   0.16666667  0.33333333  0.00000000       0.005
   0.25000000  0.33333333  0.00000000       0.005
   0.33333333  0.33333333  0.00000000       0.005
   0.41666667  0.33333333  0.00000000       0.005
   0.50000000  0.33333333  0.00000000       0.002
   0.00000000  0.41666667  0.00000000       0.002
   0.08333333  0.41666667  0.00000000       0.005
   0.16666667  0.41666667  0.00000000       0.005
   0.25000000  0.41666667  0.00000000       0.005
   0.33333333  0.41666667  0.00000000       0.005
   0.41666667  0.41666667  0.00000000       0.005
   0.50000000  0.41666667  0.00000000       0.002
   0.00000000  0.50000000  0.00000000       0.001
   0.08333333  0.50000000  0.00000000       0.002
   0.16666667  0.50000000  0.00000000       0.002
   0.25000000  0.50000000  0.00000000       0.002
   0.33333333  0.50000000  0.00000000       0.002
   0.41666667  0.50000000  0.00000000       0.002
   0.50000000  0.50000000  0.00000000       0.001
   0.00000000  0.08333333  0.08333333       0.002
   0.08333333  0.08333333  0.08333333       0.005
   0.16666667  0.08333333  0.08333333       0.005
   0.25000000  0.08333333  0.08333333       0.005
   0.33333333  0.08333333  0.08333333       0.005
   0.41666667  0.08333333  0.08333333       0.005
   0.50000000  0.08333333  0.08333333       0.002
   0.00000000  0.16666667  0.08333333       0.005
   0.08333333  0.16666667  0.08333333       0.009
   0.16666667  0.16666667  0.08333333       0.009
   0.25000000  0.16666667  0.08333333       0.009
   0.33333333  0.16666667  0.08333333       0.009
   0.41666667  0.16666667  0.08333333       0.009
   0.50000000  0.16666667  0.08333333       0.005
   0.00000000  0.25000000  0.08333333       0.005
   0.08333333  0.25000000  0.08333333       0.009
   0.16666667  0.25000000  0.08333333       0.009
   0.25000000  0.25000000  0.08333333       0.009
   0.33333333  0.25000000  0.08333333       0.009
   0.41666667  0.25000000  0.08333333       0.009
   0.50000000  0.25000000  0.08333333       0.005
   0.00000000  0.33333333  0.08333333       0.005
   0.08333333  0.33333333  0.08333333       0.009
   0.16666667  0.33333333  0.08333333       0.009
   0.25000000  0.33333333  0.08333333       0.009
   0.33333333  0.33333333  0.08333333       0.009
   0.41666667  0.33333333  0.08333333       0.009
   0.50000000  0.33333333  0.08333333       0.005
   0.00000000  0.41666667  0.08333333       0.005
   0.08333333  0.41666667  0.08333333       0.009
   0.16666667  0.41666667  0.08333333       0.009
   0.25000000  0.41666667  0.08333333       0.009
   0.33333333  0.41666667  0.08333333       0.009
   0.41666667  0.41666667  0.08333333       0.009
   0.50000000  0.41666667  0.08333333       0.005
   0.00000000  0.50000000  0.08333333       0.002
   0.08333333  0.50000000  0.08333333       0.005
   0.16666667  0.50000000  0.08333333       0.005
   0.25000000  0.50000000  0.08333333       0.005
   0.33333333  0.50000000  0.08333333       0.005
   0.41666667  0.50000000  0.08333333       0.005
   0.50000000  0.50000000  0.08333333       0.002
   0.00000000  0.16666667  0.16666667       0.002
   0.08333333  0.16666667  0.16666667       0.005
   0.16666667  0.16666667  0.16666667       0.005
   0.25000000  0.16666667  0.16666667       0.005
   0.33333333  0.16666667  0.16666667       0.005
   0.41666667  0.16666667  0.16666667       0.005
   0.50000000  0.16666667  0.16666667       0.002
   0.00000000  0.25000000  0.16666667       0.005
   0.08333333  0.25000000  0.16666667       0.009
   0.16666667  0.25000000  0.16666667       0.009
   0.25000000  0.25000000  0.16666667       0.009
   0.33333333  0.25000000  0.16666667       0.009
   0.41666667  0.25000000  0.16666667       0.009
   0.50000000  0.25000000  0.16666667       0.005
   0.00000000  0.33333333  0.16666667       0.005
   0.08333333  0.33333333  0.16666667       0.009
   0.16666667  0.33333333  0.16666667       0.009
   0.25000000  0.33333333  0.16666667       0.009
   0.33333333  0.33333333  0.16666667       0.009
   0.41666667  0.33333333  0.16666667       0.009
   0.50000000  0.33333333  0.16666667       0.005
   0.00000000  0.41666667  0.16666667       0.005
   0.08333333  0.41666667  0.16666667       0.009
   0.16666667  0.41666667  0.16666667       0.009
   0.25000000  0.41666667  0.16666667       0.009
   0.33333333  0.41666667  0.16666667       0.009
   0.41666667  0.41666667  0.16666667       0.009
   0.50000000  0.41666667  0.16666667       0.005
   0.00000000  0.50000000  0.16666667       0.002
   0.08333333  0.50000000  0.16666667       0.005
   0.16666667  0.50000000  0.16666667       0.005
   0.25000000  0.50000000  0.16666667       0.005
   0.33333333  0.50000000  0.16666667       0.005
   0.41666667  0.50000000  0.16666667       0.005
   0.50000000  0.50000000  0.16666667       0.002
   0.00000000  0.25000000  0.25000000       0.002
   0.08333333  0.25000000  0.25000000       0.005
   0.16666667  0.25000000  0.25000000       0.005
   0.25000000  0.25000000  0.25000000       0.005
   0.33333333  0.25000000  0.25000000       0.005
   0.41666667  0.25000000  0.25000000       0.005
   0.50000000  0.25000000  0.25000000       0.002
   0.00000000  0.33333333  0.25000000       0.005
   0.08333333  0.33333333  0.25000000       0.009
   0.16666667  0.33333333  0.25000000       0.009
   0.25000000  0.33333333  0.25000000       0.009
   0.33333333  0.33333333  0.25000000       0.009
   0.41666667  0.33333333  0.25000000       0.009
   0.50000000  0.33333333  0.25000000       0.005
   0.00000000  0.41666667  0.25000000       0.005
   0.08333333  0.41666667  0.25000000       0.009
   0.16666667  0.41666667  0.25000000       0.009
   0.25000000  0.41666667  0.25000000       0.009
   0.33333333  0.41666667  0.25000000       0.009
   0.41666667  0.41666667  0.25000000       0.009
   0.50000000  0.41666667  0.25000000       0.005
   0.00000000  0.50000000  0.25000000       0.002
   0.08333333  0.50000000  0.25000000       0.005
   0.16666667  0.50000000  0.25000000       0.005
   0.25000000  0.50000000  0.25000000       0.005
   0.33333333  0.50000000  0.25000000       0.005
   0.41666667  0.50000000  0.25000000       0.005
   0.50000000  0.50000000  0.25000000       0.002
   0.00000000  0.33333333  0.33333333       0.002
   0.08333333  0.33333333  0.33333333       0.005
   0.16666667  0.33333333  0.33333333       0.005
   0.25000000  0.33333333  0.33333333       0.005
   0.33333333  0.33333333  0.33333333       0.005
   0.41666667  0.33333333  0.33333333       0.005
   0.50000000  0.33333333  0.33333333       0.002
   0.00000000  0.41666667  0.33333333       0.005
   0.08333333  0.41666667  0.33333333       0.009
   0.16666667  0.41666667  0.33333333       0.009
   0.25000000  0.41666667  0.33333333       0.009
   0.33333333  0.41666667  0.33333333       0.009
   0.41666667  0.41666667  0.33333333       0.009
   0.50000000  0.41666667  0.33333333       0.005
   0.00000000  0.50000000  0.33333333       0.002
   0.08333333  0.50000000  0.33333333       0.005
   0.16666667  0.50000000  0.33333333       0.005
   0.25000000  0.50000000  0.33333333       0.005
   0.33333333  0.50000000  0.33333333       0.005
   0.41666667  0.50000000  0.33333333       0.005
   0.50000000  0.50000000  0.33333333       0.002
   0.00000000  0.41666667  0.41666667       0.002
   0.08333333  0.41666667  0.41666667       0.005
   0.16666667  0.41666667  0.41666667       0.005
   0.25000000  0.41666667  0.41666667       0.005
   0.33333333  0.41666667  0.41666667       0.005
   0.41666667  0.41666667  0.41666667       0.005
   0.50000000  0.41666667  0.41666667       0.002
   0.00000000  0.50000000  0.41666667       0.002
   0.08333333  0.50000000  0.41666667       0.005
   0.16666667  0.50000000  0.41666667       0.005
   0.25000000  0.50000000  0.41666667       0.005
   0.33333333  0.50000000  0.41666667       0.005
   0.41666667  0.50000000  0.41666667       0.005
   0.50000000  0.50000000  0.41666667       0.002
   0.00000000  0.50000000  0.50000000       0.001
   0.08333333  0.50000000  0.50000000       0.001
   0.16666667  0.50000000  0.50000000       0.001
   0.25000000  0.50000000  0.50000000       0.001
   0.33333333  0.50000000  0.50000000       0.001
   0.41666667  0.50000000  0.50000000       0.001
   0.50000000  0.50000000  0.50000000       0.001
 
 position of ions in fractional coordinates (direct lattice) 
   0.00118910  0.00000000  0.00000000
   0.50000000  0.00000000  0.00000000
   0.00000000  0.50000000  0.00000000
   0.50000000  0.50000000  0.00000000
   0.00000000  0.00000000  0.50000000
   0.50000000  0.00000000  0.50000000
   0.00000000  0.50000000  0.50000000
   0.50000000  0.50000000  0.50000000
   0.25000000  0.25000000  0.00000000
   0.75000000  0.25000000  0.00000000
   0.25000000  0.75000000  0.00000000
   0.75000000  0.75000000  0.00000000
   0.25000000  0.25000000  0.50000000
   0.75000000  0.25000000  0.50000000
   0.25000000  0.75000000  0.50000000
   0.75000000  0.75000000  0.50000000
   0.25000000  0.00000000  0.25000000
   0.75000000  0.00000000  0.25000000
   0.25000000  0.50000000  0.25000000
   0.75000000  0.50000000  0.25000000
   0.25000000  0.00000000  0.75000000
   0.75000000  0.00000000  0.75000000
   0.25000000  0.50000000  0.75000000
   0.75000000  0.50000000  0.75000000
   0.00000000  0.25000000  0.25000000
   0.50000000  0.25000000  0.25000000
   0.00000000  0.75000000  0.25000000
   0.50000000  0.75000000  0.25000000
   0.00000000  0.25000000  0.75000000
   0.50000000  0.25000000  0.75000000
   0.00000000  0.75000000  0.75000000
   0.50000000  0.75000000  0.75000000
 
 position of ions in cartesian coordinates  (Angst):
   0.01000000  0.00000000  0.00000000
   4.20485703  0.00000000  0.00000000
   0.00000000  4.20485703  0.00000000
   4.20485703  4.20485703  0.00000000
   0.00000000  0.00000000  4.20485703
   4.20485703  0.00000000  4.20485703
   0.00000000  4.20485703  4.20485703
   4.20485703  4.20485703  4.20485703
   2.10242851  2.10242851  0.00000000
   6.30728554  2.10242851  0.00000000
   2.10242851  6.30728554  0.00000000
   6.30728554  6.30728554  0.00000000
   2.10242851  2.10242851  4.20485703
   6.30728554  2.10242851  4.20485703
   2.10242851  6.30728554  4.20485703
   6.30728554  6.30728554  4.20485703
   2.10242851  0.00000000  2.10242851
   6.30728554  0.00000000  2.10242851
   2.10242851  4.20485703  2.10242851
   6.30728554  4.20485703  2.10242851
   2.10242851  0.00000000  6.30728554
   6.30728554  0.00000000  6.30728554
   2.10242851  4.20485703  6.30728554
   6.30728554  4.20485703  6.30728554
   0.00000000  2.10242851  2.10242851
   4.20485703  2.10242851  2.10242851
   0.00000000  6.30728554  2.10242851
   4.20485703  6.30728554  2.10242851
   0.00000000  2.10242851  6.30728554
   4.20485703  2.10242851  6.30728554
   0.00000000  6.30728554  6.30728554
   4.20485703  6.30728554  6.30728554
 


--------------------------------------------------------------------------------------------------------


 k-point  1 :  0.00000.00000.0000  plane waves:  27633
 k-point  2 :  0.08330.00000.0000  plane waves:  27749
 k-point  3 :  0.16670.00000.0000  plane waves:  27753
 k-point  4 :  0.25000.00000.0000  plane waves:  27774
 k-point  5 :  0.33330.00000.0000  plane waves:  27766
 k-point  6 :  0.41670.00000.0000  plane waves:  27694
 k-point  7 :  0.50000.00000.0000  plane waves:  27726
 k-point  8 :  0.00000.08330.0000  plane waves:  27749
 k-point  9 :  0.08330.08330.0000  plane waves:  27765
 k-point 10 :  0.16670.08330.0000  plane waves:  27747
 k-point 11 :  0.25000.08330.0000  plane waves:  27753
 k-point 12 :  0.33330.08330.0000  plane waves:  27752
 k-point 13 :  0.41670.08330.0000  plane waves:  27718
 k-point 14 :  0.50000.08330.0000  plane waves:  27720
 k-point 15 :  0.00000.16670.0000  plane waves:  27753
 k-point 16 :  0.08330.16670.0000  plane waves:  27747
 k-point 17 :  0.16670.16670.0000  plane waves:  27739
 k-point 18 :  0.25000.16670.0000  plane waves:  27771
 k-point 19 :  0.33330.16670.0000  plane waves:  27718
 k-point 20 :  0.41670.16670.0000  plane waves:  27711
 k-point 21 :  0.50000.16670.0000  plane waves:  27726
 k-point 22 :  0.00000.25000.0000  plane waves:  27774
 k-point 23 :  0.08330.25000.0000  plane waves:  27753
 k-point 24 :  0.16670.25000.0000  plane waves:  27771
 k-point 25 :  0.25000.25000.0000  plane waves:  27819
 k-point 26 :  0.33330.25000.0000  plane waves:  27728
 k-point 27 :  0.41670.25000.0000  plane waves:  27724
 k-point 28 :  0.50000.25000.0000  plane waves:  27662
 k-point 29 :  0.00000.33330.0000  plane waves:  27766
 k-point 30 :  0.08330.33330.0000  plane waves:  27752
 k-point 31 :  0.16670.33330.0000  plane waves:  27718
 k-point 32 :  0.25000.33330.0000  plane waves:  27728
 k-point 33 :  0.33330.33330.0000  plane waves:  27738
 k-point 34 :  0.41670.33330.0000  plane waves:  27760
 k-point 35 :  0.50000.33330.0000  plane waves:  27750
 k-point 36 :  0.00000.41670.0000  plane waves:  27694
 k-point 37 :  0.08330.41670.0000  plane waves:  27718
 k-point 38 :  0.16670.41670.0000  plane waves:  27711
 k-point 39 :  0.25000.41670.0000  plane waves:  27724
 k-point 40 :  0.33330.41670.0000  plane waves:  27760
 k-point 41 :  0.41670.41670.0000  plane waves:  27754
 k-point 42 :  0.50000.41670.0000  plane waves:  27764
 k-point 43 :  0.00000.50000.0000  plane waves:  27726
 k-point 44 :  0.08330.50000.0000  plane waves:  27720
 k-point 45 :  0.16670.50000.0000  plane waves:  27726
 k-point 46 :  0.25000.50000.0000  plane waves:  27662
 k-point 47 :  0.33330.50000.0000  plane waves:  27750
 k-point 48 :  0.41670.50000.0000  plane waves:  27764
 k-point 49 :  0.50000.50000.0000  plane waves:  27804
 k-point 50 :  0.00000.08330.0833  plane waves:  27765
 k-point 51 :  0.08330.08330.0833  plane waves:  27756
 k-point 52 :  0.16670.08330.0833  plane waves:  27738
 k-point 53 :  0.25000.08330.0833  plane waves:  27749
 k-point 54 :  0.33330.08330.0833  plane waves:  27741
 k-point 55 :  0.41670.08330.0833  plane waves:  27724
 k-point 56 :  0.50000.08330.0833  plane waves:  27718
 k-point 57 :  0.00000.16670.0833  plane waves:  27747
 k-point 58 :  0.08330.16670.0833  plane waves:  27738
 k-point 59 :  0.16670.16670.0833  plane waves:  27736
 k-point 60 :  0.25000.16670.0833  plane waves:  27759
 k-point 61 :  0.33330.16670.0833  plane waves:  27720
 k-point 62 :  0.41670.16670.0833  plane waves:  27717
 k-point 63 :  0.50000.16670.0833  plane waves:  27728
 k-point 64 :  0.00000.25000.0833  plane waves:  27753
 k-point 65 :  0.08330.25000.0833  plane waves:  27749
 k-point 66 :  0.16670.25000.0833  plane waves:  27759
 k-point 67 :  0.25000.25000.0833  plane waves:  27754
 k-point 68 :  0.33330.25000.0833  plane waves:  27739
 k-point 69 :  0.41670.25000.0833  plane waves:  27725
 k-point 70 :  0.50000.25000.0833  plane waves:  27724
 k-point 71 :  0.00000.33330.0833  plane waves:  27752
 k-point 72 :  0.08330.33330.0833  plane waves:  27741
 k-point 73 :  0.16670.33330.0833  plane waves:  27720
 k-point 74 :  0.25000.33330.0833  plane waves:  27739
 k-point 75 :  0.33330.33330.0833  plane waves:  27738
 k-point 76 :  0.41670.33330.0833  plane waves:  27749
 k-point 77 :  0.50000.33330.0833  plane waves:  27744
 k-point 78 :  0.00000.41670.0833  plane waves:  27718
 k-point 79 :  0.08330.41670.0833  plane waves:  27724
 k-point 80 :  0.16670.41670.0833  plane waves:  27717
 k-point 81 :  0.25000.41670.0833  plane waves:  27725
 k-point 82 :  0.33330.41670.0833  plane waves:  27749
 k-point 83 :  0.41670.41670.0833  plane waves:  27754
 k-point 84 :  0.50000.41670.0833  plane waves:  27760
 k-point 85 :  0.00000.50000.0833  plane waves:  27720
 k-point 86 :  0.08330.50000.0833  plane waves:  27718
 k-point 87 :  0.16670.50000.0833  plane waves:  27728
 k-point 88 :  0.25000.50000.0833  plane waves:  27724
 k-point 89 :  0.33330.50000.0833  plane waves:  27744
 k-point 90 :  0.41670.50000.0833  plane waves:  27760
 k-point 91 :  0.50000.50000.0833  plane waves:  27740
 k-point 92 :  0.00000.16670.1667  plane waves:  27739
 k-point 93 :  0.08330.16670.1667  plane waves:  27736
 k-point 94 :  0.16670.16670.1667  plane waves:  27739
 k-point 95 :  0.25000.16670.1667  plane waves:  27753
 k-point 96 :  0.33330.16670.1667  plane waves:  27746
 k-point 97 :  0.41670.16670.1667  plane waves:  27719
 k-point 98 :  0.50000.16670.1667  plane waves:  27718
 k-point 99 :  0.00000.25000.1667  plane waves:  27771
 k-point ** :  0.08330.25000.1667  plane waves:  27759
 k-point ** :  0.16670.25000.1667  plane waves:  27753
 k-point ** :  0.25000.25000.1667  plane waves:  27729
 k-point ** :  0.33330.25000.1667  plane waves:  27716
 k-point ** :  0.41670.25000.1667  plane waves:  27725
 k-point ** :  0.50000.25000.1667  plane waves:  27714
 k-point ** :  0.00000.33330.1667  plane waves:  27718
 k-point ** :  0.08330.33330.1667  plane waves:  27720
 k-point ** :  0.16670.33330.1667  plane waves:  27746
 k-point ** :  0.25000.33330.1667  plane waves:  27716
 k-point ** :  0.33330.33330.1667  plane waves:  27739
 k-point ** :  0.41670.33330.1667  plane waves:  27714
 k-point ** :  0.50000.33330.1667  plane waves:  27748
 k-point ** :  0.00000.41670.1667  plane waves:  27711
 k-point ** :  0.08330.41670.1667  plane waves:  27717
 k-point ** :  0.16670.41670.1667  plane waves:  27719
 k-point ** :  0.25000.41670.1667  plane waves:  27725
 k-point ** :  0.33330.41670.1667  plane waves:  27714
 k-point ** :  0.41670.41670.1667  plane waves:  27750
 k-point ** :  0.50000.41670.1667  plane waves:  27776
 k-point ** :  0.00000.50000.1667  plane waves:  27726
 k-point ** :  0.08330.50000.1667  plane waves:  27728
 k-point ** :  0.16670.50000.1667  plane waves:  27718
 k-point ** :  0.25000.50000.1667  plane waves:  27714
 k-point ** :  0.33330.50000.1667  plane waves:  27748
 k-point ** :  0.41670.50000.1667  plane waves:  27776
 k-point ** :  0.50000.50000.1667  plane waves:  27800
 k-point ** :  0.00000.25000.2500  plane waves:  27819
 k-point ** :  0.08330.25000.2500  plane waves:  27754
 k-point ** :  0.16670.25000.2500  plane waves:  27729
 k-point ** :  0.25000.25000.2500  plane waves:  27700
 k-point ** :  0.33330.25000.2500  plane waves:  27724
 k-point ** :  0.41670.25000.2500  plane waves:  27730
 k-point ** :  0.50000.25000.2500  plane waves:  27686
 k-point ** :  0.00000.33330.2500  plane waves:  27728
 k-point ** :  0.08330.33330.2500  plane waves:  27739
 k-point ** :  0.16670.33330.2500  plane waves:  27716
 k-point ** :  0.25000.33330.2500  plane waves:  27724
 k-point ** :  0.33330.33330.2500  plane waves:  27745
 k-point ** :  0.41670.33330.2500  plane waves:  27735
 k-point ** :  0.50000.33330.2500  plane waves:  27740
 k-point ** :  0.00000.41670.2500  plane waves:  27724
 k-point ** :  0.08330.41670.2500  plane waves:  27725
 k-point ** :  0.16670.41670.2500  plane waves:  27725
 k-point ** :  0.25000.41670.2500  plane waves:  27730
 k-point ** :  0.33330.41670.2500  plane waves:  27735
 k-point ** :  0.41670.41670.2500  plane waves:  27754
 k-point ** :  0.50000.41670.2500  plane waves:  27764
 k-point ** :  0.00000.50000.2500  plane waves:  27662
 k-point ** :  0.08330.50000.2500  plane waves:  27724
 k-point ** :  0.16670.50000.2500  plane waves:  27714
 k-point ** :  0.25000.50000.2500  plane waves:  27686
 k-point ** :  0.33330.50000.2500  plane waves:  27740
 k-point ** :  0.41670.50000.2500  plane waves:  27764
 k-point ** :  0.50000.50000.2500  plane waves:  27812
 k-point ** :  0.00000.33330.3333  plane waves:  27738
 k-point ** :  0.08330.33330.3333  plane waves:  27738
 k-point ** :  0.16670.33330.3333  plane waves:  27739
 k-point ** :  0.25000.33330.3333  plane waves:  27745
 k-point ** :  0.33330.33330.3333  plane waves:  27709
 k-point ** :  0.41670.33330.3333  plane waves:  27755
 k-point ** :  0.50000.33330.3333  plane waves:  27736
 k-point ** :  0.00000.41670.3333  plane waves:  27760
 k-point ** :  0.08330.41670.3333  plane waves:  27749
 k-point ** :  0.16670.41670.3333  plane waves:  27714
 k-point ** :  0.25000.41670.3333  plane waves:  27735
 k-point ** :  0.33330.41670.3333  plane waves:  27755
 k-point ** :  0.41670.41670.3333  plane waves:  27768
 k-point ** :  0.50000.41670.3333  plane waves:  27756
 k-point ** :  0.00000.50000.3333  plane waves:  27750
 k-point ** :  0.08330.50000.3333  plane waves:  27744
 k-point ** :  0.16670.50000.3333  plane waves:  27748
 k-point ** :  0.25000.50000.3333  plane waves:  27740
 k-point ** :  0.33330.50000.3333  plane waves:  27736
 k-point ** :  0.41670.50000.3333  plane waves:  27756
 k-point ** :  0.50000.50000.3333  plane waves:  27792
 k-point ** :  0.00000.41670.4167  plane waves:  27754
 k-point ** :  0.08330.41670.4167  plane waves:  27754
 k-point ** :  0.16670.41670.4167  plane waves:  27750
 k-point ** :  0.25000.41670.4167  plane waves:  27754
 k-point ** :  0.33330.41670.4167  plane waves:  27768
 k-point ** :  0.41670.41670.4167  plane waves:  27781
 k-point ** :  0.50000.41670.4167  plane waves:  27766
 k-point ** :  0.00000.50000.4167  plane waves:  27764
 k-point ** :  0.08330.50000.4167  plane waves:  27760
 k-point ** :  0.16670.50000.4167  plane waves:  27776
 k-point ** :  0.25000.50000.4167  plane waves:  27764
 k-point ** :  0.33330.50000.4167  plane waves:  27756
 k-point ** :  0.41670.50000.4167  plane waves:  27766
 k-point ** :  0.50000.50000.4167  plane waves:  27760
 k-point ** :  0.00000.50000.5000  plane waves:  27804
 k-point ** :  0.08330.50000.5000  plane waves:  27740
 k-point ** :  0.16670.50000.5000  plane waves:  27800
 k-point ** :  0.25000.50000.5000  plane waves:  27812
 k-point ** :  0.33330.50000.5000  plane waves:  27792
 k-point ** :  0.41670.50000.5000  plane waves:  27760
 k-point ** :  0.50000.50000.5000  plane waves:  27736

 maximum and minimum number of plane-waves per node :  27819 27633

 maximum number of plane-waves:  27819
 maximal index in each direction: 
   IXMAX= 18   IYMAX= 18   IZMAX= 18
   IXMIN=-19   IYMIN=-19   IZMIN=-19

 NGX is ok and might be reduce to  76
 NGY is ok and might be reduce to  76
 NGZ is ok and might be reduce to  76

 parallel 3dFFT wavefunction:
    minimum data exchange during FFTs selected (reduces bandwidth)
 parallel 3dFFT charge:
    minimum data exchange during FFTs selected (reduces bandwidth)

 For storing wavefunctions ******* MBYTES are necessary
 For predicting wavefunctions  202.24 MBYTES are necessary
Broyden mixing: mesh for mixing (old mesh)
   NGX = 37   NGY = 37   NGZ = 37
  (NGX  =160   NGY  =160   NGZ  =160)
 gives a total of  50653 points
 initial charge density was supplied:
 charge density of overlapping atoms calculated
 number of electron  352.0000000 magnetization 
 keeping initial charge density in first step


--------------------------------------------------------------------------------------------------------


 Maximum index for augmentation-charges        41251 (set IRDMAX)


--------------------------------------------------------------------------------------------------------


 First call to EWALD:  gamma=   0.211
 Maximum number of real-space cells 3x 3x 3
 Maximum number of reciprocal cells 3x 3x 3

    FEWALD:  VPU time    0.00: CPU time    0.00


----------------------------------------- Iteration    1(   1)  ---------------------------------------


    POTLOK:  VPU time    9.75: CPU time   29.11
    SETDIJ:  VPU time    4.01: CPU time   12.54
    EDDAV :  VPU time 2020.62: CPU time 2604.86
    DOS   :  VPU time    0.00: CPU time   -0.00
    ------------------------------------------
      LOOP:  VPU time 2035.02: CPU time 2647.95

 eigenvalue-minimisations  : 84720
 total energy-change (2. order) : 0.4222449E+04  (-0.2120308E+05)
 number of electron  352.0000000 magnetization 
 augmentation part   352.0000000 magnetization 

 Free energy of the ion-electron system (eV)
  ---------------------------------------------------
  alpha Z        PSCENC =      3057.34687163
  Ewald energy   TEWEN  =    -30397.38661571
  -1/2 Hartree   DENC   =     -6910.84814527
  -V(xc)+E(xc)   XCENC  =      -349.59288967
  PAW double counting   =     27861.41421209   -26376.63839568
  entropy T*S    EENTRO =        -0.00051884
  eigenvalues    EBANDS =      4140.95745817
  atomic energy  EATOM  =     33197.19690173
  ---------------------------------------------------
  free energy    TOTEN  =      4222.44887846 eV

  energy without entropy =     4222.44939730  energy(sigma->0) =     4222.44913788


--------------------------------------------------------------------------------------------------------




----------------------------------------- Iteration    1(   2)  ---------------------------------------


    EDDAV :  VPU time 2023.54: CPU time 2467.46
    DOS   :  VPU time    0.00: CPU time   -0.00
    ------------------------------------------
      LOOP:  VPU time 2023.66: CPU time 2467.59

 eigenvalue-minimisations  : 84672
 total energy-change (2. order) :-0.4105051E+04  (-0.3913689E+04)
 number of electron  352.0000000 magnetization 
 augmentation part   352.0000000 magnetization 

 Free energy of the ion-electron system (eV)
  ---------------------------------------------------
  alpha Z        PSCENC =      3057.34687163
  Ewald energy   TEWEN  =    -30397.38661571
  -1/2 Hartree   DENC   =     -6910.84814527
  -V(xc)+E(xc)   XCENC  =      -349.59288967
  PAW double counting   =     27861.41421209   -26376.63839568
  entropy T*S    EENTRO =        -0.00040647
  eigenvalues    EBANDS =        35.90683096
  atomic energy  EATOM  =     33197.19690173
  ---------------------------------------------------
  free energy    TOTEN  =       117.39836362 eV

  energy without entropy =      117.39877009  energy(sigma->0) =      117.39856685


--------------------------------------------------------------------------------------------------------




----------------------------------------- Iteration    1(   3)  ---------------------------------------


    EDDAV :  VPU time 1955.30: CPU time 2176.61
    DOS   :  VPU time    0.00: CPU time   -0.00
    ------------------------------------------
      LOOP:  VPU time 1955.42: CPU time 2176.73

 eigenvalue-minimisations  : 89104
 total energy-change (2. order) :-0.2104772E+03  (-0.2012438E+03)
 number of electron  352.0000000 magnetization 
 augmentation part   352.0000000 magnetization 

 Free energy of the ion-electron system (eV)
  ---------------------------------------------------
  alpha Z        PSCENC =      3057.34687163
  Ewald energy   TEWEN  =    -30397.38661571
  -1/2 Hartree   DENC   =     -6910.84814527
  -V(xc)+E(xc)   XCENC  =      -349.59288967
  PAW double counting   =     27861.41421209   -26376.63839568
  entropy T*S    EENTRO =        -0.00072184
  eigenvalues    EBANDS =      -174.57000707
  atomic energy  EATOM  =     33197.19690173
  ---------------------------------------------------
  free energy    TOTEN  =       -93.07878979 eV

  energy without entropy =      -93.07806795  energy(sigma->0) =      -93.07842887


--------------------------------------------------------------------------------------------------------




----------------------------------------- Iteration    1(   4)  ---------------------------------------


    EDDAV :  VPU time 2386.16: CPU time 3160.28
    DOS   :  VPU time    0.00: CPU time   -0.00
    ------------------------------------------
      LOOP:  VPU time 2386.28: CPU time 3160.40

 eigenvalue-minimisations  : 91136
 total energy-change (2. order) :-0.4049094E+01  (-0.4023239E+01)
 number of electron  352.0000000 magnetization 
 augmentation part   352.0000000 magnetization 

 Free energy of the ion-electron system (eV)
  ---------------------------------------------------
  alpha Z        PSCENC =      3057.34687163
  Ewald energy   TEWEN  =    -30397.38661571
  -1/2 Hartree   DENC   =     -6910.84814527
  -V(xc)+E(xc)   XCENC  =      -349.59288967
  PAW double counting   =     27861.41421209   -26376.63839568
  entropy T*S    EENTRO =        -0.00085713
  eigenvalues    EBANDS =      -178.61896563
  atomic energy  EATOM  =     33197.19690173
  ---------------------------------------------------
  free energy    TOTEN  =       -97.12788364 eV

  energy without entropy =      -97.12702651  energy(sigma->0) =      -97.12745507


--------------------------------------------------------------------------------------------------------




----------------------------------------- Iteration    1(   5)  ---------------------------------------


    EDDAV :  VPU time 3275.98: CPU time 4908.10
    DOS   :  VPU time   -0.00: CPU time   -0.19
    CHARGE:  VPU time  260.58: CPU time 7068.79
    MIXING:  VPU time    1.07: CPU time    1.35
    ------------------------------------------
      LOOP:  VPU time 3537.81: CPU time11979.15

 eigenvalue-minimisations  : 90040
 total energy-change (2. order) :-0.2223156E-01  (-0.2220764E-01)
 number of electron  352.0000006 magnetization 
 augmentation part   163.4463077 magnetization 

 Broyden mixing:
  rms(total) = 0.15358E+01    rms(broyden)= 0.15358E+01
  rms(prec ) = 0.23189E+01
  weight for this iteration     100.00

 Free energy of the ion-electron system (eV)
  ---------------------------------------------------
  alpha Z        PSCENC =      3057.34687163
  Ewald energy   TEWEN  =    -30397.38661571
  -1/2 Hartree   DENC   =     -6910.84814527
  -V(xc)+E(xc)   XCENC  =      -349.59288967
  PAW double counting   =     27861.41421209   -26376.63839568
  entropy T*S    EENTRO =        -0.00085741
  eigenvalues    EBANDS =      -178.64119691
  atomic energy  EATOM  =     33197.19690173
  ---------------------------------------------------
  free energy    TOTEN  =       -97.15011520 eV

  energy without entropy =      -97.14925779  energy(sigma->0) =      -97.14968649


--------------------------------------------------------------------------------------------------------




----------------------------------------- Iteration    1(   6)  ---------------------------------------


    POTLOK:  VPU time   19.04: CPU time   71.99
    SETDIJ:  VPU time    1.43: CPU time    5.51
    EDDAV :  VPU time 3597.18: CPU time 6045.77
    DOS   :  VPU time    0.00: CPU time   -0.00
    CHARGE:  VPU time   73.14: CPU time   73.37
    MIXING:  VPU time    0.10: CPU time    0.18
    ------------------------------------------
      LOOP:  VPU time 3691.12: CPU time 6197.38

 eigenvalue-minimisations  : 89344
 total energy-change (2. order) : 0.6585716E+01  (-0.2498779E+01)
 number of electron  352.0000006 magnetization 
 augmentation part   168.7771842 magnetization 

 Broyden mixing:
  rms(total) = 0.27748E+00    rms(broyden)= 0.27748E+00
  rms(prec ) = 0.37913E+00
  weight for this iteration     100.00

 eigenvalues of (default mixing * dielectric matrix)
  average eigenvalue GAMMA=   1.0475
  1.0475

 Free energy of the ion-electron system (eV)
  ---------------------------------------------------
  alpha Z        PSCENC =      3057.34687163
  Ewald energy   TEWEN  =    -30397.38661571
  -1/2 Hartree   DENC   =     -6616.42670133
  -V(xc)+E(xc)   XCENC  =      -360.26327081
  PAW double counting   =     27448.91979552   -25986.50232758
  entropy T*S    EENTRO =        -0.00063484
  eigenvalues    EBANDS =      -433.44841762
  atomic energy  EATOM  =     33197.19690173
  ---------------------------------------------------
  free energy    TOTEN  =       -90.56439900 eV

  energy without entropy =      -90.56376416  energy(sigma->0) =      -90.56408158


--------------------------------------------------------------------------------------------------------




----------------------------------------- Iteration    1(   7)  ---------------------------------------


    POTLOK:  VPU time    1.01: CPU time    1.03
    SETDIJ:  VPU time    1.29: CPU time    1.29
    EDDAV :  VPU time 2597.28: CPU time 2597.05
    DOS   :  VPU time    0.00: CPU time   -0.00
    CHARGE:  VPU time  137.86: CPU time  138.18
    MIXING:  VPU time    0.31: CPU time    0.65
    ------------------------------------------
      LOOP:  VPU time 2737.91: CPU time 2738.36

 eigenvalue-minimisations  : 88216
 total energy-change (2. order) : 0.1459616E+00  (-0.4407512E-01)
 number of electron  352.0000006 magnetization 
 augmentation part   169.0282777 magnetization 

 Broyden mixing:
  rms(total) = 0.15229E+00    rms(broyden)= 0.15229E+00
  rms(prec ) = 0.19868E+00
  weight for this iteration     100.00

 eigenvalues of (default mixing * dielectric matrix)
  average eigenvalue GAMMA=   1.7286
  1.0333  2.4238

 Free energy of the ion-electron system (eV)
  ---------------------------------------------------
  alpha Z        PSCENC =      3057.34687163
  Ewald energy   TEWEN  =    -30397.38661571
  -1/2 Hartree   DENC   =     -6579.15167001
  -V(xc)+E(xc)   XCENC  =      -361.72415811
  PAW double counting   =     27521.52442608   -26077.46801355
  entropy T*S    EENTRO =        -0.00063973
  eigenvalues    EBANDS =      -450.75553970
  atomic energy  EATOM  =     33197.19690173
[...]
     72      -1.5759      2.00000
     73      -1.4722      2.00000
     74      -1.4722      2.00000
     75      -1.4709      2.00000
     76      -1.4709      2.00000
     77      -1.4708      2.00000
     78      -1.4708      2.00000
     79      -1.4695      2.00000
     80      -1.4695      2.00000
     81      -1.3072      2.00000
     82      -1.3072      2.00000
     83      -1.3061      2.00000
     84      -1.3058      2.00000
     85      -1.3047      2.00000
     86      -1.3045      2.00000
     87      -1.3045      2.00000
     88      -1.3045      2.00000
     89      -1.3045      2.00000
     90      -1.3045      2.00000
     91      -1.3044      2.00000
     92      -1.3044      2.00000
     93      -1.3043      2.00000
     94      -1.3043      2.00000
     95      -1.3042      2.00000
     96      -1.3042      2.00000
     97      -1.3042      2.00000
     98      -1.3042      2.00000
     99      -1.3042      2.00000
    100      -1.3040      2.00000
    101      -1.3029      2.00000
    102      -1.3026      2.00000
    103      -1.3015      2.00000
    104      -1.3015      2.00000
    105      -1.0288      2.00000
    106      -1.0277      2.00000
    107      -1.0277      2.00000
    108      -1.0261      2.00000
    109      -1.0260      2.00000
    110      -1.0260      2.00000
    111      -1.0260      2.00000
    112      -1.0258      2.00000
    113      -1.0257      2.00000
    114      -1.0256      2.00000
    115      -1.0256      2.00000
    116      -1.0256      2.00000
    117      -1.0256      2.00000
    118      -1.0255      2.00000
    119      -1.0255      2.00000
    120      -1.0255      2.00000
    121      -1.0254      2.00000
    122      -1.0252      2.00000
    123      -1.0252      2.00000
    124      -1.0252      2.00000
    125      -1.0250      2.00000
    126      -1.0234      2.00000
    127      -1.0234      2.00000
    128      -1.0225      2.00000
    129      -0.7540      2.00000
    130      -0.7528      2.00000
    131      -0.7528      2.00000
    132      -0.7528      2.00000
    133      -0.7521      2.00000
    134      -0.7521      2.00000
    135      -0.7519      2.00000
    136      -0.7518      2.00000
    137      -0.7518      2.00000
    138      -0.7517      2.00000
    139      -0.7515      2.00000
    140      -0.7515      2.00000
    141      -0.7508      2.00000
    142      -0.7508      2.00000
    143      -0.7507      2.00000
    144      -0.7496      2.00000
    145      -0.1328      2.00000
    146      -0.1328      2.00000
    147      -0.1326      2.00000
    148      -0.1324      2.00000
    149      -0.1324      2.00000
    150      -0.1324      2.00000
    151      -0.1324      2.00000
    152      -0.1324      2.00000
    153      -0.1323      2.00000
    154      -0.1322      2.00000
    155      -0.1322      2.00000
    156      -0.1322      2.00000
    157      -0.1321      2.00000
    158      -0.1320      2.00000
    159      -0.1320      2.00000
    160      -0.1320      2.00000
    161      -0.1319      2.00000
    162      -0.1319      2.00000
    163      -0.1319      2.00000
    164      -0.1318      2.00000
    165      -0.1318      2.00000
    166      -0.1317      2.00000
    167      -0.1315      2.00000
    168      -0.1315      2.00000
    169       3.6999      0.00000
    170       3.7020      0.00000
    171       3.7020      0.00000
    172       3.7043      0.00000
    173       3.7045      0.00000
    174       3.7047      0.00000
    175       3.7047      0.00000
    176       3.7048      0.00000
    177       3.7048      0.00000
    178       3.7048      0.00000
    179       3.7048      0.00000
    180       3.7048      0.00000
    181       3.7050      0.00000
    182       3.7051      0.00000
    183       3.7051      0.00000
    184       3.7051      0.00000
    185       3.7051      0.00000
    186       3.7052      0.00000
    187       3.7052      0.00000
    188       3.7054      0.00000
    189       3.7056      0.00000
    190       3.7079      0.00000
    191       3.7079      0.00000
    192       3.7100      0.00000
    193       8.5234      0.00000
    194       8.5234      0.00000
    195       8.5252      0.00000
    196       8.5271      0.00000
    197       8.5273      0.00000
    198       8.5277      0.00000
    199       8.5277      0.00000
    200       8.5280      0.00000
    201       8.5281      0.00000
    202       8.5281      0.00000
    203       8.5281      0.00000
    204       8.5282      0.00000
    205       8.5283      0.00000
    206       8.5283      0.00000
    207       8.5283      0.00000
    208       8.5283      0.00000
    209       8.5284      0.00000
    210       8.5287      0.00000
    211       8.5287      0.00000
    212       8.5291      0.00000
    213       8.5294      0.00000
    214       8.5312      0.00000
    215       8.5331      0.00000
    216       8.5331      0.00000


--------------------------------------------------------------------------------------------------------


 soft charge-density along one line, spin component           1
         0         1         2         3         4         5         6         7         8         9
 total charge-density along one line
 
 pseudopotential strength for first ion, spin component:           1
-12.277  -0.000   0.000  -0.000   0.000   0.151   0.000  -0.000
 -0.000 -12.277   0.000  -0.000   0.000   0.000   0.151  -0.000
  0.000   0.000 -12.268   0.000  -0.000  -0.000  -0.000   0.149
 -0.000  -0.000   0.000 -12.277  -0.000   0.000   0.000  -0.000
  0.000   0.000  -0.000  -0.000 -12.268  -0.000  -0.000   0.000
  0.151   0.000  -0.000   0.000  -0.000   0.453  -0.000   0.000
  0.000   0.151  -0.000   0.000  -0.000  -0.000   0.453   0.000
 -0.000  -0.000   0.149  -0.000   0.000   0.000   0.000   0.454
  0.000   0.000  -0.000   0.151   0.000  -0.000  -0.000   0.000
 -0.000  -0.000   0.000   0.000   0.149   0.000   0.000  -0.000
  0.000   0.000   0.000   0.000  -0.000  -0.000  -0.000  -0.000
 -0.000  -0.000  -0.000  -0.000   0.000   0.000   0.000   0.000
 -0.000  -0.000   0.000  -0.000  -0.000   0.000   0.000  -0.000
 -0.000  -0.000   0.000  -0.000  -0.000   0.000   0.000   0.000
 -0.000  -0.000   0.000  -0.000  -0.000   0.000   0.000  -0.000
  0.000   0.000  -0.000   0.000   0.000  -0.000  -0.000   0.000
  0.000   0.000  -0.000   0.000   0.000  -0.000  -0.000   0.000
  0.000   0.000  -0.000   0.000   0.000  -0.000  -0.000   0.000
 total augmentation occupancy for first ion, spin component:           1
  1.939   0.000  -0.001  -0.000  -0.000  -0.026  -0.000  -0.000   0.000   0.000   0.003  -0.001   0.000   0.000   0.000  -0.000
  0.000   1.941  -0.001  -0.001  -0.001  -0.000  -0.029   0.002   0.000  -0.000   0.003  -0.001  -0.000   0.000  -0.000  -0.000
 -0.001  -0.001   1.966  -0.001  -0.002  -0.000   0.002  -0.056   0.001   0.002   0.013   0.001  -0.000  -0.000  -0.000  -0.000
 -0.000  -0.001  -0.001   1.944  -0.000   0.000   0.000   0.001  -0.031   0.001   0.002  -0.001   0.000   0.000  -0.000  -0.000
 -0.000  -0.001  -0.002  -0.000   1.958   0.000  -0.000   0.002   0.001  -0.050   0.007   0.001   0.000   0.000   0.000   0.000
 -0.026  -0.000  -0.000   0.000   0.000   0.068   0.000   0.001  -0.000  -0.000  -0.001   0.001   0.001  -0.000  -0.000  -0.000
 -0.000  -0.029   0.002   0.000  -0.000   0.000   0.070  -0.002  -0.000   0.001  -0.000   0.001   0.000  -0.000   0.000   0.000
 -0.000   0.002  -0.056   0.001   0.002   0.001  -0.002   0.060  -0.001  -0.001  -0.010   0.000   0.000   0.000  -0.000   0.000
  0.000   0.000   0.001  -0.031   0.001  -0.000  -0.000  -0.001   0.073  -0.002   0.001   0.001  -0.000   0.001   0.000   0.000
  0.000  -0.000   0.002   0.001  -0.050  -0.000   0.001  -0.001  -0.002   0.057  -0.006   0.000  -0.000  -0.000   0.000   0.000
  0.003   0.003   0.013   0.002   0.007  -0.001  -0.000  -0.010   0.001  -0.006   1.012  -0.331   0.000  -0.000   0.002   0.000
 -0.001  -0.001   0.001  -0.001   0.001   0.001   0.001   0.000   0.001   0.000  -0.331   0.165   0.000   0.000  -0.001  -0.000
  0.000  -0.000  -0.000   0.000   0.000   0.001   0.000   0.000  -0.000  -0.000   0.000   0.000   0.099   0.000   0.002  -0.005
  0.000   0.000  -0.000   0.000   0.000  -0.000  -0.000   0.000   0.001  -0.000  -0.000   0.000   0.000   0.104  -0.001  -0.000
  0.000  -0.000  -0.000  -0.000   0.000  -0.000   0.000  -0.000   0.000   0.000   0.002  -0.001   0.002  -0.001   0.101  -0.000
 -0.000  -0.000  -0.000  -0.000   0.000  -0.000   0.000   0.000   0.000   0.000   0.000  -0.000  -0.005  -0.000  -0.000   0.000
 -0.000  -0.000   0.000  -0.000   0.000   0.000   0.000  -0.000  -0.000   0.000   0.000   0.000  -0.000  -0.006  -0.000   0.000
  0.000  -0.000   0.000   0.000  -0.000  -0.000  -0.000   0.000  -0.000  -0.000  -0.000   0.000  -0.000  -0.000  -0.006   0.000


------------------------ aborting loop because EDIFF is reached ----------------------------------------




--------------------------------------------------------------------------------------------------------


    CHARGE:  VPU time   82.06: CPU time 2203.86
    FORLOC:  VPU time    9.40: CPU time    9.49
    FORNL :  VPU time  760.69: CPU time 7083.51
    STRESS:  VPU time 1278.67: CPU time 1403.24
    FORCOR:  VPU time    3.78: CPU time   13.99
    FORHAR:  VPU time    1.03: CPU time    1.17
    MIXING:  VPU time    1.64: CPU time    5.14


--------------------------------------------------------------------------------------------------------



  FREE ENERGIE OF THE ION-ELECTRON SYSTEM (eV)
  ---------------------------------------------------
  free  energy   TOTEN  =       -90.345467 eV

  energy  without entropy=      -90.344838  energy(sigma->0) =      -90.345153
 

  FORCE on cell =-STRESS in cart. coord.  units (eV/reduce length):
  Direction    X        Y        Z        XY       YZ       ZX
  --------------------------------------------------------------------------------------
  Alpha Z   3057.35   3057.35   3057.35
  Ewald   -10132.53 -10132.49 -10132.49     -0.00     -0.00     -0.00
  Hartree   2180.71   2180.74   2180.74     -0.00     -0.00     -0.00
  E(xc)    -1857.75  -1857.75  -1857.75      0.00     -0.00     -0.00
  Local     3175.35   3175.29   3175.29      0.00     -0.00      0.00
  n-local  -2122.91  -2126.67  -2119.16      1.69      0.99      0.29
  augment   1340.05   1340.05   1340.05     -0.00     -0.00     -0.00
  Kinetic   4350.83   4344.55   4357.11      0.75     -0.63     -2.02
  -------------------------------------------------------------------------------------
  Total       -8.91     -8.91     -8.91      0.00      0.00      0.00
  in kB      -23.99    -23.99    -23.99      0.00      0.00      0.00
  external pressure =      -23.99 kB  Pullay stress =        0.00 kB


 VOLUME and BASIS-vectors are now :
 -----------------------------------------------------------------------------
  energy-cutoff  :      750.00
  volume of cell :      594.76
      direct lattice vectors                 reciprocal lattice vectors
     8.409714059  0.000000000  0.000000000     0.118910107  0.000000000  0.000000000
     0.000000000  8.409714059  0.000000000     0.000000000  0.118910107  0.000000000
     0.000000000  0.000000000  8.409714059     0.000000000  0.000000000  0.118910107

  length of vectors
     8.409714059  8.409714059  8.409714059     0.118910107  0.118910107  0.118910107


 FORCES acting on ions
    electron-ion (+dipol)            ewald-force                    non-local-force                 convergence-correction
 -----------------------------------------------------------------------------------------------
   0.379E+01 0.515E-13 0.632E-07   -.380E+01 -.533E-13 -.817E-13   -.290E-01 0.324E-20 0.630E-20   -.156E-04 0.107E-12 -.151E-12
   -.995E+00 0.219E-12 -.636E-07   0.100E+01 0.128E-12 0.284E-13   -.778E-02 0.120E-22 0.516E-20   0.208E-04 0.101E-12 -.236E-12
   0.316E+00 -.995E-13 -.180E-11   -.318E+00 0.149E-12 0.142E-13   0.127E-02 -.275E-20 0.594E-21   -.460E-05 -.269E-12 -.812E-13
   -.253E+00 0.994E-12 -.169E-11   0.250E+00 0.114E-12 0.142E-13   0.325E-02 0.295E-20 0.680E-21   -.163E-05 -.238E-12 -.102E-12
   0.316E+00 0.521E-13 0.951E-10   -.318E+00 0.131E-12 -.249E-13   0.127E-02 -.831E-20 0.129E-20   -.417E-05 0.112E-12 -.131E-13
   -.253E+00 0.987E-14 0.964E-10   0.250E+00 0.128E-12 -.284E-13   0.325E-02 0.260E-20 -.275E-20   -.172E-05 0.109E-12 0.843E-13
   0.132E+00 -.993E-13 -.500E-11   -.131E+00 0.924E-13 -.711E-14   -.111E-02 0.593E-20 0.412E-20   0.508E-05 -.276E-12 -.842E-13
   -.123E+00 -.650E-11 -.321E-11   0.123E+00 0.114E-12 -.142E-13   -.240E-03 0.292E-21 -.148E-22   -.351E-05 -.245E-12 -.585E-13
   -.482E+00 -.925E+00 0.171E-10   0.482E+00 0.927E+00 0.711E-14   0.484E-02 0.344E-02 0.110E-19   0.319E-06 0.892E-05 -.203E-12
   -.486E+00 0.918E+00 0.871E-11   0.485E+00 -.920E+00 0.711E-14   0.485E-02 -.343E-02 -.227E-20   0.458E-05 -.969E-05 -.124E-12
   -.482E+00 0.925E+00 0.169E-10   0.482E+00 -.927E+00 0.568E-13   0.484E-02 -.344E-02 -.351E-20   0.319E-06 -.892E-05 -.144E-12
   -.486E+00 -.918E+00 0.244E-10   0.485E+00 0.920E+00 -.568E-13   0.485E-02 0.343E-02 -.144E-20   0.458E-05 0.969E-05 -.938E-13
   -.134E-01 -.764E-01 0.258E-10   0.147E-01 0.762E-01 0.000E+00   -.112E-02 0.214E-03 -.581E-21   0.380E-06 0.186E-05 0.423E-13
   -.148E-01 0.763E-01 0.265E-10   0.162E-01 -.761E-01 0.000E+00   -.112E-02 -.220E-03 -.306E-21   0.232E-05 -.379E-05 -.378E-13
   -.134E-01 0.764E-01 0.260E-10   0.147E-01 -.762E-01 0.000E+00   -.112E-02 -.214E-03 -.143E-20   0.380E-06 -.186E-05 -.126E-13
   -.148E-01 -.763E-01 0.108E-10   0.162E-01 0.761E-01 -.568E-13   -.112E-02 0.220E-03 -.600E-21   0.232E-05 0.379E-05 -.689E-13
   -.482E+00 0.179E-13 -.925E+00   0.482E+00 0.107E-13 0.927E+00   0.484E-02 0.269E-20 0.344E-02   0.237E-06 0.704E-13 0.898E-05
   -.486E+00 0.333E-13 0.918E+00   0.485E+00 0.107E-13 -.920E+00   0.485E-02 0.244E-21 -.343E-02   0.450E-05 0.104E-12 -.976E-05
   -.134E-01 0.804E-12 -.764E-01   0.147E-01 0.249E-13 0.762E-01   -.112E-02 0.733E-21 0.214E-03   0.402E-06 -.221E-12 0.193E-05
   -.148E-01 0.926E-11 0.763E-01   0.162E-01 0.249E-13 -.761E-01   -.112E-02 0.126E-21 -.220E-03   0.234E-05 -.260E-12 -.386E-05
   -.482E+00 0.960E-13 0.925E+00   0.482E+00 0.426E-13 -.927E+00   0.484E-02 -.310E-20 -.344E-02   0.237E-06 0.126E-12 -.898E-05
   -.486E+00 0.605E-13 -.918E+00   0.485E+00 0.142E-13 0.920E+00   0.485E-02 0.308E-20 0.343E-02   0.450E-05 0.134E-12 0.976E-05
   -.134E-01 0.111E-11 0.764E-01   0.147E-01 0.284E-13 -.762E-01   -.112E-02 0.215E-21 -.214E-03   0.402E-06 -.276E-12 -.193E-05
   -.148E-01 -.689E-11 -.763E-01   0.162E-01 0.284E-13 0.761E-01   -.112E-02 0.136E-20 0.220E-03   0.234E-05 -.292E-12 0.386E-05
   0.597E+00 0.225E-02 0.225E-02   -.600E+00 -.224E-02 -.224E-02   0.136E-02 -.127E-04 -.127E-04   -.961E-05 -.128E-05 -.128E-05
   -.335E+00 -.659E-03 -.659E-03   0.337E+00 0.672E-03 0.672E-03   -.155E-02 -.116E-04 -.116E-04   0.341E-05 -.112E-06 -.112E-06
   0.597E+00 -.225E-02 0.225E-02   -.600E+00 0.224E-02 -.224E-02   0.136E-02 0.127E-04 -.127E-04   -.961E-05 0.128E-05 -.128E-05
   -.335E+00 0.659E-03 -.659E-03   0.337E+00 -.672E-03 0.672E-03   -.155E-02 0.116E-04 -.116E-04   0.341E-05 0.112E-06 -.112E-06
   0.597E+00 0.225E-02 -.225E-02   -.600E+00 -.224E-02 0.224E-02   0.136E-02 -.127E-04 0.127E-04   -.961E-05 -.128E-05 0.128E-05
   -.335E+00 -.659E-03 0.659E-03   0.337E+00 0.672E-03 -.672E-03   -.155E-02 -.116E-04 0.116E-04   0.341E-05 -.112E-06 0.112E-06
   0.597E+00 -.225E-02 -.225E-02   -.600E+00 0.224E-02 0.224E-02   0.136E-02 0.127E-04 0.127E-04   -.961E-05 0.128E-05 0.128E-05
   -.335E+00 0.659E-03 0.659E-03   0.337E+00 -.672E-03 -.672E-03   -.155E-02 0.116E-04 0.116E-04   0.341E-05 0.112E-06 0.112E-06
 -----------------------------------------------------------------------------------------------
   -.351E-06 0.157E-11 -.501E-09   0.168E-13 0.865E-13 -.272E-12   0.462E-05 0.469E-18 0.491E-18   0.507E-07 -.581E-12 -.524E-12
 
 
 POSITION                                       TOTAL-FORCE (eV/Angst)
 -----------------------------------------------------------------------------------
      0.01000      0.00000      0.00000        -0.038105     -0.000000      0.000000
      4.20486      0.00000      0.00000         0.001060      0.000000      0.000000
      0.00000      4.20486      0.00000        -0.000311     -0.000000      0.000000
      4.20486      4.20486      0.00000        -0.000412     -0.000000      0.000000
      0.00000      0.00000      4.20486        -0.000311      0.000000     -0.000000
      4.20486      0.00000      4.20486        -0.000412     -0.000000     -0.000000
      0.00000      4.20486      4.20486        -0.000121      0.000000      0.000000
      4.20486      4.20486      4.20486        -0.000107     -0.000000     -0.000000
      2.10243      2.10243      0.00000         0.004861      0.005690      0.000000
      6.30729      2.10243      0.00000         0.004697     -0.005469     -0.000000
      2.10243      6.30729      0.00000         0.004861     -0.005690      0.000000
      6.30729      6.30729      0.00000         0.004697      0.005469     -0.000000
      2.10243      2.10243      4.20486         0.000214      0.000044     -0.000000
      6.30729      2.10243      4.20486         0.000214     -0.000044     -0.000000
      2.10243      6.30729      4.20486         0.000214     -0.000044     -0.000000
      6.30729      6.30729      4.20486         0.000214      0.000044      0.000000
      2.10243      0.00000      2.10243         0.004861     -0.000000      0.005690
      6.30729      0.00000      2.10243         0.004697      0.000000     -0.005469
      2.10243      4.20486      2.10243         0.000214      0.000000      0.000044
      6.30729      4.20486      2.10243         0.000214     -0.000000     -0.000044
      2.10243      0.00000      6.30729         0.004861      0.000000     -0.005690
      6.30729      0.00000      6.30729         0.004697      0.000000      0.005469
      2.10243      4.20486      6.30729         0.000214      0.000000     -0.000044
      6.30729      4.20486      6.30729         0.000214      0.000000      0.000044
      0.00000      2.10243      2.10243        -0.000909     -0.000007     -0.000007
      4.20486      2.10243      2.10243         0.000601      0.000001      0.000001
      0.00000      6.30729      2.10243        -0.000909      0.000007     -0.000007
      4.20486      6.30729      2.10243         0.000601     -0.000001      0.000001
      0.00000      2.10243      6.30729        -0.000909     -0.000007      0.000007
      4.20486      2.10243      6.30729         0.000601      0.000001     -0.000001
      0.00000      6.30729      6.30729        -0.000909      0.000007      0.000007
      4.20486      6.30729      6.30729         0.000601     -0.000001     -0.000001
 -----------------------------------------------------------------------------------
    total drift:                                0.000004      0.000000     -0.000000


--------------------------------------------------------------------------------------------------------



 mean value of Nose-termostat <S>:     1.000 mean value of <T> :     0.000
 mean temperature <T/S>/<1/S>  :     0.000

     LOOP+:  VPU time41006.47: CPU time67135.10
  
  
 General timing and accounting informations for this job:
 ========================================================
  
                  Total CPU time used (sec):    42330.061
                            User time (sec):    30340.044
                          System time (sec):    11990.017
                         Elapsed time (sec):    70516.671
  
                   Maximum memory used (kb):     6404508.
                   Average memory used (kb):           0.
  
                          Minor page faults:      4311302
                          Major page faults:       451457
                 Voluntary context switches:       596989
