32   
1    

1    
  0.0100000000000000   0.0000000000000000   0.0000000000000000
  -0.0349425200    0.0000000000   -0.0000000000
   0.0050179800   -0.0000000000   -0.0000000000
   0.0009293600   -0.0000000000    0.0000000000
   0.0000476000    0.0000000000    0.0000000000
   0.0009293600    0.0000000000    0.0000000000
   0.0000476000   -0.0000000000   -0.0000000000
  -0.0015706100   -0.0000000000    0.0000000000
  -0.0000153700    0.0000000000   -0.0000000000
  -0.0033861500   -0.0000086300    0.0000086300
  -0.0012041500    0.0000275000   -0.0000275000
  -0.0033861500    0.0000086300    0.0000086300
  -0.0012041500   -0.0000275000   -0.0000275000
  -0.0033861500   -0.0000086300   -0.0000086300
  -0.0012041500    0.0000275000    0.0000275000
  -0.0033861500    0.0000086300   -0.0000086300
  -0.0012041500   -0.0000275000    0.0000275000
   0.0047514300   -0.0000000000   -0.0054442500
   0.0049363200   -0.0000000000    0.0056598200
   0.0011724500    0.0000000000    0.0011607600
   0.0011192500   -0.0000000000   -0.0011700300
   0.0047514300    0.0000000000    0.0054442500
   0.0049363200    0.0000000000   -0.0056598200
   0.0011724500    0.0000000000   -0.0011607600
   0.0011192500   -0.0000000000    0.0011700300
   0.0047514300    0.0054442500   -0.0000000000
   0.0049363200   -0.0056598200   -0.0000000000
   0.0047514300   -0.0054442500    0.0000000000
   0.0049363200    0.0056598200   -0.0000000000
   0.0011724500   -0.0011607600   -0.0000000000
   0.0011192500    0.0011700300   -0.0000000000
   0.0011724500    0.0011607600   -0.0000000000
   0.0011192500   -0.0011700300   -0.0000000000
