# Thermal properties / unit cell (natom)

unit:
  temperature:   K
  free_energy:   kJ/mol
  entropy:       J/K/mol
  heat_capacity: J/K/mol

natom:     4
num_modes: 1327104
num_integrated_modes: 1327104

zero_point_energy:      12.8001987
high_T_entropy:        385.7544334

thermal_properties:
- temperature:         0.0000000
  free_energy:        12.8001987
  entropy:             0.0000000
  heat_capacity:       0.0000000
  energy:             12.8001987

- temperature:        10.0000000
  free_energy:        12.8001430
  entropy:             0.0227303
  heat_capacity:       0.0704204
  energy:             12.8003703

- temperature:        20.0000000
  free_energy:        12.7991592
  entropy:             0.2367078
  heat_capacity:       0.9238318
  energy:             12.8038934

- temperature:        30.0000000
  free_energy:        12.7928086
  entropy:             1.2343152
  heat_capacity:       4.9630986
  energy:             12.8298380

- temperature:        40.0000000
  free_energy:        12.7696675
  entropy:             3.6456743
  heat_capacity:      12.6200908
  energy:             12.9154944

- temperature:        50.0000000
  free_energy:        12.7152236
  entropy:             7.4482425
  heat_capacity:      21.9218103
  energy:             13.0876357

- temperature:        60.0000000
  free_energy:        12.6172758
  entropy:            12.2793921
  heat_capacity:      31.2846189
  energy:             13.3540393

- temperature:        70.0000000
  free_energy:        12.4674700
  entropy:            17.7633347
  heat_capacity:      39.9358370
  energy:             13.7109035

- temperature:        80.0000000
  free_energy:        12.2608180
  entropy:            23.6075536
  heat_capacity:      47.5945949
  energy:             14.1494223

- temperature:        90.0000000
  free_energy:        11.9948124
  entropy:            29.6060058
  heat_capacity:      54.2240183
  energy:             14.6593529

- temperature:       100.0000000
  free_energy:        11.6686494
  entropy:            35.6206000
  heat_capacity:      59.8967109
  energy:             15.2307094

- temperature:       110.0000000
  free_energy:        11.2826478
  entropy:            41.5620715
  heat_capacity:      64.7261425
  energy:             15.8544757

- temperature:       120.0000000
  free_energy:        10.8378394
  entropy:            47.3748789
  heat_capacity:      68.8330414
  energy:             16.5228248

- temperature:       130.0000000
  free_energy:        10.3356899
  entropy:            53.0262742
  heat_capacity:      72.3301864
  energy:             17.2291056

- temperature:       140.0000000
  free_energy:         9.7779116
  entropy:            58.4986885
  heat_capacity:      75.3166480
  energy:             17.9677280

- temperature:       150.0000000
  free_energy:         9.1663388
  entropy:            63.7845321
  heat_capacity:      77.8766605
  energy:             18.7340186

- temperature:       160.0000000
  free_energy:         8.5028470
  entropy:            68.8826781
  heat_capacity:      80.0805729
  energy:             19.5240755

- temperature:       170.0000000
  free_energy:         7.7893012
  entropy:            73.7960997
  heat_capacity:      81.9865846
  energy:             20.3346382

- temperature:       180.0000000
  free_energy:         7.0275226
  entropy:            78.5302906
  heat_capacity:      83.6426333
  energy:             21.1629750

- temperature:       190.0000000
  free_energy:         6.2192697
  entropy:            83.0922113
  heat_capacity:      85.0881600
  energy:             22.0067899

- temperature:       200.0000000
  free_energy:         5.3662269
  entropy:            87.4895920
  heat_capacity:      86.3556452
  energy:             22.8641453

- temperature:       210.0000000
  free_energy:         4.4699995
  entropy:            91.7304744
  heat_capacity:      87.4718982
  energy:             23.7333992

- temperature:       220.0000000
  free_energy:         3.5321122
  entropy:            95.8229153
  heat_capacity:      88.4591174
  energy:             24.6131536

- temperature:       230.0000000
  free_energy:         2.5540097
  entropy:            99.7747979
  heat_capacity:      89.3357509
  energy:             25.5022132

- temperature:       240.0000000
  free_energy:         1.5370594
  entropy:           103.5937172
  heat_capacity:      90.1171922
  energy:             26.3995516

- temperature:       250.0000000
  free_energy:         0.4825544
  entropy:           107.2869143
  heat_capacity:      90.8163395
  energy:             27.3042830

- temperature:       260.0000000
  free_energy:        -0.6082827
  entropy:           110.8612426
  heat_capacity:      91.4440469
  energy:             28.2156404

- temperature:       270.0000000
  free_energy:        -1.7342958
  entropy:           114.3231566
  heat_capacity:      92.0094871
  energy:             29.1329565

- temperature:       280.0000000
  free_energy:        -2.8943913
  entropy:           117.6787143
  heat_capacity:      92.5204446
  energy:             30.0556487

- temperature:       290.0000000
  free_energy:        -4.0875345
  entropy:           120.9335880
  heat_capacity:      92.9835534
  energy:             30.9832060

- temperature:       300.0000000
  free_energy:        -5.3127452
  entropy:           124.0930815
  heat_capacity:      93.4044898
  energy:             31.9151792

- temperature:       310.0000000
  free_energy:        -6.5690947
  entropy:           127.1621494
  heat_capacity:      93.7881296
  energy:             32.8511716

- temperature:       320.0000000
  free_energy:        -7.8557022
  entropy:           130.1454182
  heat_capacity:      94.1386773
  energy:             33.7908316

- temperature:       330.0000000
  free_energy:        -9.1717315
  entropy:           133.0472076
  heat_capacity:      94.4597713
  energy:             34.7338470

- temperature:       340.0000000
  free_energy:       -10.5163883
  entropy:           135.8715520
  heat_capacity:      94.7545718
  energy:             35.6799394

- temperature:       350.0000000
  free_energy:       -11.8889170
  entropy:           138.6222200
  heat_capacity:      95.0258325
  energy:             36.6288600

- temperature:       360.0000000
  free_energy:       -13.2885988
  entropy:           141.3027347
  heat_capacity:      95.2759611
  energy:             37.5803857

- temperature:       370.0000000
  free_energy:       -14.7147489
  entropy:           143.9163911
  heat_capacity:      95.5070693
  energy:             38.5343159

- temperature:       380.0000000
  free_energy:       -16.1667141
  entropy:           146.4662736
  heat_capacity:      95.7210148
  energy:             39.4904699

- temperature:       390.0000000
  free_energy:       -17.6438714
  entropy:           148.9552714
  heat_capacity:      95.9194368
  energy:             40.4486844

- temperature:       400.0000000
  free_energy:       -19.1456256
  entropy:           151.3860933
  heat_capacity:      96.1037854
  energy:             41.4088117

- temperature:       410.0000000
  free_energy:       -20.6714078
  entropy:           153.7612814
  heat_capacity:      96.2753472
  energy:             42.3707175

- temperature:       420.0000000
  free_energy:       -22.2206738
  entropy:           156.0832229
  heat_capacity:      96.4352665
  energy:             43.3342799

- temperature:       430.0000000
  free_energy:       -23.7929023
  entropy:           158.3541622
  heat_capacity:      96.5845636
  energy:             44.2993875

- temperature:       440.0000000
  free_energy:       -25.3875941
  entropy:           160.5762110
  heat_capacity:      96.7241505
  energy:             45.2659388

- temperature:       450.0000000
  free_energy:       -27.0042702
  entropy:           162.7513579
  heat_capacity:      96.8548444
  energy:             46.2338408

- temperature:       460.0000000
  free_energy:       -28.6424711
  entropy:           164.8814774
  heat_capacity:      96.9773788
  energy:             47.2030085

- temperature:       470.0000000
  free_energy:       -30.3017556
  entropy:           166.9683383
  heat_capacity:      97.0924139
  energy:             48.1733634

- temperature:       480.0000000
  free_energy:       -31.9816993
  entropy:           169.0136105
  heat_capacity:      97.2005448
  energy:             49.1448337

- temperature:       490.0000000
  free_energy:       -33.6818944
  entropy:           171.0188725
  heat_capacity:      97.3023092
  energy:             50.1173531

- temperature:       500.0000000
  free_energy:       -35.4019484
  entropy:           172.9856174
  heat_capacity:      97.3981940
  energy:             51.0908603

- temperature:       510.0000000
  free_energy:       -37.1414831
  entropy:           174.9152587
  heat_capacity:      97.4886405
  energy:             52.0652989

- temperature:       520.0000000
  free_energy:       -38.9001343
  entropy:           176.8091359
  heat_capacity:      97.5740497
  energy:             53.0406164

- temperature:       530.0000000
  free_energy:       -40.6775508
  entropy:           178.6685191
  heat_capacity:      97.6547867
  energy:             54.0167643

- temperature:       540.0000000
  free_energy:       -42.4733938
  entropy:           180.4946137
  heat_capacity:      97.7311841
  energy:             54.9936976

- temperature:       550.0000000
  free_energy:       -44.2873360
  entropy:           182.2885645
  heat_capacity:      97.8035456
  energy:             55.9713745

- temperature:       560.0000000
  free_energy:       -46.1190615
  entropy:           184.0514599
  heat_capacity:      97.8721492
  energy:             56.9497560

- temperature:       570.0000000
  free_energy:       -47.9682651
  entropy:           185.7843350
  heat_capacity:      97.9372492
  energy:             57.9288058

- temperature:       580.0000000
  free_energy:       -49.8346515
  entropy:           187.4881751
  heat_capacity:      97.9990789
  energy:             58.9084901

- temperature:       590.0000000
  free_energy:       -51.7179350
  entropy:           189.1639189
  heat_capacity:      98.0578528
  energy:             59.8887772

- temperature:       600.0000000
  free_energy:       -53.6178392
  entropy:           190.8124613
  heat_capacity:      98.1137680
  energy:             60.8696376

- temperature:       610.0000000
  free_energy:       -55.5340964
  entropy:           192.4346558
  heat_capacity:      98.1670061
  energy:             61.8510437

- temperature:       620.0000000
  free_energy:       -57.4664472
  entropy:           194.0313170
  heat_capacity:      98.2177345
  energy:             62.8329694

- temperature:       630.0000000
  free_energy:       -59.4146402
  entropy:           195.6032233
  heat_capacity:      98.2661079
  energy:             63.8153905

- temperature:       640.0000000
  free_energy:       -61.3784316
  entropy:           197.1511184
  heat_capacity:      98.3122692
  energy:             64.7982842

- temperature:       650.0000000
  free_energy:       -63.3575849
  entropy:           198.6757136
  heat_capacity:      98.3563508
  energy:             65.7816290

- temperature:       660.0000000
  free_energy:       -65.3518705
  entropy:           200.1776896
  heat_capacity:      98.3984751
  energy:             66.7654047

- temperature:       670.0000000
  free_energy:       -67.3610655
  entropy:           201.6576982
  heat_capacity:      98.4387560
  energy:             67.7495923

- temperature:       680.0000000
  free_energy:       -69.3849533
  entropy:           203.1163637
  heat_capacity:      98.4772991
  energy:             68.7341740

- temperature:       690.0000000
  free_energy:       -71.4233236
  entropy:           204.5542847
  heat_capacity:      98.5142025
  energy:             69.7191328

- temperature:       700.0000000
  free_energy:       -73.4759718
  entropy:           205.9720352
  heat_capacity:      98.5495577
  energy:             70.7044529

- temperature:       710.0000000
  free_energy:       -75.5426989
  entropy:           207.3701662
  heat_capacity:      98.5834498
  energy:             71.6901191

- temperature:       720.0000000
  free_energy:       -77.6233115
  entropy:           208.7492066
  heat_capacity:      98.6159581
  energy:             72.6761173

- temperature:       730.0000000
  free_energy:       -79.7176211
  entropy:           210.1096644
  heat_capacity:      98.6471567
  energy:             73.6624339

- temperature:       740.0000000
  free_energy:       -81.8254444
  entropy:           211.4520280
  heat_capacity:      98.6771148
  energy:             74.6490563

- temperature:       750.0000000
  free_energy:       -83.9466029
  entropy:           212.7767669
  heat_capacity:      98.7058971
  energy:             75.6359723

- temperature:       760.0000000
  free_energy:       -86.0809225
  entropy:           214.0843329
  heat_capacity:      98.7335643
  energy:             76.6231705

- temperature:       770.0000000
  free_energy:       -88.2282338
  entropy:           215.3751608
  heat_capacity:      98.7601729
  energy:             77.6106400

- temperature:       780.0000000
  free_energy:       -90.3883714
  entropy:           216.6496692
  heat_capacity:      98.7857761
  energy:             78.5983706

- temperature:       790.0000000
  free_energy:       -92.5611741
  entropy:           217.9082614
  heat_capacity:      98.8104239
  energy:             79.5863524

- temperature:       800.0000000
  free_energy:       -94.7464848
  entropy:           219.1513261
  heat_capacity:      98.8341630
  energy:             80.5745760

- temperature:       810.0000000
  free_energy:       -96.9441501
  entropy:           220.3792381
  heat_capacity:      98.8570375
  energy:             81.5630328

- temperature:       820.0000000
  free_energy:       -99.1540203
  entropy:           221.5923589
  heat_capacity:      98.8790888
  energy:             82.5517141

- temperature:       830.0000000
  free_energy:      -101.3759492
  entropy:           222.7910374
  heat_capacity:      98.9003557
  energy:             83.5406119

- temperature:       840.0000000
  free_energy:      -103.6097940
  entropy:           223.9756103
  heat_capacity:      98.9208750
  energy:             84.5297187

- temperature:       850.0000000
  free_energy:      -105.8554154
  entropy:           225.1464029
  heat_capacity:      98.9406812
  energy:             85.5190270

- temperature:       860.0000000
  free_energy:      -108.1126772
  entropy:           226.3037293
  heat_capacity:      98.9598069
  energy:             86.5085300

- temperature:       870.0000000
  free_energy:      -110.3814461
  entropy:           227.4478933
  heat_capacity:      98.9782828
  energy:             87.4982210

- temperature:       880.0000000
  free_energy:      -112.6615922
  entropy:           228.5791884
  heat_capacity:      98.9961381
  energy:             88.4880936

- temperature:       890.0000000
  free_energy:      -114.9529880
  entropy:           229.6978986
  heat_capacity:      99.0134000
  energy:             89.4781418

- temperature:       900.0000000
  free_energy:      -117.2555091
  entropy:           230.8042987
  heat_capacity:      99.0300946
  energy:             90.4683597

- temperature:       910.0000000
  free_energy:      -119.5690338
  entropy:           231.8986546
  heat_capacity:      99.0462465
  energy:             91.4587419

- temperature:       920.0000000
  free_energy:      -121.8934429
  entropy:           232.9812237
  heat_capacity:      99.0618787
  energy:             92.4492829

- temperature:       930.0000000
  free_energy:      -124.2286198
  entropy:           234.0522555
  heat_capacity:      99.0770134
  energy:             93.4399778

- temperature:       940.0000000
  free_energy:      -126.5744504
  entropy:           235.1119914
  heat_capacity:      99.0916714
  energy:             94.4308216

- temperature:       950.0000000
  free_energy:      -128.9308228
  entropy:           236.1606657
  heat_capacity:      99.1058725
  energy:             95.4218097

- temperature:       960.0000000
  free_energy:      -131.2976276
  entropy:           237.1985054
  heat_capacity:      99.1196354
  energy:             96.4129376

- temperature:       970.0000000
  free_energy:      -133.6747575
  entropy:           238.2257304
  heat_capacity:      99.1329779
  energy:             97.4042010

- temperature:       980.0000000
  free_energy:      -136.0621075
  entropy:           239.2425544
  heat_capacity:      99.1459170
  energy:             98.3955958

- temperature:       990.0000000
  free_energy:      -138.4595746
  entropy:           240.2491845
  heat_capacity:      99.1584687
  energy:             99.3871181

- temperature:      1000.0000000
  free_energy:      -140.8670579
  entropy:           241.2458218
  heat_capacity:      99.1706483
  energy:            100.3787639

- temperature:      1010.0000000
  free_energy:      -143.2844584
  entropy:           242.2326616
  heat_capacity:      99.1824704
  energy:            101.3705298

- temperature:      1020.0000000
  free_energy:      -145.7116791
  entropy:           243.2098934
  heat_capacity:      99.1939488
  energy:            102.3624122

- temperature:      1030.0000000
  free_energy:      -148.1486248
  entropy:           244.1777015
  heat_capacity:      99.2050966
  energy:            103.3544077

- temperature:      1040.0000000
  free_energy:      -150.5952023
  entropy:           245.1362648
  heat_capacity:      99.2159264
  energy:            104.3465131

- temperature:      1050.0000000
  free_energy:      -153.0513199
  entropy:           246.0857572
  heat_capacity:      99.2264503
  energy:            105.3387252

- temperature:      1060.0000000
  free_energy:      -155.5168878
  entropy:           247.0263480
  heat_capacity:      99.2366794
  energy:            106.3310411

- temperature:      1070.0000000
  free_energy:      -157.9918177
  entropy:           247.9582015
  heat_capacity:      99.2466249
  energy:            107.3234579

- temperature:      1080.0000000
  free_energy:      -160.4760232
  entropy:           248.8814777
  heat_capacity:      99.2562970
  energy:            108.3159727

- temperature:      1090.0000000
  free_energy:      -162.9694192
  entropy:           249.7963322
  heat_capacity:      99.2657057
  energy:            109.3085829

- temperature:      1100.0000000
  free_energy:      -165.4719223
  entropy:           250.7029166
  heat_capacity:      99.2748603
  energy:            110.3012860

- temperature:      1110.0000000
  free_energy:      -167.9834505
  entropy:           251.6013782
  heat_capacity:      99.2837701
  energy:            111.2940793

- temperature:      1120.0000000
  free_energy:      -170.5039233
  entropy:           252.4918606
  heat_capacity:      99.2924435
  energy:            112.2869606

- temperature:      1130.0000000
  free_energy:      -173.0332615
  entropy:           253.3745035
  heat_capacity:      99.3008890
  energy:            113.2799274

- temperature:      1140.0000000
  free_energy:      -175.5713876
  entropy:           254.2494432
  heat_capacity:      99.3091143
  energy:            114.2729776

- temperature:      1150.0000000
  free_energy:      -178.1182252
  entropy:           255.1168123
  heat_capacity:      99.3171271
  energy:            115.2661090

- temperature:      1160.0000000
  free_energy:      -180.6736991
  entropy:           255.9767401
  heat_capacity:      99.3249347
  energy:            116.2593195

- temperature:      1170.0000000
  free_energy:      -183.2377356
  entropy:           256.8293527
  heat_capacity:      99.3325439
  energy:            117.2526070

- temperature:      1180.0000000
  free_energy:      -185.8102622
  entropy:           257.6747728
  heat_capacity:      99.3399614
  energy:            118.2459697

- temperature:      1190.0000000
  free_energy:      -188.3912075
  entropy:           258.5131203
  heat_capacity:      99.3471937
  energy:            119.2394056

- temperature:      1200.0000000
  free_energy:      -190.9805014
  entropy:           259.3445120
  heat_capacity:      99.3542467
  energy:            120.2329130

- temperature:      1210.0000000
  free_energy:      -193.5780749
  entropy:           260.1690619
  heat_capacity:      99.3611264
  energy:            121.2264900

- temperature:      1220.0000000
  free_energy:      -196.1838602
  entropy:           260.9868813
  heat_capacity:      99.3678384
  energy:            122.2201350

- temperature:      1230.0000000
  free_energy:      -198.7977905
  entropy:           261.7980786
  heat_capacity:      99.3743881
  energy:            123.2138462

- temperature:      1240.0000000
  free_energy:      -201.4198000
  entropy:           262.6027599
  heat_capacity:      99.3807807
  energy:            124.2076222

- temperature:      1250.0000000
  free_energy:      -204.0498243
  entropy:           263.4010285
  heat_capacity:      99.3870212
  energy:            125.2014613

- temperature:      1260.0000000
  free_energy:      -206.6877996
  entropy:           264.1929855
  heat_capacity:      99.3931143
  energy:            126.1953621

- temperature:      1270.0000000
  free_energy:      -209.3336633
  entropy:           264.9787295
  heat_capacity:      99.3990647
  energy:            127.1893231

- temperature:      1280.0000000
  free_energy:      -211.9873538
  entropy:           265.7583568
  heat_capacity:      99.4048767
  energy:            128.1833430

- temperature:      1290.0000000
  free_energy:      -214.6488103
  entropy:           266.5319617
  heat_capacity:      99.4105546
  energy:            129.1774202

- temperature:      1300.0000000
  free_energy:      -217.3179732
  entropy:           267.2996360
  heat_capacity:      99.4161026
  energy:            130.1715536

- temperature:      1310.0000000
  free_energy:      -219.9947836
  entropy:           268.0614698
  heat_capacity:      99.4215245
  energy:            131.1657419

- temperature:      1320.0000000
  free_energy:      -222.6791835
  entropy:           268.8175509
  heat_capacity:      99.4268241
  energy:            132.1599837

- temperature:      1330.0000000
  free_energy:      -225.3711157
  entropy:           269.5679652
  heat_capacity:      99.4320051
  energy:            133.1542779

- temperature:      1340.0000000
  free_energy:      -228.0705242
  entropy:           270.3127967
  heat_capacity:      99.4370710
  energy:            134.1486234

- temperature:      1350.0000000
  free_energy:      -230.7773533
  entropy:           271.0521276
  heat_capacity:      99.4420251
  energy:            135.1430190

- temperature:      1360.0000000
  free_energy:      -233.4915486
  entropy:           271.7860384
  heat_capacity:      99.4468708
  energy:            136.1374636

- temperature:      1370.0000000
  free_energy:      -236.2130563
  entropy:           272.5146075
  heat_capacity:      99.4516111
  energy:            137.1319561

- temperature:      1380.0000000
  free_energy:      -238.9418232
  entropy:           273.2379121
  heat_capacity:      99.4562492
  energy:            138.1264954

- temperature:      1390.0000000
  free_energy:      -241.6777972
  entropy:           273.9560273
  heat_capacity:      99.4607878
  energy:            139.1210807

- temperature:      1400.0000000
  free_energy:      -244.4209267
  entropy:           274.6690269
  heat_capacity:      99.4652299
  energy:            140.1157109

- temperature:      1410.0000000
  free_energy:      -247.1711610
  entropy:           275.3769829
  heat_capacity:      99.4695781
  energy:            141.1103850

- temperature:      1420.0000000
  free_energy:      -249.9284498
  entropy:           276.0799662
  heat_capacity:      99.4738351
  energy:            142.1051021

- temperature:      1430.0000000
  free_energy:      -252.6927439
  entropy:           276.7780457
  heat_capacity:      99.4780034
  energy:            143.0998614

- temperature:      1440.0000000
  free_energy:      -255.4639946
  entropy:           277.4712893
  heat_capacity:      99.4820855
  energy:            144.0946619

- temperature:      1450.0000000
  free_energy:      -258.2421538
  entropy:           278.1597632
  heat_capacity:      99.4860837
  energy:            145.0895028

- temperature:      1460.0000000
  free_energy:      -261.0271742
  entropy:           278.8435325
  heat_capacity:      99.4900002
  energy:            146.0843833

- temperature:      1470.0000000
  free_energy:      -263.8190090
  entropy:           279.5226609
  heat_capacity:      99.4938374
  energy:            147.0793026

- temperature:      1480.0000000
  free_energy:      -266.6176122
  entropy:           280.1972108
  heat_capacity:      99.4975972
  energy:            148.0742598

- temperature:      1490.0000000
  free_energy:      -269.4229382
  entropy:           280.8672432
  heat_capacity:      99.5012819
  energy:            149.0692543

- temperature:      1500.0000000
  free_energy:      -272.2349422
  entropy:           281.5328182
  heat_capacity:      99.5048934
  energy:            150.0642852

- temperature:      1510.0000000
  free_energy:      -275.0535799
  entropy:           282.1939945
  heat_capacity:      99.5084335
  energy:            151.0593519

- temperature:      1520.0000000
  free_energy:      -277.8788076
  entropy:           282.8508297
  heat_capacity:      99.5119042
  energy:            152.0544536

- temperature:      1530.0000000
  free_energy:      -280.7105822
  entropy:           283.5033803
  heat_capacity:      99.5153073
  energy:            153.0495897

- temperature:      1540.0000000
  free_energy:      -283.5488611
  entropy:           284.1517017
  heat_capacity:      99.5186445
  energy:            154.0447596

- temperature:      1550.0000000
  free_energy:      -286.3936023
  entropy:           284.7958482
  heat_capacity:      99.5219175
  energy:            155.0399624

- temperature:      1560.0000000
  free_energy:      -289.2447643
  entropy:           285.4358731
  heat_capacity:      99.5251279
  energy:            156.0351977

- temperature:      1570.0000000
  free_energy:      -292.1023062
  entropy:           286.0718286
  heat_capacity:      99.5282774
  energy:            157.0304648

- temperature:      1580.0000000
  free_energy:      -294.9661875
  entropy:           286.7037662
  heat_capacity:      99.5313674
  energy:            158.0257631

- temperature:      1590.0000000
  free_energy:      -297.8363683
  entropy:           287.3317360
  heat_capacity:      99.5343995
  energy:            159.0210919

- temperature:      1600.0000000
  free_energy:      -300.7128092
  entropy:           287.9557875
  heat_capacity:      99.5373750
  energy:            160.0164509

- temperature:      1610.0000000
  free_energy:      -303.5954711
  entropy:           288.5759692
  heat_capacity:      99.5402954
  energy:            161.0118393

- temperature:      1620.0000000
  free_energy:      -306.4843158
  entropy:           289.1923286
  heat_capacity:      99.5431620
  energy:            162.0072566

- temperature:      1630.0000000
  free_energy:      -309.3793051
  entropy:           289.8049125
  heat_capacity:      99.5459762
  energy:            163.0027023

- temperature:      1640.0000000
  free_energy:      -312.2804016
  entropy:           290.4137668
  heat_capacity:      99.5487392
  energy:            163.9981759

- temperature:      1650.0000000
  free_energy:      -315.1875682
  entropy:           291.0189364
  heat_capacity:      99.5514522
  energy:            164.9936769

- temperature:      1660.0000000
  free_energy:      -318.1007682
  entropy:           291.6204657
  heat_capacity:      99.5541165
  energy:            165.9892048

- temperature:      1670.0000000
  free_energy:      -321.0199655
  entropy:           292.2183980
  heat_capacity:      99.5567331
  energy:            166.9847591

- temperature:      1680.0000000
  free_energy:      -323.9451243
  entropy:           292.8127760
  heat_capacity:      99.5593033
  energy:            167.9803393

- temperature:      1690.0000000
  free_energy:      -326.8762093
  entropy:           293.4036416
  heat_capacity:      99.5618281
  energy:            168.9759450

- temperature:      1700.0000000
  free_energy:      -329.8131856
  entropy:           293.9910361
  heat_capacity:      99.5643086
  energy:            169.9715757

- temperature:      1710.0000000
  free_energy:      -332.7560186
  entropy:           294.5749998
  heat_capacity:      99.5667458
  energy:            170.9672311

- temperature:      1720.0000000
  free_energy:      -335.7046743
  entropy:           295.1555726
  heat_capacity:      99.5691408
  energy:            171.9629105

- temperature:      1730.0000000
  free_energy:      -338.6591189
  entropy:           295.7327934
  heat_capacity:      99.5714944
  energy:            172.9586137

- temperature:      1740.0000000
  free_energy:      -341.6193191
  entropy:           296.3067008
  heat_capacity:      99.5738076
  energy:            173.9543403

- temperature:      1750.0000000
  free_energy:      -344.5852420
  entropy:           296.8773324
  heat_capacity:      99.5760814
  energy:            174.9500897

- temperature:      1760.0000000
  free_energy:      -347.5568550
  entropy:           297.4447254
  heat_capacity:      99.5783166
  energy:            175.9458618

- temperature:      1770.0000000
  free_energy:      -350.5341258
  entropy:           298.0089163
  heat_capacity:      99.5805141
  energy:            176.9416560

- temperature:      1780.0000000
  free_energy:      -353.5170227
  entropy:           298.5699408
  heat_capacity:      99.5826748