32   
1    

1    
  0.0100000000000000   0.0000000000000000   0.0000000000000000
  -0.0038017300    0.0000000000   -0.0000000000
   0.0031778300   -0.0000000000    0.0000000000
  -0.0004054500    0.0000000000   -0.0000000000
  -0.0016250000    0.0000000000   -0.0000000000
  -0.0004054500   -0.0000000000   -0.0000000000
  -0.0016250000   -0.0000000000    0.0000000000
   0.0002754400   -0.0000000000    0.0000000000
  -0.0000890500    0.0000000000    0.0000000000
   0.0007843600    0.0014197500    0.0000000000
   0.0006855100   -0.0012920300   -0.0000000000
   0.0007843600   -0.0014197500    0.0000000000
   0.0006855100    0.0012920300    0.0000000000
   0.0002070800   -0.0000048000    0.0000000000
   0.0002055300    0.0000077200    0.0000000000
   0.0002070800    0.0000048000   -0.0000000000
   0.0002055300   -0.0000077200   -0.0000000000
   0.0007843600   -0.0000000000    0.0014197500
   0.0006855100   -0.0000000000   -0.0012920300
   0.0002070800   -0.0000000000   -0.0000048000
   0.0002055300   -0.0000000000    0.0000077200
   0.0007843600   -0.0000000000   -0.0014197500
   0.0006855100   -0.0000000000    0.0012920300
   0.0002070800   -0.0000000000    0.0000048000
   0.0002055300   -0.0000000000   -0.0000077200
  -0.0013903100    0.0000069600    0.0000069600
   0.0006324400    0.0000040100    0.0000040100
  -0.0013903100   -0.0000069600    0.0000069600
   0.0006324400   -0.0000040100    0.0000040100
  -0.0013903100    0.0000069600   -0.0000069600
   0.0006324400    0.0000040100   -0.0000040100
  -0.0013903100   -0.0000069600   -0.0000069600
   0.0006324400   -0.0000040100   -0.0000040100
