mesh: [    48,    48,    48 ]
nqpoint: 2600   
reciprocal_lattice:
- [   0.22396660,   0.00000000,   0.00000000 ] # a*
- [   0.00000000,   0.22396660,   0.00000000 ] # b*
- [   0.00000000,   0.00000000,   0.22396660 ] # c*
natom:   4      
lattice:
- [     4.464951535476909,     0.000000000000000,     0.000000000000000 ] # a
- [     0.000000000000000,     4.464951535476909,     0.000000000000000 ] # b
- [     0.000000000000000,     0.000000000000000,     4.464951535476909 ] # c
points:
- symbol: Au # 1
  coordinates: [  0.000000000000000,  0.000000000000000,  0.000000000000000 ]
  mass: 196.966569
- symbol: Au # 2
  coordinates: [  0.500000000000000,  0.500000000000000,  0.000000000000000 ]
  mass: 196.966569
- symbol: Au # 3
  coordinates: [  0.500000000000000,  0.000000000000000,  0.500000000000000 ]
  mass: 196.966569
- symbol: Au # 4
  coordinates: [  0.000000000000000,  0.500000000000000,  0.500000000000000 ]
  mass: 196.966569
phonon:
- q-position: [    0.0104167,    0.0104167,    0.0104167 ]
  weight: 8    
  band:
  - # 1
    frequency:    -0.0058938177
  - # 2
    frequency:    -0.0058938177
  - # 3
    frequency:     0.0460066824
  - # 4
    frequency:     0.4242794727
  - # 5
    frequency:     0.4242794727
  - # 6
    frequency:     0.4242794727
  - # 7
    frequency:     0.4259656033
  - # 8
    frequency:     0.4259656033
  - # 9
    frequency:     0.4259656033
  - # 10
    frequency:     1.3661852797
  - # 11
    frequency:     1.3661852797
  - # 12
    frequency:     1.3661852797

- q-position: [    0.0312500,    0.0104167,    0.0104167 ]
  weight: 24   
  band:
  - # 1
    frequency:    -0.0424580544
  - # 2
    frequency:    -0.0348383720
  - # 3
    frequency:     0.1027140253
  - # 4
    frequency:     0.4171976000
  - # 5
    frequency:     0.4171976000
  - # 6
    frequency:     0.4212767847
  - # 7
    frequency:     0.4229692794
  - # 8
    frequency:     0.4238949972
  - # 9
    frequency:     0.4238949972
  - # 10
    frequency:     1.3627946375
  - # 11
    frequency:     1.3627946375
  - # 12
    frequency:     1.3665650142

- q-position: [    0.0520833,    0.0104167,    0.0104167 ]
  weight: 24   
  band:
  - # 1
    frequency:    -0.0728243756
  - # 2
    frequency:    -0.0682493478
  - # 3
    frequency:     0.1686287558
  - # 4
    frequency:     0.4033831539
  - # 5
    frequency:     0.4033831539
  - # 6
    frequency:     0.4152526253
  - # 7
    frequency:     0.4169583691
  - # 8
    frequency:     0.4192412905
  - # 9
    frequency:     0.4192412905
  - # 10
    frequency:     1.3560292352
  - # 11
    frequency:     1.3560292352
  - # 12
    frequency:     1.3672989124

- q-position: [    0.0729167,    0.0104167,    0.0104167 ]
  weight: 24   
  band:
  - # 1
    frequency:    -0.1023087472
  - # 2
    frequency:    -0.0990198347
  - # 3
    frequency:     0.2346817583
  - # 4
    frequency:     0.3821514253
  - # 5
    frequency:     0.3821514253
  - # 6
    frequency:     0.4061665515
  - # 7
    frequency:     0.4078935334
  - # 8
    frequency:     0.4123042051
  - # 9
    frequency:     0.4123042051
  - # 10
    frequency:     1.3459207971
  - # 11
    frequency:     1.3459207971
  - # 12
    frequency:     1.3683364492

- q-position: [    0.0937500,    0.0104167,    0.0104167 ]
  weight: 24   
  band:
  - # 1
    frequency:    -0.1311131324
  - # 2
    frequency:    -0.1285295782
  - # 3
    frequency:     0.3002247839
  - # 4
    frequency:     0.3525208685
  - # 5
    frequency:     0.3525208685
  - # 6
    frequency:     0.3939500663
  - # 7
    frequency:     0.3957081065
  - # 8
    frequency:     0.4033009446
  - # 9
    frequency:     0.4033009446
  - # 10
    frequency:     1.3325168100
  - # 11
    frequency:     1.3325168100
  - # 12
    frequency:     1.3696033479

- q-position: [    0.1145833,    0.0104167,    0.0104167 ]
  weight: 24   
  band:
  - # 1
    frequency:    -0.1591838532
  - # 2
    frequency:    -0.1570425734
  - # 3
    frequency:     0.3126902391
  - # 4
    frequency:     0.3126902391
  - # 5
    frequency:     0.3649806018
  - # 6
    frequency:     0.3784951533
  - # 7
    frequency:     0.3802969129
  - # 8
    frequency:     0.3924941923
  - # 9
    frequency:     0.3924941923
  - # 10
    frequency:     1.3158804068
  - # 11
    frequency:     1.3158804068
  - # 12
    frequency:     1.3710033116

- q-position: [    0.1354167,    0.0104167,    0.0104167 ]
  weight: 24   
  band:
  - # 1
    frequency:    -0.1864132057
  - # 2
    frequency:    -0.1845726196
  - # 3
    frequency:     0.2588486270
  - # 4
    frequency:     0.2588486270
  - # 5
    frequency:     0.3596345451
  - # 6
    frequency:     0.3614970690
  - # 7
    frequency:     0.3802269614
  - # 8
    frequency:     0.3802269614
  - # 9
    frequency:     0.4287380305
  - # 10
    frequency:     1.2960902190
  - # 11
    frequency:     1.2960902190
  - # 12
    frequency:     1.3724202034

- q-position: [    0.1562500,    0.0104167,    0.0104167 ]
  weight: 24   
  band:
  - # 1
    frequency:    -0.2126778236
  - # 2
    frequency:    -0.2110528447
  - # 3
    frequency:     0.1802178397
  - # 4
    frequency:     0.1802178397
  - # 5
    frequency:     0.3371070995
  - # 6
    frequency:     0.3390544126
  - # 7
    frequency:     0.3669447127
  - # 8
    frequency:     0.3669447127
  - # 9
    frequency:     0.4913089925
  - # 10
    frequency:     1.2732402001
  - # 11
    frequency:     1.2732402001
  - # 12
    frequency:     1.3737205809

- q-position: [    0.1770833,    0.0104167,    0.0104167 ]
  weight: 24   
  band:
  - # 1
    frequency:    -0.2378500113
  - # 2
    frequency:    -0.2363853637
  - # 3
    frequency:    -0.0721605201
  - # 4
    frequency:    -0.0721605201
  - # 5
    frequency:     0.3104935915
  - # 6
    frequency:     0.3125615255
  - # 7
    frequency:     0.3532175654
  - # 8
    frequency:     0.3532175654
  - # 9
    frequency:     0.5525184800
  - # 10
    frequency:     1.2474394319
  - # 11
    frequency:     1.2474394319
  - # 12
    frequency:     1.3747564828

- q-position: [    0.1979167,    0.0104167,    0.0104167 ]
  weight: 24   
  band:
  - # 1
    frequency:    -0.2618021156
  - # 2
    frequency:    -0.2604597142
  - # 3
    frequency:    -0.2130955977
  - # 4
    frequency:    -0.2130955977
  - # 5
    frequency:     0.2790865751
  - # 6
    frequency:     0.2813328828
  - # 7
    frequency:     0.3397622946
  - # 8
    frequency:     0.3397622946
  - # 9
    frequency:     0.6122017907
  - # 10
    frequency:     1.2188119198
  - # 11
    frequency:     1.2188119198
  - # 12
    frequency:     1.3753683653

- q-position: [    0.2187500,    0.0104167,    0.0104167 ]
  weight: 24   
  band:
  - # 1
    frequency:    -0.2957052880
  - # 2
    frequency:    -0.2957052880
  - # 3
    frequency:    -0.2844085759
  - # 4
    frequency:    -0.2831609180
  - # 5
    frequency:     0.2415888195
  - # 6
    frequency:     0.2441181326
  - # 7
    frequency:     0.3274576116
  - # 8
    frequency:     0.3274576116
  - # 9
    frequency:     0.6702039321
  - # 10
    frequency:     1.1874963924
  - # 11
    frequency:     1.1874963924
  - # 12
    frequency:     1.3753880931

- q-position: [    0.2395833,    0.0104167,    0.0104167 ]
  weight: 24   
  band:
  - # 1
    frequency:    -0.3613637039
  - # 2
    frequency:    -0.3613637039
  - # 3
    frequency:    -0.3055470405
  - # 4
    frequency:    -0.3043734666
  - # 5
    frequency:     0.1952481217
  - # 6
    frequency:     0.1982917011
  - # 7
    frequency:     0.3173391096
  - # 8
    frequency:     0.3173391096
  - # 9
    frequency:     0.7263797981
  - # 10
    frequency:     1.1536461210
  - # 11
    frequency:     1.1536461210
  - # 12
    frequency:     1.3746418992

- q-position: [    0.2604167,    0.0104167,    0.0104167 ]
  weight: 24   
  band:
  - # 1
    frequency:    -0.4172504756
  - # 2
    frequency:    -0.4172504756
  - # 3
    frequency:    -0.3250990366
  - # 4
    frequency:    -0.3239834793
  - # 5
    frequency:     0.1321205719
  - # 6
    frequency:     0.1364657362
  - # 7
    frequency:     0.3105534417
  - # 8
    frequency:     0.3105534417
  - # 9
    frequency:     0.7805946489
  - # 10
    frequency:     1.1174287806
  - # 11
    frequency:     1.1174287806
  - # 12
    frequency:     1.3729532435

- q-position: [    0.2812500,    0.0104167,    0.0104167 ]
  weight: 24   
  band:
  - # 1
    frequency:    -0.4660899301
  - # 2
    frequency:    -0.4660899301
  - # 3
    frequency:    -0.3429503835
  - # 4
    frequency:    -0.3418799405
  - # 5
    frequency:    -0.0577291704
  - # 6
    frequency:    -0.0468613336
  - # 7
    frequency:     0.3082525925
  - # 8
    frequency:     0.3082525925
  - # 9
    frequency:     0.8327247112
  - # 10
    frequency:     1.0790263792
  - # 11
    frequency:     1.0790263792
  - # 12
    frequency:     1.3701455141

- q-position: [    0.3020833,    0.0104167,    0.0104167 ]
  weight: 24   
  band:
  - # 1
    frequency:    -0.5091867836
  - # 2
    frequency:    -0.5091867836
  - # 3
    frequency:    -0.3589914241
  - # 4
    frequency:    -0.3579554105
  - # 5
    frequency:    -0.1547411682
  - # 6
    frequency:    -0.1511222513
  - # 7
    frequency:     0.3114306440
  - # 8
    frequency:     0.3114306440
  - # 9
    frequency:     0.8826578148
  - # 10
    frequency:     1.0386352933
  - # 11
    frequency:     1.0386352933
  - # 12
    frequency:     1.3660445316

- q-position: [    0.3229167,    0.0104167,    0.0104167 ]
  weight: 24   
  band:
  - # 1
    frequency:    -0.5472411599
  - # 2
    frequency:    -0.5472411599
  - # 3
    frequency:    -0.3731170979
  - # 4
    frequency:    -0.3721063909
  - # 5
    frequency:    -0.2099713713
  - # 6
    frequency:    -0.2073886543
  - # 7
    frequency:     0.3207478248
  - # 8
    frequency:     0.3207478248
  - # 9
    frequency:     0.9302940281
  - # 10
    frequency:     0.9964664534
  - # 11
    frequency:     0.9964664534
  - # 12
    frequency:     1.3604808294

- q-position: [    0.3437500,    0.0104167,    0.0104167 ]
  weight: 24   
  band:
  - # 1
    frequency:    -0.5806523029
  - # 2
    frequency:    -0.5806523029
  - # 3
    frequency:    -0.3852268546
  - # 4
    frequency:    -0.3842334179
  - # 5
    frequency:    -0.2519529984
  - # 6
    frequency:    -0.2498607608
  - # 7
    frequency:     0.3364185845
  - # 8
    frequency:     0.3364185845
  - # 9
    frequency:     0.9527457429
  - # 10
    frequency:     0.9527457429
  - # 11
    frequency:     0.9755462680
  - # 12
    frequency:     1.3532916968

- q-position: [    0.3645833,    0.0104167,    0.0104167 ]
  weight: 24   
  band:
  - # 1
    frequency:    -0.6096548490
  - # 2
    frequency:    -0.6096548490
  - # 3
    frequency:    -0.3952243844
  - # 4
    frequency:    -0.3942409070
  - # 5
    frequency:    -0.2861040226
  - # 6
    frequency:    -0.2843106294
  - # 7
    frequency:     0.3582183464
  - # 8
    frequency:     0.3582183464
  - # 9
    frequency:     0.9077146900
  - # 10
    frequency:     0.9077146900
  - # 11
    frequency:     1.0183408708
  - # 12
    frequency:     1.3443229804

- q-position: [    0.3854167,    0.0104167,    0.0104167 ]
  weight: 24   
  band:
  - # 1
    frequency:    -0.6343879178
  - # 2
    frequency:    -0.6343879178
  - # 3
    frequency:    -0.4030171268
  - # 4
    frequency:    -0.4020367322
  - # 5
    frequency:    -0.3145901786
  - # 6
    frequency:    -0.3130012646
  - # 7
    frequency:     0.3855947127
  - # 8
    frequency:     0.3855947127
  - # 9
    frequency:     0.8616315587
  - # 10
    frequency:     0.8616315587
  - # 11
    frequency:     1.0586181151
  - # 12
    frequency:     1.3334306470

- q-position: [    0.4062500,    0.0104167,    0.0104167 ]
  weight: 24   
  band:
  - # 1
    frequency:    -0.6549332972
  - # 2
    frequency:    -0.6549332972
  - # 3
    frequency:    -0.4085154969
  - # 4
    frequency:    -0.4075314917
  - # 5
    frequency:    -0.3385140957
  - # 6
    frequency:    -0.3370744779
  - # 7
    frequency:     0.4178172658
  - # 8
    frequency:     0.4178172658
  - # 9
    frequency:     0.8147729803
  - # 10
    frequency:     0.8147729803
  - # 11
    frequency:     1.0963326871
  - # 12
    frequency:     1.3204821186

- q-position: [    0.4270833,    0.0104167,    0.0104167 ]
  weight: 24   
  band:
  - # 1
    frequency:    -0.6713379000
  - # 2
    frequency:    -0.6713379000
  - # 3
    frequency:    -0.4116317384
  - # 4
    frequency:    -0.4106373771
  - # 5
    frequency:    -0.3585166702
  - # 6
    frequency:    -0.3571904338
  - # 7
    frequency:     0.4541047539
  - # 8
    frequency:     0.4541047539
  - # 9
    frequency:     0.7674363191
  - # 10
    frequency:     0.7674363191
  - # 11
    frequency:     1.1314540836
  - # 12
    frequency:     1.3053573901

- q-position: [    0.4479167,    0.0104167,    0.0104167 ]
  weight: 24   
  band:
  - # 1
    frequency:    -0.6836275473
  - # 2
    frequency:    -0.6836275473
  - # 3
    frequency:    -0.4122782680
  - # 4
    frequency:    -0.4112665125
  - # 5
    frequency:    -0.3750049144
  - # 6
    frequency:    -0.3737668753
  - # 7
    frequency:     0.4937047784
  - # 8
    frequency:     0.4937047784
  - # 9
    frequency:     0.7199430650
  - # 10
    frequency:     0.7199430650
  - # 11
    frequency:     1.1639669431
  - # 12
    frequency:     1.2879499470

- q-position: [    0.4687500,    0.0104167,    0.0104167 ]
  weight: 24   
  band:
  - # 1
    frequency:    -0.6918156165
  - # 2
    frequency:    -0.6918156165
  - # 3
    frequency:    -0.4103653075
  - # 4
    frequency:    -0.4093285576
  - # 5
    frequency:    -0.3882556637
  - # 6
    frequency:    -0.3870871376
  - # 7
    frequency:     0.5359302215
  - # 8
    frequency:     0.5359302215
  - # 9
    frequency:     0.6726439859
  - # 10
    frequency:     0.6726439859
  - # 11
    frequency:     1.1938712998
  - # 12
    frequency:     1.2681674976

- q-position: [    0.4895833,    0.0104167,    0.0104167 ]
  weight: 24   
  band:
  - # 1
    frequency:    -0.6959084347
  - # 2
    frequency:    -0.6959084347
  - # 3
    frequency:    -0.4057974814
  - # 4
    frequency:    -0.4047272483
  - # 5
    frequency:    -0.3984688708
  - # 6
    frequency:    -0.3973553493
  - # 7
    frequency:     0.5801596049
  - # 8
    frequency:     0.5801596049
  - # 9
    frequency:     0.6259342732
  - # 10
    frequency:     0.6259342732
  - # 11
    frequency:     1.2211827520
  - # 12
    frequency:     1.2459325361

- q-position: [    0.0312500,    0.0312500,    0.0104167 ]
  weight: 24   
  band:
  - # 1
    frequency:    -0.0582008577
  - # 2
    frequency:     0.0390422346
  - # 3
    frequency:     0.1221258211
  - # 4
    frequency:     0.4082424139
  - # 5
    frequency:     0.4142104179
  - # 6
    frequency:     0.4142104179
  - # 7
    frequency:     0.4208810102
  - # 8
    frequency:     0.4208810102
  - # 9
    frequency:     0.4237070019
  - # 10
    frequency:     1.3594011101
  - # 11
    frequency:     1.3632026512
  - # 12
    frequency:     1.3632026512

- q-position: [    0.0520833,    0.0312500,    0.0104167 ]
  weight: 48   
  band:
  - # 1
    frequency:    -0.0831195906
  - # 2
    frequency:     0.0116777175
  - # 3
    frequency:     0.1755735626
  - # 4
    frequency:     0.3928595673
  - # 5
    frequency:     0.4004520636
  - # 6
    frequency:     0.4082161533
  - # 7
    frequency:     0.4148350603
  - # 8
    frequency:     0.4161660333
  - # 9
    frequency:     0.4206231884
  - # 10
    frequency:     1.3526299074
  - # 11
    frequency:     1.3564937777
  - # 12
    frequency:     1.3639925164

- q-position: [    0.0729167,    0.0312500,    0.0104167 ]
  weight: 48   
  band:
  - # 1
    frequency:    -0.1100550071
  - # 2
    frequency:    -0.0662886499
  - # 3
    frequency:     0.2387013069
  - # 4
    frequency:     0.3704136033
  - # 5
    frequency:     0.3793104156
  - # 6
    frequency:     0.3991718117
  - # 7
    frequency:     0.4057184995
  - # 8
    frequency:     0.4091287620
  - # 9
    frequency:     0.4148514104
  - # 10
    frequency:     1.3425126922
  - # 11
    frequency:     1.3464700602
  - # 12
    frequency:     1.3651125562

- q-position: [    0.0937500,    0.0312500,    0.0104167 ]
  weight: 48   
  band:
  - # 1
    frequency:    -0.1374376009
  - # 2
    frequency:    -0.1039665263
  - # 3
    frequency:     0.3031579447
  - # 4
    frequency:     0.3396428540
  - # 5
    frequency:     0.3497999746
  - # 6
    frequency:     0.3870041813
  - # 7
    frequency:     0.3934660332
  - # 8
    frequency:     0.3999867777
  - # 9
    frequency:     0.4067956027
  - # 10
    frequency:     1.3290968582
  - # 11
    frequency:     1.3331789024
  - # 12
    frequency:     1.3664868410

- q-position: [    0.1145833,    0.0312500,    0.0104167 ]
  weight: 48   
  band:
  - # 1
    frequency:    -0.1646318526
  - # 2
    frequency:    -0.1369011971
  - # 3
    frequency:     0.2983918540
  - # 4
    frequency:     0.3101135033
  - # 5
    frequency:     0.3673833383
  - # 6
    frequency:     0.3715969934
  - # 7
    frequency:     0.3779750542
  - # 8
    frequency:     0.3890011865
  - # 9
    frequency:     0.3968522025
  - # 10
    frequency:     1.3124454116
  - # 11
    frequency:     1.3166833341
  - # 12
    frequency:     1.3680170007

- q-position: [    0.1354167,    0.0312500,    0.0104167 ]
  weight: 48   
  band:
  - # 1
    frequency:    -0.1912871358
  - # 2
    frequency:    -0.1672367763
  - # 3
    frequency:     0.2421244139
  - # 4
    frequency:     0.2564197900
  - # 5
    frequency:     0.3527686895
  - # 6
    frequency:     0.3590873527
  - # 7
    frequency:     0.3765129150
  - # 8
    frequency:     0.3854442950
  - # 9
    frequency:     0.4308396045
  - # 10
    frequency:     1.2926368208
  - # 11
    frequency:     1.2970618689
  - # 12
    frequency:     1.3695844981

- q-position: [    0.1562500,    0.0312500,    0.0104167 ]
  weight: 48   
  band:
  - # 1
    frequency:    -0.2171616733
  - # 2
    frequency:    -0.1956486349
  - # 3
    frequency:     0.1568289928
  - # 4
    frequency:     0.1778199171
  - # 5
    frequency:     0.3302331876
  - # 6
    frequency:     0.3365570340
  - # 7
    frequency:     0.3629658132
  - # 8
    frequency:     0.3730628513
  - # 9
    frequency:     0.4932226506
  - # 10
    frequency:     1.2697648378
  - # 11
    frequency:     1.2744083370
  - # 12
    frequency:     1.3710532634

- q-position: [    0.1770833,    0.0312500,    0.0104167 ]
  weight: 48   
  band:
  - # 1
    frequency:    -0.2420633952
  - # 2
    frequency:    -0.2223832577
  - # 3
    frequency:    -0.1117624867
  - # 4
    frequency:    -0.0751093329
  - # 5
    frequency:     0.3035267986
  - # 6
    frequency:     0.3099907315
  - # 7
    frequency:     0.3489301432
  - # 8
    frequency:     0.3603002204
  - # 9
    frequency:     0.5543063528
  - # 10
    frequency:     1.2439382999
  - # 11
    frequency:     1.2488317001
  - # 12
    frequency:     1.3722725770

- q-position: [    0.1979167,    0.0312500,    0.0104167 ]
  weight: 48   
  band:
  - # 1
    frequency:    -0.2658267041
  - # 2
    frequency:    -0.2475157465
  - # 3
    frequency:    -0.2280652147
  - # 4
    frequency:    -0.2130668124
  - # 5
    frequency:     0.2718592814
  - # 6
    frequency:     0.2787253237
  - # 7
    frequency:     0.3351264996
  - # 8
    frequency:     0.3478756917
  - # 9
    frequency:     0.6138998638
  - # 10
    frequency:     1.2152809209
  - # 11
    frequency:     1.2204558595
  - # 12
    frequency:     1.3730800941

- q-position: [    0.2187500,    0.0312500,    0.0104167 ]
  weight: 48   
  band:
  - # 1
    frequency:    -0.3054588605
  - # 2
    frequency:    -0.2949070558
  - # 3
    frequency:    -0.2883022463
  - # 4
    frequency:    -0.2710412976
  - # 5
    frequency:     0.2337633326
  - # 6
    frequency:     0.2415428164
  - # 7
    frequency:     0.3224437368
  - # 8
    frequency:     0.3366491782
  - # 9
    frequency:     0.6718332690
  - # 10
    frequency:     1.1839310857
  - # 11
    frequency:     1.1894194696
  - # 12
    frequency:     1.3733049118

- q-position: [    0.2395833,    0.0312500,    0.0104167 ]
  weight: 48   
  band:
  - # 1
    frequency:    -0.3683244180
  - # 2
    frequency:    -0.3600701075
  - # 3
    frequency:    -0.3093520126
  - # 4
    frequency:    -0.2929145500
  - # 5
    frequency:     0.1860461854
  - # 6
    frequency:     0.1958581097
  - # 7
    frequency:     0.3119367787
  - # 8
    frequency:     0.3276123956
  - # 9
    frequency:     0.7279521989
  - # 10
    frequency:     1.1500416634
  - # 11
    frequency:     1.1558757734
  - # 12
    frequency:     1.3727705899

- q-position: [    0.2604167,    0.0312500,    0.0104167 ]
  weight: 48   
  band:
  - # 1
    frequency:    -0.4223320803
  - # 2
    frequency:    -0.4155845719
  - # 3
    frequency:    -0.3288468321
  - # 4
    frequency:    -0.3130687482
  - # 5
    frequency:     0.1187419426
  - # 6
    frequency:     0.1343133230
  - # 7
    frequency:     0.3047822396
  - # 8
    frequency:     0.3218416995
  - # 9
    frequency:     0.7821157684
  - # 10
    frequency:     1.1137798615
  - # 11
    frequency:     1.1199924827
  - # 12
    frequency:     1.3712980566

- q-position: [    0.2812500,    0.0312500,    0.0104167 ]
  weight: 48   
  band:
  - # 1
    frequency:    -0.4697654747
  - # 2
    frequency:    -0.4641294161
  - # 3
    frequency:    -0.3466650039
  - # 4
    frequency:    -0.3314259274
  - # 5
    frequency:    -0.0811947847
  - # 6
    frequency:    -0.0482245062
  - # 7
    frequency:     0.3021699479
  - # 8
    frequency:     0.3203997551
  - # 9
    frequency:     0.8341959054
  - # 10
    frequency:     1.0753271488
  - # 11
    frequency:     1.0819517283
  - # 12
    frequency:     1.3687083430

- q-position: [    0.3020833,    0.0312500,    0.0104167 ]
  weight: 48   
  band:
  - # 1
    frequency:    -0.5117460755
  - # 2
    frequency:    -0.5069903389
  - # 3
    frequency:    -0.3626914814
  - # 4
    frequency:    -0.3479026683
  - # 5
    frequency:    -0.1647871162
  - # 6
    frequency:    -0.1498436381
  - # 7
    frequency:     0.3051307878
  - # 8
    frequency:     0.3241925481
  - # 9
    frequency:     0.8840773038
  - # 10
    frequency:     1.0348792835
  - # 11
    frequency:     1.0419501193
  - # 12
    frequency:     1.3648251085

- q-position: [    0.3229167,    0.0312500,    0.0104167 ]
  weight: 48   
  band:
  - # 1
    frequency:    -0.5488820485
  - # 2
    frequency:    -0.5448581865
  - # 3
    frequency:    -0.3768173073
  - # 4
    frequency:    -0.3624134642
  - # 5
    frequency:    -0.2174441226
  - # 6
    frequency:    -0.2051042975
  - # 7
    frequency:     0.3143481245
  - # 8
    frequency:     0.3338213189
  - # 9
    frequency:     0.9316576688
  - # 10
    frequency:     0.9926464947
  - # 11
    frequency:     1.0001989547
  - # 12
    frequency:     1.3594769329

- q-position: [    0.3437500,    0.0312500,    0.0104167 ]
  weight: 48   
  band:
  - # 1
    frequency:    -0.5815206768
  - # 2
    frequency:    -0.5781273714
  - # 3
    frequency:    -0.3889391283
  - # 4
    frequency:    -0.3748726850
  - # 5
    frequency:    -0.2582263232
  - # 6
    frequency:    -0.2467894146
  - # 7
    frequency:     0.3300372022
  - # 8
    frequency:     0.3494905711
  - # 9
    frequency:     0.9488538828
  - # 10
    frequency:     0.9569246513
  - # 11
    frequency:     0.9768480938
  - # 12
    frequency:     1.3524993633

- q-position: [    0.3645833,    0.0312500,    0.0104167 ]
  weight: 48   
  band:
  - # 1
    frequency:    -0.6098647294
  - # 2
    frequency:    -0.6070300252
  - # 3
    frequency:    -0.3989586756
  - # 4
    frequency:    -0.3851956311
  - # 5
    frequency:    -0.2916775471
  - # 6
    frequency:    -0.2805595160
  - # 7
    frequency:     0.3519534826
  - # 8
    frequency:     0.3710135646
  - # 9
    frequency:     0.9037421261
  - # 10
    frequency:     0.9123694684
  - # 11
    frequency:     1.0195734876
  - # 12
    frequency:     1.3437367140

- q-position: [    0.3854167,    0.0312500,    0.0104167 ]
  weight: 48   
  band:
  - # 1
    frequency:    -0.6340325716
  - # 2
    frequency:    -0.6317041120
  - # 3
    frequency:    -0.4067821210
  - # 4
    frequency:    -0.3932989238
  - # 5
    frequency:    -0.3197077029
  - # 6
    frequency:    -0.3086420847
  - # 7
    frequency:     0.3795137515
  - # 8
    frequency:     0.3979038272
  - # 9
    frequency:     0.8575686214
  - # 10
    frequency:     0.8667926423
  - # 11
    frequency:     1.0597730050
  - # 12
    frequency:     1.3330436240

- q-position: [    0.4062500,    0.0312500,    0.0104167 ]
  weight: 48   
  band:
  - # 1
    frequency:    -0.6540918373
  - # 2
    frequency:    -0.6522311193
  - # 3
    frequency:    -0.4123192206
  - # 4
    frequency:    -0.3991003315
  - # 5
    frequency:    -0.3433134533
  - # 6
    frequency:    -0.3321623821
  - # 7
    frequency:     0.4119565991
  - # 8
    frequency:     0.4295014572
  - # 9
    frequency:     0.8106092540
  - # 10
    frequency:     0.8204720962
  - # 11
    frequency:     1.0974004533
  - # 12
    frequency:     1.3202863840

- q-position: [    0.4270833,    0.0312500,    0.0104167 ]
  weight: 48   
  band:
  - # 1
    frequency:    -0.6700794259
  - # 2
    frequency:    -0.6686582549
  - # 3
    frequency:    -0.4154821416
  - # 4
    frequency:    -0.4025180401
  - # 5
    frequency:    -0.3630830372
  - # 6
    frequency:    -0.3517709544
  - # 7
    frequency:     0.4484756640
  - # 8
    frequency:     0.4650844731
  - # 9
    frequency:     0.7631611702
  - # 10
    frequency:     0.7737070123
  - # 11
    frequency:     1.1324246555
  - # 12
    frequency:     1.3053440456

- q-position: [    0.4479167,    0.0312500,    0.0104167 ]
  weight: 48   
  band:
  - # 1
    frequency:    -0.6820138575
  - # 2
    frequency:    -0.6810120950
  - # 3
    frequency:    -0.4161838336
  - # 4
    frequency:    -0.4034692903
  - # 5
    frequency:    -0.3793941747
  - # 6
    frequency:    -0.3678790339
  - # 7
    frequency:     0.4882999618
  - # 8
    frequency:     0.5039416448
  - # 9
    frequency:     0.7155476261
  - # 10
    frequency:     0.7268219806
  - # 11
    frequency:     1.1648297566
  - # 12
    frequency:     1.2881093295

- q-position: [    0.4687500,    0.0312500,    0.0104167 ]
  weight: 48   
  band:
  - # 1
    frequency:    -0.6899030504
  - # 2
    frequency:    -0.6893071763
  - # 3
    frequency:    -0.4143357472
  - # 4
    frequency:    -0.4018682135
  - # 5
    frequency:    -0.3925061205
  - # 6
    frequency:    -0.3807650050
  - # 7
    frequency:     0.5307250142
  - # 8
    frequency:     0.5454021582
  - # 9
    frequency:     0.6681309918
  - # 10
    frequency:     0.6801760148
  - # 11
    frequency:     1.1946154617
  - # 12
    frequency:     1.2684893493

- q-position: [    0.4895833,    0.0312500,    0.0104167 ]
  weight: 48   
  band:
  - # 1
    frequency:    -0.6937491618
  - # 2
    frequency:    -0.6935513856
  - # 3
    frequency:    -0.4098445989
  - # 4
    frequency:    -0.4026077077
  - # 5
    frequency:    -0.3976225654
  - # 6
    frequency:    -0.3906288549
  - # 7
    frequency:     0.5750709289
  - # 8
    frequency:     0.5886986084
  - # 9
    frequency:     0.6214689127
  - # 10
    frequency:     0.6342175498
  - # 11
    frequency:     1.2217971942
  - # 12
    frequency:     1.2464061666

- q-position: [    0.0520833,    0.0520833,    0.0104167 ]
  weight: 24   
  band:
  - # 1
    frequency:    -0.1024108411
  - # 2
    frequency:     0.0693275404
  - # 3
    frequency:     0.2021327564
  - # 4
    frequency:     0.3751408002
  - # 5
    frequency:     0.3945696410
  - # 6
    frequency:     0.3945696410
  - # 7
    frequency:     0.4099960959
  - # 8
    frequency:     0.4099960959
  - # 9
    frequency:     0.4198389269
  - # 10
    frequency:     1.3458470416
  - # 11
    frequency:     1.3573955065
  - # 12
    frequency:     1.3573955065

- q-position: [    0.0729167,    0.0520833,    0.0104167 ]
  weight: 48   
  band:
  - # 1
    frequency:    -0.1256073913
  - # 2
    frequency:     0.0640758873
  - # 3
    frequency:     0.2518750065
  - # 4
    frequency:     0.3502168163
  - # 5
    frequency:     0.3736088112
  - # 6
    frequency:     0.3856917230
  - # 7
    frequency:     0.4006899842
  - # 8
    frequency:     0.4027547735
  - # 9
    frequency:     0.4163716810
  - # 10
    frequency:     1.3357121755
  - # 11
    frequency:     1.3475394109
  - # 12
    frequency:     1.3586804206

- q-position: [    0.0937500,    0.0520833,    0.0104167 ]
  weight: 48   
  band:
  - # 1
    frequency:    -0.1505549357
  - # 2
    frequency:    -0.0235271029
  - # 3
    frequency:     0.3113638840
  - # 4
    frequency:     0.3167315545
  - # 5
    frequency:     0.3443398966
  - # 6
    frequency:     0.3737418581
  - # 7
    frequency:     0.3881783980
  - # 8
    frequency:     0.3933293087
  - # 9
    frequency:     0.4104968051
  - # 10
    frequency:     1.3222725117
  - # 11
    frequency:     1.3344714327
  - # 12
    frequency:     1.3602692575

- q-position: [    0.1145833,    0.0520833,    0.0104167 ]
  weight: 48   
  band:
  - # 1
    frequency:    -0.1761208754
  - # 2
    frequency:    -0.0867162266
  - # 3
    frequency:     0.2719523130
  - # 4
    frequency:     0.3049432778
  - # 5
    frequency:     0.3585956985
  - # 6
    frequency:     0.3723544239
  - # 7
    frequency:     0.3734248104
  - # 8
    frequency:     0.3819771888
  - # 9
    frequency:     0.4026357251
  - # 10
    frequency:     1.3055907967
  - # 11
    frequency:     1.3182543462
  - # 12
    frequency:     1.3620594694

- q-position: [    0.1354167,    0.0520833,    0.0104167 ]
  weight: 48   
  band:
  - # 1
    frequency:    -0.2016562420