<?xml version="1.0" encoding="ISO-8859-1"?>
<modeling>
 <generator>
  <i name="program" type="string">vasp</i>
  <i name="version" type="string">4.6.28 </i>
  <i name="subversion" type="string">25Jul05 complex  parallel</i>
  <i name="platform" type="string">LinuxIFC</i>
  <i name="date" type="string">2017 01 14</i>
  <i name="time" type="string">12:19:40</i>
 </generator>
 <incar>
  <i type="string" name="PREC">accurate</i>
  <i type="int" name="IALGO">    38</i>
  <i type="logical" name="ADDGRID"> T  </i>
  <i name="EDIFF">      0.00000001</i>
  <i type="int" name="IBRION">    -1</i>
  <i name="ENCUT">    750.00000000</i>
  <i type="logical" name="LREAL"> F  </i>
  <i type="int" name="ISMEAR">     0</i>
  <i name="SIGMA">      0.01000000</i>
  <i type="logical" name="LWAVE"> F  </i>
  <i type="logical" name="LCHARG"> F  </i>
 </incar>
 <kpoints>
  <generation param="Gamma">
   <v type="int" name="divisions">      12      12      12</v>
   <v name="usershift">      0.00000000      0.00000000      0.00000000</v>
   <v name="genvec1">      0.08333333      0.00000000      0.00000000</v>
   <v name="genvec2">      0.00000000      0.08333333      0.00000000</v>
   <v name="genvec3">      0.00000000      0.00000000      0.08333333</v>
   <v name="shift">      0.00000000      0.00000000      0.00000000</v>
  </generation>
  <varray name="kpointlist" >
   <v>       0.00000000      0.00000000      0.00000000</v>
   <v>       0.08333333      0.00000000      0.00000000</v>
   <v>       0.16666667      0.00000000      0.00000000</v>
   <v>       0.25000000      0.00000000      0.00000000</v>
   <v>       0.33333333      0.00000000      0.00000000</v>
   <v>       0.41666667      0.00000000      0.00000000</v>
   <v>       0.50000000      0.00000000      0.00000000</v>
   <v>       0.00000000      0.08333333      0.00000000</v>
   <v>       0.08333333      0.08333333      0.00000000</v>
   <v>       0.16666667      0.08333333      0.00000000</v>
   <v>       0.25000000      0.08333333      0.00000000</v>
   <v>       0.33333333      0.08333333      0.00000000</v>
   <v>       0.41666667      0.08333333      0.00000000</v>
   <v>       0.50000000      0.08333333      0.00000000</v>
   <v>       0.00000000      0.16666667      0.00000000</v>
   <v>       0.08333333      0.16666667      0.00000000</v>
   <v>       0.16666667      0.16666667      0.00000000</v>
   <v>       0.25000000      0.16666667      0.00000000</v>
   <v>       0.33333333      0.16666667      0.00000000</v>
   <v>       0.41666667      0.16666667      0.00000000</v>
   <v>       0.50000000      0.16666667      0.00000000</v>
   <v>       0.00000000      0.25000000      0.00000000</v>
   <v>       0.08333333      0.25000000      0.00000000</v>
   <v>       0.16666667      0.25000000      0.00000000</v>
   <v>       0.25000000      0.25000000      0.00000000</v>
   <v>       0.33333333      0.25000000      0.00000000</v>
   <v>       0.41666667      0.25000000      0.00000000</v>
   <v>       0.50000000      0.25000000      0.00000000</v>
   <v>       0.00000000      0.33333333      0.00000000</v>
   <v>       0.08333333      0.33333333      0.00000000</v>
   <v>       0.16666667      0.33333333      0.00000000</v>
   <v>       0.25000000      0.33333333      0.00000000</v>
   <v>       0.33333333      0.33333333      0.00000000</v>
   <v>       0.41666667      0.33333333      0.00000000</v>
   <v>       0.50000000      0.33333333      0.00000000</v>
   <v>       0.00000000      0.41666667      0.00000000</v>
   <v>       0.08333333      0.41666667      0.00000000</v>
   <v>       0.16666667      0.41666667      0.00000000</v>
   <v>       0.25000000      0.41666667      0.00000000</v>
   <v>       0.33333333      0.41666667      0.00000000</v>
   <v>       0.41666667      0.41666667      0.00000000</v>
   <v>       0.50000000      0.41666667      0.00000000</v>
   <v>       0.00000000      0.50000000      0.00000000</v>
   <v>       0.08333333      0.50000000      0.00000000</v>
   <v>       0.16666667      0.50000000      0.00000000</v>
   <v>       0.25000000      0.50000000      0.00000000</v>
   <v>       0.33333333      0.50000000      0.00000000</v>
   <v>       0.41666667      0.50000000      0.00000000</v>
   <v>       0.50000000      0.50000000      0.00000000</v>
   <v>       0.00000000      0.08333333      0.08333333</v>
   <v>       0.08333333      0.08333333      0.08333333</v>
   <v>       0.16666667      0.08333333      0.08333333</v>
   <v>       0.25000000      0.08333333      0.08333333</v>
   <v>       0.33333333      0.08333333      0.08333333</v>
   <v>       0.41666667      0.08333333      0.08333333</v>
   <v>       0.50000000      0.08333333      0.08333333</v>
   <v>       0.00000000      0.16666667      0.08333333</v>
   <v>       0.08333333      0.16666667      0.08333333</v>
   <v>       0.16666667      0.16666667      0.08333333</v>
   <v>       0.25000000      0.16666667      0.08333333</v>
   <v>       0.33333333      0.16666667      0.08333333</v>
   <v>       0.41666667      0.16666667      0.08333333</v>
   <v>       0.50000000      0.16666667      0.08333333</v>
   <v>       0.00000000      0.25000000      0.08333333</v>
   <v>       0.08333333      0.25000000      0.08333333</v>
   <v>       0.16666667      0.25000000      0.08333333</v>
   <v>       0.25000000      0.25000000      0.08333333</v>
   <v>       0.33333333      0.25000000      0.08333333</v>
   <v>       0.41666667      0.25000000      0.08333333</v>
   <v>       0.50000000      0.25000000      0.08333333</v>
   <v>       0.00000000      0.33333333      0.08333333</v>
   <v>       0.08333333      0.33333333      0.08333333</v>
   <v>       0.16666667      0.33333333      0.08333333</v>
   <v>       0.25000000      0.33333333      0.08333333</v>
   <v>       0.33333333      0.33333333      0.08333333</v>
   <v>       0.41666667      0.33333333      0.08333333</v>
   <v>       0.50000000      0.33333333      0.08333333</v>
   <v>       0.00000000      0.41666667      0.08333333</v>
   <v>       0.08333333      0.41666667      0.08333333</v>
   <v>       0.16666667      0.41666667      0.08333333</v>
   <v>       0.25000000      0.41666667      0.08333333</v>
   <v>       0.33333333      0.41666667      0.08333333</v>
   <v>       0.41666667      0.41666667      0.08333333</v>
   <v>       0.50000000      0.41666667      0.08333333</v>
   <v>       0.00000000      0.50000000      0.08333333</v>
   <v>       0.08333333      0.50000000      0.08333333</v>
   <v>       0.16666667      0.50000000      0.08333333</v>
   <v>       0.25000000      0.50000000      0.08333333</v>
   <v>       0.33333333      0.50000000      0.08333333</v>
   <v>       0.41666667      0.50000000      0.08333333</v>
   <v>       0.50000000      0.50000000      0.08333333</v>
   <v>       0.00000000      0.16666667      0.16666667</v>
   <v>       0.08333333      0.16666667      0.16666667</v>
   <v>       0.16666667      0.16666667      0.16666667</v>
   <v>       0.25000000      0.16666667      0.16666667</v>
   <v>       0.33333333      0.16666667      0.16666667</v>
   <v>       0.41666667      0.16666667      0.16666667</v>
   <v>       0.50000000      0.16666667      0.16666667</v>
   <v>       0.00000000      0.25000000      0.16666667</v>
   <v>       0.08333333      0.25000000      0.16666667</v>
   <v>       0.16666667      0.25000000      0.16666667</v>
   <v>       0.25000000      0.25000000      0.16666667</v>
   <v>       0.33333333      0.25000000      0.16666667</v>
   <v>       0.41666667      0.25000000      0.16666667</v>
   <v>       0.50000000      0.25000000      0.16666667</v>
   <v>       0.00000000      0.33333333      0.16666667</v>
   <v>       0.08333333      0.33333333      0.16666667</v>
   <v>       0.16666667      0.33333333      0.16666667</v>
   <v>       0.25000000      0.33333333      0.16666667</v>
   <v>       0.33333333      0.33333333      0.16666667</v>
   <v>       0.41666667      0.33333333      0.16666667</v>
   <v>       0.50000000      0.33333333      0.16666667</v>
   <v>       0.00000000      0.41666667      0.16666667</v>
   <v>       0.08333333      0.41666667      0.16666667</v>
   <v>       0.16666667      0.41666667      0.16666667</v>
   <v>       0.25000000      0.41666667      0.16666667</v>
   <v>       0.33333333      0.41666667      0.16666667</v>
   <v>       0.41666667      0.41666667      0.16666667</v>
   <v>       0.50000000      0.41666667      0.16666667</v>
   <v>       0.00000000      0.50000000      0.16666667</v>
   <v>       0.08333333      0.50000000      0.16666667</v>
   <v>       0.16666667      0.50000000      0.16666667</v>
   <v>       0.25000000      0.50000000      0.16666667</v>
   <v>       0.33333333      0.50000000      0.16666667</v>
   <v>       0.41666667      0.50000000      0.16666667</v>
   <v>       0.50000000      0.50000000      0.16666667</v>
   <v>       0.00000000      0.25000000      0.25000000</v>
   <v>       0.08333333      0.25000000      0.25000000</v>
   <v>       0.16666667      0.25000000      0.25000000</v>
   <v>       0.25000000      0.25000000      0.25000000</v>
   <v>       0.33333333      0.25000000      0.25000000</v>
   <v>       0.41666667      0.25000000      0.25000000</v>
   <v>       0.50000000      0.25000000      0.25000000</v>
   <v>       0.00000000      0.33333333      0.25000000</v>
   <v>       0.08333333      0.33333333      0.25000000</v>
   <v>       0.16666667      0.33333333      0.25000000</v>
   <v>       0.25000000      0.33333333      0.25000000</v>
   <v>       0.33333333      0.33333333      0.25000000</v>
   <v>       0.41666667      0.33333333      0.25000000</v>
   <v>       0.50000000      0.33333333      0.25000000</v>
   <v>       0.00000000      0.41666667      0.25000000</v>
   <v>       0.08333333      0.41666667      0.25000000</v>
   <v>       0.16666667      0.41666667      0.25000000</v>
   <v>       0.25000000      0.41666667      0.25000000</v>
   <v>       0.33333333      0.41666667      0.25000000</v>
   <v>       0.41666667      0.41666667      0.25000000</v>
   <v>       0.50000000      0.41666667      0.25000000</v>
   <v>       0.00000000      0.50000000      0.25000000</v>
   <v>       0.08333333      0.50000000      0.25000000</v>
   <v>       0.16666667      0.50000000      0.25000000</v>
   <v>       0.25000000      0.50000000      0.25000000</v>
   <v>       0.33333333      0.50000000      0.25000000</v>
   <v>       0.41666667      0.50000000      0.25000000</v>
   <v>       0.50000000      0.50000000      0.25000000</v>
   <v>       0.00000000      0.33333333      0.33333333</v>
   <v>       0.08333333      0.33333333      0.33333333</v>
   <v>       0.16666667      0.33333333      0.33333333</v>
   <v>       0.25000000      0.33333333      0.33333333</v>
   <v>       0.33333333      0.33333333      0.33333333</v>
   <v>       0.41666667      0.33333333      0.33333333</v>
   <v>       0.50000000      0.33333333      0.33333333</v>
   <v>       0.00000000      0.41666667      0.33333333</v>
   <v>       0.08333333      0.41666667      0.33333333</v>
   <v>       0.16666667      0.41666667      0.33333333</v>
   <v>       0.25000000      0.41666667      0.33333333</v>
   <v>       0.33333333      0.41666667      0.33333333</v>
   <v>       0.41666667      0.41666667      0.33333333</v>
   <v>       0.50000000      0.41666667      0.33333333</v>
   <v>       0.00000000      0.50000000      0.33333333</v>
   <v>       0.08333333      0.50000000      0.33333333</v>
   <v>       0.16666667      0.50000000      0.33333333</v>
   <v>       0.25000000      0.50000000      0.33333333</v>
   <v>       0.33333333      0.50000000      0.33333333</v>
   <v>       0.41666667      0.50000000      0.33333333</v>
   <v>       0.50000000      0.50000000      0.33333333</v>
   <v>       0.00000000      0.41666667      0.41666667</v>
   <v>       0.08333333      0.41666667      0.41666667</v>
   <v>       0.16666667      0.41666667      0.41666667</v>
   <v>       0.25000000      0.41666667      0.41666667</v>
   <v>       0.33333333      0.41666667      0.41666667</v>
   <v>       0.41666667      0.41666667      0.41666667</v>
   <v>       0.50000000      0.41666667      0.41666667</v>
   <v>       0.00000000      0.50000000      0.41666667</v>
   <v>       0.08333333      0.50000000      0.41666667</v>
   <v>       0.16666667      0.50000000      0.41666667</v>
   <v>       0.25000000      0.50000000      0.41666667</v>
   <v>       0.33333333      0.50000000      0.41666667</v>
   <v>       0.41666667      0.50000000      0.41666667</v>
   <v>       0.50000000      0.50000000      0.41666667</v>
   <v>       0.00000000      0.50000000      0.50000000</v>
   <v>       0.08333333      0.50000000      0.50000000</v>
   <v>       0.16666667      0.50000000      0.50000000</v>
   <v>       0.25000000      0.50000000      0.50000000</v>
   <v>       0.33333333      0.50000000      0.50000000</v>
   <v>       0.41666667      0.50000000      0.50000000</v>
   <v>       0.50000000      0.50000000      0.50000000</v>
  </varray>
  <varray name="weights" >
   <v>       0.00057870</v>
   <v>       0.00115741</v>
   <v>       0.00115741</v>
   <v>       0.00115741</v>
   <v>       0.00115741</v>
   <v>       0.00115741</v>
   <v>       0.00057870</v>
   <v>       0.00231481</v>
   <v>       0.00462963</v>
   <v>       0.00462963</v>
   <v>       0.00462963</v>
   <v>       0.00462963</v>
   <v>       0.00462963</v>
   <v>       0.00231481</v>
   <v>       0.00231481</v>
   <v>       0.00462963</v>
   <v>       0.00462963</v>
   <v>       0.00462963</v>
   <v>       0.00462963</v>
   <v>       0.00462963</v>
   <v>       0.00231481</v>
   <v>       0.00231481</v>
   <v>       0.00462963</v>
   <v>       0.00462963</v>
   <v>       0.00462963</v>
   <v>       0.00462963</v>
   <v>       0.00462963</v>
   <v>       0.00231481</v>
   <v>       0.00231481</v>
   <v>       0.00462963</v>
   <v>       0.00462963</v>
   <v>       0.00462963</v>
   <v>       0.00462963</v>
   <v>       0.00462963</v>
   <v>       0.00231481</v>
   <v>       0.00231481</v>
   <v>       0.00462963</v>
   <v>       0.00462963</v>
   <v>       0.00462963</v>
   <v>       0.00462963</v>
   <v>       0.00462963</v>
   <v>       0.00231481</v>
   <v>       0.00115741</v>
   <v>       0.00231481</v>
   <v>       0.00231481</v>
   <v>       0.00231481</v>
   <v>       0.00231481</v>
   <v>       0.00231481</v>
   <v>       0.00115741</v>
   <v>       0.00231481</v>
   <v>       0.00462963</v>
   <v>       0.00462963</v>
   <v>       0.00462963</v>
   <v>       0.00462963</v>
   <v>       0.00462963</v>
   <v>       0.00231481</v>
   <v>       0.00462963</v>
   <v>       0.00925926</v>
   <v>       0.00925926</v>
   <v>       0.00925926</v>
   <v>       0.00925926</v>
   <v>       0.00925926</v>
   <v>       0.00462963</v>
   <v>       0.00462963</v>
   <v>       0.00925926</v>
   <v>       0.00925926</v>
   <v>       0.00925926</v>
   <v>       0.00925926</v>
   <v>       0.00925926</v>
   <v>       0.00462963</v>
   <v>       0.00462963</v>
   <v>       0.00925926</v>
   <v>       0.00925926</v>
   <v>       0.00925926</v>
   <v>       0.00925926</v>
   <v>       0.00925926</v>
   <v>       0.00462963</v>
   <v>       0.00462963</v>
   <v>       0.00925926</v>
   <v>       0.00925926</v>
   <v>       0.00925926</v>
   <v>       0.00925926</v>
   <v>       0.00925926</v>
   <v>       0.00462963</v>
   <v>       0.00231481</v>
   <v>       0.00462963</v>
   <v>       0.00462963</v>
   <v>       0.00462963</v>
   <v>       0.00462963</v>
   <v>       0.00462963</v>
   <v>       0.00231481</v>
   <v>       0.00231481</v>
   <v>       0.00462963</v>
   <v>       0.00462963</v>
   <v>       0.00462963</v>
   <v>       0.00462963</v>
   <v>       0.00462963</v>
   <v>       0.00231481</v>
   <v>       0.00462963</v>
   <v>       0.00925926</v>
   <v>       0.00925926</v>
   <v>       0.00925926</v>
   <v>       0.00925926</v>
   <v>       0.00925926</v>
   <v>       0.00462963</v>
   <v>       0.00462963</v>
   <v>       0.00925926</v>
   <v>       0.00925926</v>
   <v>       0.00925926</v>
   <v>       0.00925926</v>
   <v>       0.00925926</v>
   <v>       0.00462963</v>
   <v>       0.00462963</v>
   <v>       0.00925926</v>
   <v>       0.00925926</v>
   <v>       0.00925926</v>
   <v>       0.00925926</v>
   <v>       0.00925926</v>
   <v>       0.00462963</v>
   <v>       0.00231481</v>
   <v>       0.00462963</v>
   <v>       0.00462963</v>
   <v>       0.00462963</v>
   <v>       0.00462963</v>
   <v>       0.00462963</v>
   <v>       0.00231481</v>
   <v>       0.00231481</v>
   <v>       0.00462963</v>
   <v>       0.00462963</v>
   <v>       0.00462963</v>
   <v>       0.00462963</v>
   <v>       0.00462963</v>
   <v>       0.00231481</v>
   <v>       0.00462963</v>
   <v>       0.00925926</v>
   <v>       0.00925926</v>
   <v>       0.00925926</v>
   <v>       0.00925926</v>
   <v>       0.00925926</v>
   <v>       0.00462963</v>
   <v>       0.00462963</v>
   <v>       0.00925926</v>
   <v>       0.00925926</v>
   <v>       0.00925926</v>
   <v>       0.00925926</v>
   <v>       0.00925926</v>
   <v>       0.00462963</v>
   <v>       0.00231481</v>
   <v>       0.00462963</v>
   <v>       0.00462963</v>
   <v>       0.00462963</v>
   <v>       0.00462963</v>
   <v>       0.00462963</v>
   <v>       0.00231481</v>
   <v>       0.00231481</v>
   <v>       0.00462963</v>
   <v>       0.00462963</v>
   <v>       0.00462963</v>
   <v>       0.00462963</v>
   <v>       0.00462963</v>
   <v>       0.00231481</v>
   <v>       0.00462963</v>
   <v>       0.00925926</v>
   <v>       0.00925926</v>
   <v>       0.00925926</v>
   <v>       0.00925926</v>
   <v>       0.00925926</v>
   <v>       0.00462963</v>
   <v>       0.00231481</v>
   <v>       0.00462963</v>
   <v>       0.00462963</v>
   <v>       0.00462963</v>
   <v>       0.00462963</v>
   <v>       0.00462963</v>
   <v>       0.00231481</v>
   <v>       0.00231481</v>
   <v>       0.00462963</v>
   <v>       0.00462963</v>
   <v>       0.00462963</v>
   <v>       0.00462963</v>
   <v>       0.00462963</v>
   <v>       0.00231481</v>
   <v>       0.00231481</v>
   <v>       0.00462963</v>
   <v>       0.00462963</v>
   <v>       0.00462963</v>
   <v>       0.00462963</v>
   <v>       0.00462963</v>
   <v>       0.00231481</v>
   <v>       0.00057870</v>
   <v>       0.00115741</v>
   <v>       0.00115741</v>
   <v>       0.00115741</v>
   <v>       0.00115741</v>
   <v>       0.00115741</v>
   <v>       0.00057870</v>
  </varray>
 </kpoints>
 <parameters>
  <separator name="general" >
   <i type="string" name="SYSTEM">unknown system</i>
   <i type="logical" name="LCOMPAT"> F  </i>
  </separator>
  <separator name="electronic" >
   <i type="string" name="PREC">accura</i>
   <i name="ENMAX">    750.00000000</i>
   <i name="ENAUG">    356.67000000</i>
   <i name="EDIFF">      0.00000001</i>
   <i type="int" name="IALGO">    38</i>
   <i type="int" name="IWAVPR">    10</i>
   <i type="int" name="NBANDS">   211</i>
   <i name="NELECT">    352.00000000</i>
   <separator name="electronic smearing" >
    <i type="int" name="ISMEAR">     0</i>
    <i name="SIGMA">      0.01000000</i>
   </separator>
   <separator name="electronic projectors" >
    <i type="logical" name="LREAL"> F  </i>
    <v name="ROPT">      0.00000000</v>
    <i type="int" name="LMAXPAW">  -100</i>
    <i type="int" name="LMAXMIX">     2</i>
   </separator>
   <separator name="electronic startup" >
    <i type="int" name="ISTART">     0</i>
    <i type="int" name="ICHARG">     2</i>
    <i type="int" name="INIWAV">     1</i>
   </separator>
   <separator name="electronic spin" >
    <i type="int" name="ISPIN">     1</i>
    <i type="logical" name="LNONCOLLINEAR"> F  </i>
    <v name="MAGMOM">      1.00000000      1.00000000      1.00000000      1.00000000      1.00000000      1.00000000      1.00000000      1.00000000      1.00000000      1.00000000      1.00000000      1.00000000      1.00000000      1.00000000      1.00000000      1.00000000      1.00000000      1.00000000      1.00000000      1.00000000
      1.00000000      1.00000000      1.00000000      1.00000000      1.00000000      1.00000000      1.00000000      1.00000000      1.00000000      1.00000000      1.00000000      1.00000000</v>
    <i name="NUPDOWN">     -1.00000000</i>
    <i type="logical" name="LSORBIT"> F  </i>
    <v name="SAXIS">      0.00000000      0.00000000      1.00000000</v>
    <i type="logical" name="LSPIRAL"> F  </i>
    <v name="QSPIRAL">      0.00000000      0.00000000      0.00000000</v>
    <i type="logical" name="LZEROZ"> F  </i>
   </separator>
   <separator name="electronic exchange-correlation" >
    <i type="string" name="GGA">--</i>
    <i type="int" name="VOSKOWN">     0</i>
    <i type="logical" name="LASPH"> F  </i>
    <i type="logical" name="LMETAGGA"> F  </i>
    <i type="string" name="GGA2">--</i>
   </separator>
   <separator name="electronic convergence" >
    <i type="int" name="NELM">    60</i>
    <i type="int" name="NELMDL">     0</i>
    <i type="int" name="NELMIN">     2</i>
    <i name="ENINI">    750.00000000</i>
    <separator name="electronic convergence detail" >
     <i type="logical" name="LDIAG"> T  </i>
     <i name="WEIMIN">      0.00000000</i>
     <i name="EBREAK">      0.00000000</i>
     <i name="DEPER">      0.30000000</i>
     <i type="int" name="NRMM">     4</i>
     <i name="TIME">      0.10000000</i>
    </separator>
   </separator>
   <separator name="electronic mixer" >
    <i name="AMIX">      0.40000000</i>
    <i name="BMIX">      1.00000000</i>
    <i name="AMIN">      0.10000000</i>
    <i name="AMIX_MAG">      1.60000000</i>
    <i name="BMIX_MAG">      1.00000000</i>
    <separator name="electronic mixer details" >
     <i type="int" name="IMIX">     4</i>
     <i type="int" name="MAXMIX">   -45</i>
     <i name="WC">    100.00000000</i>
     <i type="int" name="INIMIX">     1</i>
     <i type="int" name="MIXPRE">     1</i>
     <i type="int" name="MREMOVE">     5</i>
    </separator>
   </separator>
   <separator name="electronic dipolcorrection" >
    <i type="int" name="IDIPOL">     0</i>
    <i type="logical" name="LDIPOL"> F  </i>
    <v name="DIPOL">   -100.00000000</v>
    <i name="EFIELD">      0.00000000</i>
   </separator>
  </separator>
  <separator name="grids" >
   <i type="int" name="NGX">    80</i>
   <i type="int" name="NGY">    80</i>
   <i type="int" name="NGZ">    80</i>
   <i type="int" name="NGXF">   160</i>
   <i type="int" name="NGYF">   160</i>
   <i type="int" name="NGZF">   160</i>
   <i type="logical" name="ADDGRID"> T  </i>
  </separator>
  <separator name="ionic" >
   <i type="int" name="NSW">     0</i>
   <i type="int" name="IBRION">    -1</i>
   <i type="int" name="ISIF">     2</i>
   <i name="PSTRESS">      0.00000000</i>
   <i name="EDIFFG">      0.00000010</i>
   <i type="int" name="NFREE">     0</i>
   <i name="POTIM">      0.50000000</i>
   <i name="SMASS">     -3.00000000</i>
  </separator>
  <separator name="ionic md" >
   <i name="TEBEG">      0.00010000</i>
   <i name="TEEND">      0.00010000</i>
   <i type="int" name="NBLOCK">     1</i>
   <i type="int" name="KBLOCK">     1</i>
   <i type="int" name="NPACO">   256</i>
   <i name="APACO">     16.00000000</i>
  </separator>
  <separator name="symmetry" >
   <i type="int" name="ISYM">     2</i>
   <i name="SYMPREC">      0.00001000</i>
  </separator>
  <separator name="dos" >
   <i type="logical" name="LORBIT"> F  </i>
   <v name="RWIGS">     -1.00000000</v>
   <i type="int" name="NEDOS">   301</i>
   <i name="EMIN">     10.00000000</i>
   <i name="EMAX">    -10.00000000</i>
  </separator>
  <separator name="writing" >
   <i type="int" name="NWRITE">     2</i>
   <i type="logical" name="LWAVE"> F  </i>
   <i type="logical" name="LCHARG"> F  </i>
   <i type="logical" name="LPARD"> F  </i>
   <i type="logical" name="LVTOT"> F  </i>
   <i type="logical" name="LELF"> F  </i>
   <i type="logical" name="LOPTICS"> F  </i>
   <i name="STM">      0.00000000</i>
  </separator>
  <separator name="performance" >
   <i type="int" name="NPAR">     8</i>
   <i type="int" name="NSIM">     4</i>
   <i type="int" name="NBLK">   256</i>
   <i type="logical" name="LPLANE"> T  </i>
   <i type="logical" name="LCRITICAL_MEM"> F  </i>
   <i type="logical" name="LSCALAPACK"> F  </i>
   <i type="logical" name="LSCALU"> F  </i>
   <i type="logical" name="LASYNC"> F  </i>
  </separator>
  <separator name="miscellaneous" >
   <i type="int" name="IDIOT">     3</i>
   <i type="logical" name="LMUSIC"> F  </i>
   <v name="POMASS">    196.96600000</v>
   <i type="logical" name="LCORR"> T  </i>
  </separator>
  <i type="logical" name="LREAL_COMPAT"> F  </i>
  <i type="logical" name="GGA_COMPAT"> T  </i>
  <i type="logical" name="LBERRY"> F  </i>
  <i type="int" name="ICORELEVEL">     0</i>
  <i type="logical" name="LDAU"> F  </i>
  <i type="int" name="I_CONSTRAINED_M">     0</i>
 </parameters>
 <atominfo>
  <atoms>      32</atoms>
  <types>       1</types>
  <array name="atoms" >
   <dimension dim="1">ion</dimension>
   <field type="string">element</field>
   <field type="int">atomtype</field>
   <set>
    <rc><c>Au</c><c>   1</c></rc>
    <rc><c>Au</c><c>   1</c></rc>
    <rc><c>Au</c><c>   1</c></rc>
    <rc><c>Au</c><c>   1</c></rc>
    <rc><c>Au</c><c>   1</c></rc>
    <rc><c>Au</c><c>   1</c></rc>
    <rc><c>Au</c><c>   1</c></rc>
    <rc><c>Au</c><c>   1</c></rc>
    <rc><c>Au</c><c>   1</c></rc>
    <rc><c>Au</c><c>   1</c></rc>
    <rc><c>Au</c><c>   1</c></rc>
    <rc><c>Au</c><c>   1</c></rc>
    <rc><c>Au</c><c>   1</c></rc>
    <rc><c>Au</c><c>   1</c></rc>
    <rc><c>Au</c><c>   1</c></rc>
    <rc><c>Au</c><c>   1</c></rc>
    <rc><c>Au</c><c>   1</c></rc>
    <rc><c>Au</c><c>   1</c></rc>
    <rc><c>Au</c><c>   1</c></rc>
    <rc><c>Au</c><c>   1</c></rc>
    <rc><c>Au</c><c>   1</c></rc>
    <rc><c>Au</c><c>   1</c></rc>
    <rc><c>Au</c><c>   1</c></rc>
    <rc><c>Au</c><c>   1</c></rc>
    <rc><c>Au</c><c>   1</c></rc>
    <rc><c>Au</c><c>   1</c></rc>
    <rc><c>Au</c><c>   1</c></rc>
    <rc><c>Au</c><c>   1</c></rc>
    <rc><c>Au</c><c>   1</c></rc>
    <rc><c>Au</c><c>   1</c></rc>
    <rc><c>Au</c><c>   1</c></rc>
    <rc><c>Au</c><c>   1</c></rc>
   </set>
  </array>
  <array name="atomtypes" >
   <dimension dim="1">type</dimension>
   <field type="int">atomspertype</field>
   <field type="string">element</field>
   <field>mass</field>
   <field>valence</field>
   <field type="string">pseudopotential</field>
   <set>
    <rc><c>  32</c><c>Au</c><c>    196.96600000</c><c>     11.00000000</c><c> PAW_PBE Au 06Sep2000                   </c></rc>
   </set>
  </array>
 </atominfo>
 <structure name="initialpos" >
  <crystal>
   <varray name="basis" >
    <v>       8.92990307      0.00000000      0.00000000</v>
    <v>       0.00000000      8.92990307      0.00000000</v>
    <v>       0.00000000      0.00000000      8.92990307</v>
   </varray>
   <i name="volume">    712.09876846</i>
   <varray name="rec_basis" >
    <v>       0.11198330      0.00000000      0.00000000</v>
    <v>       0.00000000      0.11198330      0.00000000</v>
    <v>       0.00000000      0.00000000      0.11198330</v>
   </varray>
  </crystal>
  <varray name="positions" >
   <v>       0.00111983      0.00000000      0.00000000</v>
   <v>       0.50000000      0.00000000      0.00000000</v>
   <v>       0.00000000      0.50000000      0.00000000</v>
   <v>       0.50000000      0.50000000      0.00000000</v>
   <v>       0.00000000      0.00000000      0.50000000</v>
   <v>       0.50000000      0.00000000      0.50000000</v>
   <v>       0.00000000      0.50000000      0.50000000</v>
   <v>       0.50000000      0.50000000      0.50000000</v>
   <v>       0.25000000      0.25000000      0.00000000</v>
   <v>       0.75000000      0.25000000      0.00000000</v>
   <v>       0.25000000      0.75000000      0.00000000</v>
   <v>       0.75000000      0.75000000      0.00000000</v>
   <v>       0.25000000      0.25000000      0.50000000</v>
   <v>       0.75000000      0.25000000      0.50000000</v>
   <v>       0.25000000      0.75000000      0.50000000</v>
   <v>       0.75000000      0.75000000      0.50000000</v>
   <v>       0.25000000      0.00000000      0.25000000</v>
   <v>       0.75000000      0.00000000      0.25000000</v>
   <v>       0.25000000      0.50000000      0.25000000</v>
   <v>       0.75000000      0.50000000      0.25000000</v>
   <v>       0.25000000      0.00000000      0.75000000</v>
   <v>       0.75000000      0.00000000      0.75000000</v>
   <v>       0.25000000      0.50000000      0.75000000</v>
   <v>       0.75000000      0.50000000      0.75000000</v>
   <v>       0.00000000      0.25000000      0.25000000</v>
   <v>       0.50000000      0.25000000      0.25000000</v>
   <v>       0.00000000      0.75000000      0.25000000</v>
   <v>       0.50000000      0.75000000      0.25000000</v>
   <v>       0.00000000      0.25000000      0.75000000</v>
   <v>       0.50000000      0.25000000      0.75000000</v>
   <v>       0.00000000      0.75000000      0.75000000</v>
   <v>       0.50000000      0.75000000      0.75000000</v>
  </varray>
 </structure>
 <calculation>
  <scstep>
   <time name="dav"> 1710.03 1709.54</time>
   <time name="total"> 1711.05 1710.55</time>
   <energy>
    <i name="alphaZ">   2693.12091881</i>
    <i name="ewald"> -28626.66544490</i>
    <i name="hartreedc">  -5115.36199746</i>
    <i name="XCdc">    465.93403376</i>
    <i name="pawpsdc">  23920.39735419</i>
    <i name="pawaedc"> -23172.13309131</i>
    <i name="eentropy">     -0.00051607</i>
    <i name="bandstr">   4562.03063263</i>
    <i name="atom">  29633.78979189</i>
    <i name="e_fr_energy">   4361.11168156</i>
    <i name="e_wo_entrp">   4361.11219762</i>
    <i name="e_0_energy">   4361.11193959</i>
   </energy>
  </scstep>
  <scstep>
   <time name="dav"> 1709.08 1708.55</time>
   <time name="total"> 1709.20 1708.68</time>
   <energy>
    <i name="e_fr_energy">    165.70953081</i>
    <i name="e_wo_entrp">    165.71009770</i>
    <i name="e_0_energy">    165.70981426</i>
   </energy>
  </scstep>
  <scstep>
   <time name="dav"> 1879.52 1878.94</time>
   <time name="total"> 1879.65 1879.06</time>
   <energy>
    <i name="e_fr_energy">    -93.51765137</i>
    <i name="e_wo_entrp">    -93.51696853</i>
    <i name="e_0_energy">    -93.51730995</i>
   </energy>
  </scstep>
  <scstep>
   <time name="dav"> 1803.75 1803.27</time>
   <time name="total"> 1803.87 1803.39</time>
   <energy>
    <i name="e_fr_energy">   -103.30964295</i>
    <i name="e_wo_entrp">   -103.30879589</i>
    <i name="e_0_energy">   -103.30921942</i>
   </energy>
  </scstep>
  <scstep>
   <time name="dav"> 1925.43 1966.61</time>
   <time name="total"> 2004.54 2048.76</time>
   <energy>
    <i name="e_fr_energy">   -103.49060161</i>
    <i name="e_wo_entrp">   -103.48977402</i>
    <i name="e_0_energy">   -103.49018782</i>
   </energy>
  </scstep>
  <scstep>
   <time name="dav"> 2836.02 2837.76</time>
   <time name="total"> 2919.20 2920.93</time>
   <energy>
    <i name="e_fr_energy">    -97.14671690</i>
    <i name="e_wo_entrp">    -97.14617650</i>
    <i name="e_0_energy">    -97.14644670</i>
   </energy>
  </scstep>
  <scstep>
   <time name="dav"> 2987.31 3010.22</time>
   <time name="total"> 3066.89 3089.82</time>
   <energy>
    <i name="e_fr_energy">    -96.99203476</i>
    <i name="e_wo_entrp">    -96.99156546</i>
    <i name="e_0_energy">    -96.99180011</i>
   </energy>
  </scstep>
  <scstep>
   <time name="dav"> 2821.18 2831.36</time>
   <time name="total"> 2895.91 2915.49</time>
   <energy>
    <i name="e_fr_energy">    -96.96125180</i>
    <i name="e_wo_entrp">    -96.96078940</i>
    <i name="e_0_energy">    -96.96102060</i>
   </energy>
  </scstep>
  <scstep>
   <time name="dav"> 2912.03 2944.89</time>
   <time name="total"> 2994.86 3027.75</time>
   <energy>
    <i name="e_fr_energy">    -96.96177230</i>
    <i name="e_wo_entrp">    -96.96133137</i>
    <i name="e_0_energy">    -96.96155183</i>
   </energy>
  </scstep>
  <scstep>
   <time name="dav"> 2808.20 2809.27</time>
   <time name="total"> 2889.03 2890.09</time>
   <energy>
    <i name="e_fr_energy">    -96.96187687</i>
    <i name="e_wo_entrp">    -96.96142905</i>
    <i name="e_0_energy">    -96.96165296</i>
   </energy>
  </scstep>
  <scstep>
   <time name="dav"> 2961.88 2962.38</time>
   <time name="total"> 3042.15 3042.69</time>
   <energy>
    <i name="e_fr_energy">    -96.96188522</i>
    <i name="e_wo_entrp">    -96.96143651</i>
    <i name="e_0_energy">    -96.96166086</i>
   </energy>
  </scstep>
  <scstep>
   <time name="dav"> 2866.94 2866.44</time>
   <time name="total"> 3023.57 3023.05</time>
   <energy>
    <i name="e_fr_energy">    -96.96188724</i>
    <i name="e_wo_entrp">    -96.96143828</i>
    <i name="e_0_energy">    -96.96166276</i>
   </energy>
  </scstep>
  <scstep>
   <time name="dav"> 2752.44 2752.09</time>
   <time name="total"> 2918.39 2918.02</time>
   <energy>
    <i name="e_fr_energy">    -96.96188573</i>
    <i name="e_wo_entrp">    -96.96143678</i>
    <i name="e_0_energy">    -96.96166125</i>
   </energy>
  </scstep>
  <scstep>
   <time name="dav"> 1837.98 1918.24</time>
   <time name="total"> 1991.06 2078.97</time>
   <energy>
    <i name="e_fr_energy">    -96.96188551</i>
    <i name="e_wo_entrp">    -96.96143659</i>
    <i name="e_0_energy">    -96.96166105</i>
   </energy>
  </scstep>
  <scstep>
   <time name="dav"> 1864.75 1866.78</time>
   <time name="total"> 2025.85 2027.85</time>
   <energy>
    <i name="e_fr_energy">    -96.96188557</i>
    <i name="e_wo_entrp">    -96.96143665</i>
    <i name="e_0_energy">    -96.96166111</i>
   </energy>
  </scstep>
  <scstep>
   <time name="dav"> 1833.38 1833.15</time>
   <time name="total"> 1836.34 1836.11</time>
   <energy>
    <i name="alphaZ">   2693.12091881</i>
    <i name="ewald"> -28626.66544490</i>
    <i name="hartreedc">  -4793.76232719</i>
    <i name="XCdc">    451.07321170</i>
    <i name="pawpsdc">  23420.93772266</i>
    <i name="pawaedc"> -22721.05570389</i>
    <i name="eentropy">     -0.00044891</i>
    <i name="bandstr">   -154.39960573</i>
    <i name="atom">  29633.78979189</i>
    <i name="e_fr_energy">    -96.96188556</i>
    <i name="e_wo_entrp">    -96.96143665</i>
    <i name="e_0_energy">    -96.96166110</i>
   </energy>
  </scstep>
  <structure>
   <crystal>
    <varray name="basis" >
     <v>       8.92990307      0.00000000      0.00000000</v>
     <v>       0.00000000      8.92990307      0.00000000</v>
     <v>       0.00000000      0.00000000      8.92990307</v>
    </varray>
    <i name="volume">    712.09876846</i>
    <varray name="rec_basis" >
     <v>       0.11198330      0.00000000      0.00000000</v>
     <v>       0.00000000      0.11198330      0.00000000</v>
     <v>       0.00000000      0.00000000      0.11198330</v>
    </varray>
   </crystal>
   <varray name="positions" >
    <v>       0.00111983      0.00000000      0.00000000</v>
    <v>       0.50000000      0.00000000      0.00000000</v>
    <v>       0.00000000      0.50000000      0.00000000</v>
    <v>       0.50000000      0.50000000      0.00000000</v>
    <v>       0.00000000      0.00000000      0.50000000</v>
    <v>       0.50000000      0.00000000      0.50000000</v>
    <v>       0.00000000      0.50000000      0.50000000</v>
    <v>       0.50000000      0.50000000      0.50000000</v>
    <v>       0.25000000      0.25000000      0.00000000</v>
    <v>       0.75000000      0.25000000      0.00000000</v>
    <v>       0.25000000      0.75000000      0.00000000</v>
    <v>       0.75000000      0.75000000      0.00000000</v>
    <v>       0.25000000      0.25000000      0.50000000</v>
    <v>       0.75000000      0.25000000      0.50000000</v>
    <v>       0.25000000      0.75000000      0.50000000</v>
    <v>       0.75000000      0.75000000      0.50000000</v>
    <v>       0.25000000      0.00000000      0.25000000</v>
    <v>       0.75000000      0.00000000      0.25000000</v>
    <v>       0.25000000      0.50000000      0.25000000</v>
    <v>       0.75000000      0.50000000      0.25000000</v>
    <v>       0.25000000      0.00000000      0.75000000</v>
    <v>       0.75000000      0.00000000      0.75000000</v>
    <v>       0.25000000      0.50000000      0.75000000</v>
    <v>       0.75000000      0.50000000      0.75000000</v>
    <v>       0.00000000      0.25000000      0.25000000</v>
    <v>       0.50000000      0.25000000      0.25000000</v>
    <v>       0.00000000      0.75000000      0.25000000</v>
    <v>       0.50000000      0.75000000      0.25000000</v>
    <v>       0.00000000      0.25000000      0.75000000</v>
    <v>       0.50000000      0.25000000      0.75000000</v>
    <v>       0.00000000      0.75000000      0.75000000</v>
    <v>       0.50000000      0.75000000      0.75000000</v>
   </varray>
  </structure>
  <varray name="forces" >
   <v>      -0.00380173      0.00000000     -0.00000000</v>
   <v>       0.00317783     -0.00000000      0.00000000</v>
   <v>      -0.00040545      0.00000000     -0.00000000</v>
   <v>      -0.00162500      0.00000000     -0.00000000</v>
   <v>      -0.00040545     -0.00000000     -0.00000000</v>
   <v>      -0.00162500     -0.00000000      0.00000000</v>
   <v>       0.00027544     -0.00000000      0.00000000</v>
   <v>      -0.00008905      0.00000000      0.00000000</v>
   <v>       0.00078436      0.00141975      0.00000000</v>
   <v>       0.00068551     -0.00129203     -0.00000000</v>
   <v>       0.00078436     -0.00141975      0.00000000</v>
   <v>       0.00068551      0.00129203      0.00000000</v>
   <v>       0.00020708     -0.00000480      0.00000000</v>
   <v>       0.00020553      0.00000772      0.00000000</v>
   <v>       0.00020708      0.00000480     -0.00000000</v>
   <v>       0.00020553     -0.00000772     -0.00000000</v>
   <v>       0.00078436     -0.00000000      0.00141975</v>
   <v>       0.00068551     -0.00000000     -0.00129203</v>
   <v>       0.00020708     -0.00000000     -0.00000480</v>
   <v>       0.00020553     -0.00000000      0.00000772</v>
   <v>       0.00078436     -0.00000000     -0.00141975</v>
   <v>       0.00068551     -0.00000000      0.00129203</v>
   <v>       0.00020708     -0.00000000      0.00000480</v>
   <v>       0.00020553     -0.00000000     -0.00000772</v>
   <v>      -0.00139031      0.00000696      0.00000696</v>
   <v>       0.00063244      0.00000401      0.00000401</v>
   <v>      -0.00139031     -0.00000696      0.00000696</v>
   <v>       0.00063244     -0.00000401      0.00000401</v>
   <v>      -0.00139031      0.00000696     -0.00000696</v>
   <v>       0.00063244      0.00000401     -0.00000401</v>
   <v>      -0.00139031     -0.00000696     -0.00000696</v>
   <v>       0.00063244     -0.00000401     -0.00000401</v>
  </varray>
  <varray name="stress" >
   <v>    -148.80971328      0.00000000      0.00000000</v>
   <v>       0.00000000   -148.81041322      0.00000000</v>
   <v>       0.00000000      0.00000000   -148.81041322</v>
  </varray>
  <energy>
   <i name="e_fr_energy">    -96.96188556</i>
   <i name="e_wo_entrp">    -96.96166110</i>
   <i name="e_0_energy">     -0.00044891</i>
  </energy>
  <eigenvalues>
   <array>
    <dimension dim="1">band</dimension>
    <dimension dim="2">kpoint</dimension>
    <dimension dim="3">spin</dimension>
    <field>eigene</field>
    <field>occ</field>
    <set>
     <set comment="spin 1">
      <set comment="kpoint 1">
       <r>  -4.5764  1.0000</r>
       <r>  -2.6179  1.0000</r>
       <r>  -2.6152  1.0000</r>
       <r>  -2.6152  1.0000</r>
       <r>  -2.6152  1.0000</r>
       <r>  -2.6152  1.0000</r>
       <r>  -2.6125  1.0000</r>
       <r>  -2.4897  1.0000</r>
       <r>  -2.4897  1.0000</r>
       <r>  -2.4897  1.0000</r>
       <r>  -2.4897  1.0000</r>
       <r>  -2.2447  1.0000</r>
       <r>  -2.2447  1.0000</r>
       <r>  -2.2447  1.0000</r>
       <r>  -2.0606  1.0000</r>
       <r>  -2.0606  1.0000</r>
       <r>  -2.0606  1.0000</r>
       <r>  -1.6207  1.0000</r>
       <r>  -1.6195  1.0000</r>
       <r>  -1.6195  1.0000</r>
       <r>  -1.6182  1.0000</r>
       <r>  -1.6180  1.0000</r>
       <r>  -1.6180  1.0000</r>
       <r>  -1.6180  1.0000</r>
       <r>  -1.6180  1.0000</r>
       <r>  -1.6178  1.0000</r>
       <r>  -1.6165  1.0000</r>
       <r>  -1.6165  1.0000</r>
       <r>  -1.6154  1.0000</r>
       <r>  -1.4867  1.0000</r>
       <r>  -1.4852  1.0000</r>
       <r>  -1.4852  1.0000</r>
       <r>  -1.4852  1.0000</r>
       <r>  -1.4852  1.0000</r>
       <r>  -1.4837  1.0000</r>
       <r>  -1.4521  1.0000</r>
       <r>  -1.4506  1.0000</r>
       <r>  -1.4506  1.0000</r>
       <r>  -1.4506  1.0000</r>
       <r>  -1.4506  1.0000</r>
       <r>  -1.4491  1.0000</r>
       <r>  -1.0446  1.0000</r>
       <r>  -1.0428  1.0000</r>
       <r>  -1.0428  1.0000</r>
       <r>  -1.0419  1.0000</r>
       <r>  -1.0419  1.0000</r>
       <r>  -1.0419  1.0000</r>
       <r>  -1.0419  1.0000</r>
       <r>  -1.0419  1.0000</r>
       <r>  -1.0419  1.0000</r>
       <r>  -1.0411  1.0000</r>
       <r>  -1.0411  1.0000</r>
       <r>  -1.0394  1.0000</r>
       <r>  -0.9919  1.0000</r>
       <r>  -0.9919  1.0000</r>
       <r>  -0.9903  1.0000</r>
       <r>  -0.9903  1.0000</r>
       <r>  -0.9902  1.0000</r>
       <r>  -0.9902  1.0000</r>
       <r>  -0.9902  1.0000</r>
       <r>  -0.9902  1.0000</r>
       <r>  -0.9902  1.0000</r>
       <r>  -0.9901  1.0000</r>
       <r>  -0.9885  1.0000</r>
       <r>  -0.9885  1.0000</r>
       <r>  -0.7795  1.0000</r>
       <r>  -0.7768  1.0000</r>
       <r>  -0.7767  1.0000</r>
       <r>  -0.7767  1.0000</r>
       <r>  -0.7766  1.0000</r>
       <r>  -0.7766  1.0000</r>
       <r>  -0.7765  1.0000</r>
       <r>  -0.7765  1.0000</r>
       <r>  -0.7763  1.0000</r>
       <r>  -0.7763  1.0000</r>
       <r>  -0.7762  1.0000</r>
       <r>  -0.7744  1.0000</r>
       <r>  -0.7723  1.0000</r>
       <r>  -0.7722  1.0000</r>
       <r>  -0.7722  1.0000</r>
       <r>  -0.7722  1.0000</r>
       <r>  -0.7722  1.0000</r>
       <r>  -0.7722  1.0000</r>
       <r>  -0.7722  1.0000</r>
       <r>  -0.7714  1.0000</r>
       <r>  -0.7603  1.0000</r>
       <r>  -0.7603  1.0000</r>
       <r>  -0.7603  1.0000</r>
       <r>  -0.2425  1.0000</r>
       <r>  -0.2411  1.0000</r>
       <r>  -0.2410  1.0000</r>
       <r>  -0.2410  1.0000</r>
       <r>  -0.2410  1.0000</r>
       <r>  -0.2396  1.0000</r>
       <r>  -0.1578  1.0000</r>
       <r>  -0.1572  1.0000</r>
       <r>  -0.1565  1.0000</r>
       <r>  -0.1565  1.0000</r>
       <r>  -0.1560  1.0000</r>
       <r>  -0.1560  1.0000</r>
       <r>  -0.1560  1.0000</r>
       <r>  -0.1560  1.0000</r>
       <r>  -0.1556  1.0000</r>
       <r>  -0.1556  1.0000</r>
       <r>  -0.1548  1.0000</r>
       <r>  -0.1543  1.0000</r>
       <r>   0.0326  1.0000</r>
       <r>   0.0326  1.0000</r>
       <r>   0.0344  1.0000</r>
       <r>   0.0344  1.0000</r>
       <r>   0.0345  1.0000</r>
       <r>   0.0345  1.0000</r>
       <r>   0.0345  1.0000</r>
       <r>   0.0346  1.0000</r>
       <r>   0.0347  1.0000</r>
       <r>   0.0347  1.0000</r>
       <r>   0.0364  1.0000</r>
       <r>   0.0364  1.0000</r>
       <r>   0.1390  1.0000</r>
       <r>   0.1402  1.0000</r>
       <r>   0.1402  1.0000</r>
       <r>   0.1403  1.0000</r>
       <r>   0.1403  1.0000</r>
       <r>   0.1415  1.0000</r>
       <r>   0.1789  1.0000</r>
       <r>   0.1790  1.0000</r>
       <r>   0.1951  1.0000</r>
       <r>   0.1951  1.0000</r>
       <r>   0.1968  1.0000</r>
       <r>   0.1971  1.0000</r>
       <r>   0.1972  1.0000</r>
       <r>   0.1972  1.0000</r>
       <r>   0.1972  1.0000</r>
       <r>   0.1973  1.0000</r>
       <r>   0.1973  1.0000</r>
       <r>   0.1975  1.0000</r>
       <r>   0.1993  1.0000</r>
       <r>   0.1993  1.0000</r>
       <r>   0.5248  1.0000</r>
       <r>   0.5256  1.0000</r>
       <r>   0.5256  1.0000</r>
       <r>   0.5256  1.0000</r>
       <r>   0.5256  1.0000</r>
       <r>   0.5265  1.0000</r>
       <r>   0.8937  1.0000</r>
       <r>   0.8937  1.0000</r>
       <r>   0.8937  1.0000</r>
       <r>   0.9263  1.0000</r>
       <r>   0.9263  1.0000</r>
       <r>   0.9263  1.0000</r>
       <r>   0.9263  1.0000</r>
       <r>   0.9263  1.0000</r>
       <r>   0.9263  1.0000</r>
       <r>   0.9263  1.0000</r>
       <r>   0.9263  1.0000</r>
       <r>   1.1228  1.0000</r>
       <r>   1.1230  1.0000</r>
       <r>   1.1230  1.0000</r>
       <r>   1.1230  1.0000</r>
       <r>   1.1230  1.0000</r>
       <r>   1.1230  1.0000</r>
       <r>   1.1239  1.0000</r>
       <r>   1.1240  1.0000</r>
       <r>   1.1240  1.0000</r>
       <r>   1.1240  1.0000</r>
       <r>   1.1240  1.0000</r>
       <r>   1.1242  1.0000</r>
       <r>   2.2905  1.0000</r>
       <r>   2.2916  1.0000</r>
       <r>   2.2916  1.0000</r>
       <r>   2.2921  1.0000</r>
       <r>   2.2925  1.0000</r>
       <r>   2.2925  1.0000</r>
       <r>   2.2925  1.0000</r>
       <r>   2.2925  1.0000</r>
       <r>   2.2929  1.0000</r>
       <r>   2.2934  1.0000</r>
       <r>   2.2934  1.0000</r>
       <r>   2.2945  1.0000</r>
       <r>   2.9411  0.0000</r>
       <r>   2.9411  0.0000</r>
       <r>   2.9411  0.0000</r>
       <r>   2.9411  0.0000</r>
       <r>   4.4940  0.0000</r>
       <r>   4.4940  0.0000</r>
       <r>   4.4940  0.0000</r>
       <r>   4.6714  0.0000</r>
       <r>   4.6714  0.0000</r>
       <r>   4.6714  0.0000</r>
       <r>   4.6715  0.0000</r>
       <r>   6.2576  0.0000</r>
       <r>   6.2577  0.0000</r>
       <r>   6.2577  0.0000</r>
       <r>   6.2577  0.0000</r>
       <r>   6.2577  0.0000</r>
       <r>   6.2578  0.0000</r>
       <r>   6.7479  0.0000</r>
       <r>   6.7479  0.0000</r>
       <r>   6.7479  0.0000</r>
       <r>   8.3396  0.0000</r>
       <r>   8.3396  0.0000</r>
       <r>   8.3423  0.0000</r>
       <r>   8.3423  0.0000</r>
       <r>   8.3426  0.0000</r>
       <r>   8.3426  0.0000</r>
       <r>   8.3426  0.0000</r>
       <r>   8.3427  0.0000</r>
       <r>   8.3429  0.0000</r>
       <r>   8.3429  0.0000</r>
       <r>   8.3456  0.0000</r>
       <r>   8.3456  0.0000</r>
       <r>   9.9787  0.0000</r>
       <r>   9.9795  0.0000</r>
       <r>   9.9801  0.0000</r>
       <r>   9.9805  0.0000</r>
       <r>   9.9809  0.0000</r>
      </set>
      <set comment="kpoint 2">
       <r>  -4.5604  1.0000</r>
       <r>  -2.8530  1.0000</r>
       <r>  -2.6037  1.0000</r>
       <r>  -2.6037  1.0000</r>
       <r>  -2.6037  1.0000</r>
       <r>  -2.6037  1.0000</r>
       <r>  -2.4816  1.0000</r>
       <r>  -2.4816  1.0000</r>
       <r>  -2.4816  1.0000</r>
       <r>  -2.4816  1.0000</r>
       <r>  -2.4109  1.0000</r>
       <r>  -2.2401  1.0000</r>
       <r>  -2.2352  1.0000</r>
       <r>  -2.2352  1.0000</r>
       <r>  -2.0557  1.0000</r>
       <r>  -2.0531  1.0000</r>
       <r>  -2.0531  1.0000</r>
       <r>  -1.6937  1.0000</r>
       <r>  -1.6937  1.0000</r>
       <r>  -1.6937  1.0000</r>
       <r>  -1.6937  1.0000</r>
       <r>  -1.6601  1.0000</r>
       <r>  -1.6601  1.0000</r>
       <r>  -1.6601  1.0000</r>
       <r>  -1.6601  1.0000</r>
       <r>  -1.5542  1.0000</r>
       <r>  -1.5542  1.0000</r>
       <r>  -1.5542  1.0000</r>
       <r>  -1.5541  1.0000</r>
       <r>  -1.5343  1.0000</r>
       <r>  -1.5047  1.0000</r>
       <r>  -1.5046  1.0000</r>
       <r>  -1.4790  1.0000</r>
       <r>  -1.4790  1.0000</r>
       <r>  -1.4790  1.0000</r>
       <r>  -1.4789  1.0000</r>
       <r>  -1.4463  1.0000</r>
       <r>  -1.4463  1.0000</r>
       <r>  -1.4463  1.0000</r>
       <r>  -1.4463  1.0000</r>
       <r>  -1.3655  1.0000</r>
       <r>  -1.1580  1.0000</r>
       <r>  -1.1580  1.0000</r>
       <r>  -1.0772  1.0000</r>
       <r>  -1.0771  1.0000</r>
       <r>  -1.0771  1.0000</r>
       <r>  -1.0771  1.0000</r>
       <r>  -1.0154  1.0000</r>
       <r>  -1.0142  1.0000</r>
       <r>  -1.0142  1.0000</r>
       <r>  -1.0142  1.0000</r>
       <r>  -1.0135  1.0000</r>
       <r>  -1.0135  1.0000</r>
       <r>  -1.0135  1.0000</r>
       <r>  -1.0124  1.0000</r>
       <r>  -0.9975  1.0000</r>
       <r>  -0.9975  1.0000</r>
       <r>  -0.9975  1.0000</r>
       <r>  -0.9975  1.0000</r>
       <r>  -0.9895  1.0000</r>
       <r>  -0.9894  1.0000</r>
       <r>  -0.9894  1.0000</r>
       <r>  -0.9893  1.0000</r>
       <r>  -0.8121  1.0000</r>
       <r>  -0.8121  1.0000</r>
       <r>  -0.8121  1.0000</r>
       <r>  -0.8120  1.0000</r>
       <r>  -0.8099  1.0000</r>
       <r>  -0.8099  1.0000</r>
       <r>  -0.7750  1.0000</r>
       <r>  -0.7749  1.0000</r>
       <r>  -0.7749  1.0000</r>
       <r>  -0.7749  1.0000</r>
       <r>  -0.7678  1.0000</r>
       <r>  -0.7677  1.0000</r>
       <r>  -0.7677  1.0000</r>
       <r>  -0.7676  1.0000</r>
       <r>  -0.7666  1.0000</r>
       <r>  -0.7662  1.0000</r>
       <r>  -0.7661  1.0000</r>
       <r>  -0.7661  1.0000</r>
       <r>  -0.7661  1.0000</r>
       <r>  -0.7543  1.0000</r>
       <r>  -0.7543  1.0000</r>
       <r>  -0.7475  1.0000</r>
       <r>  -0.7475  1.0000</r>
       <r>  -0.7475  1.0000</r>
       <r>  -0.7473  1.0000</r>
       <r>  -0.2848  1.0000</r>
       <r>  -0.2848  1.0000</r>
       <r>  -0.2848  1.0000</r>
       <r>  -0.2848  1.0000</r>
       <r>  -0.2714  1.0000</r>
       <r>  -0.1854  1.0000</r>
       <r>  -0.1853  1.0000</r>
       <r>  -0.1853  1.0000</r>
       <r>  -0.1853  1.0000</r>
       <r>  -0.1552  1.0000</r>
       <r>  -0.1549  1.0000</r>
       <r>  -0.1549  1.0000</r>
       <r>  -0.1549  1.0000</r>
       <r>  -0.1453  1.0000</r>
       <r>  -0.1205  1.0000</r>
       <r>  -0.1205  1.0000</r>
       <r>  -0.1205  1.0000</r>
       <r>  -0.1205  1.0000</r>
       <r>  -0.0817  1.0000</r>
       <r>  -0.0817  1.0000</r>
       <r>   0.0341  1.0000</r>
       <r>   0.0341  1.0000</r>
       <r>   0.0341  1.0000</r>
       <r>   0.0341  1.0000</r>
       <r>   0.0730  1.0000</r>
       <r>   0.0730  1.0000</r>
       <r>   0.0730  1.0000</r>
       <r>   0.0730  1.0000</r>
       <r>   0.1415  1.0000</r>
       <r>   0.1415  1.0000</r>
       <r>   0.1420  1.0000</r>
       <r>   0.1420  1.0000</r>
       <r>   0.1431  1.0000</r>
       <r>   0.1432  1.0000</r>
       <r>   0.1435  1.0000</r>
       <r>   0.1435  1.0000</r>
       <r>   0.1556  1.0000</r>
       <r>   0.1556  1.0000</r>
       <r>   0.1600  1.0000</r>
       <r>   0.1601  1.0000</r>
       <r>   0.1724  1.0000</r>
       <r>   0.1818  1.0000</r>
       <r>   0.2283  1.0000</r>
       <r>   0.2283  1.0000</r>
       <r>   0.2283  1.0000</r>
       <r>   0.2284  1.0000</r>
       <r>   0.2661  1.0000</r>
       <r>   0.2661  1.0000</r>
       <r>   0.2661  1.0000</r>
       <r>   0.2661  1.0000</r>
       <r>   0.4792  1.0000</r>
       <r>   0.5347  1.0000</r>
       <r>   0.5347  1.0000</r>
       <r>   0.5347  1.0000</r>
       <r>   0.5347  1.0000</r>
       <r>   0.5724  1.0000</r>
       <r>   0.8846  1.0000</r>
       <r>   0.8847  1.0000</r>
       <r>   0.8905  1.0000</r>
       <r>   0.8988  1.0000</r>
       <r>   0.8988  1.0000</r>
       <r>   0.8988  1.0000</r>
       <r>   0.8988  1.0000</r>
       <r>   0.9183  1.0000</r>
       <r>   0.9183  1.0000</r>
       <r>   0.9183  1.0000</r>
       <r>   0.9183  1.0000</r>
       <r>   1.0877  1.0000</r>
       <r>   1.0877  1.0000</r>
       <r>   1.1115  1.0000</r>
       <r>   1.1115  1.0000</r>
       <r>   1.1115  1.0000</r>
       <r>   1.1115  1.0000</r>
       <r>   1.1117  1.0000</r>
       <r>   1.1117  1.0000</r>
       <r>   1.1228  1.0000</r>
       <r>   1.1230  1.0000</r>
       <r>   1.1239  1.0000</r>
       <r>   1.1242  1.0000</r>
       <r>   2.0499  1.0000</r>
       <r>   2.0499  1.0000</r>
       <r>   2.0499  1.0000</r>
       <r>   2.0499  1.0000</r>
       <r>   2.2957  1.0000</r>
       <r>   2.2957  1.0000</r>
       <r>   2.2957  1.0000</r>
       <r>   2.2957  1.0000</r>
       <r>   2.5583  1.0000</r>
       <r>   2.5583  1.0000</r>
       <r>   2.5583  1.0000</r>
       <r>   2.5583  1.0000</r>
       <r>   2.8989  0.0000</r>
       <r>   2.8989  0.0000</r>
       <r>   2.8989  0.0000</r>
       <r>   2.8989  0.0000</r>
       <r>   4.2818  0.0000</r>
       <r>   4.5423  0.0000</r>
       <r>   4.5423  0.0000</r>
       <r>   4.7641  0.0000</r>
       <r>   4.7641  0.0000</r>
       <r>   4.7641  0.0000</r>
       <r>   4.7641  0.0000</r>
       <r>   6.1665  0.0000</r>
       <r>   6.1665  0.0000</r>
       <r>   6.1665  0.0000</r>
       <r>   6.1665  0.0000</r>
       <r>   6.2658  0.0000</r>
       <r>   6.2658  0.0000</r>
       <r>   6.7394  0.0000</r>
       <r>   6.7394  0.0000</r>
       <r>   6.9889  0.0000</r>
       <r>   7.9047  0.0000</r>
       <r>   7.9047  0.0000</r>
       <r>   8.3521  0.0000</r>
       <r>   8.3521  0.0000</r>
       <r>   8.3522  0.0000</r>
       <r>   8.3522  0.0000</r>
       <r>   8.3696  0.0000</r>
       <r>   8.3696  0.0000</r>
       <r>   8.3696  0.0000</r>
       <r>   8.3696  0.0000</r>
       <r>   8.7811  0.0000</r>
       <r>   8.7811  0.0000</r>
       <r>   9.6898  0.0000</r>
       <r>   9.6900  0.0000</r>
       <r>   9.6915  0.0000</r>
       <r>   9.6950  0.0000</r>
       <r>   9.6962  0.0000</r>
      </set>
      <set comment="kpoint 3">
       <r>  -4.5122  1.0000</r>
       <r>  -3.1050  1.0000</r>
       <r>  -2.5697  1.0000</r>
       <r>  -2.5696  1.0000</r>
       <r>  -2.5696  1.0000</r>
       <r>  -2.5696  1.0000</r>
       <r>  -2.4572  1.0000</r>
       <r>  -2.4572  1.0000</r>
       <r>  -2.4572  1.0000</r>
       <r>  -2.4572  1.0000</r>
       <r>  -2.2580  1.0000</r>
       <r>  -2.2267  1.0000</r>
       <r>  -2.2069  1.0000</r>
       <r>  -2.2069  1.0000</r>
       <r>  -2.0409  1.0000</r>
       <r>  -2.0304  1.0000</r>
       <r>  -2.0304  1.0000</r>
       <r>  -1.7839  1.0000</r>
       <r>  -1.7839  1.0000</r>
       <r>  -1.7839  1.0000</r>
       <r>  -1.7839  1.0000</r>
       <r>  -1.7584  1.0000</r>
       <r>  -1.7584  1.0000</r>
       <r>  -1.7584  1.0000</r>
       <r>  -1.7584  1.0000</r>
       <r>  -1.6153  1.0000</r>
       <r>  -1.5592  1.0000</r>
       <r>  -1.5592  1.0000</r>
       <r>  -1.4984  1.0000</r>
       <r>  -1.4984  1.0000</r>
       <r>  -1.4984  1.0000</r>
       <r>  -1.4984  1.0000</r>
       <r>  -1.4610  1.0000</r>
       <r>  -1.4610  1.0000</r>
       <r>  -1.4610  1.0000</r>
       <r>  -1.4610  1.0000</r>
       <r>  -1.4334  1.0000</r>
       <r>  -1.4334  1.0000</r>
       <r>  -1.4334  1.0000</r>
       <r>  -1.4334  1.0000</r>
       <r>  -1.3125  1.0000</r>
       <r>  -1.3125  1.0000</r>
       <r>  -1.2806  1.0000</r>
       <r>  -1.1187  1.0000</r>
       <r>  -1.1187  1.0000</r>
       <r>  -1.1187  1.0000</r>
       <r>  -1.1187  1.0000</r>
       <r>  -1.0182  1.0000</r>
       <r>  -1.0182  1.0000</r>
       <r>  -1.0182  1.0000</r>
       <r>  -1.0181  1.0000</r>
       <r>  -0.9946  1.0000</r>
       <r>  -0.9942  1.0000</r>
       <r>  -0.9942  1.0000</r>
       <r>  -0.9942  1.0000</r>
       <r>  -0.9873  1.0000</r>
       <r>  -0.9873  1.0000</r>
       <r>  -0.9873  1.0000</r>
       <r>  -0.9870  1.0000</r>
       <r>  -0.9643  1.0000</r>
       <r>  -0.9643  1.0000</r>
       <r>  -0.9643  1.0000</r>
       <r>  -0.9642  1.0000</r>
       <r>  -0.8703  1.0000</r>
       <r>  -0.8703  1.0000</r>
       <r>  -0.8703  1.0000</r>
       <r>  -0.8703  1.0000</r>
       <r>  -0.7854  1.0000</r>
       <r>  -0.7828  1.0000</r>
       <r>  -0.7827  1.0000</r>
       <r>  -0.7827  1.0000</r>
       <r>  -0.7826  1.0000</r>
       <r>  -0.7749  1.0000</r>
       <r>  -0.7749  1.0000</r>
       <r>  -0.7749  1.0000</r>
       <r>  -0.7747  1.0000</r>
       <r>  -0.7480  1.0000</r>
       <r>  -0.7480  1.0000</r>
       <r>  -0.7480  1.0000</r>
       <r>  -0.7480  1.0000</r>
       <r>  -0.7363  1.0000</r>
       <r>  -0.7363  1.0000</r>
       <r>  -0.6527  1.0000</r>
       <r>  -0.6527  1.0000</r>
       <r>  -0.6527  1.0000</r>
       <r>  -0.6527  1.0000</r>
       <r>  -0.6181  1.0000</r>
       <r>  -0.6181  1.0000</r>
       <r>  -0.3734  1.0000</r>
       <r>  -0.3734  1.0000</r>
       <r>  -0.3734  1.0000</r>
       <r>  -0.3734  1.0000</r>
       <r>  -0.2574  1.0000</r>
       <r>  -0.2528  1.0000</r>
       <r>  -0.2528  1.0000</r>
       <r>  -0.2528  1.0000</r>
       <r>  -0.2528  1.0000</r>
       <r>  -0.1918  1.0000</r>
       <r>  -0.1918  1.0000</r>
       <r>  -0.1199  1.0000</r>
       <r>  -0.1199  1.0000</r>
       <r>  -0.1199  1.0000</r>
       <r>  -0.1199  1.0000</r>
       <r>  -0.0608  1.0000</r>
       <r>  -0.0608  1.0000</r>
       <r>  -0.0608  1.0000</r>
       <r>  -0.0608  1.0000</r>
       <r>   0.0330  1.0000</r>
       <r>   0.0330  1.0000</r>
       <r>   0.0330  1.0000</r>
       <r>   0.0330  1.0000</r>
       <r>   0.0341  1.0000</r>
       <r>   0.1001  1.0000</r>
       <r>   0.1001  1.0000</r>
       <r>   0.1001  1.0000</r>
       <r>   0.1001  1.0000</r>
       <r>   0.1392  1.0000</r>
       <r>   0.1392  1.0000</r>
       <r>   0.1392  1.0000</r>
       <r>   0.1393  1.0000</r>
       <r>   0.1505  1.0000</r>
       <r>   0.1506  1.0000</r>
       <r>   0.1506  1.0000</r>
       <r>   0.1506  1.0000</r>
       <r>   0.1529  1.0000</r>
       <r>   0.1904  1.0000</r>
       <r>   0.2152  1.0000</r>
       <r>   0.2153  1.0000</r>
       <r>   0.2794  1.0000</r>
       <r>   0.2794  1.0000</r>
       <r>   0.3013  1.0000</r>
       <r>   0.3013  1.0000</r>
       <r>   0.3013  1.0000</r>
       <r>   0.3014  1.0000</r>
       <r>   0.3478  1.0000</r>
       <r>   0.3478  1.0000</r>
       <r>   0.3479  1.0000</r>
       <r>   0.3479  1.0000</r>
       <r>   0.4340  1.0000</r>
       <r>   0.5687  1.0000</r>
       <r>   0.5687  1.0000</r>
       <r>   0.5687  1.0000</r>
       <r>   0.5687  1.0000</r>
       <r>   0.6187  1.0000</r>
       <r>   0.8180  1.0000</r>
       <r>   0.8180  1.0000</r>
       <r>   0.8180  1.0000</r>
       <r>   0.8180  1.0000</r>
       <r>   0.8576  1.0000</r>
       <r>   0.8576  1.0000</r>
       <r>   0.8808  1.0000</r>
       <r>   0.8944  1.0000</r>
       <r>   0.8944  1.0000</r>
       <r>   0.8944  1.0000</r>
       <r>   0.8944  1.0000</r>
       <r>   0.9874  1.0000</r>
       <r>   0.9874  1.0000</r>
       <r>   1.0750  1.0000</r>
       <r>   1.0750  1.0000</r>
       <r>   1.0750  1.0000</r>
       <r>   1.0750  1.0000</r>
       <r>   1.0781  1.0000</r>
       <r>   1.0781  1.0000</r>
       <r>   1.1228  1.0000</r>
       <r>   1.1231  1.0000</r>
       <r>   1.1239  1.0000</r>
       <r>   1.1242  1.0000</r>
       <r>   1.8263  1.0000</r>
       <r>   1.8263  1.0000</r>
       <r>   1.8263  1.0000</r>
       <r>   1.8263  1.0000</r>
       <r>   2.3054  1.0000</r>
       <r>   2.3054  1.0000</r>
       <r>   2.3054  1.0000</r>
       <r>   2.3054  1.0000</r>
       <r>   2.7982  0.1382</r>
       <r>   2.7983  0.1365</r>
       <r>   2.7983  0.1365</r>
       <r>   2.7983  0.1359</r>
       <r>   2.8513  0.0000</r>
       <r>   2.8513  0.0000</r>
       <r>   2.8513  0.0000</r>
       <r>   2.8514  0.0000</r>
       <r>   3.8043  0.0000</r>
       <r>   4.6814  0.0000</r>
       <r>   4.6814  0.0000</r>
       <r>   5.0142  0.0000</r>
       <r>   5.0142  0.0000</r>
       <r>   5.0142  0.0000</r>
       <r>   5.0142  0.0000</r>
       <r>   5.9186  0.0000</r>
       <r>   5.9186  0.0000</r>
       <r>   5.9186  0.0000</r>
       <r>   5.9186  0.0000</r>
       <r>   6.2897  0.0000</r>
       <r>   6.2897  0.0000</r>
       <r>   6.7147  0.0000</r>
       <r>   6.7147  0.0000</r>
       <r>   7.4708  0.0000</r>
       <r>   7.4708  0.0000</r>
       <r>   7.5531  0.0000</r>
       <r>   8.3807  0.0000</r>
       <r>   8.3807  0.0000</r>
       <r>   8.3808  0.0000</r>
       <r>   8.3808  0.0000</r>
       <r>   8.4495  0.0000</r>
       <r>   8.4495  0.0000</r>
       <r>   8.4496  0.0000</r>
       <r>   8.4496  0.0000</r>
       <r>   9.1471  0.0000</r>
       <r>   9.1471  0.0000</r>
       <r>   9.1472  0.0000</r>
       <r>   9.1472  0.0000</r>
       <r>   9.2164  0.0000</r>
       <r>   9.2164  0.0000</r>
       <r>   9.4321  0.0000</r>
      </set>
      <set comment="kpoint 4">
       <r>  -4.4324  1.0000</r>
       <r>  -3.3557  1.0000</r>
       <r>  -2.5140  1.0000</r>
       <r>  -2.5139  1.0000</r>
       <r>  -2.5139  1.0000</r>
       <r>  -2.5139  1.0000</r>
       <r>  -2.4168  1.0000</r>
       <r>  -2.4168  1.0000</r>
       <r>  -2.4168  1.0000</r>
       <r>  -2.4168  1.0000</r>
       <r>  -2.2057  1.0000</r>
       <r>  -2.1631  1.0000</r>
       <r>  -2.1605  1.0000</r>
       <r>  -2.1604  1.0000</r>
       <r>  -2.0165  1.0000</r>
       <r>  -1.9927  1.0000</r>
       <r>  -1.9927  1.0000</r>
       <r>  -1.8885  1.0000</r>
       <r>  -1.8885  1.0000</r>
       <r>  -1.8885  1.0000</r>
       <r>  -1.8885  1.0000</r>
       <r>  -1.8758  1.0000</r>
       <r>  -1.8758  1.0000</r>
       <r>  -1.8758  1.0000</r>
       <r>  -1.8758  1.0000</r>
       <r>  -1.6923  1.0000</r>
       <r>  -1.6391  1.0000</r>
       <r>  -1.6391  1.0000</r>
       <r>  -1.4533  1.0000</r>
       <r>  -1.4533  1.0000</r>
       <r>  -1.4483  1.0000</r>
       <r>  -1.4482  1.0000</r>
       <r>  -1.4482  1.0000</r>
       <r>  -1.4482  1.0000</r>
       <r>  -1.4329  1.0000</r>
       <r>  -1.4329  1.0000</r>
       <r>  -1.4329  1.0000</r>
       <r>  -1.4329  1.0000</r>
       <r>  -1.4123  1.0000</r>
       <r>  -1.4122  1.0000</r>
       <r>  -1.4122  1.0000</r>
       <r>  -1.4122  1.0000</r>
       <r>  -1.1973  1.0000</r>
       <r>  -1.1647  1.0000</r>
       <r>  -1.1647  1.0000</r>
       <r>  -1.1647  1.0000</r>
       <r>  -1.1647  1.0000</r>
       <r>  -1.0482  1.0000</r>
       <r>  -1.0482  1.0000</r>
       <r>  -1.0482  1.0000</r>
       <r>  -1.0482  1.0000</r>
       <r>  -0.9849  1.0000</r>
       <r>  -0.9841  1.0000</r>
       <r>  -0.9841  1.0000</r>
       <r>  -0.9841  1.0000</r>
       <r>  -0.9813  1.0000</r>
       <r>  -0.9812  1.0000</r>
       <r>  -0.9812  1.0000</r>
       <r>  -0.9805  1.0000</r>
       <r>  -0.9404  1.0000</r>
       <r>  -0.9403  1.0000</r>
       <r>  -0.9402  1.0000</r>
       <r>  -0.9402  1.0000</r>
       <r>  -0.9273  1.0000</r>
       <r>  -0.9273  1.0000</r>
       <r>  -0.9273  1.0000</r>
       <r>  -0.9271  1.0000</r>
       <r>  -0.8162  1.0000</r>
       <r>  -0.7951  1.0000</r>
       <r>  -0.7951  1.0000</r>
       <r>  -0.7951  1.0000</r>
       <r>  -0.7951  1.0000</r>
       <r>  -0.7805  1.0000</r>
       <r>  -0.7805  1.0000</r>
       <r>  -0.7805  1.0000</r>
       <r>  -0.7804  1.0000</r>
       <r>  -0.7181  1.0000</r>
       <r>  -0.7181  1.0000</r>
       <r>  -0.7181  1.0000</r>
       <r>  -0.7180  1.0000</r>
       <r>  -0.7065  1.0000</r>
       <r>  -0.7065  1.0000</r>
       <r>  -0.4980  1.0000</r>
       <r>  -0.4980  1.0000</r>
       <r>  -0.4980  1.0000</r>
       <r>  -0.4980  1.0000</r>
       <r>  -0.4687  1.0000</r>
       <r>  -0.4687  1.0000</r>
       <r>  -0.4687  1.0000</r>
       <r>  -0.4687  1.0000</r>
       <r>  -0.4160  1.0000</r>
       <r>  -0.4160  1.0000</r>
       <r>  -0.3331  1.0000</r>
       <r>  -0.3331  1.0000</r>
       <r>  -0.3331  1.0000</r>
       <r>  -0.3331  1.0000</r>
       <r>  -0.2944  1.0000</r>
       <r>  -0.2944  1.0000</r>
       <r>  -0.2161  1.0000</r>
       <r>  -0.0643  1.0000</r>
       <r>  -0.0643  1.0000</r>
       <r>  -0.0643  1.0000</r>
       <r>  -0.0643  1.0000</r>
       <r>   0.0060  1.0000</r>
       <r>   0.0060  1.0000</r>
       <r>   0.0060  1.0000</r>
       <r>   0.0060  1.0000</r>
       <r>   0.0314  1.0000</r>
       <r>   0.0314  1.0000</r>
       <r>   0.0314  1.0000</r>
       <r>   0.0315  1.0000</r>
       <r>   0.0703  1.0000</r>
       <r>   0.0703  1.0000</r>
       <r>   0.0703  1.0000</r>
       <r>   0.0703  1.0000</r>
       <r>   0.1211  1.0000</r>
       <r>   0.1591  1.0000</r>
       <r>   0.1591  1.0000</r>
       <r>   0.1591  1.0000</r>
       <r>   0.1591  1.0000</r>
       <r>   0.1819  1.0000</r>
       <r>   0.1820  1.0000</r>
       <r>   0.1820  1.0000</r>
       <r>   0.1820  1.0000</r>
       <r>   0.2047  1.0000</r>
       <r>   0.2959  1.0000</r>
       <r>   0.2960  1.0000</r>
       <r>   0.3058  1.0000</r>
       <r>   0.3894  1.0000</r>
       <r>   0.3905  1.0000</r>
       <r>   0.3905  1.0000</r>
       <r>   0.3905  1.0000</r>
       <r>   0.3917  1.0000</r>
       <r>   0.4041  1.0000</r>
       <r>   0.4041  1.0000</r>
       <r>   0.4404  1.0000</r>
       <r>   0.4404  1.0000</r>
       <r>   0.4404  1.0000</r>
       <r>   0.4404  1.0000</r>
       <r>   0.6415  1.0000</r>
       <r>   0.6415  1.0000</r>
       <r>   0.6415  1.0000</r>
       <r>   0.6415  1.0000</r>
       <r>   0.6638  1.0000</r>
       <r>   0.6890  1.0000</r>
       <r>   0.6890  1.0000</r>
       <r>   0.6890  1.0000</r>
       <r>   0.6890  1.0000</r>
       <r>   0.8130  1.0000</r>
       <r>   0.8130  1.0000</r>
       <r>   0.8366  1.0000</r>
       <r>   0.8366  1.0000</r>
       <r>   0.8553  1.0000</r>
       <r>   0.8553  1.0000</r>
       <r>   0.8553  1.0000</r>
       <r>   0.8553  1.0000</r>
       <r>   0.8649  1.0000</r>
       <r>   1.0168  1.0000</r>
       <r>   1.0168  1.0000</r>
       <r>   1.0168  1.0000</r>
       <r>   1.0168  1.0000</r>
       <r>   1.0237  1.0000</r>
       <r>   1.0237  1.0000</r>
       <r>   1.1229  1.0000</r>
       <r>   1.1231  1.0000</r>
       <r>   1.1238  1.0000</r>
       <r>   1.1241  1.0000</r>
       <r>   1.6178  1.0000</r>
       <r>   1.6178  1.0000</r>
       <r>   1.6178  1.0000</r>
       <r>   1.6178  1.0000</r>
       <r>   2.3224  1.0000</r>
       <r>   2.3224  1.0000</r>
       <r>   2.3224  1.0000</r>
       <r>   2.3224  1.0000</r>
       <r>   2.6832  1.0000</r>
       <r>   2.6832  1.0000</r>
       <r>   2.6832  1.0000</r>
       <r>   2.6832  1.0000</r>
       <r>   3.1743  0.0000</r>
       <r>   3.1743  0.0000</r>
       <r>   3.1743  0.0000</r>
       <r>   3.1743  0.0000</r>
       <r>   3.2414  0.0000</r>
       <r>   4.8968  0.0000</r>
       <r>   4.8968  0.0000</r>
       <r>   5.3727  0.0000</r>
       <r>   5.3727  0.0000</r>
       <r>   5.3727  0.0000</r>
       <r>   5.3727  0.0000</r>
       <r>   5.5679  0.0000</r>
       <r>   5.5680  0.0000</r>
       <r>   5.5680  0.0000</r>
       <r>   5.5680  0.0000</r>
       <r>   6.3278  0.0000</r>
       <r>   6.3278  0.0000</r>
       <r>   6.6752  0.0000</r>
       <r>   6.6752  0.0000</r>
       <r>   7.0442  0.0000</r>
       <r>   7.0442  0.0000</r>
       <r>   8.2615  0.0000</r>
       <r>   8.4289  0.0000</r>
       <r>   8.4289  0.0000</r>
       <r>   8.4289  0.0000</r>
       <r>   8.4290  0.0000</r>
       <r>   8.5483  0.0000</r>
       <r>   8.5483  0.0000</r>
       <r>   8.5484  0.0000</r>
       <r>   8.5484  0.0000</r>
       <r>   8.5802  0.0000</r>
       <r>   8.5802  0.0000</r>
       <r>   8.5803  0.0000</r>
       <r>   8.5803  0.0000</r>
       <r>   9.2059  0.0000</r>
       <r>   9.2059  0.0000</r>
       <r>   9.2059  0.0000</r>
      </set>
      <set comment="kpoint 5">
       <r>  -4.3216  1.0000</r>
       <r>  -3.5946  1.0000</r>
       <r>  -2.4383  1.0000</r>
       <r>  -2.4382  1.0000</r>
       <r>  -2.4382  1.0000</r>
       <r>  -2.4382  1.0000</r>
       <r>  -2.3607  1.0000</r>
       <r>  -2.3606  1.0000</r>
       <r>  -2.3606  1.0000</r>
       <r>  -2.3606  1.0000</r>
       <r>  -2.1792  1.0000</r>
       <r>  -2.1189  1.0000</r>
       <r>  -2.0975  1.0000</r>
       <r>  -2.0975  1.0000</r>
       <r>  -2.0035  1.0000</r>
       <r>  -2.0035  1.0000</r>
       <r>  -2.0034  1.0000</r>
       <r>  -2.0034  1.0000</r>
       <r>  -1.9938  1.0000</r>
       <r>  -1.9937  1.0000</r>
       <r>  -1.9937  1.0000</r>
       <r>  -1.9937  1.0000</r>
       <r>  -1.9828  1.0000</r>
       <r>  -1.9399  1.0000</r>
       <r>  -1.9399  1.0000</r>
       <r>  -1.7642  1.0000</r>
       <r>  -1.7336  1.0000</r>
       <r>  -1.7336  1.0000</r>
       <r>  -1.5798  1.0000</r>
       <r>  -1.5798  1.0000</r>
       <r>  -1.4036  1.0000</r>
       <r>  -1.4034  1.0000</r>
       <r>  -1.4034  1.0000</r>
       <r>  -1.4034  1.0000</r>
       <r>  -1.3985  1.0000</r>
       <r>  -1.3985  1.0000</r>
       <r>  -1.3985  1.0000</r>
       <r>  -1.3983  1.0000</r>
       <r>  -1.3835  1.0000</r>
       <r>  -1.3835  1.0000</r>
       <r>  -1.3835  1.0000</r>
       <r>  -1.3834  1.0000</r>
       <r>  -1.2129  1.0000</r>
       <r>  -1.2129  1.0000</r>
       <r>  -1.2129  1.0000</r>
       <r>  -1.2129  1.0000</r>
       <r>  -1.1170  1.0000</r>
       <r>  -1.0813  1.0000</r>
       <r>  -1.0813  1.0000</r>
       <r>  -1.0813  1.0000</r>
       <r>  -1.0813  1.0000</r>
       <r>  -1.0110  1.0000</r>
       <r>  -1.0110  1.0000</r>
       <r>  -1.0110  1.0000</r>
       <r>  -1.0110  1.0000</r>
       <r>  -0.9807  1.0000</r>
       <r>  -0.9802  1.0000</r>
       <r>  -0.9802  1.0000</r>
       <r>  -0.9802  1.0000</r>
       <r>  -0.9744  1.0000</r>
       <r>  -0.9744  1.0000</r>
       <r>  -0.9744  1.0000</r>
       <r>  -0.9739  1.0000</r>
       <r>  -0.8995  1.0000</r>
       <r>  -0.8995  1.0000</r>
       <r>  -0.8995  1.0000</r>
       <r>  -0.8995  1.0000</r>
       <r>  -0.8583  1.0000</r>
       <r>  -0.8114  1.0000</r>
       <r>  -0.8114  1.0000</r>
       <r>  -0.8114  1.0000</r>
       <r>  -0.8114  1.0000</r>
       <r>  -0.7723  1.0000</r>
       <r>  -0.7723  1.0000</r>
       <r>  -0.7723  1.0000</r>
       <r>  -0.7723  1.0000</r>
       <r>  -0.6767  1.0000</r>
       <r>  -0.6767  1.0000</r>
       <r>  -0.6767  1.0000</r>
       <r>  -0.6767  1.0000</r>
       <r>  -0.6650  1.0000</r>
       <r>  -0.6650  1.0000</r>
       <r>  -0.5581  1.0000</r>
       <r>  -0.5581  1.0000</r>
       <r>  -0.5581  1.0000</r>
       <r>  -0.5581  1.0000</r>
       <r>  -0.4146  1.0000</r>
       <r>  -0.4146  1.0000</r>
       <r>  -0.4146  1.0000</r>
       <r>  -0.4146  1.0000</r>
       <r>  -0.3885  1.0000</r>
       <r>  -0.3885  1.0000</r>
       <r>  -0.3075  1.0000</r>
       <r>  -0.3075  1.0000</r>
       <r>  -0.3075  1.0000</r>
       <r>  -0.3075  1.0000</r>
       <r>  -0.2055  1.0000</r>
       <r>  -0.2055  1.0000</r>
       <r>  -0.1598  1.0000</r>
       <r>  -0.0006  1.0000</r>
       <r>  -0.0006  1.0000</r>
       <r>  -0.0006  1.0000</r>
       <r>  -0.0006  1.0000</r>
       <r>   0.0302  1.0000</r>
       <r>   0.0302  1.0000</r>
       <r>   0.0302  1.0000</r>
       <r>   0.0302  1.0000</r>
       <r>   0.0505  1.0000</r>
       <r>   0.0505  1.0000</r>
       <r>   0.0505  1.0000</r>
       <r>   0.0505  1.0000</r>
       <r>   0.0666  1.0000</r>
       <r>   0.0666  1.0000</r>
       <r>   0.0666  1.0000</r>
       <r>   0.0667  1.0000</r>
       <r>   0.0782  1.0000</r>
       <r>   0.1641  1.0000</r>
       <r>   0.1641  1.0000</r>
       <r>   0.1642  1.0000</r>
       <r>   0.1642  1.0000</r>
       <r>   0.1871  1.0000</r>
       <r>   0.1871  1.0000</r>
       <r>   0.1871  1.0000</r>
       <r>   0.1871  1.0000</r>
       <r>   0.2243  1.0000</r>
       <r>   0.3498  1.0000</r>
       <r>   0.3912  1.0000</r>
       <r>   0.3912  1.0000</r>
       <r>   0.4836  1.0000</r>
       <r>   0.4836  1.0000</r>
       <r>   0.4836  1.0000</r>
       <r>   0.4836  1.0000</r>
       <r>   0.5210  1.0000</r>
       <r>   0.5210  1.0000</r>
       <r>   0.5210  1.0000</r>
       <r>   0.5210  1.0000</r>
       <r>   0.5274  1.0000</r>
       <r>   0.5274  1.0000</r>
       <r>   0.5409  1.0000</r>
       <r>   0.5409  1.0000</r>
       <r>   0.5409  1.0000</r>
       <r>   0.5409  1.0000</r>
       <r>   0.6514  1.0000</r>
       <r>   0.6514  1.0000</r>
       <r>   0.6630  1.0000</r>
       <r>   0.7068  1.0000</r>
       <r>   0.7518  1.0000</r>
       <r>   0.7519  1.0000</r>
       <r>   0.7554  1.0000</r>
       <r>   0.7554  1.0000</r>
       <r>   0.7554  1.0000</r>
       <r>   0.7555  1.0000</r>
       <r>   0.8021  1.0000</r>
       <r>   0.8022  1.0000</r>
       <r>   0.8022  1.0000</r>
       <r>   0.8022  1.0000</r>
       <r>   0.8431  1.0000</r>
       <r>   0.9403  1.0000</r>
       <r>   0.9403  1.0000</r>
       <r>   0.9403  1.0000</r>
       <r>   0.9403  1.0000</r>
       <r>   0.9505  1.0000</r>
       <r>   0.9505  1.0000</r>
       <r>   1.1229  1.0000</r>
       <r>   1.1232  1.0000</r>
       <r>   1.1237  1.0000</r>
       <r>   1.1241  1.0000</r>
       <r>   1.4215  1.0000</r>
       <r>   1.4215  1.0000</r>
       <r>   1.4215  1.0000</r>
       <r>   1.4215  1.0000</r>
       <r>   2.3476  1.0000</r>
       <r>   2.3477  1.0000</r>
       <r>   2.3477  1.0000</r>
       <r>   2.3477  1.0000</r>
       <r>   2.5796  1.0000</r>
       <r>   2.5796  1.0000</r>
       <r>   2.5796  1.0000</r>
       <r>   2.5796  1.0000</r>
       <r>   2.6656  1.0000</r>
       <r>   3.5280  0.0000</r>
       <r>   3.5280  0.0000</r>
       <r>   3.5280  0.0000</r>
       <r>   3.5280  0.0000</r>
       <r>   5.1635  0.0000</r>
       <r>   5.1635  0.0000</r>
       <r>   5.1636  0.0000</r>
       <r>   5.1636  0.0000</r>
       <r>   5.1720  0.0000</r>
       <r>   5.1720  0.0000</r>
       <r>   5.8041  0.0000</r>
       <r>   5.8041  0.0000</r>
       <r>   5.8041  0.0000</r>
       <r>   5.8042  0.0000</r>
       <r>   6.3779  0.0000</r>
       <r>   6.3779  0.0000</r>
       <r>   6.6238  0.0000</r>
       <r>   6.6238  0.0000</r>
       <r>   6.6286  0.0000</r>
       <r>   6.6286  0.0000</r>
       <r>   7.9501  0.0000</r>
       <r>   7.9501  0.0000</r>
       <r>   7.9501  0.0000</r>
       <r>   7.9501  0.0000</r>
       <r>   8.4977  0.0000</r>
       <r>   8.4977  0.0000</r>
       <r>   8.4977  0.0000</r>
       <r>   8.4977  0.0000</r>
       <r>   8.7581  0.0000</r>
       <r>   8.7581  0.0000</r>
       <r>   8.7581  0.0000</r>
       <r>   8.7581  0.0000</r>
       <r>   9.0099  0.0000</r>
       <r>   9.0099  0.0000</r>
       <r>   9.0100  0.0000</r>
       <r>   9.0117  0.0000</r>
      </set>
      <set comment="kpoint 6">
       <r>  -4.1806  1.0000</r>
       <r>  -3.8145  1.0000</r>
       <r>  -2.3452  1.0000</r>
       <r>  -2.3451  1.0000</r>
       <r>  -2.3451  1.0000</r>
       <r>  -2.3451  1.0000</r>
       <r>  -2.2893  1.0000</r>
       <r>  -2.2892  1.0000</r>
       <r>  -2.2892  1.0000</r>
       <r>  -2.2892  1.0000</r>
       <r>  -2.1507  1.0000</r>
       <r>  -2.1223  1.0000</r>
       <r>  -2.1223  1.0000</r>
       <r>  -2.1223  1.0000</r>
       <r>  -2.1223  1.0000</r>
       <r>  -2.1111  1.0000</r>
       <r>  -2.1042  1.0000</r>
       <r>  -2.1042  1.0000</r>
       <r>  -2.1042  1.0000</r>
       <r>  -2.1041  1.0000</r>
       <r>  -2.0199  1.0000</r>
       <r>  -2.0198  1.0000</r>
       <r>  -1.9401  1.0000</r>
       <r>  -1.8721  1.0000</r>
       <r>  -1.8721  1.0000</r>
       <r>  -1.8332  1.0000</r>
       <r>  -1.8332  1.0000</r>
       <r>  -1.8301  1.0000</r>
       <r>  -1.6920  1.0000</r>
       <r>  -1.6920  1.0000</r>
       <r>  -1.3688  1.0000</r>
       <r>  -1.3681  1.0000</r>
       <r>  -1.3681  1.0000</r>
       <r>  -1.3681  1.0000</r>
       <r>  -1.3666  1.0000</r>
       <r>  -1.3666  1.0000</r>
       <r>  -1.3666  1.0000</r>
       <r>  -1.3660  1.0000</r>
       <r>  -1.3478  1.0000</r>
       <r>  -1.3478  1.0000</r>
       <r>  -1.3478  1.0000</r>
       <r>  -1.3478  1.0000</r>
       <r>  -1.2608  1.0000</r>
       <r>  -1.2608  1.0000</r>
       <r>  -1.2608  1.0000</r>
       <r>  -1.2608  1.0000</r>
       <r>  -1.1065  1.0000</r>
       <r>  -1.1065  1.0000</r>
       <r>  -1.1065  1.0000</r>
       <r>  -1.1065  1.0000</r>
       <r>  -1.0713  1.0000</r>
       <r>  -1.0713  1.0000</r>
       <r>  -1.0713  1.0000</r>
       <r>  -1.0713  1.0000</r>
       <r>  -1.0416  1.0000</r>
       <r>  -0.9769  1.0000</r>
       <r>  -0.9763  1.0000</r>
       <r>  -0.9763  1.0000</r>
       <r>  -0.9763  1.0000</r>
       <r>  -0.9722  1.0000</r>
       <r>  -0.9722  1.0000</r>
       <r>  -0.9722  1.0000</r>
       <r>  -0.9716  1.0000</r>
       <r>  -0.9108  1.0000</r>
       <r>  -0.8752  1.0000</r>
       <r>  -0.8752  1.0000</r>
       <r>  -0.8752  1.0000</r>
       <r>  -0.8752  1.0000</r>
       <r>  -0.8308  1.0000</r>
       <r>  -0.8308  1.0000</r>
       <r>  -0.8308  1.0000</r>
       <r>  -0.8308  1.0000</r>
       <r>  -0.7453  1.0000</r>
       <r>  -0.7453  1.0000</r>
       <r>  -0.7453  1.0000</r>
       <r>  -0.7453  1.0000</r>
       <r>  -0.6362  1.0000</r>
       <r>  -0.6362  1.0000</r>
       <r>  -0.6362  1.0000</r>
       <r>  -0.6361  1.0000</r>
       <r>  -0.6246  1.0000</r>
       <r>  -0.6245  1.0000</r>
       <r>  -0.6245  1.0000</r>
       <r>  -0.6245  1.0000</r>
       <r>  -0.6120  1.0000</r>
       <r>  -0.6120  1.0000</r>
       <r>  -0.4920  1.0000</r>
       <r>  -0.4920  1.0000</r>
       <r>  -0.4920  1.0000</r>
       <r>  -0.4920  1.0000</r>
       <r>  -0.4733  1.0000</r>
       <r>  -0.4733  1.0000</r>
       <r>  -0.0993  1.0000</r>
       <r>  -0.0991  1.0000</r>
       <r>  -0.0991  1.0000</r>
       <r>  -0.0991  1.0000</r>
       <r>  -0.0968  1.0000</r>
       <r>   0.0109  1.0000</r>
       <r>   0.0109  1.0000</r>
       <r>   0.0258  1.0000</r>
       <r>   0.0301  1.0000</r>
       <r>   0.0301  1.0000</r>
       <r>   0.0301  1.0000</r>
       <r>   0.0301  1.0000</r>
       <r>   0.0385  1.0000</r>
       <r>   0.0385  1.0000</r>
       <r>   0.0386  1.0000</r>
       <r>   0.0386  1.0000</r>
       <r>   0.0624  1.0000</r>
       <r>   0.0624  1.0000</r>
       <r>   0.0624  1.0000</r>
       <r>   0.0624  1.0000</r>
       <r>   0.1139  1.0000</r>
       <r>   0.1139  1.0000</r>
       <r>   0.1139  1.0000</r>
       <r>   0.1139  1.0000</r>
       <r>   0.1605  1.0000</r>
       <r>   0.1607  1.0000</r>
       <r>   0.1609  1.0000</r>
       <r>   0.1609  1.0000</r>
       <r>   0.1626  1.0000</r>
       <r>   0.1626  1.0000</r>
       <r>   0.1628  1.0000</r>
       <r>   0.1630  1.0000</r>
       <r>   0.2490  1.0000</r>
       <r>   0.3122  1.0000</r>
       <r>   0.3257  1.0000</r>
       <r>   0.3257  1.0000</r>
       <r>   0.3257  1.0000</r>
       <r>   0.3257  1.0000</r>
       <r>   0.4456  1.0000</r>
       <r>   0.4456  1.0000</r>
       <r>   0.4910  1.0000</r>
       <r>   0.4910  1.0000</r>
       <r>   0.5746  1.0000</r>
       <r>   0.5746  1.0000</r>
       <r>   0.5746  1.0000</r>
       <r>   0.5746  1.0000</r>
       <r>   0.6454  1.0000</r>
       <r>   0.6454  1.0000</r>
       <r>   0.6454  1.0000</r>
       <r>   0.6454  1.0000</r>
       <r>   0.6467  1.0000</r>
       <r>   0.6467  1.0000</r>
       <r>   0.6760  1.0000</r>
       <r>   0.6760  1.0000</r>
       <r>   0.7363  1.0000</r>
       <r>   0.7363  1.0000</r>
       <r>   0.7363  1.0000</r>
       <r>   0.7363  1.0000</r>
       <r>   0.7470  1.0000</r>
       <r>   0.8158  1.0000</r>
       <r>   0.8498  1.0000</r>
       <r>   0.8498  1.0000</r>
       <r>   0.8498  1.0000</r>
       <r>   0.8498  1.0000</r>
       <r>   0.8613  1.0000</r>
       <r>   0.8613  1.0000</r>
       <r>   0.8988  1.0000</r>
       <r>   0.8988  1.0000</r>
       <r>   0.8988  1.0000</r>
       <r>   0.8988  1.0000</r>
       <r>   1.0917  1.0000</r>
       <r>   1.1229  1.0000</r>
       <r>   1.1233  1.0000</r>
       <r>   1.1236  1.0000</r>
       <r>   1.1240  1.0000</r>
       <r>   1.2359  1.0000</r>
       <r>   1.2359  1.0000</r>
       <r>   1.2359  1.0000</r>
       <r>   1.2359  1.0000</r>
[...]
       <r>  -0.0956  1.0000</r>
       <r>  -0.0956  1.0000</r>
       <r>  -0.0953  1.0000</r>
       <r>  -0.0953  1.0000</r>
       <r>  -0.0953  1.0000</r>
       <r>  -0.0953  1.0000</r>
       <r>  -0.0950  1.0000</r>
       <r>  -0.0950  1.0000</r>
       <r>   0.1359  1.0000</r>
       <r>   0.1361  1.0000</r>
       <r>   0.1361  1.0000</r>
       <r>   0.1361  1.0000</r>
       <r>   0.1787  1.0000</r>
       <r>   0.1787  1.0000</r>
       <r>   0.1787  1.0000</r>
       <r>   0.1787  1.0000</r>
       <r>   0.1837  1.0000</r>
       <r>   0.1837  1.0000</r>
       <r>   0.1841  1.0000</r>
       <r>   0.1841  1.0000</r>
       <r>   0.1841  1.0000</r>
       <r>   0.1843  1.0000</r>
       <r>   0.1846  1.0000</r>
       <r>   0.1846  1.0000</r>
       <r>   0.3409  1.0000</r>
       <r>   0.3412  1.0000</r>
       <r>   0.3412  1.0000</r>
       <r>   0.3412  1.0000</r>
       <r>   0.3445  1.0000</r>
       <r>   0.3445  1.0000</r>
       <r>   0.3445  1.0000</r>
       <r>   0.3448  1.0000</r>
       <r>   0.4748  1.0000</r>
       <r>   0.4748  1.0000</r>
       <r>   0.4748  1.0000</r>
       <r>   0.4748  1.0000</r>
       <r>   0.9376  1.0000</r>
       <r>   0.9376  1.0000</r>
       <r>   0.9377  1.0000</r>
       <r>   0.9377  1.0000</r>
       <r>   0.9377  1.0000</r>
       <r>   0.9377  1.0000</r>
       <r>   0.9379  1.0000</r>
       <r>   0.9379  1.0000</r>
       <r>   0.9501  1.0000</r>
       <r>   0.9501  1.0000</r>
       <r>   0.9501  1.0000</r>
       <r>   0.9501  1.0000</r>
       <r>   0.9632  1.0000</r>
       <r>   0.9632  1.0000</r>
       <r>   0.9632  1.0000</r>
       <r>   0.9632  1.0000</r>
       <r>   0.9665  1.0000</r>
       <r>   0.9665  1.0000</r>
       <r>   0.9667  1.0000</r>
       <r>   0.9667  1.0000</r>
       <r>   0.9667  1.0000</r>
       <r>   0.9667  1.0000</r>
       <r>   0.9668  1.0000</r>
       <r>   0.9668  1.0000</r>
       <r>   2.5668  1.0000</r>
       <r>   2.5668  1.0000</r>
       <r>   2.5668  1.0000</r>
       <r>   2.5668  1.0000</r>
       <r>   3.1441  0.0000</r>
       <r>   3.1441  0.0000</r>
       <r>   3.1442  0.0000</r>
       <r>   3.1442  0.0000</r>
       <r>   3.1442  0.0000</r>
       <r>   3.1442  0.0000</r>
       <r>   3.1443  0.0000</r>
       <r>   3.1443  0.0000</r>
       <r>   3.9561  0.0000</r>
       <r>   3.9561  0.0000</r>
       <r>   3.9563  0.0000</r>
       <r>   3.9563  0.0000</r>
       <r>   3.9563  0.0000</r>
       <r>   3.9563  0.0000</r>
       <r>   3.9564  0.0000</r>
       <r>   3.9564  0.0000</r>
       <r>   4.5199  0.0000</r>
       <r>   4.5199  0.0000</r>
       <r>   4.5199  0.0000</r>
       <r>   4.5199  0.0000</r>
       <r>   6.5585  0.0000</r>
       <r>   6.5585  0.0000</r>
       <r>   6.5590  0.0000</r>
       <r>   6.5590  0.0000</r>
       <r>   6.5590  0.0000</r>
       <r>   6.5590  0.0000</r>
       <r>   6.5596  0.0000</r>
       <r>   6.5596  0.0000</r>
       <r>   6.9928  0.0000</r>
       <r>   6.9928  0.0000</r>
       <r>   6.9928  0.0000</r>
       <r>   6.9928  0.0000</r>
       <r>   8.0150  0.0000</r>
       <r>   8.0150  0.0000</r>
       <r>   8.0150  0.0000</r>
       <r>   8.0150  0.0000</r>
       <r>   8.3678  0.0000</r>
       <r>   8.3678  0.0000</r>
       <r>   8.3681  0.0000</r>
       <r>   8.3681  0.0000</r>
       <r>   8.3681  0.0000</r>
       <r>   8.3681  0.0000</r>
       <r>   8.3685  0.0000</r>
       <r>   8.3685  0.0000</r>
      </set>
      <set comment="kpoint 195">
       <r>  -3.2338  1.0000</r>
       <r>  -3.2337  1.0000</r>
       <r>  -3.2337  1.0000</r>
       <r>  -3.2337  1.0000</r>
       <r>  -3.0043  1.0000</r>
       <r>  -3.0043  1.0000</r>
       <r>  -3.0043  1.0000</r>
       <r>  -3.0043  1.0000</r>
       <r>  -1.8911  1.0000</r>
       <r>  -1.8911  1.0000</r>
       <r>  -1.8911  1.0000</r>
       <r>  -1.8911  1.0000</r>
       <r>  -1.8668  1.0000</r>
       <r>  -1.8668  1.0000</r>
       <r>  -1.8666  1.0000</r>
       <r>  -1.8666  1.0000</r>
       <r>  -1.8665  1.0000</r>
       <r>  -1.8665  1.0000</r>
       <r>  -1.8663  1.0000</r>
       <r>  -1.8663  1.0000</r>
       <r>  -1.8510  1.0000</r>
       <r>  -1.8508  1.0000</r>
       <r>  -1.8508  1.0000</r>
       <r>  -1.8503  1.0000</r>
       <r>  -1.8502  1.0000</r>
       <r>  -1.8502  1.0000</r>
       <r>  -1.8499  1.0000</r>
       <r>  -1.8499  1.0000</r>
       <r>  -1.8482  1.0000</r>
       <r>  -1.8480  1.0000</r>
       <r>  -1.8480  1.0000</r>
       <r>  -1.8476  1.0000</r>
       <r>  -1.3052  1.0000</r>
       <r>  -1.3052  1.0000</r>
       <r>  -1.3048  1.0000</r>
       <r>  -1.3048  1.0000</r>
       <r>  -1.3048  1.0000</r>
       <r>  -1.3048  1.0000</r>
       <r>  -1.3044  1.0000</r>
       <r>  -1.3044  1.0000</r>
       <r>  -1.2791  1.0000</r>
       <r>  -1.2790  1.0000</r>
       <r>  -1.2790  1.0000</r>
       <r>  -1.2790  1.0000</r>
       <r>  -1.1499  1.0000</r>
       <r>  -1.1498  1.0000</r>
       <r>  -1.1498  1.0000</r>
       <r>  -1.1497  1.0000</r>
       <r>  -1.1489  1.0000</r>
       <r>  -1.1489  1.0000</r>
       <r>  -1.1486  1.0000</r>
       <r>  -1.1485  1.0000</r>
       <r>  -1.1485  1.0000</r>
       <r>  -1.1484  1.0000</r>
       <r>  -1.1482  1.0000</r>
       <r>  -1.1482  1.0000</r>
       <r>  -0.8199  1.0000</r>
       <r>  -0.8199  1.0000</r>
       <r>  -0.8199  1.0000</r>
       <r>  -0.8199  1.0000</r>
       <r>  -0.7118  1.0000</r>
       <r>  -0.7118  1.0000</r>
       <r>  -0.7118  1.0000</r>
       <r>  -0.7118  1.0000</r>
       <r>  -0.5792  1.0000</r>
       <r>  -0.5792  1.0000</r>
       <r>  -0.5791  1.0000</r>
       <r>  -0.5790  1.0000</r>
       <r>  -0.5775  1.0000</r>
       <r>  -0.5774  1.0000</r>
       <r>  -0.5774  1.0000</r>
       <r>  -0.5774  1.0000</r>
       <r>  -0.5664  1.0000</r>
       <r>  -0.5664  1.0000</r>
       <r>  -0.5661  1.0000</r>
       <r>  -0.5661  1.0000</r>
       <r>  -0.5653  1.0000</r>
       <r>  -0.5652  1.0000</r>
       <r>  -0.5650  1.0000</r>
       <r>  -0.5650  1.0000</r>
       <r>  -0.5174  1.0000</r>
       <r>  -0.5174  1.0000</r>
       <r>  -0.5174  1.0000</r>
       <r>  -0.5174  1.0000</r>
       <r>  -0.4723  1.0000</r>
       <r>  -0.4723  1.0000</r>
       <r>  -0.4711  1.0000</r>
       <r>  -0.4711  1.0000</r>
       <r>  -0.4711  1.0000</r>
       <r>  -0.4711  1.0000</r>
       <r>  -0.4699  1.0000</r>
       <r>  -0.4699  1.0000</r>
       <r>  -0.4056  1.0000</r>
       <r>  -0.4056  1.0000</r>
       <r>  -0.4047  1.0000</r>
       <r>  -0.4047  1.0000</r>
       <r>  -0.4047  1.0000</r>
       <r>  -0.4046  1.0000</r>
       <r>  -0.4037  1.0000</r>
       <r>  -0.4037  1.0000</r>
       <r>  -0.3581  1.0000</r>
       <r>  -0.3581  1.0000</r>
       <r>  -0.3581  1.0000</r>
       <r>  -0.3581  1.0000</r>
       <r>  -0.0815  1.0000</r>
       <r>  -0.0815  1.0000</r>
       <r>  -0.0815  1.0000</r>
       <r>  -0.0815  1.0000</r>
       <r>  -0.0530  1.0000</r>
       <r>  -0.0530  1.0000</r>
       <r>  -0.0526  1.0000</r>
       <r>  -0.0526  1.0000</r>
       <r>  -0.0526  1.0000</r>
       <r>  -0.0526  1.0000</r>
       <r>  -0.0522  1.0000</r>
       <r>  -0.0522  1.0000</r>
       <r>   0.0837  1.0000</r>
       <r>   0.0837  1.0000</r>
       <r>   0.0841  1.0000</r>
       <r>   0.0841  1.0000</r>
       <r>   0.0841  1.0000</r>
       <r>   0.0841  1.0000</r>
       <r>   0.0846  1.0000</r>
       <r>   0.0846  1.0000</r>
       <r>   0.0930  1.0000</r>
       <r>   0.0930  1.0000</r>
       <r>   0.0930  1.0000</r>
       <r>   0.0931  1.0000</r>
       <r>   0.2160  1.0000</r>
       <r>   0.2160  1.0000</r>
       <r>   0.2160  1.0000</r>
       <r>   0.2160  1.0000</r>
       <r>   0.3040  1.0000</r>
       <r>   0.3041  1.0000</r>
       <r>   0.3041  1.0000</r>
       <r>   0.3041  1.0000</r>
       <r>   0.3171  1.0000</r>
       <r>   0.3171  1.0000</r>
       <r>   0.3172  1.0000</r>
       <r>   0.3172  1.0000</r>
       <r>   0.3877  1.0000</r>
       <r>   0.3877  1.0000</r>
       <r>   0.3877  1.0000</r>
       <r>   0.3877  1.0000</r>
       <r>   0.9636  1.0000</r>
       <r>   0.9636  1.0000</r>
       <r>   0.9636  1.0000</r>
       <r>   0.9636  1.0000</r>
       <r>   0.9636  1.0000</r>
       <r>   0.9636  1.0000</r>
       <r>   0.9637  1.0000</r>
       <r>   0.9637  1.0000</r>
       <r>   0.9701  1.0000</r>
       <r>   0.9701  1.0000</r>
       <r>   0.9701  1.0000</r>
       <r>   0.9701  1.0000</r>
       <r>   0.9778  1.0000</r>
       <r>   0.9778  1.0000</r>
       <r>   0.9778  1.0000</r>
       <r>   0.9778  1.0000</r>
       <r>   0.9820  1.0000</r>
       <r>   0.9820  1.0000</r>
       <r>   0.9820  1.0000</r>
       <r>   0.9820  1.0000</r>
       <r>   0.9820  1.0000</r>
       <r>   0.9821  1.0000</r>
       <r>   0.9821  1.0000</r>
       <r>   0.9821  1.0000</r>
       <r>   3.0258  0.0000</r>
       <r>   3.0258  0.0000</r>
       <r>   3.0258  0.0000</r>
       <r>   3.0258  0.0000</r>
       <r>   3.3150  0.0000</r>
       <r>   3.3150  0.0000</r>
       <r>   3.3152  0.0000</r>
       <r>   3.3152  0.0000</r>
       <r>   3.3152  0.0000</r>
       <r>   3.3152  0.0000</r>
       <r>   3.3153  0.0000</r>
       <r>   3.3153  0.0000</r>
       <r>   3.7250  0.0000</r>
       <r>   3.7250  0.0000</r>
       <r>   3.7251  0.0000</r>
       <r>   3.7252  0.0000</r>
       <r>   3.7252  0.0000</r>
       <r>   3.7252  0.0000</r>
       <r>   3.7253  0.0000</r>
       <r>   3.7253  0.0000</r>
       <r>   4.0127  0.0000</r>
       <r>   4.0127  0.0000</r>
       <r>   4.0127  0.0000</r>
       <r>   4.0127  0.0000</r>
       <r>   6.9794  0.0000</r>
       <r>   6.9794  0.0000</r>
       <r>   6.9799  0.0000</r>
       <r>   6.9799  0.0000</r>
       <r>   6.9799  0.0000</r>
       <r>   6.9799  0.0000</r>
       <r>   6.9804  0.0000</r>
       <r>   6.9804  0.0000</r>
       <r>   7.1852  0.0000</r>
       <r>   7.1852  0.0000</r>
       <r>   7.1852  0.0000</r>
       <r>   7.1852  0.0000</r>
       <r>   7.7041  0.0000</r>
       <r>   7.7041  0.0000</r>
       <r>   7.7041  0.0000</r>
       <r>   7.7041  0.0000</r>
       <r>   7.8904  0.0000</r>
       <r>   7.8904  0.0000</r>
       <r>   7.8907  0.0000</r>
       <r>   7.8907  0.0000</r>
       <r>   7.8907  0.0000</r>
       <r>   7.8907  0.0000</r>
       <r>   7.8911  0.0000</r>
       <r>   7.8911  0.0000</r>
      </set>
      <set comment="kpoint 196">
       <r>  -3.1290  1.0000</r>
       <r>  -3.1262  1.0000</r>
       <r>  -3.1262  1.0000</r>
       <r>  -3.1258  1.0000</r>
       <r>  -3.1256  1.0000</r>
       <r>  -3.1252  1.0000</r>
       <r>  -3.1252  1.0000</r>
       <r>  -3.1224  1.0000</r>
       <r>  -1.8644  1.0000</r>
       <r>  -1.8644  1.0000</r>
       <r>  -1.8644  1.0000</r>
       <r>  -1.8643  1.0000</r>
       <r>  -1.8640  1.0000</r>
       <r>  -1.8633  1.0000</r>
       <r>  -1.8627  1.0000</r>
       <r>  -1.8627  1.0000</r>
       <r>  -1.8627  1.0000</r>
       <r>  -1.8626  1.0000</r>
       <r>  -1.8626  1.0000</r>
       <r>  -1.8626  1.0000</r>
       <r>  -1.8625  1.0000</r>
       <r>  -1.8624  1.0000</r>
       <r>  -1.8624  1.0000</r>
       <r>  -1.8624  1.0000</r>
       <r>  -1.8624  1.0000</r>
       <r>  -1.8624  1.0000</r>
       <r>  -1.8619  1.0000</r>
       <r>  -1.8611  1.0000</r>
       <r>  -1.8609  1.0000</r>
       <r>  -1.8607  1.0000</r>
       <r>  -1.8607  1.0000</r>
       <r>  -1.8607  1.0000</r>
       <r>  -1.2233  1.0000</r>
       <r>  -1.2206  1.0000</r>
       <r>  -1.2205  1.0000</r>
       <r>  -1.2203  1.0000</r>
       <r>  -1.2203  1.0000</r>
       <r>  -1.2199  1.0000</r>
       <r>  -1.2196  1.0000</r>
       <r>  -1.2196  1.0000</r>
       <r>  -1.2194  1.0000</r>
       <r>  -1.2194  1.0000</r>
       <r>  -1.2194  1.0000</r>
       <r>  -1.2194  1.0000</r>
       <r>  -1.2193  1.0000</r>
       <r>  -1.2193  1.0000</r>
       <r>  -1.2193  1.0000</r>
       <r>  -1.2193  1.0000</r>
       <r>  -1.2191  1.0000</r>
       <r>  -1.2191  1.0000</r>
       <r>  -1.2188  1.0000</r>
       <r>  -1.2184  1.0000</r>
       <r>  -1.2184  1.0000</r>
       <r>  -1.2182  1.0000</r>
       <r>  -1.2181  1.0000</r>
       <r>  -1.2154  1.0000</r>
       <r>  -0.7610  1.0000</r>
       <r>  -0.7599  1.0000</r>
       <r>  -0.7595  1.0000</r>
       <r>  -0.7595  1.0000</r>
       <r>  -0.7592  1.0000</r>
       <r>  -0.7592  1.0000</r>
       <r>  -0.7587  1.0000</r>
       <r>  -0.7577  1.0000</r>
       <r>  -0.5772  1.0000</r>
       <r>  -0.5772  1.0000</r>
       <r>  -0.5769  1.0000</r>
       <r>  -0.5767  1.0000</r>
       <r>  -0.5763  1.0000</r>
       <r>  -0.5762  1.0000</r>
       <r>  -0.5762  1.0000</r>
       <r>  -0.5762  1.0000</r>
       <r>  -0.5759  1.0000</r>
       <r>  -0.5759  1.0000</r>
       <r>  -0.5759  1.0000</r>
       <r>  -0.5758  1.0000</r>
       <r>  -0.5754  1.0000</r>
       <r>  -0.5753  1.0000</r>
       <r>  -0.5750  1.0000</r>
       <r>  -0.5750  1.0000</r>
       <r>  -0.4427  1.0000</r>
       <r>  -0.4427  1.0000</r>
       <r>  -0.4421  1.0000</r>
       <r>  -0.4415  1.0000</r>
       <r>  -0.4403  1.0000</r>
       <r>  -0.4398  1.0000</r>
       <r>  -0.4398  1.0000</r>
       <r>  -0.4398  1.0000</r>
       <r>  -0.4397  1.0000</r>
       <r>  -0.4397  1.0000</r>
       <r>  -0.4397  1.0000</r>
       <r>  -0.4397  1.0000</r>
       <r>  -0.4396  1.0000</r>
       <r>  -0.4396  1.0000</r>
       <r>  -0.4396  1.0000</r>
       <r>  -0.4396  1.0000</r>
       <r>  -0.4395  1.0000</r>
       <r>  -0.4395  1.0000</r>
       <r>  -0.4395  1.0000</r>
       <r>  -0.4390  1.0000</r>
       <r>  -0.4378  1.0000</r>
       <r>  -0.4372  1.0000</r>
       <r>  -0.4365  1.0000</r>
       <r>  -0.4365  1.0000</r>
       <r>   0.0021  1.0000</r>
       <r>   0.0031  1.0000</r>
       <r>   0.0031  1.0000</r>
       <r>   0.0047  1.0000</r>
       <r>   0.0049  1.0000</r>
       <r>   0.0050  1.0000</r>
       <r>   0.0050  1.0000</r>
       <r>   0.0051  1.0000</r>
       <r>   0.0052  1.0000</r>
       <r>   0.0053  1.0000</r>
       <r>   0.0053  1.0000</r>
       <r>   0.0053  1.0000</r>
       <r>   0.0054  1.0000</r>
       <r>   0.0054  1.0000</r>
       <r>   0.0054  1.0000</r>
       <r>   0.0054  1.0000</r>
       <r>   0.0055  1.0000</r>
       <r>   0.0057  1.0000</r>
       <r>   0.0057  1.0000</r>
       <r>   0.0058  1.0000</r>
       <r>   0.0059  1.0000</r>
       <r>   0.0075  1.0000</r>
       <r>   0.0075  1.0000</r>
       <r>   0.0085  1.0000</r>
       <r>   0.2985  1.0000</r>
       <r>   0.2996  1.0000</r>
       <r>   0.2996  1.0000</r>
       <r>   0.2996  1.0000</r>
       <r>   0.3004  1.0000</r>
       <r>   0.3004  1.0000</r>
       <r>   0.3006  1.0000</r>
       <r>   0.3006  1.0000</r>
       <r>   0.3007  1.0000</r>
       <r>   0.3008  1.0000</r>
       <r>   0.3010  1.0000</r>
       <r>   0.3010  1.0000</r>
       <r>   0.3018  1.0000</r>
       <r>   0.3018  1.0000</r>
       <r>   0.3018  1.0000</r>
       <r>   0.3029  1.0000</r>
       <r>   0.9792  1.0000</r>
       <r>   0.9792  1.0000</r>
       <r>   0.9794  1.0000</r>
       <r>   0.9795  1.0000</r>
       <r>   0.9796  1.0000</r>
       <r>   0.9796  1.0000</r>
       <r>   0.9796  1.0000</r>
       <r>   0.9796  1.0000</r>
       <r>   0.9797  1.0000</r>
       <r>   0.9798  1.0000</r>
       <r>   0.9798  1.0000</r>
       <r>   0.9798  1.0000</r>
       <r>   0.9799  1.0000</r>
       <r>   0.9800  1.0000</r>
       <r>   0.9800  1.0000</r>
       <r>   0.9800  1.0000</r>
       <r>   0.9801  1.0000</r>
       <r>   0.9801  1.0000</r>
       <r>   0.9801  1.0000</r>
       <r>   0.9801  1.0000</r>
       <r>   0.9802  1.0000</r>
       <r>   0.9803  1.0000</r>
       <r>   0.9805  1.0000</r>
       <r>   0.9805  1.0000</r>
       <r>   3.5044  0.0000</r>
       <r>   3.5082  0.0000</r>
       <r>   3.5082  0.0000</r>
       <r>   3.5096  0.0000</r>
       <r>   3.5099  0.0000</r>
       <r>   3.5101  0.0000</r>
       <r>   3.5101  0.0000</r>
       <r>   3.5102  0.0000</r>
       <r>   3.5102  0.0000</r>
       <r>   3.5102  0.0000</r>
       <r>   3.5102  0.0000</r>
       <r>   3.5103  0.0000</r>
       <r>   3.5104  0.0000</r>
       <r>   3.5104  0.0000</r>
       <r>   3.5105  0.0000</r>
       <r>   3.5105  0.0000</r>
       <r>   3.5105  0.0000</r>
       <r>   3.5105  0.0000</r>
       <r>   3.5105  0.0000</r>
       <r>   3.5107  0.0000</r>
       <r>   3.5111  0.0000</r>
       <r>   3.5125  0.0000</r>
       <r>   3.5125  0.0000</r>
       <r>   3.5163  0.0000</r>
       <r>   7.4213  0.0000</r>
       <r>   7.4213  0.0000</r>
       <r>   7.4226  0.0000</r>
       <r>   7.4241  0.0000</r>
       <r>   7.4245  0.0000</r>
       <r>   7.4249  0.0000</r>
       <r>   7.4249  0.0000</r>
       <r>   7.4252  0.0000</r>
       <r>   7.4253  0.0000</r>
       <r>   7.4253  0.0000</r>
       <r>   7.4253  0.0000</r>
       <r>   7.4254  0.0000</r>
       <r>   7.4254  0.0000</r>
       <r>   7.4254  0.0000</r>
       <r>   7.4255  0.0000</r>
       <r>   7.4255  0.0000</r>
       <r>   7.4256  0.0000</r>
       <r>   7.4259  0.0000</r>
       <r>   7.4259  0.0000</r>
       <r>   7.4262  0.0000</r>
       <r>   7.4267  0.0000</r>
       <r>   7.4282  0.0000</r>
       <r>   7.4295  0.0000</r>
       <r>   7.4295  0.0000</r>
      </set>
     </set>
    </set>
   </array>
  </eigenvalues>
 </calculation>
 <structure name="finalpos" >
  <crystal>
   <varray name="basis" >
    <v>       8.92990307      0.00000000      0.00000000</v>
    <v>       0.00000000      8.92990307      0.00000000</v>
    <v>       0.00000000      0.00000000      8.92990307</v>
   </varray>
   <i name="volume">    712.09876846</i>
   <varray name="rec_basis" >
    <v>       0.11198330      0.00000000      0.00000000</v>
    <v>       0.00000000      0.11198330      0.00000000</v>
    <v>       0.00000000      0.00000000      0.11198330</v>
   </varray>
  </crystal>
  <varray name="positions" >
   <v>       0.00111983      0.00000000      0.00000000</v>
   <v>       0.50000000      0.00000000      0.00000000</v>
   <v>       0.00000000      0.50000000      0.00000000</v>
   <v>       0.50000000      0.50000000      0.00000000</v>
   <v>       0.00000000      0.00000000      0.50000000</v>
   <v>       0.50000000      0.00000000      0.50000000</v>
   <v>       0.00000000      0.50000000      0.50000000</v>
   <v>       0.50000000      0.50000000      0.50000000</v>
   <v>       0.25000000      0.25000000      0.00000000</v>
   <v>       0.75000000      0.25000000      0.00000000</v>
   <v>       0.25000000      0.75000000      0.00000000</v>
   <v>       0.75000000      0.75000000      0.00000000</v>
   <v>       0.25000000      0.25000000      0.50000000</v>
   <v>       0.75000000      0.25000000      0.50000000</v>
   <v>       0.25000000      0.75000000      0.50000000</v>
   <v>       0.75000000      0.75000000      0.50000000</v>
   <v>       0.25000000      0.00000000      0.25000000</v>
   <v>       0.75000000      0.00000000      0.25000000</v>
   <v>       0.25000000      0.50000000      0.25000000</v>
   <v>       0.75000000      0.50000000      0.25000000</v>
   <v>       0.25000000      0.00000000      0.75000000</v>
   <v>       0.75000000      0.00000000      0.75000000</v>
   <v>       0.25000000      0.50000000      0.75000000</v>
   <v>       0.75000000      0.50000000      0.75000000</v>
   <v>       0.00000000      0.25000000      0.25000000</v>
   <v>       0.50000000      0.25000000      0.25000000</v>
   <v>       0.00000000      0.75000000      0.25000000</v>
   <v>       0.50000000      0.75000000      0.25000000</v>
   <v>       0.00000000      0.25000000      0.75000000</v>
   <v>       0.50000000      0.25000000      0.75000000</v>
   <v>       0.00000000      0.75000000      0.75000000</v>
   <v>       0.50000000      0.75000000      0.75000000</v>
  </varray>
 </structure>
</modeling>
