nqpoint: 153    
npath: 3      
segment_nqpoint:
- 51
- 51
- 51
reciprocal_lattice:
- [   0.24762839,   0.00000000,   0.00000000 ] # a*
- [   0.00000000,   0.24762839,   0.00000000 ] # b*
- [   0.00000000,   0.00000000,   0.24762839 ] # c*
natom: 4      
lattice:
- [     4.038309097300000,     0.000000000000000,     0.000000000000000 ] # a
- [     0.000000000000000,     4.038309097300000,     0.000000000000000 ] # b
- [     0.000000000000000,     0.000000000000000,     4.038309097299999 ] # c
points:
- symbol: Al # 1
  coordinates: [  0.500000000000000,  0.500000000000000,  0.000000000000000 ]
  mass: 26.981539
- symbol: Al # 2
  coordinates: [  0.500000000000000,  0.000000000000000,  0.500000000000000 ]
  mass: 26.981539
- symbol: Al # 3
  coordinates: [  0.000000000000000,  0.500000000000000,  0.500000000000000 ]
  mass: 26.981539
- symbol: Al # 4
  coordinates: [  0.000000000000000,  0.000000000000000,  0.000000000000000 ]
  mass: 26.981539
supercell_matrix:
- [    4,    0,    0 ]
- [    0,    4,    0 ]
- [    0,    0,    9 ]

phonon:
- q-position: [    0.5000000,    0.5000000,    0.5000000 ]
  distance:    0.0000000
  band:
  - # 1
    frequency:    4.2457465042
  - # 2
    frequency:    4.2457465042
  - # 3
    frequency:    4.2457465042
  - # 4
    frequency:    4.2457465042
  - # 5
    frequency:    4.2988241364
  - # 6
    frequency:    4.2988241364
  - # 7
    frequency:    4.2988241364
  - # 8
    frequency:    4.2988241364
  - # 9
    frequency:    9.6717027177
  - # 10
    frequency:    9.6717027177
  - # 11
    frequency:    9.6717027177
  - # 12
    frequency:    9.6717027177

- q-position: [    0.4900000,    0.4900000,    0.4900000 ]
  distance:    0.0042890
  band:
  - # 1
    frequency:    4.2431926322
  - # 2
    frequency:    4.2493074648
  - # 3
    frequency:    4.2508472628
  - # 4
    frequency:    4.2508472628
  - # 5
    frequency:    4.2971256300
  - # 6
    frequency:    4.3023251680
  - # 7
    frequency:    4.3023251680
  - # 8
    frequency:    4.3049747577
  - # 9
    frequency:    9.6658079812
  - # 10
    frequency:    9.6691589458
  - # 11
    frequency:    9.6691589458
  - # 12
    frequency:    9.6700437197

- q-position: [    0.4800000,    0.4800000,    0.4800000 ]
  distance:    0.0085781
  band:
  - # 1
    frequency:    4.2355378828
  - # 2
    frequency:    4.2598993226
  - # 3
    frequency:    4.2649089171
  - # 4
    frequency:    4.2649089171
  - # 5
    frequency:    4.2920368833
  - # 6
    frequency:    4.3139256878
  - # 7
    frequency:    4.3139256878
  - # 8
    frequency:    4.3233062576
  - # 9
    frequency:    9.6481414585
  - # 10
    frequency:    9.6615352762
  - # 11
    frequency:    9.6615352762
  - # 12
    frequency:    9.6650546307

- q-position: [    0.4700000,    0.4700000,    0.4700000 ]
  distance:    0.0128671
  band:
  - # 1
    frequency:    4.2228028043
  - # 2
    frequency:    4.2772535516
  - # 3
    frequency:    4.2835779422
  - # 4
    frequency:    4.2840344689
  - # 5
    frequency:    4.2840344689
  - # 6
    frequency:    4.3371002191
  - # 7
    frequency:    4.3371002191
  - # 8
    frequency:    4.3534642273
  - # 9
    frequency:    9.6187560361
  - # 10
    frequency:    9.6488550208
  - # 11
    frequency:    9.6488550208
  - # 12
    frequency:    9.6567001165

- q-position: [    0.4600000,    0.4600000,    0.4600000 ]
  distance:    0.0171562
  band:
  - # 1
    frequency:    4.2050214738
  - # 2
    frequency:    4.2717813152
  - # 3
    frequency:    4.3009373521
  - # 4
    frequency:    4.3041554389
  - # 5
    frequency:    4.3041554389
  - # 6
    frequency:    4.3752360115
  - # 7
    frequency:    4.3752360115
  - # 8
    frequency:    4.3948794440
  - # 9
    frequency:    9.5777392822
  - # 10
    frequency:    9.6311582800
  - # 11
    frequency:    9.6311582800
  - # 12
    frequency:    9.6449244328

- q-position: [    0.4500000,    0.4500000,    0.4500000 ]
  distance:    0.0214452
  band:
  - # 1
    frequency:    4.1822412438
  - # 2
    frequency:    4.2566906449
  - # 3
    frequency:    4.3248725490
  - # 4
    frequency:    4.3248725490
  - # 5
    frequency:    4.3303743855
  - # 6
    frequency:    4.4278239963
  - # 7
    frequency:    4.4278239963
  - # 8
    frequency:    4.4467973638
  - # 9
    frequency:    9.5252125939
  - # 10
    frequency:    9.6085038133
  - # 11
    frequency:    9.6085038133
  - # 12
    frequency:    9.6296560725

- q-position: [    0.4400000,    0.4400000,    0.4400000 ]
  distance:    0.0257343
  band:
  - # 1
    frequency:    4.1545223916
  - # 2
    frequency:    4.2383588960
  - # 3
    frequency:    4.3472622779
  - # 4
    frequency:    4.3472622779
  - # 5
    frequency:    4.3648712768
  - # 6
    frequency:    4.4926916541
  - # 7
    frequency:    4.4926916541
  - # 8
    frequency:    4.5083145818
  - # 9
    frequency:    9.4613300232
  - # 10
    frequency:    9.5809716669
  - # 11
    frequency:    9.5809716669
  - # 12
    frequency:    9.6108141316

- q-position: [    0.4300000,    0.4300000,    0.4300000 ]
  distance:    0.0300233
  band:
  - # 1
    frequency:    4.1219376747
  - # 2
    frequency:    4.2168461035
  - # 3
    frequency:    4.3718775433
  - # 4
    frequency:    4.3718775433
  - # 5
    frequency:    4.4036478376
  - # 6
    frequency:    4.5680457614
  - # 7
    frequency:    4.5680457614
  - # 8
    frequency:    4.5784185500
  - # 9
    frequency:    9.3862768048
  - # 10
    frequency:    9.5486665668
  - # 11
    frequency:    9.5486665668
  - # 12
    frequency:    9.5883162673

- q-position: [    0.4200000,    0.4200000,    0.4200000 ]
  distance:    0.0343124
  band:
  - # 1
    frequency:    4.0845717974
  - # 2
    frequency:    4.1922167459
  - # 3
    frequency:    4.3988072490
  - # 4
    frequency:    4.3988072490
  - # 5
    frequency:    4.4458689257
  - # 6
    frequency:    4.6524566103
  - # 7
    frequency:    4.6524566103
  - # 8
    frequency:    4.6560270122
  - # 9
    frequency:    9.3002676077
  - # 10
    frequency:    9.5117221047
  - # 11
    frequency:    9.5117221047
  - # 12
    frequency:    9.5620881014

- q-position: [    0.4100000,    0.4100000,    0.4100000 ]
  distance:    0.0386014
  band:
  - # 1
    frequency:    4.0425207942
  - # 2
    frequency:    4.1645368133
  - # 3
    frequency:    4.4279212667
  - # 4
    frequency:    4.4279212667
  - # 5
    frequency:    4.4906760530
  - # 6
    frequency:    4.7400241948
  - # 7
    frequency:    4.7446539925
  - # 8
    frequency:    4.7446539925
  - # 9
    frequency:    9.2035445441
  - # 10
    frequency:    9.4703057611
  - # 11
    frequency:    9.4703057611
  - # 12
    frequency:    9.5320739127

- q-position: [    0.4000000,    0.4000000,    0.4000000 ]
  distance:    0.0428905
  band:
  - # 1
    frequency:    3.9958913365
  - # 2
    frequency:    4.1338706584
  - # 3
    frequency:    4.4589925646
  - # 4
    frequency:    4.4589925646
  - # 5
    frequency:    4.5372171967
  - # 6
    frequency:    4.8292915996
  - # 7
    frequency:    4.8434408493
  - # 8
    frequency:    4.8434408493
  - # 9
    frequency:    9.0963749643
  - # 10
    frequency:    9.4246248368
  - # 11
    frequency:    9.4246248368
  - # 12
    frequency:    9.4982484652

- q-position: [    0.3900000,    0.3900000,    0.3900000 ]
  distance:    0.0471795
  band:
  - # 1
    frequency:    3.9447999701
  - # 2
    frequency:    4.1002777280
  - # 3
    frequency:    4.4917538201
  - # 4
    frequency:    4.4917538201
  - # 5
    frequency:    4.5846736796
  - # 6
    frequency:    4.9227320626
  - # 7
    frequency:    4.9476656525
  - # 8
    frequency:    4.9476656525
  - # 9
    frequency:    8.9790490774
  - # 10
    frequency:    9.3749334035
  - # 11
    frequency:    9.3749334035
  - # 12
    frequency:    9.4606298297

- q-position: [    0.3800000,    0.3800000,    0.3800000 ]
  distance:    0.0514686
  band:
  - # 1
    frequency:    3.8893722921
  - # 2
    frequency:    4.0638092804
  - # 3
    frequency:    4.5259266583
  - # 4
    frequency:    4.5259266583
  - # 5
    frequency:    4.6322833888
  - # 6
    frequency:    5.0192864577
  - # 7
    frequency:    5.0562144532
  - # 8
    frequency:    5.0562144532
  - # 9
    frequency:    8.8518774329
  - # 10
    frequency:    9.3215404313
  - # 11
    frequency:    9.3215404313
  - # 12
    frequency:    9.4192930777

- q-position: [    0.3700000,    0.3700000,    0.3700000 ]
  distance:    0.0557576
  band:
  - # 1
    frequency:    3.8297420747
  - # 2
    frequency:    4.0245052056
  - # 3
    frequency:    4.5612388138
  - # 4
    frequency:    4.5612388138
  - # 5
    frequency:    4.6793599541
  - # 6
    frequency:    5.1179429592
  - # 7
    frequency:    5.1680069020
  - # 8
    frequency:    5.1680069020
  - # 9
    frequency:    8.7151883015
  - # 10
    frequency:    9.2648193060
  - # 11
    frequency:    9.2648193060
  - # 12
    frequency:    9.3743847464

- q-position: [    0.3600000,    0.3600000,    0.3600000 ]
  distance:    0.0600467
  band:
  - # 1
    frequency:    3.7660503470
  - # 2
    frequency:    3.9823910627
  - # 3
    frequency:    4.5974351891
  - # 4
    frequency:    4.5974351891
  - # 5
    frequency:    4.7253077724
  - # 6
    frequency:    5.2177391396
  - # 7
    frequency:    5.2819902051
  - # 8
    frequency:    5.2819902051
  - # 9
    frequency:    8.5693249954
  - # 10
    frequency:    9.2052190070
  - # 11
    frequency:    9.2052190070
  - # 12
    frequency:    9.3261379915

- q-position: [    0.3500000,    0.3500000,    0.3500000 ]
  distance:    0.0643357
  band:
  - # 1
    frequency:    3.6984444427
  - # 2
    frequency:    3.9374754545
  - # 3
    frequency:    4.6342852549
  - # 4
    frequency:    4.6342852549
  - # 5
    frequency:    4.7696329522
  - # 6
    frequency:    5.3177574097
  - # 7
    frequency:    5.3971287063
  - # 8
    frequency:    5.3971287063
  - # 9
    frequency:    8.4146431640
  - # 10
    frequency:    9.1432772627
  - # 11
    frequency:    9.1432772627
  - # 12
    frequency:    9.2748883335

- q-position: [    0.3400000,    0.3400000,    0.3400000 ]
  distance:    0.0686248
  band:
  - # 1
    frequency:    3.6270770254
  - # 2
    frequency:    3.8897478507
  - # 3
    frequency:    4.6715878739
  - # 4
    frequency:    4.6715878739
  - # 5
    frequency:    4.8119503590
  - # 6
    frequency:    5.4171144679
  - # 7
    frequency:    5.5123882781
  - # 8
    frequency:    5.5123882781
  - # 9
    frequency:    8.2515081018
  - # 10
    frequency:    9.0796359994
  - # 11
    frequency:    9.0796359994
  - # 12
    frequency:    9.2210898510

- q-position: [    0.3300000,    0.3300000,    0.3300000 ]
  distance:    0.0729138
  band:
  - # 1
    frequency:    3.5521051003
  - # 2
    frequency:    3.8391769624
  - # 3
    frequency:    4.7091740740
  - # 4
    frequency:    4.7091740740
  - # 5
    frequency:    4.8519869996
  - # 6
    frequency:    5.5149456061
  - # 7
    frequency:    5.6267154122
  - # 8
    frequency:    5.6267154122
  - # 9
    frequency:    8.0802921022
  - # 10
    frequency:    9.0150592926
  - # 11
    frequency:    9.0150592926
  - # 12
    frequency:    9.1653315253

- q-position: [    0.3200000,    0.3200000,    0.3200000 ]
  distance:    0.0772029
  band:
  - # 1
    frequency:    3.4736890231
  - # 2
    frequency:    3.7857097563
  - # 3
    frequency:    4.7469080755
  - # 4
    frequency:    4.7469080755
  - # 5
    frequency:    4.8895819945
  - # 6
    frequency:    5.6103850115
  - # 7
    frequency:    5.7390114597
  - # 8
    frequency:    5.7390114597
  - # 9
    frequency:    7.9013718888
  - # 10
    frequency:    8.9504536986
  - # 11
    frequency:    8.9504536986
  - # 12
    frequency:    9.1083531451

- q-position: [    0.3100000,    0.3100000,    0.3100000 ]
  distance:    0.0814919
  band:
  - # 1
    frequency:    3.3919915165
  - # 2
    frequency:    3.7292711771
  - # 3
    frequency:    4.7846867835
  - # 4
    frequency:    4.7846867835
  - # 5
    frequency:    4.9246833834
  - # 6
    frequency:    5.7025437262
  - # 7
    frequency:    5.8481032960
  - # 8
    frequency:    5.8481032960
  - # 9
    frequency:    7.7151261520
  - # 10
    frequency:    8.8868900923
  - # 11
    frequency:    8.8868900923
  - # 12
    frequency:    9.0510596345

- q-position: [    0.3000000,    0.3000000,    0.3000000 ]
  distance:    0.0857810
  band:
  - # 1
    frequency:    3.3071767030
  - # 2
    frequency:    3.6697646236
  - # 3
    frequency:    4.8224379260
  - # 4
    frequency:    4.8224379260
  - # 5
    frequency:    4.9573419988
  - # 6
    frequency:    5.7904877965
  - # 7
    frequency:    5.9527131669
  - # 8
    frequency:    5.9527131669
  - # 9
    frequency:    7.5219332144
  - # 10
    frequency:    8.8256246593
  - # 11
    frequency:    8.8256246593
  - # 12
    frequency:    8.9945317809

- q-position: [    0.2900000,    0.2900000,    0.2900000 ]
  distance:    0.0900700
  band:
  - # 1
    frequency:    3.2194091660
  - # 2
    frequency:    3.6070731972
  - # 3
    frequency:    4.8601170156
  - # 4
    frequency:    4.8601170156
  - # 5
    frequency:    4.9877026353
  - # 6
    frequency:    5.8732204587
  - # 7
    frequency:    6.0514330465
  - # 8
    frequency:    6.0514330465
  - # 9
    frequency:    7.3221688480
  - # 10
    frequency:    8.7681141029
  - # 11
    frequency:    8.7681141029
  - # 12
    frequency:    8.9400300058

- q-position: [    0.2800000,    0.2800000,    0.2800000 ]
  distance:    0.0943591
  band:
  - # 1
    frequency:    3.1288530445
  - # 2
    frequency:    3.5410617154
  - # 3
    frequency:    4.8977033159
  - # 4
    frequency:    4.8977033159
  - # 5
    frequency:    5.0159927517
  - # 6
    frequency:    5.9496739568
  - # 7
    frequency:    6.1427127886
  - # 8
    frequency:    6.1427127886
  - # 9
    frequency:    7.1162042586
  - # 10
    frequency:    8.7160161495
  - # 11
    frequency:    8.7160161495
  - # 12
    frequency:    8.8889860710

- q-position: [    0.2700000,    0.2700000,    0.2700000 ]
  distance:    0.0986481
  band:
  - # 1
    frequency:    3.0356711736
  - # 2
    frequency:    3.4715794515
  - # 3
    frequency:    4.9351950092
  - # 4
    frequency:    4.9351950092
  - # 5
    frequency:    5.0425089692
  - # 6
    frequency:    6.0187184227
  - # 7
    frequency:    6.2248763387
  - # 8
    frequency:    6.2248763387
  - # 9
    frequency:    6.9044042516
  - # 10
    frequency:    8.6711614293
  - # 11
    frequency:    8.6711614293
  - # 12
    frequency:    8.8429757735

- q-position: [    0.2600000,    0.2600000,    0.2600000 ]
  distance:    0.1029372
  band:
  - # 1
    frequency:    2.9400242758
  - # 2
    frequency:    3.3984635396
  - # 3
    frequency:    4.9726037694
  - # 4
    frequency:    4.9726037694
  - # 5
    frequency:    5.0676016756
  - # 6
    frequency:    6.0791962899
  - # 7
    frequency:    6.2961842358
  - # 8
    frequency:    6.2961842358
  - # 9
    frequency:    6.6871255905
  - # 10
    frequency:    8.6354788248
  - # 11
    frequency:    8.6354788248
  - # 12
    frequency:    8.8036646462

- q-position: [    0.2500000,    0.2500000,    0.2500000 ]
  distance:    0.1072262
  band:
  - # 1
    frequency:    2.8420702117
  - # 2
    frequency:    3.3215429542
  - # 3
    frequency:    5.0099489589
  - # 4
    frequency:    5.0099489589
  - # 5
    frequency:    5.0916581095
  - # 6
    frequency:    6.1299892867
  - # 7
    frequency:    6.3549587157
  - # 8
    frequency:    6.3549587157
  - # 9
    frequency:    6.4647155531
  - # 10
    frequency:    8.6108582761
  - # 11
    frequency:    8.6108582761
  - # 12
    frequency:    8.7727201069

- q-position: [    0.2400000,    0.2400000,    0.2400000 ]
  distance:    0.1115153
  band:
  - # 1
    frequency:    2.7419632943
  - # 2
    frequency:    3.2406429589
  - # 3
    frequency:    5.0472516721
  - # 4
    frequency:    5.0472516721
  - # 5
    frequency:    5.1150843761
  - # 6
    frequency:    6.1701191462
  - # 7
    frequency:    6.2375106917
  - # 8
    frequency:    6.3997730627
  - # 9
    frequency:    6.3997730627
  - # 10
    frequency:    8.5989496792
  - # 11
    frequency:    8.5989496792
  - # 12
    frequency:    8.7516894031

- q-position: [    0.2300000,    0.2300000,    0.2300000 ]
  distance:    0.1158043
  band:
  - # 1
    frequency:    2.6398536741
  - # 2
    frequency:    3.1555899003
  - # 3
    frequency:    5.0845288513
  - # 4
    frequency:    5.0845288513
  - # 5
    frequency:    5.1382869288
  - # 6
    frequency:    6.0058357981
  - # 7
    frequency:    6.1988718911
  - # 8
    frequency:    6.4296764916
  - # 9
    frequency:    6.4296764916
  - # 10
    frequency:    8.6009268523
  - # 11
    frequency:    8.6009268523
  - # 12
    frequency:    8.7418539770

- q-position: [    0.2200000,    0.2200000,    0.2200000 ]
  distance:    0.1200934
  band:
  - # 1
    frequency:    2.5358867968
  - # 2
    frequency:    3.0662162130
  - # 3
    frequency:    5.1217876954
  - # 4
    frequency:    5.1217876954
  - # 5
    frequency:    5.1616541263
  - # 6
    frequency:    5.7700030721
  - # 7
    frequency:    6.2159215521
  - # 8
    frequency:    6.4443910470
  - # 9
    frequency:    6.4443910470
  - # 10
    frequency:    8.6172803143
  - # 11
    frequency:    8.6172803143
  - # 12
    frequency:    8.7440848607

- q-position: [    0.2100000,    0.2100000,    0.2100000 ]
  distance:    0.1243824
  band:
  - # 1
    frequency:    2.4302029375
  - # 2
    frequency:    2.9723654984
  - # 3
    frequency:    5.1590205704
  - # 4
    frequency:    5.1590205704
  - # 5
    frequency:    5.1855385356
  - # 6
    frequency:    5.5303114926
  - # 7
    frequency:    6.2214197722
  - # 8
    frequency:    6.4444051314
  - # 9
    frequency:    6.4444051314
  - # 10
    frequency:    8.6477144706
  - # 11
    frequency:    8.6477144706
  - # 12
    frequency:    8.7587331105

- q-position: [    0.2000000,    0.2000000,    0.2000000 ]
  distance:    0.1286715
  band:
  - # 1
    frequency:    2.3229368135
  - # 2
    frequency:    2.8738975407
  - # 3
    frequency:    5.1962006095
  - # 4
    frequency:    5.1962006095
  - # 5
    frequency:    5.2102406743
  - # 6
    frequency:    5.2870463850
  - # 7
    frequency:    6.2160213763
  - # 8
    frequency:    6.4309208915
  - # 9
    frequency:    6.4309208915
  - # 10
    frequency:    8.6911921471
  - # 11
    frequency:    8.6911921471
  - # 12
    frequency:    8.7855856510

- q-position: [    0.1900000,    0.1900000,    0.1900000 ]
  distance:    0.1329605
  band:
  - # 1
    frequency:    2.2142172751
  - # 2
    frequency:    2.7706931281
  - # 3
    frequency:    5.0404791811
  - # 4
    frequency:    5.2332781655
  - # 5
    frequency:    5.2332781655
  - # 6
    frequency:    5.2359948764
  - # 7
    frequency:    6.2008346217
  - # 8
    frequency:    6.4056755172
  - # 9
    frequency:    6.4056755172
  - # 10
    frequency:    8.7461065587
  - # 11
    frequency:    8.7461065587
  - # 12
    frequency:    8.8238982524

- q-position: [    0.1800000,    0.1800000,    0.1800000 ]
  distance:    0.1372496
  band:
  - # 1
    frequency:    2.1041670755
  - # 2
    frequency:    2.6626585582
  - # 3
    frequency:    4.7908673626
  - # 4
    frequency:    5.2629578993
  - # 5
    frequency:    5.2701782406
  - # 6
    frequency:    5.2701782406
  - # 7
    frequency:    6.1773096975
  - # 8
    frequency:    6.3707051546
  - # 9
    frequency:    6.3707051546
  - # 10
    frequency:    8.8105121192
  - # 11
    frequency:    8.8105121192
  - # 12
    frequency:    8.8724925115

- q-position: [    0.1700000,    0.1700000,    0.1700000 ]
  distance:    0.1415386
  band:
  - # 1
    frequency:    1.9929027176
  - # 2
    frequency:    2.5497297192
  - # 3
    frequency:    4.5384545796
  - # 4
    frequency:    5.2912007799
  - # 5
    frequency:    5.3067989829
  - # 6
    frequency:    5.3067989829
  - # 7
    frequency:    6.1470963419
  - # 8
    frequency:    6.3281245106
  - # 9
    frequency:    6.3281245106
  - # 10
    frequency:    8.8823410846
  - # 11
    frequency:    8.8823410846
  - # 12
    frequency:    8.9298863935

- q-position: [    0.1600000,    0.1600000,    0.1600000 ]
  distance:    0.1458277
  band:
  - # 1
    frequency:    1.8805343752
  - # 2
    frequency:    2.4318756565
  - # 3
    frequency:    4.2834709348
  - # 4
    frequency:    5.3207042927
  - # 5
    frequency:    5.3430112920
  - # 6
    frequency:    5.3430112920
  - # 7
    frequency:    6.1119035469
  - # 8
    frequency:    6.2799652696
  - # 9
    frequency:    6.2799652696
  - # 10
    frequency:    8.9595629535
  - # 11
    frequency:    8.9595629535
  - # 12
    frequency:    8.9944257815

- q-position: [    0.1500000,    0.1500000,    0.1500000 ]
  distance:    0.1501167
  band:
  - # 1
    frequency:    1.7671658869
  - # 2
    frequency:    2.3091015480
  - # 3
    frequency:    4.0261334193
  - # 4
    frequency:    5.3513581769
  - # 5
    frequency:    5.3786595356
  - # 6
    frequency:    5.3786595356
  - # 7
    frequency:    6.0733842530
  - # 8
    frequency:    6.2280814876
  - # 9
    frequency:    6.2280814876
  - # 10
    frequency:    9.0402784651
  - # 11
    frequency:    9.0402784651
  - # 12
    frequency:    9.0643945187

- q-position: [    0.1400000,    0.1400000,    0.1400000 ]
  distance:    0.1544058
  band:
  - # 1
    frequency:    1.6528948171
  - # 2
    frequency:    2.1814510348
  - # 3
    frequency:    3.7666464877
  - # 4
    frequency:    5.3829640991
  - # 5
    frequency:    5.4135633345
  - # 6
    frequency:    5.4135633345
  - # 7
    frequency:    6.0330542947
  - # 8
    frequency:    6.1741090011
  - # 9
    frequency:    6.1741090011
  - # 10
    frequency:    9.1227611372
  - # 11
    frequency:    9.1227611372
  - # 12
    frequency:    9.1380940236

- q-position: [    0.1300000,    0.1300000,    0.1300000 ]
  distance:    0.1586948
  band:
  - # 1
    frequency:    1.5378125809
  - # 2
    frequency:    2.0490078691
  - # 3
    frequency:    3.5052027556
  - # 4
    frequency:    5.4152421255
  - # 5
    frequency:    5.4475203340
  - # 6
    frequency:    5.4475203340
  - # 7
    frequency:    5.9922443829
  - # 8
    frequency:    6.1194599944
  - # 9
    frequency:    6.1194599944
  - # 10
    frequency:    9.2054651461
  - # 11
    frequency:    9.2054651461
  - # 12
    frequency:    9.2138939476

- q-position: [    0.1200000,    0.1200000,    0.1200000 ]
  distance:    0.1629839
  band:
  - # 1
    frequency:    1.4220046286
  - # 2
    frequency:    1.9118968620
  - # 3
    frequency:    3.2419838005
  - # 4
    frequency:    5.4478403060
  - # 5
    frequency:    5.4803098474
  - # 6
    frequency:    5.4803098474
  - # 7
    frequency:    5.9520787072
  - # 8
    frequency:    6.0653366081
  - # 9
    frequency:    6.0653366081
  - # 10
    frequency:    9.2870155835
  - # 11
    frequency:    9.2870155835
  - # 12
    frequency:    9.2902604350

- q-position: [    0.1100000,    0.1100000,    0.1100000 ]
  distance:    0.1672729
  band:
  - # 1
    frequency:    1.3055506834
  - # 2
    frequency:    1.7702841298
  - # 3
    frequency:    2.9771610468
  - # 4
    frequency:    5.4803468382
  - # 5
    frequency:    5.5116972293
  - # 6
    frequency:    5.5116972293
  - # 7
    frequency:    5.9134726652
  - # 8
    frequency:    6.0127527105
  - # 9
    frequency:    6.0127527105
  - # 10
    frequency:    9.3657694652
  - # 11
    frequency:    9.3661918536
  - # 12
    frequency:    9.3661918536

- q-position: [    0.1000000,    0.1000000,    0.1000000 ]
  distance:    0.1715620
  band:
  - # 1
    frequency:    1.1885250284
  - # 2
    frequency:    1.6243766540
  - # 3
    frequency:    2.7108967130
  - # 4
    frequency:    5.5123041938
  - # 5
    frequency:    5.5414388171
  - # 6
    frequency:    5.5414388171
  - # 7
    frequency:    5.8771432765
  - # 8
    frequency:    5.9625575876
  - # 9
    frequency:    5.9625575876
  - # 10
    frequency:    9.4391115232
  - # 11
    frequency:    9.4419103049
  - # 12
    frequency:    9.4419103049

- q-position: [    0.0900000,    0.0900000,    0.0900000 ]
  distance:    0.1758510
  band:
  - # 1
    frequency:    1.0709968382
  - # 2
    frequency:    1.4744211854
  - # 3
    frequency:    2.4433447947
  - # 4
    frequency:    5.5432245499
  - # 5
    frequency:    5.5692872693
  - # 6
    frequency:    5.5692872693
  - # 7
    frequency:    5.8436274993
  - # 8
    frequency:    5.9154584744
  - # 9
    frequency:    5.9154584744
  - # 10
    frequency:    9.5090919833
  - # 11
    frequency:    9.5132089962
  - # 12
    frequency:    9.5132089962

- q-position: [    0.0800000,    0.0800000,    0.0800000 ]
  distance:    0.1801401
  band:
  - # 1
    frequency:    0.9530305505
  - # 2
    frequency:    1.3207025333
  - # 3
    frequency:    2.1746520634
  - # 4
    frequency:    5.5726058724
  - # 5
    frequency:    5.5949971205
  - # 6
    frequency:    5.5949971205
  - # 7
    frequency:    5.8133051447
  - # 8
    frequency:    5.8720407004
  - # 9
    frequency:    5.8720407004
  - # 10
    frequency:    9.5746299091
  - # 11
    frequency:    9.5792356077
  - # 12
    frequency:    9.5792356077

- q-position: [    0.0700000,    0.0700000,    0.0700000 ]
  distance:    0.1844291
  band:
  - # 1
    frequency:    0.8346862754
  - # 2
    frequency:    1.1635412904
  - # 3
    frequency:    1.9049590539
  - # 4
    frequency:    5.5999480392
  - # 5
    frequency:    5.6183303780
  - # 6
    frequency:    5.6183303780
  - # 7
    frequency:    5.7864241485
  - # 8
    frequency:    5.8327851787
  - # 9
    frequency:    5.8327851787
  - # 10
    frequency:    9.6347567327
  - # 11
    frequency:    9.6392385264
  - # 12
    frequency:    9.6392385264

- q-position: [    0.0600000,    0.0600000,    0.0600000 ]
  distance:    0.1887182
  band:
  - # 1
    frequency:    0.7160202458
  - # 2
    frequency:    1.0032910521
  - # 3
    frequency:    1.6344010221
  - # 4
    frequency:    5.6247684588
  - # 5
    frequency:    5.6390619878
  - # 6
    frequency:    5.6390619878
  - # 7
    frequency:    5.7631266220
  - # 8
    frequency:    5.7980833814
  - # 9
    frequency:    5.7980833814
  - # 10
    frequency:    9.6886154590
  - # 11
    frequency:    9.6925606963
  - # 12
    frequency:    9.6925606963

- q-position: [    0.0500000,    0.0500000,    0.0500000 ]
  distance:    0.1930072
  band:
  - # 1
    frequency:    0.5970853186
  - # 2
    frequency:    0.8403351911
  - # 3
    frequency:    1.3631088549
  - # 4
    frequency:    5.6466167175
  - # 5
    frequency:    5.6569849959
  - # 6
    frequency:    5.6569849959
  - # 7
    frequency:    5.7434744909
  - # 8
    frequency:    5.7682500875
  - # 9
    frequency:    5.7682500875
  - # 10
    frequency:    9.7354605687
  - # 11
    frequency:    9.7386356723
  - # 12
    frequency:    9.7386356723

- q-position: [    0.0400000,    0.0400000,    0.0400000 ]
  distance:    0.1972963
  band:
  - # 1
    frequency:    0.4779315775
  - # 2
    frequency:    0.6750832475
  - # 3
    frequency:    1.0912099298
  - # 4
    frequency:    5.6650878776
  - # 5
    frequency:    5.6719152009
  - # 6
    frequency:    5.6719152009
  - # 7
    frequency:    5.7274737485
  - # 8
    frequency:    5.7435342252
  - # 9
    frequency:    5.7435342252
  - # 10
    frequency:    9.7746585371
  - # 11
    frequency:    9.7769853204
  - # 12
    frequency:    9.7769853204

- q-position: [    0.0300000,    0.0300000,    0.0300000 ]
  distance:    0.2015853
  band:
  - # 1
    frequency:    0.3586072213
  - # 2
    frequency:    0.5079669843
  - # 3
    frequency:    0.8188289505
  - # 4
    frequency:    5.6798341262
  - # 5
    frequency:    5.6836948863
  - # 6
    frequency:    5.6836948863
  - # 7
    frequency:    5.7150964853
  - # 8
    frequency:    5.7241282953
  - # 9
    frequency:    5.7241282953
  - # 10
    frequency:    9.8056887741
  - # 11
    frequency:    9.8072186646
  - # 12
    frequency:    9.8072186646

- q-position: [    0.0200000,    0.0200000,    0.0200000 ]
  distance:    0.2058744
  band:
  - # 1
    frequency:    0.2391606822
  - # 2
    frequency:    0.3394360979
  - # 3
    frequency:    0.5460889383
  - # 4
    frequency:    5.6905745532
  - # 5
    frequency:    5.6921936483
  - # 6
    frequency:    5.6921936483
  - # 7
    frequency:    5.7062999689
  - # 8
    frequency:    5.7101783791
  - # 9
    frequency:    5.7101783791
  - # 10
    frequency:    9.8281447607
  - # 11
    frequency:    9.8290314690
  - # 12
    frequency:    9.8290314690

- q-position: [    0.0100000,    0.0100000,    0.0100000 ]
  distance:    0.2101634
  band:
  - # 1
    frequency:    0.1196524959
  - # 2
    frequency:    0.1699529992
  - # 3
    frequency:    0.2731140318
  - # 4
    frequency:    5.6971028955
  - # 5
    frequency:    5.6972810445
  - # 6
    frequency:    5.6972810445
  - # 7
    frequency:    5.7010421558
  - # 8
    frequency:    5.7018199875
  - # 9
    frequency:    5.7018199875
  - # 10
    frequency:    9.8417351699
  - # 11
    frequency:    9.8422062302
  - # 12
    frequency:    9.8422062302

- q-position: [   -0.0000000,   -0.0000000,   -0.0000000 ]
  distance:    0.2144525
  band:
  - # 1
    frequency:   -0.0032994578
  - # 2
    frequency:    0.0040409940
  - # 3
    frequency:    0.0040409940
  - # 4
    frequency:    5.6984277802
  - # 5
    frequency:    5.6984277802
  - # 6
    frequency:    5.6992931373
  - # 7
    frequency:    5.6992931373
  - # 8
    frequency:    5.6995829929
  - # 9
    frequency:    5.6995829929
  - # 10
    frequency:    9.8462847971
  - # 11
    frequency:    9.8466123368
  - # 12
    frequency:    9.8466123368

- q-position: [    0.0000000,    0.0000000,    0.0000000 ]
  distance:    0.2144525
  band:
  - # 1
    frequency:   -0.0032994578
  - # 2
    frequency:    0.0040409940
  - # 3