48   
1    

1    
  0.0055470019622523   0.0000000000000000   0.0083205029433784
  -0.0244618600    0.0000000000   -0.0369878900
   0.0015184800    0.0000000000    0.0000555500
   0.0002081000    0.0000000000    0.0000579900
  -0.0003826700    0.0000000000   -0.0013801900
  -0.0000310000    0.0000000000    0.0014819100
   0.0000205500    0.0000000000   -0.0001914100
  -0.0003281700    0.0000000000   -0.0001883400
  -0.0005246900    0.0000000000   -0.0005014700
  -0.0000130000    0.0000000000    0.0014784600
   0.0000550300    0.0000000000   -0.0002048500
  -0.0003508000    0.0000000000   -0.0002065900
  -0.0004977000    0.0000000000   -0.0005970600
  -0.0008031200   -0.0053629000    0.0050104700
  -0.0002996900    0.0005656800    0.0003877800
  -0.0008031200    0.0053629000    0.0050104700
  -0.0002996900   -0.0005656800    0.0003877800
  -0.0004217000   -0.0000073900   -0.0001765700
   0.0001626800    0.0000011900    0.0005842500
  -0.0004217000    0.0000073900   -0.0001765700
   0.0001626800   -0.0000011900    0.0005842500
  -0.0007623800    0.0052097700    0.0048849800
  -0.0003254600   -0.0004886100    0.0004398600
  -0.0007623800   -0.0052097700    0.0048849800
  -0.0003254600    0.0004886100    0.0004398600
  -0.0020108800    0.0000000000    0.0013881700
   0.0087900800    0.0000000000    0.0086859000
   0.0008410600    0.0000000000    0.0007364100
  -0.0002744700    0.0000000000    0.0000691500
  -0.0000626900    0.0000000000   -0.0001777000
  -0.0000635200    0.0000000000   -0.0001737700
   0.0003739000    0.0000000000    0.0005885800
   0.0003549700    0.0000000000    0.0005788500
   0.0083290700    0.0000000000    0.0082636500
  -0.0020172900    0.0000000000    0.0014596900
  -0.0002058400    0.0000000000    0.0000531600
   0.0007906500    0.0000000000    0.0007940100
   0.0033778600    0.0036100700   -0.0012203700
   0.0034206100   -0.0036420800   -0.0012860100
   0.0033778600   -0.0036100700   -0.0012203700
   0.0034206100    0.0036420800   -0.0012860100
   0.0004793300    0.0002429100   -0.0000987700
  -0.0001575500    0.0003733600   -0.0004994200
   0.0004793300   -0.0002429100   -0.0000987700
  -0.0001575500   -0.0003733600   -0.0004994200
  -0.0001359600   -0.0003719000   -0.0004862300
   0.0004367200   -0.0002199700   -0.0000810700
  -0.0001359600    0.0003719000   -0.0004862300
   0.0004367200    0.0002199700   -0.0000810700
