 running on    4 nodes
 distr:  one band on    1 nodes,    4 groups
 vasp.4.6.28 25Jul05 complex 
 POSCAR found :  1 types and   32 ions

 ----------------------------------------------------------------------------- 
|                                                                             |
|  ADVICE TO THIS USER RUNNING 'VASP/VAMP'   (HEAR YOUR MASTER'S VOICE ...):  |
|                                                                             |
|      You have a (more or less) 'large supercell' and for larger cells       |
|      it might be more efficient to use real space projection operators      |
|      So try LREAL= Auto  in the INCAR   file.                               |
|      Mind: If you want to do an extremely accurate calculations keep the    |
|      reciprocal projection scheme          (i.e. LREAL=.FALSE.)             |
|                                                                             |
 ----------------------------------------------------------------------------- 

 LDA part: xc-table for Pade appr. of Perdew
 POSCAR, INCAR and KPOINTS ok, starting setup
 FFT: planning ...           1
 reading WAVECAR
 entering main loop
       N       E                     dE             d eps       ncg     rms          rms(c)
DAV:   1     0.140126560122E+03    0.14013E+03   -0.33557E+04 26656   0.111E+03
DAV:   2    -0.104869820102E+03   -0.24500E+03   -0.22898E+03 31244   0.149E+02
DAV:   3    -0.119137608932E+03   -0.14268E+02   -0.13534E+02 32972   0.289E+01
DAV:   4    -0.119432681343E+03   -0.29507E+00   -0.29196E+00 31332   0.427E+00
DAV:   5    -0.119436556601E+03   -0.38753E-02   -0.38693E-02 31556   0.552E-01    0.554E+00
DAV:   6    -0.118978956164E+03    0.45760E+00   -0.38056E-02 30652   0.640E-01    0.344E+00
DAV:   7    -0.118646286633E+03    0.33267E+00   -0.11705E-01 29220   0.104E+00    0.134E-01
DAV:   8    -0.118646514569E+03   -0.22794E-03   -0.11292E-03 31960   0.138E-01    0.506E-02
DAV:   9    -0.118646550966E+03   -0.36398E-04   -0.61018E-05 30956   0.217E-02    0.444E-03
DAV:  10    -0.118646553711E+03   -0.27445E-05   -0.38321E-06 31884   0.643E-03    0.204E-03
DAV:  11    -0.118646551921E+03    0.17900E-05   -0.25831E-07 31344   0.158E-03    0.826E-04
DAV:  12    -0.118646551172E+03    0.74847E-06   -0.21389E-08 21248   0.494E-04    0.139E-04
DAV:  13    -0.118646551027E+03    0.14541E-06   -0.28959E-09 17600   0.206E-04    0.349E-05
DAV:  14    -0.118646551015E+03    0.12453E-07   -0.50729E-10 17236   0.770E-05    0.986E-06
DAV:  15    -0.118646551018E+03   -0.39258E-08   -0.10140E-10 16964   0.394E-05
   1 F= -.11864655E+03 E0= -.11864612E+03  d E =-.870313E-03
