  32  32   0   0
  0.1501517E+02  0.7832374E-09  0.7832374E-09  0.7832374E-09  0.5000000E-15
  1.000000000000000E-004
  CAR 
 unknown system                          
     13.70658218     -3.56738080  301      9.03452791      1.00000000
     -3.567  0.0000E+00  0.0000E+00
     -3.510  0.0000E+00  0.0000E+00
     -3.452  0.0000E+00  0.0000E+00
     -3.395  0.0000E+00  0.0000E+00
     -3.337  0.0000E+00  0.0000E+00
     -3.279  0.0000E+00  0.0000E+00
     -3.222  0.0000E+00  0.0000E+00
     -3.164  0.0000E+00  0.0000E+00
     -3.107  0.0000E+00  0.0000E+00
     -3.049  0.0000E+00  0.0000E+00
     -2.992  0.0000E+00  0.0000E+00
     -2.934  0.0000E+00  0.0000E+00
     -2.876  0.0000E+00  0.0000E+00
     -2.819  0.2207E-08  0.1271E-09
     -2.761  0.1168E+00  0.6726E-02
     -2.704  0.6531E+00  0.4433E-01
     -2.646  0.1020E+01  0.1031E+00
     -2.589  0.1630E+01  0.1969E+00
     -2.531  0.1618E+01  0.2901E+00
     -2.473  0.1765E+01  0.3918E+00
     -2.416  0.2165E+01  0.5164E+00
     -2.358  0.1355E+01  0.5944E+00
     -2.301  0.2588E+01  0.7435E+00
     -2.243  0.2156E+01  0.8676E+00
     -2.185  0.3025E+01  0.1042E+01
     -2.128  0.2437E+01  0.1182E+01
     -2.070  0.3389E+01  0.1377E+01
     -2.013  0.2935E+01  0.1546E+01
     -1.955  0.1786E+01  0.1649E+01
     -1.898  0.3749E+01  0.1865E+01
     -1.840  0.3571E+01  0.2071E+01
     -1.782  0.2921E+01  0.2239E+01
     -1.725  0.3398E+01  0.2434E+01
     -1.667  0.4107E+01  0.2671E+01
     -1.610  0.3985E+01  0.2900E+01
     -1.552  0.2631E+01  0.3052E+01
     -1.495  0.4747E+01  0.3325E+01
     -1.437  0.2460E+01  0.3467E+01
     -1.379  0.4621E+01  0.3733E+01
     -1.322  0.3769E+01  0.3950E+01
     -1.264  0.6288E+01  0.4312E+01
     -1.207  0.3112E+01  0.4491E+01
     -1.149  0.2936E+01  0.4660E+01
     -1.091  0.6144E+01  0.5014E+01
     -1.034  0.3648E+01  0.5224E+01
     -0.976  0.4501E+01  0.5483E+01
     -0.919  0.4196E+01  0.5725E+01
     -0.861  0.4918E+01  0.6008E+01
     -0.804  0.5186E+01  0.6307E+01
     -0.746  0.4817E+01  0.6584E+01
     -0.688  0.5480E+01  0.6900E+01
     -0.631  0.4334E+01  0.7149E+01
     -0.573  0.5069E+01  0.7441E+01
     -0.516  0.4919E+01  0.7724E+01
     -0.458  0.5672E+01  0.8051E+01
     -0.400  0.3438E+01  0.8249E+01
     -0.343  0.6866E+01  0.8644E+01
     -0.285  0.6567E+01  0.9023E+01
     -0.228  0.5637E+01  0.9347E+01
     -0.170  0.4414E+01  0.9601E+01
     -0.113  0.4414E+01  0.9855E+01
     -0.055  0.6413E+01  0.1022E+02
      0.003  0.4812E+01  0.1050E+02
      0.060  0.7138E+01  0.1091E+02
      0.118  0.6876E+01  0.1131E+02
      0.175  0.3710E+01  0.1152E+02
      0.233  0.7756E+01  0.1197E+02
      0.290  0.6307E+01  0.1233E+02
      0.348  0.6057E+01  0.1268E+02
      0.406  0.2633E+01  0.1283E+02
      0.463  0.8333E+01  0.1331E+02
      0.521  0.5556E+01  0.1363E+02
      0.578  0.7032E+01  0.1404E+02
      0.636  0.7998E+01  0.1450E+02
      0.694  0.7070E+01  0.1490E+02
      0.751  0.5697E+01  0.1523E+02
      0.809  0.4636E+01  0.1550E+02
      0.866  0.6308E+01  0.1586E+02
      0.924  0.6134E+01  0.1622E+02
      0.981  0.7625E+01  0.1666E+02
      1.039  0.7750E+01  0.1710E+02
      1.097  0.8291E+01  0.1758E+02
      1.154  0.6461E+01  0.1795E+02
      1.212  0.4973E+01  0.1824E+02
      1.269  0.8362E+01  0.1872E+02
      1.327  0.6492E+01  0.1909E+02
      1.384  0.7126E+01  0.1950E+02
      1.442  0.4957E+01  0.1979E+02
      1.500  0.8353E+01  0.2027E+02
      1.557  0.7022E+01  0.2067E+02
      1.615  0.8895E+01  0.2119E+02
      1.672  0.9822E+01  0.2175E+02
      1.730  0.5308E+01  0.2206E+02
      1.788  0.7599E+01  0.2249E+02
      1.845  0.7370E+01  0.2292E+02
      1.903  0.5901E+01  0.2326E+02
      1.960  0.5876E+01  0.2360E+02
      2.018  0.9278E+01  0.2413E+02
      2.075  0.8614E+01  0.2463E+02
      2.133  0.1001E+02  0.2520E+02
      2.191  0.6827E+01  0.2560E+02
      2.248  0.8682E+01  0.2610E+02
      2.306  0.7792E+01  0.2655E+02
      2.363  0.4938E+01  0.2683E+02
      2.421  0.9775E+01  0.2739E+02
      2.479  0.5650E+01  0.2772E+02
      2.536  0.9158E+01  0.2824E+02
      2.594  0.9428E+01  0.2879E+02
      2.651  0.9606E+01  0.2934E+02
      2.709  0.6592E+01  0.2972E+02
      2.766  0.7314E+01  0.3014E+02
      2.824  0.1332E+02  0.3091E+02
      2.882  0.6333E+01  0.3127E+02
      2.939  0.7871E+01  0.3173E+02
      2.997  0.7457E+01  0.3216E+02
      3.054  0.1015E+02  0.3274E+02
      3.112  0.5315E+01  0.3305E+02
      3.169  0.9761E+01  0.3361E+02
      3.227  0.7784E+01  0.3406E+02
      3.285  0.1193E+02  0.3474E+02
      3.342  0.1066E+02  0.3536E+02
      3.400  0.9754E+01  0.3592E+02
      3.457  0.7657E+01  0.3636E+02
      3.515  0.5531E+01  0.3668E+02
      3.573  0.1170E+02  0.3735E+02
      3.630  0.7250E+01  0.3777E+02
      3.688  0.9385E+01  0.3831E+02
      3.745  0.7173E+01  0.3872E+02
      3.803  0.1160E+02  0.3939E+02
      3.860  0.9672E+01  0.3995E+02
      3.918  0.1102E+02  0.4058E+02
      3.976  0.1005E+02  0.4116E+02
      4.033  0.8157E+01  0.4163E+02
      4.091  0.8348E+01  0.4211E+02
      4.148  0.1416E+02  0.4293E+02
      4.206  0.8606E+01  0.4342E+02
      4.263  0.7031E+01  0.4383E+02
      4.321  0.1150E+02  0.4449E+02
      4.379  0.9019E+01  0.4501E+02
      4.436  0.7317E+01  0.4543E+02
      4.494  0.8768E+01  0.4593E+02
      4.551  0.1321E+02  0.4669E+02
      4.609  0.7455E+01  0.4712E+02
      4.667  0.1131E+02  0.4778E+02
      4.724  0.9119E+01  0.4830E+02
      4.782  0.1033E+02  0.4890E+02
      4.839  0.1032E+02  0.4949E+02
      4.897  0.9744E+01  0.5005E+02
      4.954  0.8687E+01  0.5055E+02
      5.012  0.8054E+01  0.5101E+02
      5.070  0.1210E+02  0.5171E+02
      5.127  0.9896E+01  0.5228E+02
      5.185  0.1287E+02  0.5302E+02
      5.242  0.9604E+01  0.5358E+02
      5.300  0.1214E+02  0.5427E+02
      5.358  0.5379E+01  0.5458E+02
      5.415  0.1418E+02  0.5540E+02
      5.473  0.6556E+01  0.5578E+02
      5.530  0.1208E+02  0.5647E+02
      5.588  0.1044E+02  0.5707E+02
      5.645  0.1514E+02  0.5795E+02
      5.703  0.1028E+02  0.5854E+02
      5.761  0.1133E+02  0.5919E+02
      5.818  0.1062E+02  0.5980E+02
      5.876  0.1008E+02  0.6038E+02
      5.933  0.1089E+02  0.6101E+02
      5.991  0.1112E+02  0.6165E+02
      6.048  0.1417E+02  0.6247E+02
      6.106  0.1391E+02  0.6327E+02
      6.164  0.1065E+02  0.6388E+02
      6.221  0.9117E+01  0.6441E+02
      6.279  0.1079E+02  0.6503E+02
      6.336  0.1047E+02  0.6563E+02
      6.394  0.1409E+02  0.6644E+02
      6.452  0.9625E+01  0.6699E+02
      6.509  0.1168E+02  0.6767E+02
      6.567  0.1035E+02  0.6826E+02
      6.624  0.1435E+02  0.6909E+02
      6.682  0.9644E+01  0.6964E+02
      6.739  0.7482E+01  0.7008E+02
      6.797  0.9726E+01  0.7064E+02
      6.855  0.1493E+02  0.7149E+02
      6.912  0.1118E+02  0.7214E+02
      6.970  0.9851E+01  0.7271E+02
      7.027  0.1072E+02  0.7332E+02
      7.085  0.7611E+01  0.7376E+02
      7.142  0.9543E+01  0.7431E+02
      7.200  0.1303E+02  0.7506E+02
      7.258  0.1228E+02  0.7577E+02
      7.315  0.8195E+01  0.7624E+02
      7.373  0.9832E+01  0.7681E+02
      7.430  0.1590E+02  0.7772E+02
      7.488  0.7243E+01  0.7814E+02
      7.546  0.1036E+02  0.7874E+02
      7.603  0.1289E+02  0.7948E+02
      7.661  0.7944E+01  0.7993E+02
      7.718  0.1592E+02  0.8085E+02
      7.776  0.7238E+01  0.8127E+02
      7.833  0.1398E+02  0.8207E+02
      7.891  0.1509E+02  0.8294E+02
      7.949  0.1138E+02  0.8360E+02
      8.006  0.1054E+02  0.8420E+02
      8.064  0.1141E+02  0.8486E+02
      8.121  0.1188E+02  0.8555E+02
      8.179  0.1376E+02  0.8634E+02
      8.236  0.1234E+02  0.8705E+02
      8.294  0.1251E+02  0.8777E+02
      8.352  0.1146E+02  0.8843E+02
      8.409  0.8584E+01  0.8892E+02
      8.467  0.1606E+02  0.8985E+02
      8.524  0.9905E+01  0.9042E+02
      8.582  0.8155E+01  0.9089E+02
      8.640  0.1196E+02  0.9158E+02
      8.697  0.1166E+02  0.9225E+02
      8.755  0.1135E+02  0.9290E+02
      8.812  0.1014E+02  0.9349E+02
      8.870  0.1151E+02  0.9415E+02
      8.927  0.1152E+02  0.9481E+02
      8.985  0.8817E+01  0.9532E+02
      9.043  0.1420E+02  0.9614E+02
      9.100  0.1059E+02  0.9675E+02
      9.158  0.1206E+02  0.9744E+02
      9.215  0.1241E+02  0.9815E+02
      9.273  0.1677E+02  0.9912E+02
      9.331  0.1122E+02  0.9977E+02
      9.388  0.1170E+02  0.1004E+03
      9.446  0.1159E+02  0.1011E+03
      9.503  0.9666E+01  0.1017E+03
      9.561  0.1671E+02  0.1026E+03
      9.618  0.1531E+02  0.1035E+03
      9.676  0.1697E+02  0.1045E+03
      9.734  0.9555E+01  0.1050E+03
      9.791  0.1516E+02  0.1059E+03
      9.849  0.9938E+01  0.1065E+03
      9.906  0.9916E+01  0.1071E+03
      9.964  0.8527E+01  0.1075E+03
     10.021  0.9850E+01  0.1081E+03
     10.079  0.1361E+02  0.1089E+03
     10.137  0.2043E+02  0.1101E+03
     10.194  0.1439E+02  0.1109E+03
     10.252  0.1262E+02  0.1116E+03
     10.309  0.1568E+02  0.1125E+03
     10.367  0.1419E+02  0.1133E+03
     10.425  0.1083E+02  0.1140E+03
     10.482  0.8169E+01  0.1144E+03
     10.540  0.1080E+02  0.1151E+03
     10.597  0.1043E+02  0.1157E+03
     10.655  0.1141E+02  0.1163E+03
     10.712  0.1188E+02  0.1170E+03
     10.770  0.1793E+02  0.1180E+03
     10.828  0.1541E+02  0.1189E+03
     10.885  0.1088E+02  0.1195E+03
     10.943  0.1079E+02  0.1202E+03
     11.000  0.1310E+02  0.1209E+03
     11.058  0.1804E+02  0.1220E+03
     11.115  0.1339E+02  0.1227E+03
     11.173  0.8669E+01  0.1232E+03
     11.231  0.1284E+02  0.1240E+03
     11.288  0.1824E+02  0.1250E+03
     11.346  0.7927E+01  0.1255E+03
     11.403  0.1353E+02  0.1263E+03
     11.461  0.7230E+01  0.1267E+03
     11.519  0.1724E+02  0.1277E+03
     11.576  0.1037E+02  0.1283E+03
     11.634  0.1606E+02  0.1292E+03
     11.691  0.8556E+01  0.1297E+03
     11.749  0.1265E+02  0.1304E+03
     11.806  0.1292E+02  0.1312E+03
     11.864  0.1620E+02  0.1321E+03
     11.922  0.1118E+02  0.1327E+03
     11.979  0.7939E+01  0.1332E+03
     12.037  0.6062E+01  0.1335E+03
     12.094  0.8828E+01  0.1340E+03
     12.152  0.8173E+01  0.1345E+03
     12.210  0.6432E+01  0.1349E+03
     12.267  0.7873E+01  0.1353E+03
     12.325  0.1970E+01  0.1355E+03
     12.382  0.4000E+01  0.1357E+03
     12.440  0.1120E+01  0.1357E+03
     12.497  0.1595E+01  0.1358E+03
     12.555  0.4826E+00  0.1359E+03
     12.613  0.9117E+00  0.1359E+03
     12.670  0.6770E+00  0.1360E+03
     12.728  0.2955E-01  0.1360E+03
     12.785  0.5928E+00  0.1360E+03
     12.843  0.0000E+00  0.1360E+03
     12.900  0.2295E-03  0.1360E+03
     12.958  0.8017E-01  0.1360E+03
     13.016  0.0000E+00  0.1360E+03
     13.073  0.0000E+00  0.1360E+03
     13.131  0.0000E+00  0.1360E+03
     13.188  0.0000E+00  0.1360E+03
     13.246  0.0000E+00  0.1360E+03
     13.304  0.0000E+00  0.1360E+03
     13.361  0.0000E+00  0.1360E+03
     13.419  0.0000E+00  0.1360E+03
     13.476  0.0000E+00  0.1360E+03
     13.534  0.0000E+00  0.1360E+03
     13.591  0.0000E+00  0.1360E+03
     13.649  0.0000E+00  0.1360E+03
     13.707  0.0000E+00  0.1360E+03
