   32   32    1    1
  0.1501517E+02  0.7832374E-09  0.7832374E-09  0.7832374E-09  0.5000000E-15
  1.000000000000000E-004
  CAR 
 unknown system                          
   96  196   68
 
  0.0000000E+00  0.0000000E+00  0.0000000E+00  0.5787037E-03
   1       -2.7822
   2       -0.3966
   3       -0.3927
   4       -0.3927
   5       -0.3927
   6       -0.3927
   7       -0.3888
   8        1.9460
   9        1.9505
  10        1.9505
  11        1.9523
  12        1.9524
  13        1.9524
  14        1.9524
  15        1.9524
  16        1.9525
  17        1.9544
  18        1.9544
  19        1.9589
  20        4.0444
  21        4.0445
  22        4.0445
  23        4.0445
  24        4.5085
  25        4.5085
  26        4.5085
  27        4.5085
  28        5.8683
  29        5.8683
  30        5.8683
  31        7.3863
  32        7.3863
  33        7.3863
  34        8.0499
  35        8.0499
  36        8.0545
  37        8.0545
  38        8.0547
  39        8.0547
  40        8.0547
  41        8.0547
  42        8.0549
  43        8.0549
  44        8.0594
  45        8.0594
  46        9.0118
  47        9.0162
  48        9.0163
  49        9.0163
  50        9.0163
  51        9.0207
  52       10.2484
  53       10.2484
  54       10.2499
  55       10.2526
  56       10.2526
  57       10.2526
  58       10.2526
  59       10.2527
  60       10.2527
  61       10.2554
  62       10.2568
  63       10.2568
  64       10.6731
  65       10.6742
  66       10.6742
  67       10.6742
  68       10.6750
 
  0.8333333E-01  0.0000000E+00  0.0000000E+00  0.1157407E-02
   1       -2.7655
   2       -0.7713
   3       -0.3763
   4       -0.3762
   5       -0.3762
   6       -0.3762
   7        0.0175
   8        1.5809
   9        1.5809
  10        1.5809
  11        1.5809
  12        1.9686
  13        1.9686
  14        1.9686
  15        1.9686
  16        2.3548
  17        2.3548
  18        2.3548
  19        2.3549
  20        3.8443
  21        3.8443
  22        3.8443
  23        3.8443
  24        4.7394
  25        4.7394
  26        4.7394
  27        4.7394
  28        5.5672
  29        5.8835
  30        5.8835
  31        7.4020
  32        7.4020
  33        7.7047
  34        7.7047
  35        7.7157
  36        7.7512
  37        7.7512
  38        7.7512
  39        7.7513
  40        8.0699
  41        8.0699
  42        8.0699
  43        8.0699
  44        8.4352
  45        8.4352
  46        8.9461
  47        8.9462
  48        9.2363
  49        9.2363
  50        9.2363
  51        9.2363
  52        9.9011
  53        9.9011
  54        9.9011
  55        9.9011
  56       10.0003
  57       10.0004
  58       10.0004
  59       10.0004
  60       10.6349
  61       10.6349
  62       10.6349
  63       10.6349
  64       10.7724
  65       10.7730
  66       10.8017
  67       10.8017
  68       10.8018
 
  0.1666667E+00  0.0000000E+00  0.0000000E+00  0.1157407E-02
   1       -2.7153
   2       -1.1180
   3       -0.3270
   4       -0.3269
   5       -0.3269
   6       -0.3269
   7        0.4588
   8        1.2407
   9        1.2407
  10        1.2407
  11        1.2407
  12        2.0169
  13        2.0169
  14        2.0169
  15        2.0169
  16        2.7876
  17        2.7876
  18        2.7876
  19        2.7876
  20        3.5384
  21        3.5384
  22        3.5384
  23        3.5384
  24        4.9848
  25        5.1374
  26        5.1374
  27        5.1374
  28        5.1375
  29        5.9289
  30        5.9289
  31        7.1894
  32        7.1894
  33        7.1894
  34        7.1894
  35        7.3855
  36        7.3855
  37        7.4489
  38        7.4489
  39        8.1156
  40        8.1156
  41        8.1156
  42        8.1156
  43        8.3833
  44        8.7736
  45        8.7736
  46        8.8465
  47        8.8465
  48        9.4727
  49        9.4727
  50        9.4727
  51        9.4727
  52        9.5441
  53        9.5441
  54        9.5441
  55        9.5443
  56        9.5803
  57        9.5803
  58        9.5804
  59        9.5804
  60       11.0294
  61       11.0294
  62       11.0478
  63       11.0478
  64       11.0479
  65       11.0479
  66       11.1878
  67       11.1879
  68       11.1879
 
  0.2500000E+00  0.0000000E+00  0.0000000E+00  0.1157407E-02
   1       -2.6316
   2       -1.4325
   3       -0.2448
   4       -0.2448
   5       -0.2448
   6       -0.2448
   7        0.9288
   8        0.9320
   9        0.9320
  10        0.9320
  11        0.9341
  12        2.0974
  13        2.0974
  14        2.0974
  15        2.0974
  16        3.2431
  17        3.2442
  18        3.2442
  19        3.2445
  20        3.2503
  21        3.2506
  22        3.2506
  23        3.2517
  24        4.3524
  25        5.5846
  26        5.5846
  27        5.5846
  28        5.5846
  29        6.0046
  30        6.0046
  31        6.5817
  32        6.5817
  33        6.5817
  34        6.5817
  35        7.0968
  36        7.0968
  37        7.5267
  38        7.5267
  39        8.1918
  40        8.1918
  41        8.1918
  42        8.1918
  43        8.5583
  44        8.5584
  45        8.8768
  46        8.8768
  47        8.8768
  48        8.8768
  49        9.1577
  50        9.2867
  51        9.2867
  52        9.2901
  53        9.2901
  54        9.2919
  55        9.2919
  56        9.7737
  57        9.7737
  58        9.7737
  59        9.7737
  60       11.0813
  61       11.0813
  62       11.0813
  63       11.0813
  64       11.3845
  65       11.3845
  66       11.4916
  67       11.4916
  68       11.4916
 
  0.3333333E+00  0.0000000E+00  0.0000000E+00  0.1157407E-02
   1       -2.5145
   2       -1.7146
   3       -0.1300
   4       -0.1299
   5       -0.1299
   6       -0.1299
   7        0.6551
   8        0.6551
   9        0.6551
  10        0.6551
  11        1.4331
  12        2.2100
  13        2.2100
  14        2.2100
  15        2.2101
  16        2.9767
  17        2.9767
  18        2.9767
  19        2.9767
  20        3.7230
  21        3.7421
  22        3.7421
  23        3.7421
  24        3.7422
  25        5.9739
  26        5.9739
  27        5.9739
  28        5.9739
  29        6.0665
  30        6.0665
  31        6.0665
  32        6.0665
  33        6.1108
  34        6.1108
  35        6.8387
  36        6.8387
  37        7.6347
  38        7.6347
  39        8.2746
  40        8.2746
  41        8.2748
  42        8.2748
  43        8.2985
  44        8.2986
  45        8.2987
  46        8.2987
  47        8.3368
  48        8.3369
  49        9.0306
  50        9.0306
  51        9.0306
  52        9.0306
  53        9.7612
  54        9.7612
  55        9.9613
  56        9.9613
  57        9.9613
  58        9.9613
  59        9.9856
  60       10.8085
  61       10.8085
  62       10.8085
  63       10.8085
  64       11.7998
  65       11.8004
  66       11.9575
  67       11.9629
  68       11.9661
 
  0.4166667E+00  0.0000000E+00  0.0000000E+00  0.1157407E-02
   1       -2.3641
   2       -1.9640
   3        0.0176
   4        0.0176
   5        0.0176
   6        0.0176
   7        0.4103
   8        0.4103
   9        0.4103
  10        0.4103
  11        1.9648
  12        2.3546
  13        2.3546
  14        2.3546
  15        2.3546
  16        2.7384
  17        2.7384
  18        2.7384
  19        2.7384
  20        3.1119
  21        4.2622
  22        4.2622
  23        4.2622
  24        4.2622
  25        5.3808
  26        5.3808
  27        5.3808
  28        5.3808
  29        6.2471
  30        6.2471
  31        6.5790
  32        6.5790
  33        6.5791
  34        6.5791
  35        6.6112
  36        6.6112
  37        7.6865
  38        7.6865
  39        7.6865
  40        7.6865
  41        7.7720
  42        7.7720
  43        8.1267
  44        8.1268
  45        8.4357
  46        8.4357
  47        8.4357
  48        8.4357
  49        8.8017
  50        8.8017
  51        8.8018
  52        8.8018
  53       10.1449
  54       10.1449
  55       10.1449
  56       10.1449
  57       10.2645
  58       10.2645
  59       10.5628
  60       10.5628
  61       10.5628
  62       10.5629
  63       10.8518
  64       11.3622
  65       11.3622
  66       12.2550
  67       12.2551
  68       12.4712
 
  0.5000000E+00  0.0000000E+00  0.0000000E+00  0.5787037E-03
   1       -2.1821
   2       -2.1791
   3        0.1936
   4        0.1969
   5        0.1969
   6        0.1977
   7        0.1979
   8        0.1987
   9        0.1987
  10        0.2019
  11        2.5225
  12        2.5250
  13        2.5292
  14        2.5295
  15        2.5295
  16        2.5303
  17        2.5313
  18        2.5322
  19        2.5322
  20        2.5348
  21        4.8082
  22        4.8082
  23        4.8087
  24        4.8089
  25        4.8093
  26        4.8095
  27        4.8100
  28        4.8100
  29        6.4122
  30        6.4122
  31        6.4155
  32        6.4155
  33        7.1190
  34        7.1190
  35        7.1193
  36        7.1199
  37        7.1200
  38        7.1206
  39        7.1209
  40        7.1209
  41        7.9348
  42        7.9360
  43        7.9378
  44        7.9390
  45        8.6009
  46        8.6009
  47        8.6018
  48        8.6034
  49        8.6035
  50        8.6051
  51        8.6060
  52        8.6060
  53       10.3405
  54       10.3414
  55       10.3414
  56       10.3416
  57       10.3441
  58       10.3442
  59       10.3442
  60       10.3451
  61       10.7971
  62       10.7971
  63       10.7994
  64       10.7994
  65       11.7499
  66       11.7510
  67       12.7368
  68       12.7382
 
  0.0000000E+00  0.8333333E-01  0.0000000E+00  0.2314815E-02
   1       -2.7655
   2       -0.7713
   3       -0.3792
   4       -0.3762
   5       -0.3762
   6       -0.3733
   7        0.0175
   8        1.5779
   9        1.5809
  10        1.5809
  11        1.5839
  12        1.9665
  13        1.9674
  14        1.9697
  15        1.9706
  16        2.3518
  17        2.3548
  18        2.3548
  19        2.3578
  20        3.8425
  21        3.8433
  22        3.8453
  23        3.8461
  24        4.7376
  25        4.7384
  26        4.7404
  27        4.7412
  28        5.5672
  29        5.8835
  30        5.8835
  31        7.4019
  32        7.4020
  33        7.7046
  34        7.7047
  35        7.7158
  36        7.7478
  37        7.7512
  38        7.7512
  39        7.7546
  40        8.0671
  41        8.0699
  42        8.0699
  43        8.0727
  44        8.4352
  45        8.4352
  46        8.9461
  47        8.9462
  48        9.2332
  49        9.2363
  50        9.2363
  51        9.2394
  52        9.8982
  53        9.9011
  54        9.9011
  55        9.9040
  56        9.9976
  57        9.9992
  58       10.0015
  59       10.0031
  60       10.6320
  61       10.6349
  62       10.6349
  63       10.6378
  64       10.7724
  65       10.7749
  66       10.8007
  67       10.8017
  68       10.8024
 
  0.8333333E-01  0.8333333E-01  0.0000000E+00  0.4629630E-02
   1       -2.7487
   2       -0.7560
   3       -0.7535
   4       -0.3598
   5       -0.3598
   6        0.0326
   7        0.0351
   8        1.2083
   9        1.5954
  10        1.5963
  11        1.5979
  12        1.5989
  13        1.9841
  14        1.9851
  15        2.3691
  16        2.3701
  17        2.3717
  18        2.3726
  19        2.7558
  20        3.5068
  21        3.5068
  22        4.0752
  23        4.0752
  24        4.5410
  25        4.5410
  26        5.1059
  27        5.1059
  28        5.5822
  29        5.5828
  30        5.8986
  31        7.4079
  32        7.4103
  33        7.4176
  34        7.6779
  35        7.6780
  36        7.7186
  37        7.7214
  38        7.7309
  39        7.7316
  40        7.8757
  41        7.8757
  42        8.1086
  43        8.1107
  44        8.4490
  45        8.4519
  46        9.1318
  47        9.1342
  48        9.2110
  49        9.2139
  50        9.4555
  51        9.4555
  52        9.5498
  53        9.6459
  54        9.6468
  55        9.6483
  56        9.6493
  57       10.2822
  58       10.2841
  59       10.3823
  60       10.3832
  61       10.3839
  62       10.3849
  63       10.8456
  64       10.8463
  65       10.9092
  66       10.9095
  67       10.9559
  68       10.9595
 
  0.1666667E+00  0.8333333E-01  0.0000000E+00  0.4629630E-02
   1       -2.6985
   2       -1.1015
   3       -0.7053
   4       -0.3105
   5       -0.3105
   6        0.0830
   7        0.4751
   8        0.8670
   9        1.2569
  10        1.2569
  11        1.6449
  12        1.6456
  13        1.6463
  14        2.4182
  15        2.4190
  16        2.4196
  17        2.8036
  18        2.8036
  19        3.1810
  20        3.1810
  21        3.1870
  22        3.9068
  23        3.9068
  24        4.8032
  25        4.8032
  26        5.0004
  27        5.5221
  28        5.5221
  29        5.6285
  30        5.9440
  31        6.8452
  32        7.0927
  33        7.1892
  34        7.1892
  35        7.4007
  36        7.4643
  37        7.5538
  38        7.7657
  39        7.7775
  40        7.8610
  41        7.8610
  42        8.3984
  43        8.4346
  44        8.4962
  45        8.8618
  46        9.0117
  47        9.0679
  48        9.1182
  49        9.1182
  50        9.2292
  51        9.3252
  52        9.3254
  53        9.3387
  54        9.6579
  55        9.7920
  56        9.7920
  57        9.8576
  58        9.8577
  59        9.9622
  60       10.6960
  61       10.7972
  62       10.7972
  63       11.0267
  64       11.0720
  65       11.0968
  66       11.2475
  67       11.2541
  68       11.2554
 
  0.2500000E+00  0.8333333E-01  0.0000000E+00  0.4629630E-02
   1       -2.6148
   2       -1.4159
   3       -0.6230
   4       -0.2284
   5       -0.2284
   6        0.1649
   7        0.5574
   8        0.9458
   9        0.9483
  10        0.9496
  11        1.3378
  12        1.7265
  13        1.7265
  14        2.4992
  15        2.4992
  16        2.8799
  17        2.8810
  18        2.8842
  19        3.2661
  20        3.2661
  21        3.6329
  22        3.6331
  23        3.6480
  24        4.3681
  25        5.2319
  26        5.2319
  27        5.7051
  28        5.9736
  29        5.9736
  30        6.0198
  31        6.2322
  32        6.5916
  33        6.5916
  34        6.8046
  35        6.9557
  36        7.1120
  37        7.5417
  38        7.8418
  39        7.8542
  40        7.9314
  41        7.9314
  42        8.4963
  43        8.5209
  44        8.5209
  45        8.5725
  46        8.8659
  47        8.9392
  48        9.0337
  49        9.0337
  50        9.1579
  51        9.1724
  52        9.2631
  53        9.2632
  54        9.3038
  55        9.4967
  56        9.6718
  57       10.0174
  58       10.0456
  59       10.0456
  60       10.7272
  61       11.1395
  62       11.2411
  63       11.2411
  64       11.3654
  65       11.3654
  66       11.4133
  67       11.4621
  68       11.5765
 
  0.3333333E+00  0.8333333E-01  0.0000000E+00  0.4629630E-02
   1       -2.4978
   2       -1.6980
   3       -0.5077
   4       -0.1135
   5       -0.1135
   6        0.2789
   7        0.2802
   8        0.6714
   9        0.6714
  10        1.0619
  11        1.4493
  12        1.8395
  13        1.8395
  14        2.6099
  15        2.6102
  16        2.6114
  17        2.6118
  18        3.3715
  19        3.3715
  20        3.3767
  21        3.7388
  22        3.7578
  23        3.7578
  24        4.1376
  25        5.6197
  26        5.7093
  27        5.7093
  28        5.8124
  29        5.9870
  30        5.9870
  31        6.1259
  32        6.3549
  33        6.4567
  34        6.4567
  35        6.5458
  36        6.8539
  37        7.6492
  38        7.9177
  39        7.9177
  40        7.9485
  41        7.9607
  42        8.0371
  43        8.0371
  44        8.3295
  45        8.6510
  46        8.6622
  47        8.6626
  48        8.6788
  49        8.6806
  50        8.7728
  51        8.7728
  52        9.4121
  53        9.5654
  54        9.6476
  55        9.7765
  56        9.9999
  57       10.2434
  58       10.2434
  59       10.2760
  60       10.4563
  61       11.0938
  62       11.0938
  63       11.1867
  64       11.6138
  65       11.7127
  66       11.7150
  67       11.7156
  68       11.8223
 
  0.4166667E+00  0.8333333E-01  0.0000000E+00  0.4629630E-02
   1       -2.3474
   2       -1.9474
   3       -0.3597
   4        0.0326
   5        0.0340
   6        0.0355
   7        0.4251
   8        0.4267
   9        0.4280
  10        0.8179
  11        1.9804
  12        1.9846
  13        1.9851
  14        2.3704
  15        2.3704
  16        2.7550
  17        2.7550
  18        3.1276
  19        3.1361
  20        3.1363
  21        3.8988
  22        4.2777
  23        4.2777
  24        4.6551
  25        5.0229
  26        5.3953
  27        5.3953
  28        5.7670
  29        5.9501
  30        6.2207
  31        6.2207
  32        6.2623
  33        6.3170
  34        6.6262
  35        6.9692
  36        6.9692
  37        7.3286
  38        7.3286
  39        7.7853
  40        8.0751
  41        8.0751
  42        8.0855
  43        8.0961
  44        8.1330
  45        8.1746
  46        8.1746
  47        8.4453
  48        8.4512
  49        8.5426
  50        8.5426
  51        8.8166
  52        9.1830
  53        9.8123
  54       10.0485
  55       10.2140
  56       10.2798
  57       10.4307
  58       10.4307
  59       10.4932
  60       10.8491
  61       10.8491
  62       10.8655
  63       10.9363
  64       11.1284
  65       11.3776
  66       12.1188
  67       12.2187
  68       12.2309
 
  0.5000000E+00  0.8333333E-01  0.0000000E+00  0.2314815E-02
   1       -2.1654
   2       -2.1624
   3       -0.1806
   4       -0.1775
   5        0.2120
   6        0.2132
   7        0.2151
   8        0.2163
   9        0.6045
  10        0.6075
  11        2.1595
  12        2.1608
  13        2.1626
  14        2.1639
  15        2.5404
  16        2.5416
  17        2.9280
  18        2.9293
  19        2.9311
  20        2.9324
  21        4.4476
  22        4.4488
  23        4.8233
  24        4.8239
  25        4.8245
  26        4.8251
  27        5.1985
  28        5.1996
  29        6.1167
  30        6.1200
  31        6.4274
  32        6.4307
  33        6.7607
  34        6.7610
  35        6.7620
  36        6.7623
  37        7.5087
  38        7.5090
  39        7.5100
  40        7.5103
  41        7.9466
  42        7.9496
  43        8.2514
  44        8.2547
  45        8.2570
  46        8.2601
  47        8.3407
  48        8.3422
  49        8.3441
  50        8.3455
  51        8.9828
  52        8.9862
  53        9.9983
  54       10.0015
  55       10.5712
  56       10.5732
  57       10.6275
  58       10.6281
  59       10.6308
  60       10.6313
  61       10.7060
  62       10.7092
  63       10.8125
  64       10.8148
  65       11.7627
  66       11.7637
  67       12.6550
  68       12.6612
 
  0.0000000E+00  0.1666667E+00  0.0000000E+00  0.2314815E-02
   1       -2.7153
   2       -1.1180
   3       -0.3299
   4       -0.3269
   5       -0.3269
   6       -0.3240
   7        0.4588
   8        1.2377
   9        1.2407
  10        1.2407
  11        1.2437
  12        2.0148
  13        2.0158
  14        2.0181
  15        2.0190
  16        2.7846
  17        2.7876
  18        2.7876
  19        2.7906
  20        3.5364
  21        3.5372
  22        3.5395
  23        3.5404
  24        4.9848
  25        5.1354
  26        5.1363
  27        5.1386
  28        5.1395
  29        5.9289
  30        5.9289
  31        7.1861
  32        7.1894
  33        7.1894
  34        7.1927
  35        7.3855
  36        7.3855
  37        7.4489
  38        7.4489
  39        8.1128
  40        8.1156
  41        8.1156
  42        8.1184
  43        8.3833
  44        8.7736
  45        8.7736
  46        8.8465
  47        8.8465
  48        9.4702
  49        9.4715
  50        9.4739
  51        9.4753
  52        9.5412
  53        9.5441
  54        9.5441
  55        9.5470
  56        9.5774
  57        9.5803
  58        9.5804
  59        9.5832
  60       11.0292
  61       11.0294
  62       11.0449
  63       11.0479
  64       11.0480
  65       11.0508
  66       11.1870
  67       11.1879
  68       11.1892
 
  0.8333333E-01  0.1666667E+00  0.0000000E+00  0.4629630E-02
   1       -2.6985
   2       -1.1015
   3       -0.7053
   4       -0.3105
   5       -0.3105
   6        0.0830
   7        0.4751
   8        0.8670
   9        1.2569
  10        1.2569
  11        1.6442
  12        1.6456
  13        1.6470
  14        2.4175
  15        2.4190
  16        2.4203
  17        2.8036
  18        2.8036
  19        3.1809
  20        3.1810
  21        3.1870
  22        3.9068
  23        3.9068
  24        4.8032
  25        4.8032
  26        5.0004
  27        5.5221
  28        5.5221
  29        5.6285
  30        5.9440
  31        6.8451
  32        7.0927
  33        7.1892
  34        7.1892
  35        7.4007
  36        7.4643
  37        7.5538
  38        7.7656
  39        7.7775
  40        7.8610
  41        7.8610
  42        8.3984
  43        8.4347
  44        8.4962
  45        8.8618
  46        9.0117
  47        9.0679
  48        9.1182
  49        9.1182
  50        9.2291
  51        9.3253
  52        9.3254
  53        9.3386
  54        9.6579
  55        9.7921
  56        9.7921
  57        9.8576
  58        9.8576
  59        9.9621
  60       10.6959
  61       10.7972
  62       10.7972
  63       11.0267
  64       11.0720
  65       11.0968
  66       11.2472
  67       11.2541
  68       11.2543
 
  0.1666667E+00  0.1666667E+00  0.0000000E+00  0.4629630E-02
   1       -2.6483
   2       -1.0531
   3       -1.0506
   4       -0.2612
   5       -0.2612
   6        0.5224
   7        0.5244
   8        0.5262
   9        1.3038
  10        1.3048
  11        1.3064
  12        1.3073
  13        2.0805
  14        2.0814
  15        2.8479
  16        2.8486
  17        2.8505
  18        2.8509
  19        2.8524
  20        2.8536
  21        3.6163
  22        4.1675
  23        4.1675
  24        4.6381
  25        4.6381
  26        5.0466
  27        5.0474
  28        5.9426
  29        5.9426
  30        5.9895
  31        6.5255
  32        6.5280
  33        7.0903
  34        7.0903
  35        7.4448
  36        7.4477
  37        7.4639
  38        7.4641
  39        7.5105
  40        7.9199
  41        7.9221
  42        8.4432
  43        8.4441
  44        8.7924
  45        8.7934
  46        8.7950
  47        8.7960
  48        8.9055
  49        8.9080
  50        8.9105
  51        9.1243
  52        9.1260
  53        9.6195
  54        9.6224
  55       10.2308
  56       10.2310
  57       10.2714
  58       10.2723
  59       10.2728
  60       10.2739
  61       10.3738
  62       10.3757
  63       10.6995
  64       11.2170
  65       11.2176
  66       11.4889
  67       11.4889
  68       11.7846
 
  0.2500000E+00  0.1666667E+00  0.0000000E+00  0.4629630E-02
   1       -2.5647
   2       -1.3662
   3       -0.9693
   4       -0.1792
   5       -0.1791
   6        0.2143
   7        0.6057
   8        0.9946
   9        0.9971
  10        0.9984
  11        1.3867
  12        1.3867
  13        1.7744
  14        2.5446
  15        2.5463
  16        2.5484
  17        2.9312
  18        2.9312
  19        3.3137
  20        3.3137
  21        4.0317
  22        4.0318
  23        4.0752
  24        4.4152
  25        4.9305
  26        4.9305
  27        5.1247
  28        5.9099
  29        6.0652
  30        6.2364
  31        6.3952
  32        6.3952
  33        6.6102
  34        6.6102
  35        7.1576
  36        7.3469
  37        7.4190
  38        7.4190
  39        7.5224
  40        7.5868
  41        8.1956
  42        8.1956
  43        8.2192
  44        8.5009
  45        8.5009
  46        8.5186
  47        8.6190
  48        8.9839
  49        9.0101
  50        9.2165
  51        9.2306
  52        9.3496
  53        9.4729
  54        9.6795
  55        9.6795
  56       10.0842
  57       10.1525
  58       10.4010
  59       10.5850
  60       10.5850
  61       10.7173
  62       10.7173
  63       10.8181
  64       11.5066
  65       11.5229
  66       11.7983
  67       11.8688
  68       11.9650
 
  0.3333333E+00  0.1666667E+00  0.0000000E+00  0.4629630E-02
   1       -2.4477
   2       -1.6482
   3       -0.8537
   4       -0.0657
   5       -0.0643
   6       -0.0628
   7        0.7186
   8        0.7203
   9        0.7215
  10        1.4966
  11        1.4995
  12        1.5000
  13        1.5013
  14        2.2740
  15        2.2740
  16        3.0414
  17        3.0425
  18        3.0429
  19        3.7859
  20        3.7907
  21        3.7910
  22        3.8049
  23        3.8051
  24        4.5624
  25        5.2333
  26        5.2940
  27        5.3889
  28        5.3890
  29        5.9753
  30        6.0239
  31        6.0239
  32        6.1713
  33        6.7594
  34        6.8781
  35        6.8782
  36        6.8995
  37        7.5073
  38        7.5073
  39        7.5915
  40        7.5916
  41        7.6290
  42        7.6921
  43        8.2385
  44        8.2385
  45        8.2737
  46        8.3599
  47        8.6226
  48        9.0798
  49        9.0801
  50        9.0911
  51        9.1832
  52        9.2834
  53        9.3543
  54        9.8213
  55        9.8253
  56       10.0425
  57       10.1319
  58       10.5519
  59       10.8314
  60       10.8314
  61       11.1913
  62       11.1914
  63       11.2043
  64       11.2922
  65       11.5882
  66       11.7104
  67       11.7104
  68       11.8925
 
  0.4166667E+00  0.1666667E+00  0.0000000E+00  0.4629630E-02
   1       -2.2974
   2       -1.8975
   3       -0.7053
   4       -0.3104
   5        0.0832
   6        0.0832
   7        0.4757
   8        0.4757
   9        0.8664
  10        1.2564
  11        1.6456
  12        1.6457
  13        2.0288
  14        2.0329
  15        2.0334
  16        3.1755
  17        3.1852
  18        3.1854
  19        3.5616
  20        3.5617
  21        3.5658
  22        4.3240
  23        4.3240
  24        4.6943
  25        5.0769
  26        5.3729
  27        5.4379
  28        5.4379
  29        5.7441
  30        5.8956
  31        5.8956
  32        6.1795
  33        6.3077
  34        6.6718
  35        7.0020
  36        7.0020
  37        7.3901
  38        7.3901
  39        7.6401
  40        7.6401
  41        7.7659
  42        7.8243
  43        8.0072
  44        8.0072
  45        8.1314
  46        8.1432
  47        8.4941
  48        8.4941
  49        8.7543
  50        9.0906
  51        9.2283
  52        9.5044
  53        9.5923
  54        9.5950
  55        9.8927
  56       10.3258
  57       10.6313
  58       10.8401
  59       10.9061
  60       11.0374
  61       11.0374
  62       11.3302
  63       11.4237
  64       11.4655
  65       11.4655
  66       11.6944
  67       11.6944
  68       11.7970
 
  0.5000000E+00  0.1666667E+00  0.0000000E+00  0.2314815E-02
   1       -2.1154
   2       -2.1124
   3       -0.5257
   4       -0.5226
   5        0.2611
   6        0.2623
   7        0.2641
   8        0.2654
   9        1.0437
  10        1.0468
  11        1.8212
  12        1.8224
  13        1.8243
  14        1.8255
  15        2.5885
  16        2.5897
  17        3.3565
  18        3.3578
  19        3.3596
  20        3.3609
  21        4.1166
  22        4.1178
  23        4.8683
  24        4.8690
  25        4.8695
  26        4.8702
  27        5.5416
  28        5.5448
  29        5.6164
  30        5.6175
  31        6.4342
  32        6.4345
  33        6.4356
  34        6.4357
  35        6.4730
  36        6.4763
  37        7.8052
  38        7.8065
  39        7.8085
  40        7.8097
  41        7.9284
  42        7.9290
  43        7.9300
  44        7.9300
  45        7.9321
  46        7.9353
  47        7.9773
  48        7.9803
  49        8.9101
  50        8.9132
  51        9.3946
  52        9.3980
  53        9.6820
  54        9.6851
  55       10.0885
  56       10.0903
  57       10.8585
  58       10.8608
  59       11.0847
  60       11.0880
  61       11.2413
  62       11.2421
  63       11.2447
  64       11.2455
  65       11.8004
  66       11.8013
  67       12.2253
  68       12.2267
 
  0.0000000E+00  0.2500000E+00  0.0000000E+00  0.2314815E-02
   1       -2.6316
   2       -1.4325
   3       -0.2478
   4       -0.2448
   5       -0.2448
   6       -0.2418
   7        0.9288
   8        0.9310
   9        0.9320
  10        0.9320
  11        0.9351
  12        2.0954
  13        2.0963
  14        2.0986
  15        2.0995
  16        3.2423
  17        3.2433
  18        3.2457
  19        3.2462
  20        3.2476
  21        3.2503
  22        3.2503
  23        3.2534
  24        4.3523
  25        5.5825
  26        5.5834
  27        5.5858
  28        5.5867
  29        6.0046
  30        6.0047
  31        6.5785
  32        6.5817
  33        6.5817
  34        6.5849
  35        7.0968
  36        7.0968
  37        7.5266
  38        7.5267
  39        8.1890
  40        8.1918
  41        8.1918
  42        8.1946
  43        8.5583
  44        8.5584
  45        8.8744
  46        8.8756
  47        8.8780
  48        8.8793
  49        9.1577
  50        9.2866
  51        9.2885
  52        9.2889
  53        9.2901
  54        9.2902
  55        9.2933
  56        9.7710
  57        9.7737
  58        9.7737
  59        9.7764
  60       11.0788
  61       11.0813
  62       11.0813
  63       11.0838
  64       11.3844
  65       11.3845
  66       11.4890
  67       11.4916
  68       11.4936
 