 vasp.4.6.28 25Jul05 complex 
 executed on             LinuxIFC date 2016.10.21  16:38:03
 running on    4 nodes
 distr:  one band on    1 nodes,    4 groups


--------------------------------------------------------------------------------------------------------


 INCAR:
 POTCAR:   PAW_PBE Al 04Jan2001                   
 POTCAR:   PAW_PBE Al 04Jan2001                   
   VRHFIN =Al: s2p1                                                             
   LEXCH  = PE                                                                  
   EATOM  =    53.5387 eV,    3.9350 Ry                                         
                                                                                
   TITEL  = PAW_PBE Al 04Jan2001                                                
   LULTRA =        F    use ultrasoft PP ?                                      
   IUNSCR =        1    unscreen: 0-lin 1-nonlin 2-no                           
   RPACOR =    1.500    partial core radius                                     
   POMASS =   26.982; ZVAL   =    3.000    mass and valenz                      
   RCORE  =    1.900    outmost cutoff radius                                   
   RWIGS  =    2.650; RWIGS  =    1.402    wigner-seitz radius (au A)           
   ENMAX  =  240.300; ENMIN  =  180.225 eV                                      
   ICORE  =        2    local potential                                         
   LCOR   =        T    correct aug charges                                     
   LPAW   =        T    paw PP                                                  
   EAUG   =  291.052                                                            
   DEXC   =    -.041                                                            
   RMAX   =    2.974    core radius for proj-oper                               
   RAUG   =    1.300    factor for augmentation sphere                          
   RDEP   =    1.966    radius for radial grids                                 
   QCUT   =   -4.203; QGAM   =    8.405    optimization parameters              
                                                                                
   Description                                                                  
     l     E      TYP  RCUT    TYP  RCUT                                        
     0   .000     23  1.900                                                     
     0   .000     23  1.900                                                     
     1   .000     23  1.900                                                     
     1  1.000     23  1.900                                                     
     2   .000      7  1.900                                                     
  local pseudopotential read in
  partial core-charges read in
  atomic valenz-charges read in
  non local Contribution for L=           0  read in
    real space projection operators read in
  non local Contribution for L=           0  read in
    real space projection operators read in
  non local Contribution for L=           1  read in
    real space projection operators read in
  non local Contribution for L=           1  read in
    real space projection operators read in
    PAW grid and wavefunctions read in
 
   number of l-projection  operators is LMAX  =           4
   number of lm-projection operators is LMMAX =           8
 

 ----------------------------------------------------------------------------- 
|                                                                             |
|  ADVICE TO THIS USER RUNNING 'VASP/VAMP'   (HEAR YOUR MASTER'S VOICE ...):  |
|                                                                             |
|      You have a (more or less) 'large supercell' and for larger cells       |
|      it might be more efficient to use real space projection operators      |
|      So try LREAL= Auto  in the INCAR   file.                               |
|      Mind: If you want to do an extremely accurate calculations keep the    |
|      reciprocal projection scheme          (i.e. LREAL=.FALSE.)             |
|                                                                             |
 ----------------------------------------------------------------------------- 

 PAW_PBE Al 04Jan2001                   :
 energy of atom  1       EATOM=  -53.5387
 kinetic energy error for atom=    0.0003 (will be added to EATOM!!)
 
 EXHCAR: internal setup
 exchange correlation table for  LEXCH =        8
   RHO(1)=    0.500       N(1)  =     2000
   RHO(2)=  100.500       N(2)  =     4000
 
 POSCAR: Al                                      
  positions in direct lattice
  No initial velocities read in
 


--------------------------------------------------------------------------------------------------------


 ion  position               nearest neighbor table
   1  0.251  0.250  0.000-  18 2.76  22 2.76  26 2.76  28 2.76   9 2.77  11 2.77  13 2.77  15 2.77
                            25 2.78  21 2.78  27 2.78  17 2.78
   2  0.750  0.250  0.000-  10 2.77  12 2.77  14 2.77  16 2.77  17 2.77  18 2.77  21 2.77  22 2.77
                            25 2.77  26 2.77  27 2.77  28 2.77
   3  0.250  0.750  0.000-   9 2.77  11 2.77  13 2.77  15 2.77  19 2.77  20 2.77  23 2.77  24 2.77
                            25 2.77  26 2.77  27 2.77  28 2.77
   4  0.750  0.750  0.000-  10 2.77  12 2.77  14 2.77  16 2.77  19 2.77  20 2.77  23 2.77  24 2.77
                            25 2.77  26 2.77  27 2.77  28 2.77
   5  0.250  0.250  0.500-   9 2.77  11 2.77  13 2.77  15 2.77  17 2.77  18 2.77  21 2.77  22 2.77
                            29 2.77  30 2.77  31 2.77  32 2.77
   6  0.750  0.250  0.500-  10 2.77  12 2.77  14 2.77  16 2.77  17 2.77  18 2.77  21 2.77  22 2.77
                            29 2.77  30 2.77  31 2.77  32 2.77
   7  0.250  0.750  0.500-   9 2.77  11 2.77  13 2.77  15 2.77  19 2.77  20 2.77  23 2.77  24 2.77
                            29 2.77  30 2.77  31 2.77  32 2.77
   8  0.750  0.750  0.500-  10 2.77  12 2.77  14 2.77  16 2.77  19 2.77  20 2.77  23 2.77  24 2.77
                            29 2.77  30 2.77  31 2.77  32 2.77
   9  0.250  0.000  0.250-   3 2.77   5 2.77   7 2.77  17 2.77  18 2.77  19 2.77  20 2.77  25 2.77
                            26 2.77  29 2.77  30 2.77   1 2.77
  10  0.750  0.000  0.250-   2 2.77   4 2.77   6 2.77   8 2.77  17 2.77  18 2.77  19 2.77  20 2.77
                            25 2.77  26 2.77  29 2.77  30 2.77
  11  0.250  0.500  0.250-   3 2.77   5 2.77   7 2.77  17 2.77  18 2.77  19 2.77  20 2.77  27 2.77
                            28 2.77  31 2.77  32 2.77   1 2.77
  12  0.750  0.500  0.250-   2 2.77   4 2.77   6 2.77   8 2.77  17 2.77  18 2.77  19 2.77  20 2.77
                            27 2.77  28 2.77  31 2.77  32 2.77
  13  0.250  0.000  0.750-   3 2.77   5 2.77   7 2.77  21 2.77  22 2.77  23 2.77  24 2.77  25 2.77
                            26 2.77  29 2.77  30 2.77   1 2.77
  14  0.750  0.000  0.750-   2 2.77   4 2.77   6 2.77   8 2.77  21 2.77  22 2.77  23 2.77  24 2.77
                            25 2.77  26 2.77  29 2.77  30 2.77
  15  0.250  0.500  0.750-   3 2.77   5 2.77   7 2.77  21 2.77  22 2.77  23 2.77  24 2.77  27 2.77
                            28 2.77  31 2.77  32 2.77   1 2.77
  16  0.750  0.500  0.750-   2 2.77   4 2.77   6 2.77   8 2.77  21 2.77  22 2.77  23 2.77  24 2.77
                            27 2.77  28 2.77  31 2.77  32 2.77
  17  0.000  0.250  0.250-   2 2.77   5 2.77   6 2.77   9 2.77  10 2.77  11 2.77  12 2.77  25 2.77
                            27 2.77  29 2.77  31 2.77   1 2.78
  18  0.500  0.250  0.250-   1 2.76   2 2.77   5 2.77   6 2.77   9 2.77  10 2.77  11 2.77  12 2.77
                            26 2.77  28 2.77  30 2.77  32 2.77
  19  0.000  0.750  0.250-   3 2.77   4 2.77   7 2.77   8 2.77   9 2.77  10 2.77  11 2.77  12 2.77
                            25 2.77  27 2.77  29 2.77  31 2.77
  20  0.500  0.750  0.250-   3 2.77   4 2.77   7 2.77   8 2.77   9 2.77  10 2.77  11 2.77  12 2.77
                            26 2.77  28 2.77  30 2.77  32 2.77
  21  0.000  0.250  0.750-   2 2.77   5 2.77   6 2.77  13 2.77  14 2.77  15 2.77  16 2.77  25 2.77
                            27 2.77  29 2.77  31 2.77   1 2.78
  22  0.500  0.250  0.750-   1 2.76   2 2.77   5 2.77   6 2.77  13 2.77  14 2.77  15 2.77  16 2.77
                            26 2.77  28 2.77  30 2.77  32 2.77
  23  0.000  0.750  0.750-   3 2.77   4 2.77   7 2.77   8 2.77  13 2.77  14 2.77  15 2.77  16 2.77
                            25 2.77  27 2.77  29 2.77  31 2.77
  24  0.500  0.750  0.750-   3 2.77   4 2.77   7 2.77   8 2.77  13 2.77  14 2.77  15 2.77  16 2.77
                            26 2.77  28 2.77  30 2.77  32 2.77
  25  0.000  0.000  0.000-   2 2.77   3 2.77   4 2.77   9 2.77  10 2.77  13 2.77  14 2.77  17 2.77
                            19 2.77  21 2.77  23 2.77   1 2.78
  26  0.500  0.000  0.000-   1 2.76   2 2.77   3 2.77   4 2.77   9 2.77  10 2.77  13 2.77  14 2.77
                            18 2.77  20 2.77  22 2.77  24 2.77
  27  0.000  0.500  0.000-   2 2.77   3 2.77   4 2.77  11 2.77  12 2.77  15 2.77  16 2.77  17 2.77
                            19 2.77  21 2.77  23 2.77   1 2.78
  28  0.500  0.500  0.000-   1 2.76   2 2.77   3 2.77   4 2.77  11 2.77  12 2.77  15 2.77  16 2.77
                            18 2.77  20 2.77  22 2.77  24 2.77
  29  0.000  0.000  0.500-   5 2.77   6 2.77   7 2.77   8 2.77   9 2.77  10 2.77  13 2.77  14 2.77
                            17 2.77  19 2.77  21 2.77  23 2.77
  30  0.500  0.000  0.500-   5 2.77   6 2.77   7 2.77   8 2.77   9 2.77  10 2.77  13 2.77  14 2.77
                            18 2.77  20 2.77  22 2.77  24 2.77
  31  0.000  0.500  0.500-   5 2.77   6 2.77   7 2.77   8 2.77  11 2.77  12 2.77  15 2.77  16 2.77
                            17 2.77  19 2.77  21 2.77  23 2.77
  32  0.500  0.500  0.500-   5 2.77   6 2.77   7 2.77   8 2.77  11 2.77  12 2.77  15 2.77  16 2.77
                            18 2.77  20 2.77  22 2.77  24 2.77
 
  LATTYP: Found a simple cubic cell.
 ALAT       =     7.8323743572
  
  Lattice vectors:
  
 A1 = (   7.8323743572,   0.0000000000,   0.0000000000)
 A2 = (   0.0000000000,   7.8323743572,   0.0000000000)
 A3 = (   0.0000000000,   0.0000000000,   7.8323743572)
 Subroutine PRICEL returns:
 Original cell was already a primitive cell.
 

Analysis of symmetry for initial positions (statically):

 Routine SETGRP: Setting up the symmetry group for a 
 simple cubic supercell.


 Subroutine GETGRP returns: Found  8 space group operations
 (whereof  2 operations were pure point group operations)
 out of a pool of 48 trial point group operations.


The static configuration has the point symmetry C_1h.
 The point group associated with its full space group is C_4v.

Analysis of symmetry for dynamics (positions and initial velocities):

 Subroutine DYNSYM returns: Found  8 space group operations
 (whereof  2 operations were pure point group operations)
 out of a pool of  8 trial space group operations
 (whereof  2 operations were pure point group operations)
 and found also     1 'primitive' translations


The dynamic configuration has the point symmetry C_1h.
 The point group associated with its full space group is C_4v.
 
 
 KPOINTS: Automatic mesh                          

Automatic generation of k-mesh.
 
 Subroutine IBZKPT returns following result:
 ===========================================
 
 Found    196 irreducible k-points:
 
 Following reciprocal coordinates:
            Coordinates               Weight
  0.000000  0.000000  0.000000      1.000000
  0.083333  0.000000  0.000000      2.000000
  0.166667  0.000000  0.000000      2.000000
  0.250000  0.000000  0.000000      2.000000
  0.333333  0.000000  0.000000      2.000000
  0.416667  0.000000  0.000000      2.000000
  0.500000  0.000000  0.000000      1.000000
  0.000000  0.083333  0.000000      4.000000
  0.083333  0.083333  0.000000      8.000000
  0.166667  0.083333  0.000000      8.000000
  0.250000  0.083333  0.000000      8.000000
  0.333333  0.083333  0.000000      8.000000
  0.416667  0.083333  0.000000      8.000000
  0.500000  0.083333  0.000000      4.000000
  0.000000  0.166667  0.000000      4.000000
  0.083333  0.166667  0.000000      8.000000
  0.166667  0.166667  0.000000      8.000000
  0.250000  0.166667  0.000000      8.000000
  0.333333  0.166667  0.000000      8.000000
  0.416667  0.166667  0.000000      8.000000
  0.500000  0.166667  0.000000      4.000000
  0.000000  0.250000  0.000000      4.000000
  0.083333  0.250000  0.000000      8.000000
  0.166667  0.250000  0.000000      8.000000
  0.250000  0.250000  0.000000      8.000000
  0.333333  0.250000  0.000000      8.000000
  0.416667  0.250000  0.000000      8.000000
  0.500000  0.250000  0.000000      4.000000
  0.000000  0.333333  0.000000      4.000000
  0.083333  0.333333  0.000000      8.000000
  0.166667  0.333333  0.000000      8.000000
  0.250000  0.333333  0.000000      8.000000
  0.333333  0.333333  0.000000      8.000000
  0.416667  0.333333  0.000000      8.000000
  0.500000  0.333333  0.000000      4.000000
  0.000000  0.416667  0.000000      4.000000
  0.083333  0.416667  0.000000      8.000000
  0.166667  0.416667  0.000000      8.000000
  0.250000  0.416667  0.000000      8.000000
  0.333333  0.416667  0.000000      8.000000
  0.416667  0.416667  0.000000      8.000000
  0.500000  0.416667  0.000000      4.000000
  0.000000  0.500000  0.000000      2.000000
  0.083333  0.500000  0.000000      4.000000
  0.166667  0.500000  0.000000      4.000000
  0.250000  0.500000  0.000000      4.000000
  0.333333  0.500000  0.000000      4.000000
  0.416667  0.500000  0.000000      4.000000
  0.500000  0.500000  0.000000      2.000000
  0.000000  0.083333  0.083333      4.000000
  0.083333  0.083333  0.083333      8.000000
  0.166667  0.083333  0.083333      8.000000
  0.250000  0.083333  0.083333      8.000000
  0.333333  0.083333  0.083333      8.000000
  0.416667  0.083333  0.083333      8.000000
  0.500000  0.083333  0.083333      4.000000
  0.000000  0.166667  0.083333      8.000000
  0.083333  0.166667  0.083333     16.000000
  0.166667  0.166667  0.083333     16.000000
  0.250000  0.166667  0.083333     16.000000
  0.333333  0.166667  0.083333     16.000000
  0.416667  0.166667  0.083333     16.000000
  0.500000  0.166667  0.083333      8.000000
  0.000000  0.250000  0.083333      8.000000
  0.083333  0.250000  0.083333     16.000000
  0.166667  0.250000  0.083333     16.000000
  0.250000  0.250000  0.083333     16.000000
  0.333333  0.250000  0.083333     16.000000
  0.416667  0.250000  0.083333     16.000000
  0.500000  0.250000  0.083333      8.000000
  0.000000  0.333333  0.083333      8.000000
  0.083333  0.333333  0.083333     16.000000
  0.166667  0.333333  0.083333     16.000000
  0.250000  0.333333  0.083333     16.000000
  0.333333  0.333333  0.083333     16.000000
  0.416667  0.333333  0.083333     16.000000
  0.500000  0.333333  0.083333      8.000000
  0.000000  0.416667  0.083333      8.000000
  0.083333  0.416667  0.083333     16.000000
  0.166667  0.416667  0.083333     16.000000
  0.250000  0.416667  0.083333     16.000000
  0.333333  0.416667  0.083333     16.000000
  0.416667  0.416667  0.083333     16.000000
  0.500000  0.416667  0.083333      8.000000
  0.000000  0.500000  0.083333      4.000000
  0.083333  0.500000  0.083333      8.000000
  0.166667  0.500000  0.083333      8.000000
  0.250000  0.500000  0.083333      8.000000
  0.333333  0.500000  0.083333      8.000000
  0.416667  0.500000  0.083333      8.000000
  0.500000  0.500000  0.083333      4.000000
  0.000000  0.166667  0.166667      4.000000
  0.083333  0.166667  0.166667      8.000000
  0.166667  0.166667  0.166667      8.000000
  0.250000  0.166667  0.166667      8.000000
  0.333333  0.166667  0.166667      8.000000
  0.416667  0.166667  0.166667      8.000000
  0.500000  0.166667  0.166667      4.000000
  0.000000  0.250000  0.166667      8.000000
  0.083333  0.250000  0.166667     16.000000
  0.166667  0.250000  0.166667     16.000000
  0.250000  0.250000  0.166667     16.000000
  0.333333  0.250000  0.166667     16.000000
  0.416667  0.250000  0.166667     16.000000
  0.500000  0.250000  0.166667      8.000000
  0.000000  0.333333  0.166667      8.000000
  0.083333  0.333333  0.166667     16.000000
  0.166667  0.333333  0.166667     16.000000
  0.250000  0.333333  0.166667     16.000000
  0.333333  0.333333  0.166667     16.000000
  0.416667  0.333333  0.166667     16.000000
  0.500000  0.333333  0.166667      8.000000
  0.000000  0.416667  0.166667      8.000000
  0.083333  0.416667  0.166667     16.000000
  0.166667  0.416667  0.166667     16.000000
  0.250000  0.416667  0.166667     16.000000
  0.333333  0.416667  0.166667     16.000000
  0.416667  0.416667  0.166667     16.000000
  0.500000  0.416667  0.166667      8.000000
  0.000000  0.500000  0.166667      4.000000
  0.083333  0.500000  0.166667      8.000000
  0.166667  0.500000  0.166667      8.000000
  0.250000  0.500000  0.166667      8.000000
  0.333333  0.500000  0.166667      8.000000
  0.416667  0.500000  0.166667      8.000000
  0.500000  0.500000  0.166667      4.000000
  0.000000  0.250000  0.250000      4.000000
  0.083333  0.250000  0.250000      8.000000
  0.166667  0.250000  0.250000      8.000000
  0.250000  0.250000  0.250000      8.000000
  0.333333  0.250000  0.250000      8.000000
  0.416667  0.250000  0.250000      8.000000
  0.500000  0.250000  0.250000      4.000000
  0.000000  0.333333  0.250000      8.000000
  0.083333  0.333333  0.250000     16.000000
  0.166667  0.333333  0.250000     16.000000
  0.250000  0.333333  0.250000     16.000000
  0.333333  0.333333  0.250000     16.000000
  0.416667  0.333333  0.250000     16.000000
  0.500000  0.333333  0.250000      8.000000
  0.000000  0.416667  0.250000      8.000000
  0.083333  0.416667  0.250000     16.000000
  0.166667  0.416667  0.250000     16.000000
  0.250000  0.416667  0.250000     16.000000
  0.333333  0.416667  0.250000     16.000000
  0.416667  0.416667  0.250000     16.000000
  0.500000  0.416667  0.250000      8.000000
  0.000000  0.500000  0.250000      4.000000
  0.083333  0.500000  0.250000      8.000000
  0.166667  0.500000  0.250000      8.000000
  0.250000  0.500000  0.250000      8.000000
  0.333333  0.500000  0.250000      8.000000
  0.416667  0.500000  0.250000      8.000000
  0.500000  0.500000  0.250000      4.000000
  0.000000  0.333333  0.333333      4.000000
  0.083333  0.333333  0.333333      8.000000
  0.166667  0.333333  0.333333      8.000000
  0.250000  0.333333  0.333333      8.000000
  0.333333  0.333333  0.333333      8.000000
  0.416667  0.333333  0.333333      8.000000
  0.500000  0.333333  0.333333      4.000000
  0.000000  0.416667  0.333333      8.000000
  0.083333  0.416667  0.333333     16.000000
  0.166667  0.416667  0.333333     16.000000
  0.250000  0.416667  0.333333     16.000000
  0.333333  0.416667  0.333333     16.000000
  0.416667  0.416667  0.333333     16.000000
  0.500000  0.416667  0.333333      8.000000
  0.000000  0.500000  0.333333      4.000000
  0.083333  0.500000  0.333333      8.000000
  0.166667  0.500000  0.333333      8.000000
  0.250000  0.500000  0.333333      8.000000
  0.333333  0.500000  0.333333      8.000000
  0.416667  0.500000  0.333333      8.000000
  0.500000  0.500000  0.333333      4.000000
  0.000000  0.416667  0.416667      4.000000
  0.083333  0.416667  0.416667      8.000000
  0.166667  0.416667  0.416667      8.000000
  0.250000  0.416667  0.416667      8.000000
  0.333333  0.416667  0.416667      8.000000
  0.416667  0.416667  0.416667      8.000000
  0.500000  0.416667  0.416667      4.000000
  0.000000  0.500000  0.416667      4.000000
  0.083333  0.500000  0.416667      8.000000
  0.166667  0.500000  0.416667      8.000000
  0.250000  0.500000  0.416667      8.000000
  0.333333  0.500000  0.416667      8.000000
  0.416667  0.500000  0.416667      8.000000
  0.500000  0.500000  0.416667      4.000000
  0.000000  0.500000  0.500000      1.000000
  0.083333  0.500000  0.500000      2.000000
  0.166667  0.500000  0.500000      2.000000
  0.250000  0.500000  0.500000      2.000000
  0.333333  0.500000  0.500000      2.000000
  0.416667  0.500000  0.500000      2.000000
  0.500000  0.500000  0.500000      1.000000
 
 Following cartesian coordinates:
            Coordinates               Weight
  0.000000  0.000000  0.000000      1.000000
  0.010640  0.000000  0.000000      2.000000
  0.021279  0.000000  0.000000      2.000000
  0.031919  0.000000  0.000000      2.000000
  0.042558  0.000000  0.000000      2.000000
  0.053198  0.000000  0.000000      2.000000
  0.063838  0.000000  0.000000      1.000000
  0.000000  0.010640  0.000000      4.000000
  0.010640  0.010640  0.000000      8.000000
  0.021279  0.010640  0.000000      8.000000
  0.031919  0.010640  0.000000      8.000000
  0.042558  0.010640  0.000000      8.000000
  0.053198  0.010640  0.000000      8.000000
  0.063838  0.010640  0.000000      4.000000
  0.000000  0.021279  0.000000      4.000000
  0.010640  0.021279  0.000000      8.000000
  0.021279  0.021279  0.000000      8.000000
  0.031919  0.021279  0.000000      8.000000
  0.042558  0.021279  0.000000      8.000000
  0.053198  0.021279  0.000000      8.000000
  0.063838  0.021279  0.000000      4.000000
  0.000000  0.031919  0.000000      4.000000
  0.010640  0.031919  0.000000      8.000000
  0.021279  0.031919  0.000000      8.000000
  0.031919  0.031919  0.000000      8.000000
  0.042558  0.031919  0.000000      8.000000
  0.053198  0.031919  0.000000      8.000000
  0.063838  0.031919  0.000000      4.000000
  0.000000  0.042558  0.000000      4.000000
  0.010640  0.042558  0.000000      8.000000
  0.021279  0.042558  0.000000      8.000000
  0.031919  0.042558  0.000000      8.000000
  0.042558  0.042558  0.000000      8.000000
  0.053198  0.042558  0.000000      8.000000
  0.063838  0.042558  0.000000      4.000000
  0.000000  0.053198  0.000000      4.000000
  0.010640  0.053198  0.000000      8.000000
  0.021279  0.053198  0.000000      8.000000
  0.031919  0.053198  0.000000      8.000000
  0.042558  0.053198  0.000000      8.000000
  0.053198  0.053198  0.000000      8.000000
  0.063838  0.053198  0.000000      4.000000
  0.000000  0.063838  0.000000      2.000000
  0.010640  0.063838  0.000000      4.000000
  0.021279  0.063838  0.000000      4.000000
  0.031919  0.063838  0.000000      4.000000
  0.042558  0.063838  0.000000      4.000000
  0.053198  0.063838  0.000000      4.000000
  0.063838  0.063838  0.000000      2.000000
  0.000000  0.010640  0.010640      4.000000
  0.010640  0.010640  0.010640      8.000000
  0.021279  0.010640  0.010640      8.000000
  0.031919  0.010640  0.010640      8.000000
  0.042558  0.010640  0.010640      8.000000
  0.053198  0.010640  0.010640      8.000000
  0.063838  0.010640  0.010640      4.000000
  0.000000  0.021279  0.010640      8.000000
  0.010640  0.021279  0.010640     16.000000
  0.021279  0.021279  0.010640     16.000000
  0.031919  0.021279  0.010640     16.000000
  0.042558  0.021279  0.010640     16.000000
  0.053198  0.021279  0.010640     16.000000
  0.063838  0.021279  0.010640      8.000000
  0.000000  0.031919  0.010640      8.000000
  0.010640  0.031919  0.010640     16.000000
  0.021279  0.031919  0.010640     16.000000
  0.031919  0.031919  0.010640     16.000000
  0.042558  0.031919  0.010640     16.000000
  0.053198  0.031919  0.010640     16.000000
  0.063838  0.031919  0.010640      8.000000
  0.000000  0.042558  0.010640      8.000000
  0.010640  0.042558  0.010640     16.000000
  0.021279  0.042558  0.010640     16.000000
  0.031919  0.042558  0.010640     16.000000
  0.042558  0.042558  0.010640     16.000000
  0.053198  0.042558  0.010640     16.000000
  0.063838  0.042558  0.010640      8.000000
  0.000000  0.053198  0.010640      8.000000
  0.010640  0.053198  0.010640     16.000000
  0.021279  0.053198  0.010640     16.000000
  0.031919  0.053198  0.010640     16.000000
  0.042558  0.053198  0.010640     16.000000
  0.053198  0.053198  0.010640     16.000000
  0.063838  0.053198  0.010640      8.000000
  0.000000  0.063838  0.010640      4.000000
  0.010640  0.063838  0.010640      8.000000
  0.021279  0.063838  0.010640      8.000000
  0.031919  0.063838  0.010640      8.000000
  0.042558  0.063838  0.010640      8.000000
  0.053198  0.063838  0.010640      8.000000
  0.063838  0.063838  0.010640      4.000000
  0.000000  0.021279  0.021279      4.000000
  0.010640  0.021279  0.021279      8.000000
  0.021279  0.021279  0.021279      8.000000
  0.031919  0.021279  0.021279      8.000000
  0.042558  0.021279  0.021279      8.000000
  0.053198  0.021279  0.021279      8.000000
  0.063838  0.021279  0.021279      4.000000
  0.000000  0.031919  0.021279      8.000000
  0.010640  0.031919  0.021279     16.000000
  0.021279  0.031919  0.021279     16.000000
  0.031919  0.031919  0.021279     16.000000
  0.042558  0.031919  0.021279     16.000000
  0.053198  0.031919  0.021279     16.000000
  0.063838  0.031919  0.021279      8.000000
  0.000000  0.042558  0.021279      8.000000
  0.010640  0.042558  0.021279     16.000000
  0.021279  0.042558  0.021279     16.000000
  0.031919  0.042558  0.021279     16.000000
  0.042558  0.042558  0.021279     16.000000
  0.053198  0.042558  0.021279     16.000000
  0.063838  0.042558  0.021279      8.000000
  0.000000  0.053198  0.021279      8.000000
  0.010640  0.053198  0.021279     16.000000
  0.021279  0.053198  0.021279     16.000000
  0.031919  0.053198  0.021279     16.000000
  0.042558  0.053198  0.021279     16.000000
  0.053198  0.053198  0.021279     16.000000
  0.063838  0.053198  0.021279      8.000000
  0.000000  0.063838  0.021279      4.000000
  0.010640  0.063838  0.021279      8.000000
  0.021279  0.063838  0.021279      8.000000
  0.031919  0.063838  0.021279      8.000000
  0.042558  0.063838  0.021279      8.000000
  0.053198  0.063838  0.021279      8.000000
  0.063838  0.063838  0.021279      4.000000
  0.000000  0.031919  0.031919      4.000000
  0.010640  0.031919  0.031919      8.000000
  0.021279  0.031919  0.031919      8.000000
  0.031919  0.031919  0.031919      8.000000
  0.042558  0.031919  0.031919      8.000000
  0.053198  0.031919  0.031919      8.000000
  0.063838  0.031919  0.031919      4.000000
  0.000000  0.042558  0.031919      8.000000
  0.010640  0.042558  0.031919     16.000000
  0.021279  0.042558  0.031919     16.000000
  0.031919  0.042558  0.031919     16.000000
  0.042558  0.042558  0.031919     16.000000
  0.053198  0.042558  0.031919     16.000000
  0.063838  0.042558  0.031919      8.000000
  0.000000  0.053198  0.031919      8.000000
  0.010640  0.053198  0.031919     16.000000
  0.021279  0.053198  0.031919     16.000000
  0.031919  0.053198  0.031919     16.000000
  0.042558  0.053198  0.031919     16.000000
  0.053198  0.053198  0.031919     16.000000
  0.063838  0.053198  0.031919      8.000000
  0.000000  0.063838  0.031919      4.000000
  0.010640  0.063838  0.031919      8.000000
  0.021279  0.063838  0.031919      8.000000
  0.031919  0.063838  0.031919      8.000000
  0.042558  0.063838  0.031919      8.000000
  0.053198  0.063838  0.031919      8.000000
  0.063838  0.063838  0.031919      4.000000
  0.000000  0.042558  0.042558      4.000000
  0.010640  0.042558  0.042558      8.000000
  0.021279  0.042558  0.042558      8.000000
  0.031919  0.042558  0.042558      8.000000
  0.042558  0.042558  0.042558      8.000000
  0.053198  0.042558  0.042558      8.000000
  0.063838  0.042558  0.042558      4.000000
  0.000000  0.053198  0.042558      8.000000
  0.010640  0.053198  0.042558     16.000000
  0.021279  0.053198  0.042558     16.000000
  0.031919  0.053198  0.042558     16.000000
  0.042558  0.053198  0.042558     16.000000
  0.053198  0.053198  0.042558     16.000000
  0.063838  0.053198  0.042558      8.000000
  0.000000  0.063838  0.042558      4.000000
  0.010640  0.063838  0.042558      8.000000
  0.021279  0.063838  0.042558      8.000000
  0.031919  0.063838  0.042558      8.000000
  0.042558  0.063838  0.042558      8.000000
  0.053198  0.063838  0.042558      8.000000
  0.063838  0.063838  0.042558      4.000000
  0.000000  0.053198  0.053198      4.000000
  0.010640  0.053198  0.053198      8.000000
  0.021279  0.053198  0.053198      8.000000
  0.031919  0.053198  0.053198      8.000000
  0.042558  0.053198  0.053198      8.000000
  0.053198  0.053198  0.053198      8.000000
  0.063838  0.053198  0.053198      4.000000
  0.000000  0.063838  0.053198      4.000000
  0.010640  0.063838  0.053198      8.000000
  0.021279  0.063838  0.053198      8.000000
  0.031919  0.063838  0.053198      8.000000
  0.042558  0.063838  0.053198      8.000000
  0.053198  0.063838  0.053198      8.000000
  0.063838  0.063838  0.053198      4.000000
  0.000000  0.063838  0.063838      1.000000
  0.010640  0.063838  0.063838      2.000000
  0.021279  0.063838  0.063838      2.000000
  0.031919  0.063838  0.063838      2.000000
  0.042558  0.063838  0.063838      2.000000
  0.053198  0.063838  0.063838      2.000000
  0.063838  0.063838  0.063838      1.000000
 


--------------------------------------------------------------------------------------------------------




 Dimension of arrays:
   k-Points           NKPTS =    196   number of bands    NBANDS=     68
   number of dos      NEDOS =    301   number of ions     NIONS =     32
   non local maximal  LDIM  =      4   non local SUM 2l+1 LMDIM =      8
   total plane-waves  NPLWV = 216000
   max r-space proj   IRMAX =      1   max aug-charges    IRDMAX=  17694
   dimension x,y,z NGX =    60 NGY =   60 NGZ =   60
   dimension x,y,z NGXF=   120 NGYF=  120 NGZF=  120
   support grid    NGXF=   120 NGYF=  120 NGZF=  120
   ions per type =              32
 NGX,Y,Z   is equivalent  to a cutoff of  12.74, 12.74, 12.74 a.u.
 NGXF,Y,Z  is equivalent  to a cutoff of  25.47, 25.47, 25.47 a.u.


 I would recommend the setting:
   dimension x,y,z NGX =    57 NGY =   57 NGZ =   57
 SYSTEM =  unknown system                          
 POSCAR =  Al                                      

 Startparameter for this run:
   NWRITE =      2    write-flag & timer
   PREC   = accura    medium, high low
   ISTART =      0    job   : 0-new  1-cont  2-samecut
   ICHARG =      2    charge: 1-file 2-atom 10-const
   ISPIN  =      1    spin polarized calculation?
   LNONCOLLINEAR =      F non collinear calculations
   LSORBIT =      F    spin-orbit coupling
   INIWAV =      1    electr: 0-lowe 1-rand  2-diag
   LASPH  =      F    aspherical Exc in radial PAW
   METAGGA=      F    non-selfconsistent MetaGGA calc.

 Electronic Relaxation 1
   ENCUT  =  500.0 eV  36.75 Ry    6.06 a.u.  14.28 14.28 14.28*2*pi/ulx,y,z
   ENINI  =  500.0     initial cutoff
   ENAUG  =  291.1 eV  augmentation charge cutoff
   NELM   =     60;   NELMIN=  2; NELMDL= -5     # of ELM steps 
   EDIFF  = 0.1E-07   stopping-criterion for ELM
   LREAL  =      F    real-space projection
   LCOMPAT=      F    compatible to vasp.4.4
   LREAL_COMPAT= F    compatible to vasp.4.5.1-3
   GGA_COMPAT  = T    GGA compatible to vasp.4.4-vasp.4.6
   LMAXPAW     = -100 max onsite density
   LMAXMIX     =    2 max onsite mixed and CHGCAR
   VOSKOWN=      0    Vosko Wilk Nusair interpolation
   ROPT   =    0.00000
 Ionic relaxation
   EDIFFG = 0.1E-06   stopping-criterion for IOM
   NSW    =      0    number of steps for IOM
   NBLOCK =      1;   KBLOCK =      1    inner block; outer block 
   IBRION =     -1    ionic relax: 0-MD 1-quasi-New 2-CG
   NFREE  =      0    steps in history (QN), initial steepest desc. (CG)
   ISIF   =      2    stress and relaxation
   IWAVPR =     10    prediction:  0-non 1-charg 2-wave 3-comb
   ISYM   =      2    0-nonsym 1-usesym 2-fastsym
   LCORR  =      T    Harris-Foulkes like correction to forces

   POTIM  =   0.50    time-step for ionic-motion
   TEIN   =    0.0    initial temperature
   TEBEG  =    0.0;   TEEND  =   0.0 temperature during run
   SMASS  =  -3.00    Nose mass-parameter (am)
   estimated Nose-frequenzy (Omega)   =  0.10E-29 period in steps =****** mass=  -0.140E-26a.u.
   NPACO  =    256;   APACO  = 16.0  distance and # of slots for P.C.
   PSTRESS=    0.0 pullay stress

  Mass of Ions in am
   POMASS =  26.98
  Ionic Valenz
   ZVAL   =   3.00
  Atomic Wigner-Seitz radii
   RWIGS  =  -1.00
   NELECT =      96.0000    total number of electrons
   NUPDOWN=      -1.0000    fix difference up-down

 DOS related values:
   EMIN   =  10.00;   EMAX   =-10.00  energy-range for DOS
   ISMEAR =     0;   SIGMA  =   0.01  broadening in eV -4-tet -1-fermi 0-gaus

 Electronic relaxation 2 (details)
   IALGO  =     38    algorithm
   LDIAG  =      T    sub-space diagonalisation
   IMIX   =      4    mixing-type and parameters
     AMIX     =   0.40;   BMIX     =  1.00
     AMIX_MAG =   1.60;   BMIX_MAG =  1.00
     AMIN     =   0.10
     WC   =   100.;   INIMIX=   1;  MIXPRE=   1

 Intra band minimization:
   WEIMIN = 0.0000     energy-eigenvalue tresh-hold
   EBREAK =  0.38E-10  absolut break condition
   DEPER  =   0.30     relativ break condition  

   TIME   =   0.10     timestep for ELM

  volume/ion in A,a.u.               =      15.02       101.33
  Fermi-wavevector in a.u.,eV,Ry     =   0.957058 12.462405  0.915961

 Second variation
   LSECVAR=     F    do a second variation
 
 Write flags
   LWAVE  =      F    write WAVECAR
   LCHARG =      F    write CHGCAR
   LVTOT  =      F    write LOCPOT, local potential
   LELF   =      F    write electronic localiz. function (ELF)
   LORBIT =      0    0 simple, 1 ext, 2 COOP (PROOUT)


 Dipole corrections
   IDIPOL =      0    1-x, 2-y, 3-z
   LDIPOL =      F    correct potential



--------------------------------------------------------------------------------------------------------


 Static calculation
 charge density will be updated during run
 non-spin polarized calculation
 Variant of blocked Davidson
 Davidson routine will perform the subspace rotation
 performe sub-space diagonalisation
    after iterative eigenvector-optimisation
 modified Broyden-mixing scheme, WC =      100.0
 initial mixing is a Kerker type mixing with AMIX =  0.4000 and BMIX =      1.0000
 Hartree-type preconditioning will be used
 using additional bands           20
 reciprocal scheme for non local part
 use partial core corrections
 calculate Harris-corrections to forces 
   (improved forces if not selfconsistent)
 use gradient corrections 
 use of overlap-Matrix (Vanderbilt PP)
 Gauss-broadening in eV      SIGMA  =   0.01


--------------------------------------------------------------------------------------------------------


  energy-cutoff  :      500.00
  volume of cell :      480.49
      direct lattice vectors                 reciprocal lattice vectors
     7.832374357  0.000000000  0.000000000     0.127675205  0.000000000  0.000000000
     0.000000000  7.832374357  0.000000000     0.000000000  0.127675205  0.000000000
     0.000000000  0.000000000  7.832374357     0.000000000  0.000000000  0.127675205

  length of vectors
     7.832374357  7.832374357  7.832374357     0.127675205  0.127675205  0.127675205


 
 k-points in units of 2pi/SCALE and weight: Automatic mesh                          
   0.00000000  0.00000000  0.00000000       0.001
   0.01063960  0.00000000  0.00000000       0.001
   0.02127920  0.00000000  0.00000000       0.001
   0.03191880  0.00000000  0.00000000       0.001
   0.04255840  0.00000000  0.00000000       0.001
   0.05319800  0.00000000  0.00000000       0.001
   0.06383760  0.00000000  0.00000000       0.001
   0.00000000  0.01063960  0.00000000       0.002
   0.01063960  0.01063960  0.00000000       0.005
   0.02127920  0.01063960  0.00000000       0.005
   0.03191880  0.01063960  0.00000000       0.005
   0.04255840  0.01063960  0.00000000       0.005
   0.05319800  0.01063960  0.00000000       0.005
   0.06383760  0.01063960  0.00000000       0.002
   0.00000000  0.02127920  0.00000000       0.002
   0.01063960  0.02127920  0.00000000       0.005
   0.02127920  0.02127920  0.00000000       0.005
   0.03191880  0.02127920  0.00000000       0.005
   0.04255840  0.02127920  0.00000000       0.005
   0.05319800  0.02127920  0.00000000       0.005
   0.06383760  0.02127920  0.00000000       0.002
   0.00000000  0.03191880  0.00000000       0.002
   0.01063960  0.03191880  0.00000000       0.005
   0.02127920  0.03191880  0.00000000       0.005
   0.03191880  0.03191880  0.00000000       0.005
   0.04255840  0.03191880  0.00000000       0.005
   0.05319800  0.03191880  0.00000000       0.005
   0.06383760  0.03191880  0.00000000       0.002
   0.00000000  0.04255840  0.00000000       0.002
   0.01063960  0.04255840  0.00000000       0.005
   0.02127920  0.04255840  0.00000000       0.005
   0.03191880  0.04255840  0.00000000       0.005
   0.04255840  0.04255840  0.00000000       0.005
   0.05319800  0.04255840  0.00000000       0.005
   0.06383760  0.04255840  0.00000000       0.002
   0.00000000  0.05319800  0.00000000       0.002
   0.01063960  0.05319800  0.00000000       0.005
   0.02127920  0.05319800  0.00000000       0.005
   0.03191880  0.05319800  0.00000000       0.005
   0.04255840  0.05319800  0.00000000       0.005
   0.05319800  0.05319800  0.00000000       0.005
   0.06383760  0.05319800  0.00000000       0.002
   0.00000000  0.06383760  0.00000000       0.001
   0.01063960  0.06383760  0.00000000       0.002
   0.02127920  0.06383760  0.00000000       0.002
   0.03191880  0.06383760  0.00000000       0.002
   0.04255840  0.06383760  0.00000000       0.002
   0.05319800  0.06383760  0.00000000       0.002
   0.06383760  0.06383760  0.00000000       0.001
   0.00000000  0.01063960  0.01063960       0.002
   0.01063960  0.01063960  0.01063960       0.005
   0.02127920  0.01063960  0.01063960       0.005
   0.03191880  0.01063960  0.01063960       0.005
   0.04255840  0.01063960  0.01063960       0.005
   0.05319800  0.01063960  0.01063960       0.005
   0.06383760  0.01063960  0.01063960       0.002
   0.00000000  0.02127920  0.01063960       0.005
   0.01063960  0.02127920  0.01063960       0.009
   0.02127920  0.02127920  0.01063960       0.009
   0.03191880  0.02127920  0.01063960       0.009
   0.04255840  0.02127920  0.01063960       0.009
   0.05319800  0.02127920  0.01063960       0.009
   0.06383760  0.02127920  0.01063960       0.005
   0.00000000  0.03191880  0.01063960       0.005
   0.01063960  0.03191880  0.01063960       0.009
   0.02127920  0.03191880  0.01063960       0.009
   0.03191880  0.03191880  0.01063960       0.009
   0.04255840  0.03191880  0.01063960       0.009
   0.05319800  0.03191880  0.01063960       0.009
   0.06383760  0.03191880  0.01063960       0.005
   0.00000000  0.04255840  0.01063960       0.005
   0.01063960  0.04255840  0.01063960       0.009
   0.02127920  0.04255840  0.01063960       0.009
   0.03191880  0.04255840  0.01063960       0.009
   0.04255840  0.04255840  0.01063960       0.009
   0.05319800  0.04255840  0.01063960       0.009
   0.06383760  0.04255840  0.01063960       0.005
   0.00000000  0.05319800  0.01063960       0.005
   0.01063960  0.05319800  0.01063960       0.009
   0.02127920  0.05319800  0.01063960       0.009
   0.03191880  0.05319800  0.01063960       0.009
   0.04255840  0.05319800  0.01063960       0.009
   0.05319800  0.05319800  0.01063960       0.009
   0.06383760  0.05319800  0.01063960       0.005
   0.00000000  0.06383760  0.01063960       0.002
   0.01063960  0.06383760  0.01063960       0.005
   0.02127920  0.06383760  0.01063960       0.005
   0.03191880  0.06383760  0.01063960       0.005
   0.04255840  0.06383760  0.01063960       0.005
   0.05319800  0.06383760  0.01063960       0.005
   0.06383760  0.06383760  0.01063960       0.002
   0.00000000  0.02127920  0.02127920       0.002
   0.01063960  0.02127920  0.02127920       0.005
   0.02127920  0.02127920  0.02127920       0.005
   0.03191880  0.02127920  0.02127920       0.005
   0.04255840  0.02127920  0.02127920       0.005
   0.05319800  0.02127920  0.02127920       0.005
   0.06383760  0.02127920  0.02127920       0.002
   0.00000000  0.03191880  0.02127920       0.005
   0.01063960  0.03191880  0.02127920       0.009
   0.02127920  0.03191880  0.02127920       0.009
   0.03191880  0.03191880  0.02127920       0.009
   0.04255840  0.03191880  0.02127920       0.009
   0.05319800  0.03191880  0.02127920       0.009
   0.06383760  0.03191880  0.02127920       0.005
   0.00000000  0.04255840  0.02127920       0.005
   0.01063960  0.04255840  0.02127920       0.009
   0.02127920  0.04255840  0.02127920       0.009
   0.03191880  0.04255840  0.02127920       0.009
   0.04255840  0.04255840  0.02127920       0.009
   0.05319800  0.04255840  0.02127920       0.009
   0.06383760  0.04255840  0.02127920       0.005
   0.00000000  0.05319800  0.02127920       0.005
   0.01063960  0.05319800  0.02127920       0.009
   0.02127920  0.05319800  0.02127920       0.009
   0.03191880  0.05319800  0.02127920       0.009
   0.04255840  0.05319800  0.02127920       0.009
   0.05319800  0.05319800  0.02127920       0.009
   0.06383760  0.05319800  0.02127920       0.005
   0.00000000  0.06383760  0.02127920       0.002
   0.01063960  0.06383760  0.02127920       0.005
   0.02127920  0.06383760  0.02127920       0.005
   0.03191880  0.06383760  0.02127920       0.005
   0.04255840  0.06383760  0.02127920       0.005
   0.05319800  0.06383760  0.02127920       0.005
   0.06383760  0.06383760  0.02127920       0.002
   0.00000000  0.03191880  0.03191880       0.002
   0.01063960  0.03191880  0.03191880       0.005
   0.02127920  0.03191880  0.03191880       0.005
   0.03191880  0.03191880  0.03191880       0.005
   0.04255840  0.03191880  0.03191880       0.005
   0.05319800  0.03191880  0.03191880       0.005
   0.06383760  0.03191880  0.03191880       0.002
   0.00000000  0.04255840  0.03191880       0.005
   0.01063960  0.04255840  0.03191880       0.009
   0.02127920  0.04255840  0.03191880       0.009
   0.03191880  0.04255840  0.03191880       0.009
   0.04255840  0.04255840  0.03191880       0.009
   0.05319800  0.04255840  0.03191880       0.009
   0.06383760  0.04255840  0.03191880       0.005
   0.00000000  0.05319800  0.03191880       0.005
   0.01063960  0.05319800  0.03191880       0.009
   0.02127920  0.05319800  0.03191880       0.009
   0.03191880  0.05319800  0.03191880       0.009
   0.04255840  0.05319800  0.03191880       0.009
   0.05319800  0.05319800  0.03191880       0.009
   0.06383760  0.05319800  0.03191880       0.005
   0.00000000  0.06383760  0.03191880       0.002
   0.01063960  0.06383760  0.03191880       0.005
   0.02127920  0.06383760  0.03191880       0.005
   0.03191880  0.06383760  0.03191880       0.005
   0.04255840  0.06383760  0.03191880       0.005
   0.05319800  0.06383760  0.03191880       0.005
   0.06383760  0.06383760  0.03191880       0.002
   0.00000000  0.04255840  0.04255840       0.002
   0.01063960  0.04255840  0.04255840       0.005
   0.02127920  0.04255840  0.04255840       0.005
   0.03191880  0.04255840  0.04255840       0.005
   0.04255840  0.04255840  0.04255840       0.005
   0.05319800  0.04255840  0.04255840       0.005
   0.06383760  0.04255840  0.04255840       0.002
   0.00000000  0.05319800  0.04255840       0.005
   0.01063960  0.05319800  0.04255840       0.009
   0.02127920  0.05319800  0.04255840       0.009
   0.03191880  0.05319800  0.04255840       0.009
   0.04255840  0.05319800  0.04255840       0.009
   0.05319800  0.05319800  0.04255840       0.009
   0.06383760  0.05319800  0.04255840       0.005
   0.00000000  0.06383760  0.04255840       0.002
   0.01063960  0.06383760  0.04255840       0.005
   0.02127920  0.06383760  0.04255840       0.005
   0.03191880  0.06383760  0.04255840       0.005
   0.04255840  0.06383760  0.04255840       0.005
   0.05319800  0.06383760  0.04255840       0.005
   0.06383760  0.06383760  0.04255840       0.002
   0.00000000  0.05319800  0.05319800       0.002
   0.01063960  0.05319800  0.05319800       0.005
   0.02127920  0.05319800  0.05319800       0.005
   0.03191880  0.05319800  0.05319800       0.005
   0.04255840  0.05319800  0.05319800       0.005
   0.05319800  0.05319800  0.05319800       0.005
   0.06383760  0.05319800  0.05319800       0.002
   0.00000000  0.06383760  0.05319800       0.002
   0.01063960  0.06383760  0.05319800       0.005
   0.02127920  0.06383760  0.05319800       0.005
   0.03191880  0.06383760  0.05319800       0.005
   0.04255840  0.06383760  0.05319800       0.005
   0.05319800  0.06383760  0.05319800       0.005
   0.06383760  0.06383760  0.05319800       0.002
   0.00000000  0.06383760  0.06383760       0.001
   0.01063960  0.06383760  0.06383760       0.001
   0.02127920  0.06383760  0.06383760       0.001
   0.03191880  0.06383760  0.06383760       0.001
   0.04255840  0.06383760  0.06383760       0.001
   0.05319800  0.06383760  0.06383760       0.001
   0.06383760  0.06383760  0.06383760       0.001
 
 k-points in reciprocal lattice and weights: Automatic mesh                          
   0.00000000  0.00000000  0.00000000       0.001
   0.08333333  0.00000000  0.00000000       0.001
   0.16666667  0.00000000  0.00000000       0.001
   0.25000000  0.00000000  0.00000000       0.001
   0.33333333  0.00000000  0.00000000       0.001
   0.41666667  0.00000000  0.00000000       0.001
   0.50000000  0.00000000  0.00000000       0.001
   0.00000000  0.08333333  0.00000000       0.002
   0.08333333  0.08333333  0.00000000       0.005
   0.16666667  0.08333333  0.00000000       0.005
   0.25000000  0.08333333  0.00000000       0.005
   0.33333333  0.08333333  0.00000000       0.005
   0.41666667  0.08333333  0.00000000       0.005
   0.50000000  0.08333333  0.00000000       0.002
   0.00000000  0.16666667  0.00000000       0.002
   0.08333333  0.16666667  0.00000000       0.005
   0.16666667  0.16666667  0.00000000       0.005
   0.25000000  0.16666667  0.00000000       0.005
   0.33333333  0.16666667  0.00000000       0.005
   0.41666667  0.16666667  0.00000000       0.005
   0.50000000  0.16666667  0.00000000       0.002
   0.00000000  0.25000000  0.00000000       0.002
   0.08333333  0.25000000  0.00000000       0.005
   0.16666667  0.25000000  0.00000000       0.005
   0.25000000  0.25000000  0.00000000       0.005
   0.33333333  0.25000000  0.00000000       0.005
   0.41666667  0.25000000  0.00000000       0.005
   0.50000000  0.25000000  0.00000000       0.002
   0.00000000  0.33333333  0.00000000       0.002
   0.08333333  0.33333333  0.00000000       0.005
   0.16666667  0.33333333  0.00000000       0.005
   0.25000000  0.33333333  0.00000000       0.005
   0.33333333  0.33333333  0.00000000       0.005
   0.41666667  0.33333333  0.00000000       0.005
   0.50000000  0.33333333  0.00000000       0.002
   0.00000000  0.41666667  0.00000000       0.002
   0.08333333  0.41666667  0.00000000       0.005
   0.16666667  0.41666667  0.00000000       0.005
   0.25000000  0.41666667  0.00000000       0.005
   0.33333333  0.41666667  0.00000000       0.005
   0.41666667  0.41666667  0.00000000       0.005
   0.50000000  0.41666667  0.00000000       0.002
   0.00000000  0.50000000  0.00000000       0.001
   0.08333333  0.50000000  0.00000000       0.002
   0.16666667  0.50000000  0.00000000       0.002
   0.25000000  0.50000000  0.00000000       0.002
   0.33333333  0.50000000  0.00000000       0.002
   0.41666667  0.50000000  0.00000000       0.002
   0.50000000  0.50000000  0.00000000       0.001
   0.00000000  0.08333333  0.08333333       0.002
   0.08333333  0.08333333  0.08333333       0.005
   0.16666667  0.08333333  0.08333333       0.005
   0.25000000  0.08333333  0.08333333       0.005
   0.33333333  0.08333333  0.08333333       0.005
   0.41666667  0.08333333  0.08333333       0.005
   0.50000000  0.08333333  0.08333333       0.002
   0.00000000  0.16666667  0.08333333       0.005
   0.08333333  0.16666667  0.08333333       0.009
   0.16666667  0.16666667  0.08333333       0.009
   0.25000000  0.16666667  0.08333333       0.009
   0.33333333  0.16666667  0.08333333       0.009
   0.41666667  0.16666667  0.08333333       0.009
   0.50000000  0.16666667  0.08333333       0.005
   0.00000000  0.25000000  0.08333333       0.005
   0.08333333  0.25000000  0.08333333       0.009
   0.16666667  0.25000000  0.08333333       0.009
   0.25000000  0.25000000  0.08333333       0.009
   0.33333333  0.25000000  0.08333333       0.009
   0.41666667  0.25000000  0.08333333       0.009
   0.50000000  0.25000000  0.08333333       0.005
   0.00000000  0.33333333  0.08333333       0.005
   0.08333333  0.33333333  0.08333333       0.009
   0.16666667  0.33333333  0.08333333       0.009
   0.25000000  0.33333333  0.08333333       0.009
   0.33333333  0.33333333  0.08333333       0.009
   0.41666667  0.33333333  0.08333333       0.009
   0.50000000  0.33333333  0.08333333       0.005
   0.00000000  0.41666667  0.08333333       0.005
   0.08333333  0.41666667  0.08333333       0.009
   0.16666667  0.41666667  0.08333333       0.009
   0.25000000  0.41666667  0.08333333       0.009
   0.33333333  0.41666667  0.08333333       0.009
   0.41666667  0.41666667  0.08333333       0.009
   0.50000000  0.41666667  0.08333333       0.005
   0.00000000  0.50000000  0.08333333       0.002
   0.08333333  0.50000000  0.08333333       0.005
   0.16666667  0.50000000  0.08333333       0.005
   0.25000000  0.50000000  0.08333333       0.005
   0.33333333  0.50000000  0.08333333       0.005
   0.41666667  0.50000000  0.08333333       0.005
   0.50000000  0.50000000  0.08333333       0.002
   0.00000000  0.16666667  0.16666667       0.002
   0.08333333  0.16666667  0.16666667       0.005
   0.16666667  0.16666667  0.16666667       0.005
   0.25000000  0.16666667  0.16666667       0.005
   0.33333333  0.16666667  0.16666667       0.005
   0.41666667  0.16666667  0.16666667       0.005
   0.50000000  0.16666667  0.16666667       0.002
   0.00000000  0.25000000  0.16666667       0.005
   0.08333333  0.25000000  0.16666667       0.009
   0.16666667  0.25000000  0.16666667       0.009
   0.25000000  0.25000000  0.16666667       0.009
   0.33333333  0.25000000  0.16666667       0.009
   0.41666667  0.25000000  0.16666667       0.009
   0.50000000  0.25000000  0.16666667       0.005
   0.00000000  0.33333333  0.16666667       0.005
   0.08333333  0.33333333  0.16666667       0.009
   0.16666667  0.33333333  0.16666667       0.009
   0.25000000  0.33333333  0.16666667       0.009
   0.33333333  0.33333333  0.16666667       0.009
   0.41666667  0.33333333  0.16666667       0.009
   0.50000000  0.33333333  0.16666667       0.005
   0.00000000  0.41666667  0.16666667       0.005
   0.08333333  0.41666667  0.16666667       0.009
   0.16666667  0.41666667  0.16666667       0.009
   0.25000000  0.41666667  0.16666667       0.009
   0.33333333  0.41666667  0.16666667       0.009
   0.41666667  0.41666667  0.16666667       0.009
   0.50000000  0.41666667  0.16666667       0.005
   0.00000000  0.50000000  0.16666667       0.002
   0.08333333  0.50000000  0.16666667       0.005
   0.16666667  0.50000000  0.16666667       0.005
   0.25000000  0.50000000  0.16666667       0.005
   0.33333333  0.50000000  0.16666667       0.005
   0.41666667  0.50000000  0.16666667       0.005
   0.50000000  0.50000000  0.16666667       0.002
   0.00000000  0.25000000  0.25000000       0.002
   0.08333333  0.25000000  0.25000000       0.005
   0.16666667  0.25000000  0.25000000       0.005
   0.25000000  0.25000000  0.25000000       0.005
   0.33333333  0.25000000  0.25000000       0.005
   0.41666667  0.25000000  0.25000000       0.005
   0.50000000  0.25000000  0.25000000       0.002
   0.00000000  0.33333333  0.25000000       0.005
   0.08333333  0.33333333  0.25000000       0.009
   0.16666667  0.33333333  0.25000000       0.009
   0.25000000  0.33333333  0.25000000       0.009
   0.33333333  0.33333333  0.25000000       0.009
   0.41666667  0.33333333  0.25000000       0.009
   0.50000000  0.33333333  0.25000000       0.005
   0.00000000  0.41666667  0.25000000       0.005
   0.08333333  0.41666667  0.25000000       0.009
   0.16666667  0.41666667  0.25000000       0.009
   0.25000000  0.41666667  0.25000000       0.009
   0.33333333  0.41666667  0.25000000       0.009
   0.41666667  0.41666667  0.25000000       0.009
   0.50000000  0.41666667  0.25000000       0.005
   0.00000000  0.50000000  0.25000000       0.002
   0.08333333  0.50000000  0.25000000       0.005
   0.16666667  0.50000000  0.25000000       0.005
   0.25000000  0.50000000  0.25000000       0.005
   0.33333333  0.50000000  0.25000000       0.005
   0.41666667  0.50000000  0.25000000       0.005
   0.50000000  0.50000000  0.25000000       0.002
   0.00000000  0.33333333  0.33333333       0.002
   0.08333333  0.33333333  0.33333333       0.005
   0.16666667  0.33333333  0.33333333       0.005
   0.25000000  0.33333333  0.33333333       0.005
   0.33333333  0.33333333  0.33333333       0.005
   0.41666667  0.33333333  0.33333333       0.005
   0.50000000  0.33333333  0.33333333       0.002
   0.00000000  0.41666667  0.33333333       0.005
   0.08333333  0.41666667  0.33333333       0.009
   0.16666667  0.41666667  0.33333333       0.009
   0.25000000  0.41666667  0.33333333       0.009
   0.33333333  0.41666667  0.33333333       0.009
   0.41666667  0.41666667  0.33333333       0.009
   0.50000000  0.41666667  0.33333333       0.005
   0.00000000  0.50000000  0.33333333       0.002
   0.08333333  0.50000000  0.33333333       0.005
   0.16666667  0.50000000  0.33333333       0.005
   0.25000000  0.50000000  0.33333333       0.005
   0.33333333  0.50000000  0.33333333       0.005
   0.41666667  0.50000000  0.33333333       0.005
   0.50000000  0.50000000  0.33333333       0.002
   0.00000000  0.41666667  0.41666667       0.002
   0.08333333  0.41666667  0.41666667       0.005
   0.16666667  0.41666667  0.41666667       0.005
   0.25000000  0.41666667  0.41666667       0.005
   0.33333333  0.41666667  0.41666667       0.005
   0.41666667  0.41666667  0.41666667       0.005
   0.50000000  0.41666667  0.41666667       0.002
   0.00000000  0.50000000  0.41666667       0.002
   0.08333333  0.50000000  0.41666667       0.005
   0.16666667  0.50000000  0.41666667       0.005
   0.25000000  0.50000000  0.41666667       0.005
   0.33333333  0.50000000  0.41666667       0.005
   0.41666667  0.50000000  0.41666667       0.005
   0.50000000  0.50000000  0.41666667       0.002
   0.00000000  0.50000000  0.50000000       0.001
   0.08333333  0.50000000  0.50000000       0.001
   0.16666667  0.50000000  0.50000000       0.001
   0.25000000  0.50000000  0.50000000       0.001
   0.33333333  0.50000000  0.50000000       0.001
   0.41666667  0.50000000  0.50000000       0.001
   0.50000000  0.50000000  0.50000000       0.001
 
 position of ions in fractional coordinates (direct lattice) 
   0.25127675  0.25000000  0.00000000
   0.75000000  0.25000000  0.00000000
   0.25000000  0.75000000  0.00000000
   0.75000000  0.75000000  0.00000000
   0.25000000  0.25000000  0.50000000
   0.75000000  0.25000000  0.50000000
   0.25000000  0.75000000  0.50000000
   0.75000000  0.75000000  0.50000000
   0.25000000  0.00000000  0.25000000
   0.75000000  0.00000000  0.25000000
   0.25000000  0.50000000  0.25000000
   0.75000000  0.50000000  0.25000000
   0.25000000  0.00000000  0.75000000
   0.75000000  0.00000000  0.75000000
   0.25000000  0.50000000  0.75000000
   0.75000000  0.50000000  0.75000000
   0.00000000  0.25000000  0.25000000
   0.50000000  0.25000000  0.25000000
   0.00000000  0.75000000  0.25000000
   0.50000000  0.75000000  0.25000000
   0.00000000  0.25000000  0.75000000
   0.50000000  0.25000000  0.75000000
   0.00000000  0.75000000  0.75000000
   0.50000000  0.75000000  0.75000000
   0.00000000  0.00000000  0.00000000
   0.50000000  0.00000000  0.00000000
   0.00000000  0.50000000  0.00000000
   0.50000000  0.50000000  0.00000000
   0.00000000  0.00000000  0.50000000
   0.50000000  0.00000000  0.50000000
   0.00000000  0.50000000  0.50000000
   0.50000000  0.50000000  0.50000000
 
 position of ions in cartesian coordinates  (Angst):
   1.96809359  1.95809359  0.00000000
   5.87428077  1.95809359  0.00000000
   1.95809359  5.87428077  0.00000000
   5.87428077  5.87428077  0.00000000
   1.95809359  1.95809359  3.91618718
   5.87428077  1.95809359  3.91618718
   1.95809359  5.87428077  3.91618718
   5.87428077  5.87428077  3.91618718
   1.95809359  0.00000000  1.95809359
   5.87428077  0.00000000  1.95809359
   1.95809359  3.91618718  1.95809359
   5.87428077  3.91618718  1.95809359
   1.95809359  0.00000000  5.87428077
   5.87428077  0.00000000  5.87428077
   1.95809359  3.91618718  5.87428077
   5.87428077  3.91618718  5.87428077
   0.00000000  1.95809359  1.95809359
   3.91618718  1.95809359  1.95809359
   0.00000000  5.87428077  1.95809359
   3.91618718  5.87428077  1.95809359
   0.00000000  1.95809359  5.87428077
   3.91618718  1.95809359  5.87428077
   0.00000000  5.87428077  5.87428077
   3.91618718  5.87428077  5.87428077
   0.00000000  0.00000000  0.00000000
   3.91618718  0.00000000  0.00000000
   0.00000000  3.91618718  0.00000000
   3.91618718  3.91618718  0.00000000
   0.00000000  0.00000000  3.91618718
   3.91618718  0.00000000  3.91618718
   0.00000000  3.91618718  3.91618718
   3.91618718  3.91618718  3.91618718
 


--------------------------------------------------------------------------------------------------------


 k-point  1 :  0.00000.00000.0000  plane waves:  12149
 k-point  2 :  0.08330.00000.0000  plane waves:  12173
 k-point  3 :  0.16670.00000.0000  plane waves:  12177
 k-point  4 :  0.25000.00000.0000  plane waves:  12205
 k-point  5 :  0.33330.00000.0000  plane waves:  12220
 k-point  6 :  0.41670.00000.0000  plane waves:  12192
 k-point  7 :  0.50000.00000.0000  plane waves:  12188
 k-point  8 :  0.00000.08330.0000  plane waves:  12173
 k-point  9 :  0.08330.08330.0000  plane waves:  12197
 k-point 10 :  0.16670.08330.0000  plane waves:  12182
 k-point 11 :  0.25000.08330.0000  plane waves:  12204
 k-point 12 :  0.33330.08330.0000  plane waves:  12204
 k-point 13 :  0.41670.08330.0000  plane waves:  12213
 k-point 14 :  0.50000.08330.0000  plane waves:  12210
 k-point 15 :  0.00000.16670.0000  plane waves:  12177
 k-point 16 :  0.08330.16670.0000  plane waves:  12182
 k-point 17 :  0.16670.16670.0000  plane waves:  12188
 k-point 18 :  0.25000.16670.0000  plane waves:  12204
 k-point 19 :  0.33330.16670.0000  plane waves:  12212
 k-point 20 :  0.41670.16670.0000  plane waves:  12199
 k-point 21 :  0.50000.16670.0000  plane waves:  12184
 k-point 22 :  0.00000.25000.0000  plane waves:  12205
 k-point 23 :  0.08330.25000.0000  plane waves:  12204
 k-point 24 :  0.16670.25000.0000  plane waves:  12204
 k-point 25 :  0.25000.25000.0000  plane waves:  12186
 k-point 26 :  0.33330.25000.0000  plane waves:  12196
 k-point 27 :  0.41670.25000.0000  plane waves:  12203
 k-point 28 :  0.50000.25000.0000  plane waves:  12200
 k-point 29 :  0.00000.33330.0000  plane waves:  12220
 k-point 30 :  0.08330.33330.0000  plane waves:  12204
 k-point 31 :  0.16670.33330.0000  plane waves:  12212
 k-point 32 :  0.25000.33330.0000  plane waves:  12196
 k-point 33 :  0.33330.33330.0000  plane waves:  12208
 k-point 34 :  0.41670.33330.0000  plane waves:  12217
 k-point 35 :  0.50000.33330.0000  plane waves:  12210
 k-point 36 :  0.00000.41670.0000  plane waves:  12192
 k-point 37 :  0.08330.41670.0000  plane waves:  12213
 k-point 38 :  0.16670.41670.0000  plane waves:  12199
 k-point 39 :  0.25000.41670.0000  plane waves:  12203
 k-point 40 :  0.33330.41670.0000  plane waves:  12217
 k-point 41 :  0.41670.41670.0000  plane waves:  12204
 k-point 42 :  0.50000.41670.0000  plane waves:  12226
 k-point 43 :  0.00000.50000.0000  plane waves:  12188
 k-point 44 :  0.08330.50000.0000  plane waves:  12210
 k-point 45 :  0.16670.50000.0000  plane waves:  12184
 k-point 46 :  0.25000.50000.0000  plane waves:  12200
 k-point 47 :  0.33330.50000.0000  plane waves:  12210
 k-point 48 :  0.41670.50000.0000  plane waves:  12226
 k-point 49 :  0.50000.50000.0000  plane waves:  12216
 k-point 50 :  0.00000.08330.0833  plane waves:  12197
 k-point 51 :  0.08330.08330.0833  plane waves:  12200
 k-point 52 :  0.16670.08330.0833  plane waves:  12196
 k-point 53 :  0.25000.08330.0833  plane waves:  12219
 k-point 54 :  0.33330.08330.0833  plane waves:  12209
 k-point 55 :  0.41670.08330.0833  plane waves:  12199
 k-point 56 :  0.50000.08330.0833  plane waves:  12192
 k-point 57 :  0.00000.16670.0833  plane waves:  12182
 k-point 58 :  0.08330.16670.0833  plane waves:  12196
 k-point 59 :  0.16670.16670.0833  plane waves:  12219
 k-point 60 :  0.25000.16670.0833  plane waves:  12199
 k-point 61 :  0.33330.16670.0833  plane waves:  12213
 k-point 62 :  0.41670.16670.0833  plane waves:  12201
 k-point 63 :  0.50000.16670.0833  plane waves:  12196
 k-point 64 :  0.00000.25000.0833  plane waves:  12204
 k-point 65 :  0.08330.25000.0833  plane waves:  12219
 k-point 66 :  0.16670.25000.0833  plane waves:  12199
 k-point 67 :  0.25000.25000.0833  plane waves:  12196
 k-point 68 :  0.33330.25000.0833  plane waves:  12195
 k-point 69 :  0.41670.25000.0833  plane waves:  12195
 k-point 70 :  0.50000.25000.0833  plane waves:  12190
 k-point 71 :  0.00000.33330.0833  plane waves:  12204
 k-point 72 :  0.08330.33330.0833  plane waves:  12209
 k-point 73 :  0.16670.33330.0833  plane waves:  12213
 k-point 74 :  0.25000.33330.0833  plane waves:  12195
 k-point 75 :  0.33330.33330.0833  plane waves:  12193
 k-point 76 :  0.41670.33330.0833  plane waves:  12200
 k-point 77 :  0.50000.33330.0833  plane waves:  12198
 k-point 78 :  0.00000.41670.0833  plane waves:  12213
 k-point 79 :  0.08330.41670.0833  plane waves:  12199
 k-point 80 :  0.16670.41670.0833  plane waves:  12201
 k-point 81 :  0.25000.41670.0833  plane waves:  12195
 k-point 82 :  0.33330.41670.0833  plane waves:  12200
 k-point 83 :  0.41670.41670.0833  plane waves:  12214
 k-point 84 :  0.50000.41670.0833  plane waves:  12206
 k-point 85 :  0.00000.50000.0833  plane waves:  12210
 k-point 86 :  0.08330.50000.0833  plane waves:  12192
 k-point 87 :  0.16670.50000.0833  plane waves:  12196
 k-point 88 :  0.25000.50000.0833  plane waves:  12190
 k-point 89 :  0.33330.50000.0833  plane waves:  12198
 k-point 90 :  0.41670.50000.0833  plane waves:  12206
 k-point 91 :  0.50000.50000.0833  plane waves:  12232
 k-point 92 :  0.00000.16670.1667  plane waves:  12188
 k-point 93 :  0.08330.16670.1667  plane waves:  12219
 k-point 94 :  0.16670.16670.1667  plane waves:  12203
 k-point 95 :  0.25000.16670.1667  plane waves:  12209
 k-point 96 :  0.33330.16670.1667  plane waves:  12199
 k-point 97 :  0.41670.16670.1667  plane waves:  12201
 k-point 98 :  0.50000.16670.1667  plane waves:  12196
 k-point 99 :  0.00000.25000.1667  plane waves:  12204
 k-point ** :  0.08330.25000.1667  plane waves:  12199
 k-point ** :  0.16670.25000.1667  plane waves:  12209
 k-point ** :  0.25000.25000.1667  plane waves:  12204
 k-point ** :  0.33330.25000.1667  plane waves:  12183
 k-point ** :  0.41670.25000.1667  plane waves:  12183
 k-point ** :  0.50000.25000.1667  plane waves:  12180
 k-point ** :  0.00000.33330.1667  plane waves:  12212
 k-point ** :  0.08330.33330.1667  plane waves:  12213
 k-point ** :  0.16670.33330.1667  plane waves:  12199
 k-point ** :  0.25000.33330.1667  plane waves:  12183
 k-point ** :  0.33330.33330.1667  plane waves:  12206
 k-point ** :  0.41670.33330.1667  plane waves:  12203
 k-point ** :  0.50000.33330.1667  plane waves:  12186
 k-point ** :  0.00000.41670.1667  plane waves:  12199
 k-point ** :  0.08330.41670.1667  plane waves:  12201
 k-point ** :  0.16670.41670.1667  plane waves:  12201
 k-point ** :  0.25000.41670.1667  plane waves:  12183
 k-point ** :  0.33330.41670.1667  plane waves:  12203
 k-point ** :  0.41670.41670.1667  plane waves:  12197
 k-point ** :  0.50000.41670.1667  plane waves:  12202
 k-point ** :  0.00000.50000.1667  plane waves:  12184
 k-point ** :  0.08330.50000.1667  plane waves:  12196
 k-point ** :  0.16670.50000.1667  plane waves:  12196
 k-point ** :  0.25000.50000.1667  plane waves:  12180
 k-point ** :  0.33330.50000.1667  plane waves:  12186
 k-point ** :  0.41670.50000.1667  plane waves:  12202
 k-point ** :  0.50000.50000.1667  plane waves:  12236
 k-point ** :  0.00000.25000.2500  plane waves:  12186
 k-point ** :  0.08330.25000.2500  plane waves:  12196
 k-point ** :  0.16670.25000.2500  plane waves:  12204
 k-point ** :  0.25000.25000.2500  plane waves:  12187
 k-point ** :  0.33330.25000.2500  plane waves:  12195
 k-point ** :  0.41670.25000.2500  plane waves:  12193
 k-point ** :  0.50000.25000.2500  plane waves:  12226
 k-point ** :  0.00000.33330.2500  plane waves:  12196
 k-point ** :  0.08330.33330.2500  plane waves:  12195
 k-point ** :  0.16670.33330.2500  plane waves:  12183
 k-point ** :  0.25000.33330.2500  plane waves:  12195
 k-point ** :  0.33330.33330.2500  plane waves:  12186
 k-point ** :  0.41670.33330.2500  plane waves:  12194
 k-point ** :  0.50000.33330.2500  plane waves:  12196
 k-point ** :  0.00000.41670.2500  plane waves:  12203
 k-point ** :  0.08330.41670.2500  plane waves:  12195
 k-point ** :  0.16670.41670.2500  plane waves:  12183
 k-point ** :  0.25000.41670.2500  plane waves:  12193
 k-point ** :  0.33330.41670.2500  plane waves:  12194
 k-point ** :  0.41670.41670.2500  plane waves:  12189
 k-point ** :  0.50000.41670.2500  plane waves:  12196
 k-point ** :  0.00000.50000.2500  plane waves:  12200
 k-point ** :  0.08330.50000.2500  plane waves:  12190
 k-point ** :  0.16670.50000.2500  plane waves:  12180
 k-point ** :  0.25000.50000.2500  plane waves:  12226
 k-point ** :  0.33330.50000.2500  plane waves:  12196
 k-point ** :  0.41670.50000.2500  plane waves:  12196
 k-point ** :  0.50000.50000.2500  plane waves:  12176
 k-point ** :  0.00000.33330.3333  plane waves:  12208
 k-point ** :  0.08330.33330.3333  plane waves:  12193
 k-point ** :  0.16670.33330.3333  plane waves:  12206
 k-point ** :  0.25000.33330.3333  plane waves:  12186
 k-point ** :  0.33330.33330.3333  plane waves:  12199
 k-point ** :  0.41670.33330.3333  plane waves:  12198
 k-point ** :  0.50000.33330.3333  plane waves:  12190
 k-point ** :  0.00000.41670.3333  plane waves:  12217
 k-point ** :  0.08330.41670.3333  plane waves:  12200
 k-point ** :  0.16670.41670.3333  plane waves:  12203
 k-point ** :  0.25000.41670.3333  plane waves:  12194
 k-point ** :  0.33330.41670.3333  plane waves:  12198
 k-point ** :  0.41670.41670.3333  plane waves:  12175
 k-point ** :  0.50000.41670.3333  plane waves:  12190
 k-point ** :  0.00000.50000.3333  plane waves:  12210
 k-point ** :  0.08330.50000.3333  plane waves:  12198
 k-point ** :  0.16670.50000.3333  plane waves:  12186
 k-point ** :  0.25000.50000.3333  plane waves:  12196
 k-point ** :  0.33330.50000.3333  plane waves:  12190
 k-point ** :  0.41670.50000.3333  plane waves:  12190
 k-point ** :  0.50000.50000.3333  plane waves:  12176
 k-point ** :  0.00000.41670.4167  plane waves:  12204
 k-point ** :  0.08330.41670.4167  plane waves:  12214
 k-point ** :  0.16670.41670.4167  plane waves:  12197
 k-point ** :  0.25000.41670.4167  plane waves:  12189
 k-point ** :  0.33330.41670.4167  plane waves:  12175
 k-point ** :  0.41670.41670.4167  plane waves:  12196
 k-point ** :  0.50000.41670.4167  plane waves:  12192
 k-point ** :  0.00000.50000.4167  plane waves:  12226
 k-point ** :  0.08330.50000.4167  plane waves:  12206
 k-point ** :  0.16670.50000.4167  plane waves:  12202
 k-point ** :  0.25000.50000.4167  plane waves:  12196
 k-point ** :  0.33330.50000.4167  plane waves:  12190
 k-point ** :  0.41670.50000.4167  plane waves:  12192
 k-point ** :  0.50000.50000.4167  plane waves:  12196
 k-point ** :  0.00000.50000.5000  plane waves:  12216
 k-point ** :  0.08330.50000.5000  plane waves:  12232
 k-point ** :  0.16670.50000.5000  plane waves:  12236
 k-point ** :  0.25000.50000.5000  plane waves:  12176
 k-point ** :  0.33330.50000.5000  plane waves:  12176
 k-point ** :  0.41670.50000.5000  plane waves:  12196
 k-point ** :  0.50000.50000.5000  plane waves:  12160

 maximum and minimum number of plane-waves per node :  12236 12149

 maximum number of plane-waves:  12236
 maximal index in each direction: 
   IXMAX= 14   IYMAX= 14   IZMAX= 14
   IXMIN=-14   IYMIN=-14   IZMIN=-14

 NGX is ok and might be reduce to  58
 NGY is ok and might be reduce to  58
 NGZ is ok and might be reduce to  58

 parallel 3dFFT wavefunction:
    minimum data exchange during FFTs selected (reduces bandwidth)
 parallel 3dFFT charge:
    minimum data exchange during FFTs selected (reduces bandwidth)

 For storing wavefunctions 2601.33 MBYTES are necessary
 For predicting wavefunctions   31.50 MBYTES are necessary
Broyden mixing: mesh for mixing (old mesh)
   NGX = 29   NGY = 29   NGZ = 29
  (NGX  =120   NGY  =120   NGZ  =120)
 gives a total of  24389 points
 initial charge density was supplied:
 charge density of overlapping atoms calculated
 number of electron   96.0000000 magnetization 
 keeping initial charge density in first step


--------------------------------------------------------------------------------------------------------


 Maximum index for augmentation-charges         4296 (set IRDMAX)


--------------------------------------------------------------------------------------------------------


 First call to EWALD:  gamma=   0.226
 Maximum number of real-space cells 3x 3x 3
 Maximum number of reciprocal cells 3x 3x 3

    FEWALD:  VPU time    0.00: CPU time    0.00


----------------------------------------- Iteration    1(   1)  ---------------------------------------


    POTLOK:  VPU time    0.25: CPU time    0.25
    SETDIJ:  VPU time    0.02: CPU time    0.02
    EDDAV :  VPU time  132.55: CPU time  132.52
    DOS   :  VPU time    0.00: CPU time   -0.00
    ------------------------------------------
      LOOP:  VPU time  132.83: CPU time  132.81

 eigenvalue-minimisations  : 26656
 total energy-change (2. order) : 0.1401266E+03  (-0.3355721E+04)
 number of electron   96.0000000 magnetization 
 augmentation part    96.0000000 magnetization 

 Free energy of the ion-electron system (eV)
  ---------------------------------------------------
  alpha Z        PSCENC =        -7.15822495
  Ewald energy   TEWEN  =     -2427.62240689
  -1/2 Hartree   DENC   =        -2.39603461
  -V(xc)+E(xc)   XCENC  =      -834.14650895
  PAW double counting   =      1137.73615723     -115.16745734
  entropy T*S    EENTRO =        -0.00042334
  eigenvalues    EBANDS =       675.65232678
  atomic energy  EATOM  =      1713.22913220
  ---------------------------------------------------
  free energy    TOTEN  =       140.12656012 eV

  energy without entropy =      140.12698346  energy(sigma->0) =      140.12677179


--------------------------------------------------------------------------------------------------------




----------------------------------------- Iteration    1(   2)  ---------------------------------------


    EDDAV :  VPU time  197.92: CPU time  197.88
    DOS   :  VPU time    0.00: CPU time   -0.00
    ------------------------------------------
      LOOP:  VPU time  197.95: CPU time  197.90

 eigenvalue-minimisations  : 31244
 total energy-change (2. order) :-0.2449964E+03  (-0.2289757E+03)
 number of electron   96.0000000 magnetization 
 augmentation part    96.0000000 magnetization 

 Free energy of the ion-electron system (eV)
  ---------------------------------------------------
  alpha Z        PSCENC =        -7.15822495
  Ewald energy   TEWEN  =     -2427.62240689
  -1/2 Hartree   DENC   =        -2.39603461
  -V(xc)+E(xc)   XCENC  =      -834.14650895
  PAW double counting   =      1137.73615723     -115.16745734
  entropy T*S    EENTRO =        -0.00045606
  eigenvalues    EBANDS =       430.65597928
  atomic energy  EATOM  =      1713.22913220
  ---------------------------------------------------
  free energy    TOTEN  =      -104.86982010 eV

  energy without entropy =     -104.86936404  energy(sigma->0) =     -104.86959207


--------------------------------------------------------------------------------------------------------




----------------------------------------- Iteration    1(   3)  ---------------------------------------


    EDDAV :  VPU time  203.52: CPU time  203.47
    DOS   :  VPU time    0.00: CPU time   -0.00
    ------------------------------------------
      LOOP:  VPU time  203.54: CPU time  203.50

 eigenvalue-minimisations  : 32972
 total energy-change (2. order) :-0.1426779E+02  (-0.1353446E+02)
 number of electron   96.0000000 magnetization 
 augmentation part    96.0000000 magnetization 

 Free energy of the ion-electron system (eV)
  ---------------------------------------------------
  alpha Z        PSCENC =        -7.15822495
  Ewald energy   TEWEN  =     -2427.62240689
  -1/2 Hartree   DENC   =        -2.39603461
  -V(xc)+E(xc)   XCENC  =      -834.14650895
  PAW double counting   =      1137.73615723     -115.16745734
  entropy T*S    EENTRO =        -0.00081216
  eigenvalues    EBANDS =       416.38854654
  atomic energy  EATOM  =      1713.22913220
  ---------------------------------------------------
  free energy    TOTEN  =      -119.13760893 eV

  energy without entropy =     -119.13679678  energy(sigma->0) =     -119.13720285


--------------------------------------------------------------------------------------------------------




----------------------------------------- Iteration    1(   4)  ---------------------------------------


    EDDAV :  VPU time  196.97: CPU time  196.93
    DOS   :  VPU time    0.00: CPU time   -0.00
    ------------------------------------------
      LOOP:  VPU time  197.00: CPU time  196.96

 eigenvalue-minimisations  : 31332
 total energy-change (2. order) :-0.2950724E+00  (-0.2919559E+00)
 number of electron   96.0000000 magnetization 
 augmentation part    96.0000000 magnetization 

 Free energy of the ion-electron system (eV)
  ---------------------------------------------------
  alpha Z        PSCENC =        -7.15822495
  Ewald energy   TEWEN  =     -2427.62240689
  -1/2 Hartree   DENC   =        -2.39603461
  -V(xc)+E(xc)   XCENC  =      -834.14650895
  PAW double counting   =      1137.73615723     -115.16745734
  entropy T*S    EENTRO =        -0.00086164
  eigenvalues    EBANDS =       416.09352361
  atomic energy  EATOM  =      1713.22913220
  ---------------------------------------------------
  free energy    TOTEN  =      -119.43268134 eV

  energy without entropy =     -119.43181970  energy(sigma->0) =     -119.43225052


--------------------------------------------------------------------------------------------------------




----------------------------------------- Iteration    1(   5)  ---------------------------------------


    EDDAV :  VPU time  196.92: CPU time  196.88
    DOS   :  VPU time    0.00: CPU time   -0.00
    CHARGE:  VPU time   10.17: CPU time   10.17
    MIXING:  VPU time    0.01: CPU time    0.01
    ------------------------------------------
      LOOP:  VPU time  207.12: CPU time  207.08

 eigenvalue-minimisations  : 31556
 total energy-change (2. order) :-0.3875259E-02  (-0.3869323E-02)
 number of electron   96.0000001 magnetization 
 augmentation part    -1.1292902 magnetization 

 Broyden mixing:
  rms(total) = 0.55357E+00    rms(broyden)= 0.55357E+00
  rms(prec ) = 0.79522E+00
  weight for this iteration     100.00

 Free energy of the ion-electron system (eV)
  ---------------------------------------------------
  alpha Z        PSCENC =        -7.15822495
  Ewald energy   TEWEN  =     -2427.62240689
  -1/2 Hartree   DENC   =        -2.39603461
  -V(xc)+E(xc)   XCENC  =      -834.14650895
  PAW double counting   =      1137.73615723     -115.16745734
  entropy T*S    EENTRO =        -0.00086171
  eigenvalues    EBANDS =       416.08964842
  atomic energy  EATOM  =      1713.22913220
  ---------------------------------------------------
  free energy    TOTEN  =      -119.43655660 eV

  energy without entropy =     -119.43569489  energy(sigma->0) =     -119.43612575


--------------------------------------------------------------------------------------------------------




----------------------------------------- Iteration    1(   6)  ---------------------------------------


    POTLOK:  VPU time    0.33: CPU time    0.33
    SETDIJ:  VPU time    0.02: CPU time    0.02
    EDDAV :  VPU time  195.63: CPU time  195.58
    DOS   :  VPU time    0.00: CPU time   -0.00
    CHARGE:  VPU time    9.83: CPU time    9.83
    MIXING:  VPU time    0.04: CPU time    0.04
    ------------------------------------------
      LOOP:  VPU time  205.87: CPU time  205.82

 eigenvalue-minimisations  : 30652
 total energy-change (2. order) : 0.4576004E+00  (-0.3805609E-02)
 number of electron   96.0000002 magnetization 
 augmentation part    -1.1436620 magnetization 

 Broyden mixing:
  rms(total) = 0.34425E+00    rms(broyden)= 0.34425E+00
  rms(prec ) = 0.49655E+00
  weight for this iteration     100.00

 eigenvalues of (default mixing * dielectric matrix)
  average eigenvalue GAMMA=   2.6359
  2.6359

 Free energy of the ion-electron system (eV)
  ---------------------------------------------------
  alpha Z        PSCENC =        -7.15822495
  Ewald energy   TEWEN  =     -2427.62240689
  -1/2 Hartree   DENC   =        -2.43183219
  -V(xc)+E(xc)   XCENC  =      -832.76968387
  PAW double counting   =      1143.36100443     -121.11746842
  entropy T*S    EENTRO =        -0.00080902
  eigenvalues    EBANDS =       415.53133254
  atomic energy  EATOM  =      1713.22913220
  ---------------------------------------------------
  free energy    TOTEN  =      -118.97895616 eV

  energy without entropy =     -118.97814714  energy(sigma->0) =     -118.97855165


--------------------------------------------------------------------------------------------------------




----------------------------------------- Iteration    1(   7)  ---------------------------------------


    POTLOK:  VPU time    0.32: CPU time    0.32
    SETDIJ:  VPU time    0.02: CPU time    0.02
    EDDAV :  VPU time  190.39: CPU time  190.35
    DOS   :  VPU time    0.00: CPU time   -0.00
    CHARGE:  VPU time    9.88: CPU time    9.88
    MIXING:  VPU time    0.01: CPU time    0.01
    ------------------------------------------
      LOOP:  VPU time  200.65: CPU time  200.60

 eigenvalue-minimisations  : 29220
 total energy-change (2. order) : 0.3326695E+00  (-0.1170543E-01)
 number of electron   96.0000002 magnetization 
 augmentation part    -1.1737052 magnetization 

 Broyden mixing:
  rms(total) = 0.13439E-01    rms(broyden)= 0.13439E-01
  rms(prec ) = 0.15759E-01
  weight for this iteration     100.00

 eigenvalues of (default mixing * dielectric matrix)
  average eigenvalue GAMMA=   2.4586
  2.4586  2.4586

 Free energy of the ion-electron system (eV)
  ---------------------------------------------------
  alpha Z        PSCENC =        -7.15822495
  Ewald energy   TEWEN  =     -2427.62240689
  -1/2 Hartree   DENC   =        -3.92560686
  -V(xc)+E(xc)   XCENC  =      -830.04964645
  PAW double counting   =      1151.75239361     -130.10970753
  entropy T*S    EENTRO =        -0.00086839
  eigenvalues    EBANDS =       415.23864864
  atomic energy  EATOM  =      1713.22913220
  ---------------------------------------------------
  free energy    TOTEN  =      -118.64628663 eV

  energy without entropy =     -118.64541824  energy(sigma->0) =     -118.64585244


[...]
     64      11.1483      0.00000
     65      12.4739      0.00000
     66      12.4744      0.00000
     67      12.4751      0.00000
     68      12.4755      0.00000

 k-point 194 :       0.3333    0.5000    0.5000
  band No.  band energies     occupation 
      1      -1.3166      2.00000
      2      -1.3166      2.00000
      3      -1.3166      2.00000
      4      -1.3166      2.00000
      5      -0.5241      2.00000
      6      -0.5241      2.00000
      7      -0.5241      2.00000
      8      -0.5241      2.00000
      9       2.5933      2.00000
     10       2.5934      2.00000
     11       2.5934      2.00000
     12       2.5934      2.00000
     13       3.3555      2.00000
     14       3.3555      2.00000
     15       3.3555      2.00000
     16       3.3555      2.00000
     17       3.3555      2.00000
     18       3.3555      2.00000
     19       3.3556      2.00000
     20       3.3556      2.00000
     21       4.1126      2.00000
     22       4.1126      2.00000
     23       4.1128      2.00000
     24       4.1128      2.00000
     25       4.1128      2.00000
     26       4.1128      2.00000
     27       4.1130      2.00000
     28       4.1130      2.00000
     29       4.8526      2.00000
     30       4.8526      2.00000
     31       4.8526      2.00000
     32       4.8527      2.00000
     33       7.1758      2.00000
     34       7.1758      2.00000
     35       7.1763      2.00000
     36       7.1763      2.00000
     37       7.1763      2.00000
     38       7.1763      2.00000
     39       7.1769      2.00000
     40       7.1769      2.00000
     41       7.8952      2.00000
     42       7.8952      2.00000
     43       7.8952      2.00000
     44       7.8952      2.00000
     45       8.6555      2.00000
     46       8.6555      2.00000
     47       8.6555      2.00000
     48       8.6555      2.00000
     49       9.3528      0.00000
     50       9.3528      0.00000
     51       9.3533      0.00000
     52       9.3533      0.00000
     53       9.3533      0.00000
     54       9.3533      0.00000
     55       9.3539      0.00000
     56       9.3539      0.00000
     57      11.1886      0.00000
     58      11.1887      0.00000
     59      11.1887      0.00000
     60      11.1887      0.00000
     61      11.6224      0.00000
     62      11.6224      0.00000
     63      11.6224      0.00000
     64      11.6224      0.00000
     65      12.6031      0.00000
     66      12.6035      0.00000
     67      12.6039      0.00000
     68      12.6044      0.00000

 k-point 195 :       0.4167    0.5000    0.5000
  band No.  band energies     occupation 
      1      -1.1677      2.00000
      2      -1.1676      2.00000
      3      -1.1676      2.00000
      4      -1.1676      2.00000
      5      -0.7712      2.00000
      6      -0.7712      2.00000
      7      -0.7712      2.00000
      8      -0.7712      2.00000
      9       3.1191      2.00000
     10       3.1192      2.00000
     11       3.1192      2.00000
     12       3.1192      2.00000
     13       3.4983      2.00000
     14       3.4983      2.00000
     15       3.4984      2.00000
     16       3.4984      2.00000
     17       3.4984      2.00000
     18       3.4984      2.00000
     19       3.4984      2.00000
     20       3.4984      2.00000
     21       3.8775      2.00000
     22       3.8775      2.00000
     23       3.8776      2.00000
     24       3.8776      2.00000
     25       3.8776      2.00000
     26       3.8776      2.00000
     27       3.8777      2.00000
     28       3.8777      2.00000
     29       4.2515      2.00000
     30       4.2515      2.00000
     31       4.2515      2.00000
     32       4.2516      2.00000
     33       7.6816      2.00000
     34       7.6816      2.00000
     35       7.6821      2.00000
     36       7.6821      2.00000
     37       7.6821      2.00000
     38       7.6821      2.00000
     39       7.6826      2.00000
     40       7.6826      2.00000
     41       8.0409      2.00000
     42       8.0409      2.00000
     43       8.0409      2.00000
     44       8.0409      2.00000
     45       8.4204      2.00000
     46       8.4204      2.00000
     47       8.4204      2.00000
     48       8.4204      2.00000
     49       8.7736      2.00000
     50       8.7736      2.00000
     51       8.7741      2.00000
     52       8.7741      2.00000
     53       8.7741      2.00000
     54       8.7741      2.00000
     55       8.7746      2.00000
     56       8.7746      2.00000
     57      12.0373      0.00000
     58      12.0374      0.00000
     59      12.0374      0.00000
     60      12.0374      0.00000
     61      12.1244      0.00000
     62      12.1244      0.00000
     63      12.1244      0.00000
     64      12.1245      0.00000
     65      12.7504      0.00000
     66      12.7508      0.00000
     67      12.7510      0.00000
     68      12.7512      0.00000

 k-point 196 :       0.5000    0.5000    0.5000
  band No.  band energies     occupation 
      1      -0.9908      2.00000
      2      -0.9863      2.00000
      3      -0.9863      2.00000
      4      -0.9858      2.00000
      5      -0.9857      2.00000
      6      -0.9853      2.00000
      7      -0.9853      2.00000
      8      -0.9807      2.00000
      9       3.6621      2.00000
     10       3.6681      2.00000
     11       3.6681      2.00000
     12       3.6716      2.00000
     13       3.6719      2.00000
     14       3.6720      2.00000
     15       3.6724      2.00000
     16       3.6724      2.00000
     17       3.6725      2.00000
     18       3.6725      2.00000
     19       3.6725      2.00000
     20       3.6725      2.00000
     21       3.6725      2.00000
     22       3.6725      2.00000
     23       3.6726      2.00000
     24       3.6726      2.00000
     25       3.6726      2.00000
     26       3.6726      2.00000
     27       3.6731      2.00000
     28       3.6732      2.00000
     29       3.6735      2.00000
     30       3.6769      2.00000
     31       3.6769      2.00000
     32       3.6830      2.00000
     33       8.2092      2.00000
     34       8.2092      2.00000
     35       8.2116      2.00000
     36       8.2131      2.00000
     37       8.2148      2.00000
     38       8.2152      2.00000
     39       8.2153      2.00000
     40       8.2153      2.00000
     41       8.2156      2.00000
     42       8.2156      2.00000
     43       8.2156      2.00000
     44       8.2156      2.00000
     45       8.2156      2.00000
     46       8.2157      2.00000
     47       8.2157      2.00000
     48       8.2157      2.00000
     49       8.2159      2.00000
     50       8.2159      2.00000
     51       8.2160      2.00000
     52       8.2165      2.00000
     53       8.2182      2.00000
     54       8.2197      2.00000
     55       8.2221      2.00000
     56       8.2221      2.00000
     57      12.6514      0.00000
     58      12.6519      0.00000
     59      12.6519      0.00000
     60      12.6522      0.00000
     61      12.6541      0.00000
     62      12.6544      0.00000
     63      12.6544      0.00000
     64      12.6550      0.00000
     65      12.9186      0.00000
     66      12.9200      0.00000
     67      12.9211      0.00000
     68      12.9214      0.00000


--------------------------------------------------------------------------------------------------------


 soft charge-density along one line, spin component           1
         0         1         2         3         4         5         6         7         8         9
 total charge-density along one line
 
 pseudopotential strength for first ion, spin component:           1
  8.413  -0.008  -0.000  -0.000  -0.000  -0.000  -0.000  -0.000
 -0.008   0.000  -0.000  -0.000  -0.000   0.000   0.000   0.000
 -0.000  -0.000   1.993  -0.000  -0.000  -0.030   0.000   0.000
 -0.000  -0.000  -0.000   1.993   0.000   0.000  -0.030  -0.000
 -0.000  -0.000  -0.000   0.000   1.993   0.000  -0.000  -0.030
 -0.000   0.000  -0.030   0.000   0.000  -0.011   0.000   0.000
 -0.000   0.000   0.000  -0.030  -0.000   0.000  -0.011  -0.000
 -0.000   0.000   0.000  -0.000  -0.030   0.000  -0.000  -0.011
 total augmentation occupancy for first ion, spin component:           1
  1.300  -0.588  -0.000   0.000   0.003   0.000  -0.000  -0.002
 -0.588   0.590   0.000   0.000  -0.004   0.000  -0.000   0.001
 -0.000   0.000   0.808   0.003   0.007  -0.174  -0.001  -0.001
  0.000   0.000   0.003   0.814  -0.001  -0.001  -0.170  -0.001
  0.003  -0.004   0.007  -0.001   0.811  -0.001  -0.001  -0.172
  0.000   0.000  -0.174  -0.001  -0.001   0.043   0.000   0.000
 -0.000  -0.000  -0.001  -0.170  -0.001   0.000   0.042   0.000
 -0.002   0.001  -0.001  -0.001  -0.172   0.000   0.000   0.042


------------------------ aborting loop because EDIFF is reached ----------------------------------------




--------------------------------------------------------------------------------------------------------


    CHARGE:  VPU time    9.79: CPU time    9.78
    FORLOC:  VPU time    0.07: CPU time    0.07
    FORNL :  VPU time   54.00: CPU time   53.97
    STRESS:  VPU time  112.72: CPU time  112.68
    FORCOR:  VPU time    0.38: CPU time    0.38
    FORHAR:  VPU time    0.12: CPU time    0.12
    MIXING:  VPU time    0.01: CPU time    0.01


--------------------------------------------------------------------------------------------------------



  FREE ENERGIE OF THE ION-ELECTRON SYSTEM (eV)
  ---------------------------------------------------
  free  energy   TOTEN  =      -118.646551 eV

  energy  without entropy=     -118.645681  energy(sigma->0) =     -118.646116
 

  FORCE on cell =-STRESS in cart. coord.  units (eV/reduce length):
  Direction    X        Y        Z        XY       YZ       ZX
  --------------------------------------------------------------------------------------
  Alpha Z     -7.16     -7.16     -7.16
  Ewald     -809.21   -809.21   -809.21      0.00      0.00     -0.00
  Hartree      1.33      1.33      1.33     -0.00     -0.00     -0.00
  E(xc)     -282.65   -282.65   -282.65      0.00      0.00     -0.00
  Local       23.56     23.55     23.55     -0.00     -0.00      0.00
  n-local    621.03    620.39    621.66     -1.54     -0.43      0.68
  augment    -31.33    -31.33    -31.33     -0.00      0.00     -0.00
  Kinetic    511.16    504.00    518.32      6.43      0.31     -5.81
  -------------------------------------------------------------------------------------
  Total       26.72     26.72     26.72      0.00      0.00      0.00
  in kB       89.10     89.10     89.10      0.00      0.00      0.00
  external pressure =       89.10 kB  Pullay stress =        0.00 kB


 VOLUME and BASIS-vectors are now :
 -----------------------------------------------------------------------------
  energy-cutoff  :      500.00
  volume of cell :      480.49
      direct lattice vectors                 reciprocal lattice vectors
     7.832374357  0.000000000  0.000000000     0.127675205  0.000000000  0.000000000
     0.000000000  7.832374357  0.000000000     0.000000000  0.127675205  0.000000000
     0.000000000  0.000000000  7.832374357     0.000000000  0.000000000  0.127675205

  length of vectors
     7.832374357  7.832374357  7.832374357     0.127675205  0.127675205  0.127675205


 FORCES acting on ions
    electron-ion (+dipol)            ewald-force                    non-local-force                 convergence-correction
 -----------------------------------------------------------------------------------------------
   0.428E+00 -.895E-13 -.759E-08   -.350E+00 -.488E-14 -.322E-14   -.144E+00 -.419E-19 0.493E-19   -.485E-06 0.874E-15 -.172E-13
   -.919E-01 0.253E-12 -.108E-12   0.924E-01 -.888E-14 0.299E-14   0.241E-02 0.682E-20 -.863E-20   -.276E-06 0.279E-14 -.208E-13
   0.305E-01 0.636E-13 -.281E-13   -.293E-01 -.755E-14 0.211E-14   -.930E-03 -.343E-19 0.205E-19   -.122E-05 -.135E-14 -.159E-13
   -.222E-01 -.373E-12 -.353E-13   0.230E-01 -.755E-14 0.211E-14   0.523E-03 -.949E-22 0.462E-20   0.419E-06 -.352E-14 -.185E-13
   0.305E-01 -.468E-14 -.667E-13   -.293E-01 -.355E-14 -.287E-14   -.930E-03 0.689E-19 -.569E-20   -.122E-05 -.258E-15 0.177E-13
   -.222E-01 -.792E-13 0.114E-14   0.230E-01 -.355E-14 0.688E-15   0.523E-03 -.131E-19 -.472E-20   0.413E-06 0.614E-15 0.212E-13
   0.134E-01 -.298E-13 -.320E-13   -.121E-01 -.533E-14 -.287E-14   -.480E-03 0.109E-19 0.204E-20   -.226E-05 -.218E-15 0.163E-13
   -.109E-01 0.121E-12 0.336E-12   0.113E-01 -.888E-14 -.287E-14   -.103E-03 0.545E-19 -.113E-19   0.199E-05 -.134E-14 0.188E-13
   0.537E-01 -.268E-03 0.268E-03   -.552E-01 0.222E-03 -.222E-03   0.609E-03 0.665E-04 -.665E-04   -.129E-05 0.912E-07 -.912E-07
   -.325E-01 0.904E-04 -.904E-04   0.311E-01 -.664E-04 0.664E-04   0.165E-02 -.181E-04 0.181E-04   0.534E-06 0.499E-07 -.499E-07
   0.537E-01 0.268E-03 0.268E-03   -.552E-01 -.222E-03 -.222E-03   0.609E-03 -.665E-04 -.665E-04   -.129E-05 -.912E-07 -.912E-07
   -.325E-01 -.904E-04 -.904E-04   0.311E-01 0.664E-04 0.664E-04   0.165E-02 0.181E-04 0.181E-04   0.534E-06 -.499E-07 -.499E-07
   0.537E-01 -.268E-03 -.268E-03   -.552E-01 0.222E-03 0.222E-03   0.609E-03 0.665E-04 0.665E-04   -.129E-05 0.912E-07 0.912E-07
   -.325E-01 0.904E-04 0.904E-04   0.311E-01 -.664E-04 -.664E-04   0.165E-02 -.181E-04 -.181E-04   0.534E-06 0.499E-07 0.499E-07
   0.537E-01 0.268E-03 -.268E-03   -.552E-01 -.222E-03 0.222E-03   0.609E-03 -.665E-04 0.665E-04   -.129E-05 -.912E-07 0.912E-07
   -.325E-01 -.904E-04 0.904E-04   0.311E-01 0.664E-04 -.664E-04   0.165E-02 0.181E-04 -.181E-04   0.534E-06 -.499E-07 0.499E-07
   -.532E-01 -.114E-13 0.928E-01   0.447E-01 0.178E-14 -.847E-01   0.167E-01 -.708E-21 -.173E-01   0.437E-06 0.879E-15 0.255E-06
   -.530E-01 -.328E-12 -.937E-01   0.444E-01 0.178E-14 0.854E-01   0.170E-01 0.235E-20 0.178E-01   0.414E-06 0.796E-16 -.456E-06
   -.196E-02 -.236E-13 0.732E-02   0.149E-02 -.888E-15 -.701E-02   -.847E-04 -.784E-20 -.146E-03   0.257E-06 -.148E-14 0.620E-06
   -.185E-02 -.717E-13 -.732E-02   0.135E-02 0.000E+00 0.702E-02   -.654E-04 0.126E-19 0.141E-03   0.316E-06 -.743E-15 -.680E-06
   -.532E-01 -.123E-13 -.928E-01   0.447E-01 0.000E+00 0.847E-01   0.167E-01 -.311E-21 0.173E-01   0.437E-06 0.177E-14 -.255E-06
   -.530E-01 0.581E-13 0.937E-01   0.444E-01 0.000E+00 -.854E-01   0.170E-01 0.547E-20 -.178E-01   0.414E-06 0.144E-14 0.456E-06
   -.196E-02 -.269E-13 -.732E-02   0.149E-02 0.444E-15 0.701E-02   -.847E-04 -.845E-21 0.146E-03   0.257E-06 -.237E-14 -.620E-06
   -.185E-02 0.112E-12 0.732E-02   0.135E-02 0.178E-14 -.702E-02   -.654E-04 0.160E-19 -.141E-03   0.316E-06 -.209E-14 0.680E-06
   -.532E-01 -.928E-01 0.483E-14   0.447E-01 0.847E-01 0.132E-14   0.167E-01 0.173E-01 0.571E-20   0.438E-06 -.258E-06 -.180E-13
   -.530E-01 0.937E-01 0.401E-13   0.444E-01 -.854E-01 0.131E-14   0.170E-01 -.178E-01 -.112E-19   0.415E-06 0.460E-06 -.170E-13
   -.532E-01 0.928E-01 -.877E-15   0.447E-01 -.847E-01 0.131E-14   0.167E-01 -.173E-01 -.624E-20   0.438E-06 0.258E-06 -.189E-13
   -.530E-01 -.937E-01 0.458E-13   0.444E-01 0.854E-01 0.131E-14   0.170E-01 0.178E-01 0.101E-19   0.415E-06 -.460E-06 -.184E-13
   -.196E-02 -.732E-02 -.773E-14   0.149E-02 0.701E-02 0.176E-14   -.847E-04 0.146E-03 0.105E-19   0.256E-06 -.624E-06 0.184E-13
   -.185E-02 0.732E-02 -.913E-13   0.135E-02 -.702E-02 0.220E-14   -.654E-04 -.141E-03 -.253E-20   0.315E-06 0.683E-06 0.174E-13
   -.196E-02 0.732E-02 -.446E-14   0.149E-02 -.701E-02 0.176E-14   -.847E-04 -.146E-03 -.298E-22   0.256E-06 0.624E-06 0.193E-13
   -.185E-02 -.732E-02 0.973E-13   0.135E-02 0.702E-02 0.220E-14   -.654E-04 0.141E-03 0.708E-20   0.315E-06 -.683E-06 0.188E-13
 -----------------------------------------------------------------------------------------------
   0.199E-05 -.222E-12 -.759E-08   0.618E-14 -.737E-15 0.119E-13   -.386E-05 0.000E+00 -.447E-18   0.372E-07 -.673E-16 -.402E-16
 
 
 POSITION                                       TOTAL-FORCE (eV/Angst)
 -----------------------------------------------------------------------------------
      1.96809      1.95809      0.00000        -0.066059      0.000000      0.000000
      5.87428      1.95809      0.00000         0.002902      0.000000      0.000000
      1.95809      5.87428      0.00000         0.000321     -0.000000     -0.000000
      5.87428      5.87428      0.00000         0.001360     -0.000000      0.000000
      1.95809      1.95809      3.91619         0.000321      0.000000     -0.000000
      5.87428      1.95809      3.91619         0.001360      0.000000     -0.000000
      1.95809      5.87428      3.91619         0.000882      0.000000      0.000000
      5.87428      5.87428      3.91619         0.000287     -0.000000     -0.000000
      1.95809      0.00000      1.95809        -0.000941      0.000020     -0.000020
      5.87428      0.00000      1.95809         0.000179      0.000006     -0.000006
      1.95809      3.91619      1.95809        -0.000941     -0.000020     -0.000020
      5.87428      3.91619      1.95809         0.000179     -0.000006     -0.000006
      1.95809      0.00000      5.87428        -0.000941      0.000020      0.000020
      5.87428      0.00000      5.87428         0.000179      0.000006      0.000006
      1.95809      3.91619      5.87428        -0.000941     -0.000020      0.000020
      5.87428      3.91619      5.87428         0.000179     -0.000006      0.000006
      0.00000      1.95809      1.95809         0.008162     -0.000000     -0.009155
      3.91619      1.95809      1.95809         0.008377      0.000000      0.009447
      0.00000      5.87428      1.95809        -0.000554     -0.000000      0.000166
      3.91619      5.87428      1.95809        -0.000566     -0.000000     -0.000167
      0.00000      1.95809      5.87428         0.008162      0.000000      0.009155
      3.91619      1.95809      5.87428         0.008377     -0.000000     -0.009447
      0.00000      5.87428      5.87428        -0.000554      0.000000     -0.000166
      3.91619      5.87428      5.87428        -0.000566     -0.000000      0.000167
      0.00000      0.00000      0.00000         0.008162      0.009155     -0.000000
      3.91619      0.00000      0.00000         0.008377     -0.009447      0.000000
      0.00000      3.91619      0.00000         0.008162     -0.009155     -0.000000
      3.91619      3.91619      0.00000         0.008377      0.009447     -0.000000
      0.00000      0.00000      3.91619        -0.000554     -0.000166      0.000000
      3.91619      0.00000      3.91619        -0.000566      0.000167     -0.000000
      0.00000      3.91619      3.91619        -0.000554      0.000166      0.000000
      3.91619      3.91619      3.91619        -0.000566     -0.000167      0.000000
 -----------------------------------------------------------------------------------
    total drift:                               -0.000002     -0.000000     -0.000000


--------------------------------------------------------------------------------------------------------



 mean value of Nose-termostat <S>:     1.000 mean value of <T> :     0.000
 mean temperature <T/S>/<1/S>  :     0.000

     LOOP+:  VPU time 2933.41: CPU time 2932.89
  
  
 General timing and accounting informations for this job:
 ========================================================
  
                  Total CPU time used (sec):     2964.474
                            User time (sec):     2700.599
                          System time (sec):      263.875
                         Elapsed time (sec):     2963.936
  
                   Maximum memory used (kb):     4149416.
                   Average memory used (kb):           0.
  
                          Minor page faults:       831334
                          Major page faults:            0
                 Voluntary context switches:          929
