 running on    8 nodes
 distr:  one band on    1 nodes,    8 groups
 vasp.4.6.28 25Jul05 complex 
 POSCAR found :  1 types and   32 ions

 ----------------------------------------------------------------------------- 
|                                                                             |
|  ADVICE TO THIS USER RUNNING 'VASP/VAMP'   (HEAR YOUR MASTER'S VOICE ...):  |
|                                                                             |
|      You have a (more or less) 'large supercell' and for larger cells       |
|      it might be more efficient to use real space projection operators      |
|      So try LREAL= Auto  in the INCAR   file.                               |
|      Mind: If you want to do an extremely accurate calculations keep the    |
|      reciprocal projection scheme          (i.e. LREAL=.FALSE.)             |
|                                                                             |
 ----------------------------------------------------------------------------- 

 LDA part: xc-table for Pade appr. of Perdew
 POSCAR, INCAR and KPOINTS ok, starting setup
 FFT: planning ...           1
 reading WAVECAR
 WARNING: random wavefunctions but no delay for mixing, default for NELMDL
 entering main loop
       N       E                     dE             d eps       ncg     rms          rms(c)
DAV:   1     0.436111168156E+04    0.43611E+04   -0.20237E+05 84680   0.211E+03
DAV:   2     0.165709530812E+03   -0.41954E+04   -0.39956E+04 84712   0.526E+02
DAV:   3    -0.935176513742E+02   -0.25923E+03   -0.23420E+03 94776   0.134E+02
DAV:   4    -0.103309642947E+03   -0.97920E+01   -0.96276E+01 90368   0.255E+01
DAV:   5    -0.103490601613E+03   -0.18096E+00   -0.18047E+00 91320   0.310E+00    0.142E+01
DAV:   6    -0.971467169017E+02    0.63439E+01   -0.20564E+01 89144   0.151E+01    0.335E+00
DAV:   7    -0.969920347623E+02    0.15468E+00   -0.76199E-01 92904   0.218E+00    0.181E+00
DAV:   8    -0.969612517993E+02    0.30783E-01   -0.50898E-02 88512   0.825E-01    0.140E-01
DAV:   9    -0.969617723026E+02   -0.52050E-03   -0.39905E-03 93696   0.186E-01    0.793E-02
DAV:  10    -0.969618768724E+02   -0.10457E-03   -0.47908E-04 87952   0.617E-02    0.128E-02
DAV:  11    -0.969618852195E+02   -0.83471E-05   -0.14634E-05 93712   0.124E-02    0.302E-03
DAV:  12    -0.969618872386E+02   -0.20191E-05   -0.10223E-06 88512   0.339E-03    0.156E-03
DAV:  13    -0.969618857295E+02    0.15090E-05   -0.10073E-07 88008   0.110E-03    0.361E-04
DAV:  14    -0.969618855091E+02    0.22040E-06   -0.66337E-09 47648   0.341E-04    0.655E-05
DAV:  15    -0.969618855673E+02   -0.58124E-07   -0.91430E-10 46904   0.112E-04    0.408E-05
DAV:  16    -0.969618855621E+02    0.51696E-08   -0.42488E-11 46376   0.493E-05
   1 F= -.96961886E+02 E0= -.96961661E+02  d E =-.448915E-03
