  32  32   0   0
  0.2225309E+02  0.8929903E-09  0.8929903E-09  0.8929903E-09  0.5000000E-15
  1.000000000000000E-004
  CAR 
 unknown system                          
     11.01976683     -5.31908045  301      2.79054173      1.00000000
     -5.319  0.0000E+00  0.0000E+00
     -5.265  0.0000E+00  0.0000E+00
     -5.210  0.0000E+00  0.0000E+00
     -5.156  0.0000E+00  0.0000E+00
     -5.101  0.0000E+00  0.0000E+00
     -5.047  0.0000E+00  0.0000E+00
     -4.992  0.0000E+00  0.0000E+00
     -4.938  0.0000E+00  0.0000E+00
     -4.883  0.0000E+00  0.0000E+00
     -4.829  0.0000E+00  0.0000E+00
     -4.774  0.0000E+00  0.0000E+00
     -4.720  0.0000E+00  0.0000E+00
     -4.666  0.0000E+00  0.0000E+00
     -4.611  0.1011E-07  0.5507E-09
     -4.557  0.1212E+00  0.6603E-02
     -4.502  0.6753E+00  0.4338E-01
     -4.448  0.1078E+01  0.1021E+00
     -4.393  0.1716E+01  0.1955E+00
     -4.339  0.1730E+01  0.2897E+00
     -4.284  0.1860E+01  0.3910E+00
     -4.230  0.2364E+01  0.5197E+00
     -4.175  0.1499E+01  0.6014E+00
     -4.121  0.3019E+01  0.7658E+00
     -4.066  0.2135E+01  0.8821E+00
     -4.012  0.3307E+01  0.1062E+01
     -3.958  0.2355E+01  0.1190E+01
     -3.903  0.3977E+01  0.1407E+01
     -3.849  0.3072E+01  0.1574E+01
     -3.794  0.3313E+01  0.1755E+01
     -3.740  0.4572E+01  0.2004E+01
     -3.685  0.3099E+01  0.2173E+01
     -3.631  0.4393E+01  0.2412E+01
     -3.576  0.3870E+01  0.2623E+01
     -3.522  0.5103E+01  0.2901E+01
     -3.467  0.3728E+01  0.3104E+01
     -3.413  0.5508E+01  0.3404E+01
     -3.358  0.4178E+01  0.3631E+01
     -3.304  0.4963E+01  0.3901E+01
     -3.249  0.6048E+01  0.4231E+01
     -3.195  0.5886E+01  0.4551E+01
     -3.141  0.4519E+01  0.4798E+01
     -3.086  0.7794E+01  0.5222E+01
     -3.032  0.6371E+01  0.5569E+01
     -2.977  0.6186E+01  0.5906E+01
     -2.923  0.6596E+01  0.6265E+01
     -2.868  0.9003E+01  0.6755E+01
     -2.814  0.5999E+01  0.7082E+01
     -2.759  0.1004E+02  0.7629E+01
     -2.705  0.1052E+02  0.8202E+01
     -2.650  0.9020E+01  0.8693E+01
     -2.596  0.1183E+02  0.9337E+01
     -2.541  0.1541E+02  0.1018E+02
     -2.487  0.1382E+02  0.1093E+02
     -2.433  0.2856E+02  0.1249E+02
     -2.378  0.2756E+02  0.1399E+02
     -2.324  0.2972E+02  0.1561E+02
     -2.269  0.2658E+02  0.1705E+02
     -2.215  0.2870E+02  0.1862E+02
     -2.160  0.4104E+02  0.2085E+02
     -2.106  0.5065E+02  0.2361E+02
     -2.051  0.5375E+02  0.2654E+02
     -1.997  0.6963E+02  0.3033E+02
     -1.942  0.7551E+02  0.3444E+02
     -1.888  0.8853E+02  0.3926E+02
     -1.833  0.8942E+02  0.4413E+02
     -1.779  0.8408E+02  0.4871E+02
     -1.725  0.9069E+02  0.5365E+02
     -1.670  0.7094E+02  0.5752E+02
     -1.616  0.8225E+02  0.6200E+02
     -1.561  0.7362E+02  0.6600E+02
     -1.507  0.7273E+02  0.6997E+02
     -1.452  0.7389E+02  0.7399E+02
     -1.398  0.6007E+02  0.7726E+02
     -1.343  0.5897E+02  0.8047E+02
     -1.289  0.5059E+02  0.8323E+02
     -1.234  0.6787E+02  0.8692E+02
     -1.180  0.7868E+02  0.9121E+02
     -1.125  0.9716E+02  0.9650E+02
     -1.071  0.1036E+03  0.1021E+03
     -1.017  0.1064E+03  0.1079E+03
     -0.962  0.1105E+03  0.1140E+03
     -0.908  0.9696E+02  0.1192E+03
     -0.853  0.9986E+02  0.1247E+03
     -0.799  0.1028E+03  0.1303E+03
     -0.744  0.1010E+03  0.1358E+03
     -0.690  0.1132E+03  0.1419E+03
     -0.635  0.1316E+03  0.1491E+03
     -0.581  0.1404E+03  0.1568E+03
     -0.526  0.1942E+03  0.1673E+03
     -0.472  0.1505E+03  0.1755E+03
     -0.417  0.1149E+03  0.1818E+03
     -0.363  0.1003E+03  0.1873E+03
     -0.309  0.8354E+02  0.1918E+03
     -0.254  0.8076E+02  0.1962E+03
     -0.200  0.9128E+02  0.2012E+03
     -0.145  0.8131E+02  0.2056E+03
     -0.091  0.8608E+02  0.2103E+03
     -0.036  0.9937E+02  0.2157E+03
      0.018  0.1034E+03  0.2213E+03
      0.073  0.1051E+03  0.2271E+03
      0.127  0.1060E+03  0.2328E+03
      0.182  0.1243E+03  0.2396E+03
      0.236  0.1089E+03  0.2455E+03
      0.291  0.1053E+03  0.2513E+03
      0.345  0.9031E+02  0.2562E+03
      0.400  0.9297E+02  0.2612E+03
      0.454  0.8580E+02  0.2659E+03
      0.508  0.8339E+02  0.2705E+03
      0.563  0.9442E+02  0.2756E+03
      0.617  0.8025E+02  0.2800E+03
      0.672  0.9904E+02  0.2854E+03
      0.726  0.9083E+02  0.2903E+03
      0.781  0.1143E+03  0.2965E+03
      0.835  0.1106E+03  0.3026E+03
      0.890  0.1760E+03  0.3122E+03
      0.944  0.1572E+03  0.3207E+03
      0.999  0.9928E+02  0.3261E+03
      1.053  0.8067E+02  0.3305E+03
      1.108  0.6391E+02  0.3340E+03
      1.162  0.1773E+02  0.3350E+03
      1.216  0.1025E+02  0.3355E+03
      1.271  0.1741E+02  0.3365E+03
      1.325  0.9274E+01  0.3370E+03
      1.380  0.5769E+01  0.3373E+03
      1.434  0.1725E+02  0.3382E+03
      1.489  0.9224E+01  0.3387E+03
      1.543  0.7179E+01  0.3391E+03
      1.598  0.1006E+02  0.3397E+03
      1.652  0.1608E+02  0.3405E+03
      1.707  0.8700E+01  0.3410E+03
      1.761  0.6907E+01  0.3414E+03
      1.816  0.8228E+01  0.3418E+03
      1.870  0.1601E+02  0.3427E+03
      1.924  0.1079E+02  0.3433E+03
      1.979  0.7922E+01  0.3437E+03
      2.033  0.6557E+01  0.3441E+03
      2.088  0.1333E+02  0.3448E+03
      2.142  0.1211E+02  0.3455E+03
      2.197  0.1011E+02  0.3460E+03
      2.251  0.7852E+01  0.3465E+03
      2.306  0.7501E+01  0.3469E+03
      2.360  0.1457E+02  0.3477E+03
      2.415  0.1145E+02  0.3483E+03
      2.469  0.7668E+01  0.3487E+03
      2.524  0.9431E+01  0.3492E+03
      2.578  0.1174E+02  0.3498E+03
      2.632  0.8692E+01  0.3503E+03
      2.687  0.1282E+02  0.3510E+03
      2.741  0.8096E+01  0.3515E+03
      2.796  0.1087E+02  0.3521E+03
      2.850  0.9793E+01  0.3526E+03
      2.905  0.1348E+02  0.3533E+03
      2.959  0.9008E+01  0.3538E+03
      3.014  0.1015E+02  0.3544E+03
      3.068  0.1158E+02  0.3550E+03
      3.123  0.9148E+01  0.3555E+03
      3.177  0.1215E+02  0.3562E+03
      3.232  0.1038E+02  0.3567E+03
      3.286  0.9163E+01  0.3572E+03
      3.341  0.1381E+02  0.3580E+03
      3.395  0.8749E+01  0.3584E+03
      3.449  0.1091E+02  0.3590E+03
      3.504  0.1127E+02  0.3597E+03
      3.558  0.1035E+02  0.3602E+03
      3.613  0.1075E+02  0.3608E+03
      3.667  0.1365E+02  0.3615E+03
      3.722  0.5736E+01  0.3619E+03
      3.776  0.1099E+02  0.3625E+03
      3.831  0.1317E+02  0.3632E+03
      3.885  0.9363E+01  0.3637E+03
      3.940  0.1054E+02  0.3643E+03
      3.994  0.1049E+02  0.3648E+03
      4.049  0.8385E+01  0.3653E+03
      4.103  0.1363E+02  0.3660E+03
      4.157  0.1027E+02  0.3666E+03
      4.212  0.9938E+01  0.3671E+03
      4.266  0.1050E+02  0.3677E+03
      4.321  0.7469E+01  0.3681E+03
      4.375  0.1343E+02  0.3688E+03
      4.430  0.1066E+02  0.3694E+03
      4.484  0.1151E+02  0.3700E+03
      4.539  0.1115E+02  0.3707E+03
      4.593  0.1008E+02  0.3712E+03
      4.648  0.9085E+01  0.3717E+03
      4.702  0.1597E+02  0.3726E+03
      4.757  0.1584E+02  0.3734E+03
      4.811  0.1558E+02  0.3743E+03
      4.865  0.1623E+02  0.3752E+03
      4.920  0.1548E+02  0.3760E+03
      4.974  0.1117E+02  0.3766E+03
      5.029  0.1780E+02  0.3776E+03
      5.083  0.1487E+02  0.3784E+03
      5.138  0.1051E+02  0.3790E+03
      5.192  0.1257E+02  0.3797E+03
      5.247  0.1512E+02  0.3805E+03
      5.301  0.9188E+01  0.3810E+03
      5.356  0.1162E+02  0.3816E+03
      5.410  0.1316E+02  0.3823E+03
      5.465  0.1123E+02  0.3829E+03
      5.519  0.1121E+02  0.3835E+03
      5.573  0.1377E+02  0.3843E+03
      5.628  0.9098E+01  0.3848E+03
      5.682  0.9068E+01  0.3853E+03
      5.737  0.8979E+01  0.3858E+03
      5.791  0.1286E+02  0.3865E+03
      5.846  0.1134E+02  0.3871E+03
      5.900  0.9021E+01  0.3876E+03
      5.955  0.8267E+01  0.3880E+03
      6.009  0.9429E+01  0.3885E+03
      6.064  0.9180E+01  0.3890E+03
      6.118  0.9341E+01  0.3896E+03
      6.173  0.9361E+01  0.3901E+03
      6.227  0.6464E+01  0.3904E+03
      6.282  0.6663E+01  0.3908E+03
      6.336  0.9031E+01  0.3913E+03
      6.390  0.1022E+02  0.3918E+03
      6.445  0.7226E+01  0.3922E+03
      6.499  0.8125E+01  0.3927E+03
      6.554  0.8803E+01  0.3931E+03
      6.608  0.1029E+02  0.3937E+03
      6.663  0.8994E+01  0.3942E+03
      6.717  0.1072E+02  0.3948E+03
      6.772  0.1244E+02  0.3955E+03
      6.826  0.1258E+02  0.3961E+03
      6.881  0.1675E+02  0.3971E+03
      6.935  0.1719E+02  0.3980E+03
      6.990  0.1417E+02  0.3988E+03
      7.044  0.1154E+02  0.3994E+03
      7.098  0.1757E+02  0.4003E+03
      7.153  0.9333E+01  0.4009E+03
      7.207  0.8080E+01  0.4013E+03
      7.262  0.1309E+02  0.4020E+03
      7.316  0.1631E+02  0.4029E+03
      7.371  0.9161E+01  0.4034E+03
      7.425  0.1629E+02  0.4043E+03
      7.480  0.1521E+02  0.4051E+03
      7.534  0.1719E+02  0.4060E+03
      7.589  0.1342E+02  0.4068E+03
      7.643  0.1569E+02  0.4076E+03
      7.698  0.9849E+01  0.4082E+03
      7.752  0.1226E+02  0.4088E+03
      7.806  0.8177E+01  0.4093E+03
      7.861  0.9515E+01  0.4098E+03
      7.915  0.1190E+02  0.4104E+03
      7.970  0.1306E+02  0.4112E+03
      8.024  0.1782E+02  0.4121E+03
      8.079  0.1128E+02  0.4127E+03
      8.133  0.1201E+02  0.4134E+03
      8.188  0.1079E+02  0.4140E+03
      8.242  0.1325E+02  0.4147E+03
      8.297  0.8012E+01  0.4151E+03
      8.351  0.9073E+01  0.4156E+03
      8.406  0.1185E+02  0.4163E+03
      8.460  0.1029E+02  0.4168E+03
      8.514  0.8338E+01  0.4173E+03
      8.569  0.7499E+01  0.4177E+03
      8.623  0.1615E+02  0.4186E+03
      8.678  0.1228E+02  0.4193E+03
      8.732  0.8853E+01  0.4197E+03
      8.787  0.9298E+01  0.4202E+03
      8.841  0.1342E+02  0.4210E+03
      8.896  0.1449E+02  0.4218E+03
      8.950  0.9934E+01  0.4223E+03
      9.005  0.1164E+02  0.4229E+03
      9.059  0.1478E+02  0.4237E+03
      9.114  0.1223E+02  0.4244E+03
      9.168  0.1683E+02  0.4253E+03
      9.222  0.1087E+02  0.4259E+03
      9.277  0.7360E+01  0.4263E+03
      9.331  0.1165E+02  0.4270E+03
      9.386  0.1067E+02  0.4275E+03
      9.440  0.1178E+02  0.4282E+03
      9.495  0.6061E+01  0.4285E+03
      9.549  0.9078E+01  0.4290E+03
      9.604  0.1004E+02  0.4295E+03
      9.658  0.1186E+02  0.4302E+03
      9.713  0.9926E+01  0.4307E+03
      9.767  0.2688E+01  0.4309E+03
      9.822  0.5573E+01  0.4312E+03
      9.876  0.3589E+01  0.4314E+03
      9.931  0.2408E+01  0.4315E+03
      9.985  0.1673E+01  0.4316E+03
     10.039  0.2182E+01  0.4317E+03
     10.094  0.7978E+00  0.4318E+03
     10.148  0.7477E+00  0.4318E+03
     10.203  0.1788E+01  0.4319E+03
     10.257  0.1242E+01  0.4320E+03
     10.312  0.5084E+00  0.4320E+03
     10.366  0.0000E+00  0.4320E+03
     10.421  0.0000E+00  0.4320E+03
     10.475  0.0000E+00  0.4320E+03
     10.530  0.0000E+00  0.4320E+03
     10.584  0.0000E+00  0.4320E+03
     10.639  0.0000E+00  0.4320E+03
     10.693  0.0000E+00  0.4320E+03
     10.747  0.0000E+00  0.4320E+03
     10.802  0.0000E+00  0.4320E+03
     10.856  0.0000E+00  0.4320E+03
     10.911  0.0000E+00  0.4320E+03
     10.965  0.0000E+00  0.4320E+03
     11.020  0.0000E+00  0.4320E+03
