   32   32    1    1
  0.2225309E+02  0.8929903E-09  0.8929903E-09  0.8929903E-09  0.5000000E-15
  1.000000000000000E-004
  CAR 
 unknown system                          
  352  196  216
 
  0.0000000E+00  0.0000000E+00  0.0000000E+00  0.5787037E-03
   1       -4.5764
   2       -2.6179
   3       -2.6152
   4       -2.6152
   5       -2.6152
   6       -2.6152
   7       -2.6125
   8       -2.4897
   9       -2.4897
  10       -2.4897
  11       -2.4897
  12       -2.2447
  13       -2.2447
  14       -2.2447
  15       -2.0606
  16       -2.0606
  17       -2.0606
  18       -1.6207
  19       -1.6195
  20       -1.6195
  21       -1.6182
  22       -1.6180
  23       -1.6180
  24       -1.6180
  25       -1.6180
  26       -1.6178
  27       -1.6165
  28       -1.6165
  29       -1.6154
  30       -1.4867
  31       -1.4852
  32       -1.4852
  33       -1.4852
  34       -1.4852
  35       -1.4837
  36       -1.4521
  37       -1.4506
  38       -1.4506
  39       -1.4506
  40       -1.4506
  41       -1.4491
  42       -1.0446
  43       -1.0428
  44       -1.0428
  45       -1.0419
  46       -1.0419
  47       -1.0419
  48       -1.0419
  49       -1.0419
  50       -1.0419
  51       -1.0411
  52       -1.0411
  53       -1.0394
  54       -0.9919
  55       -0.9919
  56       -0.9903
  57       -0.9903
  58       -0.9902
  59       -0.9902
  60       -0.9902
  61       -0.9902
  62       -0.9902
  63       -0.9901
  64       -0.9885
  65       -0.9885
  66       -0.7795
  67       -0.7768
  68       -0.7767
  69       -0.7767
  70       -0.7766
  71       -0.7766
  72       -0.7765
  73       -0.7765
  74       -0.7763
  75       -0.7763
  76       -0.7762
  77       -0.7744
  78       -0.7723
  79       -0.7722
  80       -0.7722
  81       -0.7722
  82       -0.7722
  83       -0.7722
  84       -0.7722
  85       -0.7714
  86       -0.7603
  87       -0.7603
  88       -0.7603
  89       -0.2425
  90       -0.2411
  91       -0.2410
  92       -0.2410
  93       -0.2410
  94       -0.2396
  95       -0.1578
  96       -0.1572
  97       -0.1565
  98       -0.1565
  99       -0.1560
 100       -0.1560
 101       -0.1560
 102       -0.1560
 103       -0.1556
 104       -0.1556
 105       -0.1548
 106       -0.1543
 107        0.0326
 108        0.0326
 109        0.0344
 110        0.0344
 111        0.0345
 112        0.0345
 113        0.0345
 114        0.0346
 115        0.0347
 116        0.0347
 117        0.0364
 118        0.0364
 119        0.1390
 120        0.1402
 121        0.1402
 122        0.1403
 123        0.1403
 124        0.1415
 125        0.1789
 126        0.1790
 127        0.1951
 128        0.1951
 129        0.1968
 130        0.1971
 131        0.1972
 132        0.1972
 133        0.1972
 134        0.1973
 135        0.1973
 136        0.1975
 137        0.1993
 138        0.1993
 139        0.5248
 140        0.5256
 141        0.5256
 142        0.5256
 143        0.5256
 144        0.5265
 145        0.8937
 146        0.8937
 147        0.8937
 148        0.9263
 149        0.9263
 150        0.9263
 151        0.9263
 152        0.9263
 153        0.9263
 154        0.9263
 155        0.9263
 156        1.1228
 157        1.1230
 158        1.1230
 159        1.1230
 160        1.1230
 161        1.1230
 162        1.1239
 163        1.1240
 164        1.1240
 165        1.1240
 166        1.1240
 167        1.1242
 168        2.2905
 169        2.2916
 170        2.2916
 171        2.2921
 172        2.2925
 173        2.2925
 174        2.2925
 175        2.2925
 176        2.2929
 177        2.2934
 178        2.2934
 179        2.2945
 180        2.9411
 181        2.9411
 182        2.9411
 183        2.9411
 184        4.4940
 185        4.4940
 186        4.4940
 187        4.6714
 188        4.6714
 189        4.6714
 190        4.6715
 191        6.2576
 192        6.2577
 193        6.2577
 194        6.2577
 195        6.2577
 196        6.2578
 197        6.7479
 198        6.7479
 199        6.7479
 200        8.3396
 201        8.3396
 202        8.3423
 203        8.3423
 204        8.3426
 205        8.3426
 206        8.3426
 207        8.3427
 208        8.3429
 209        8.3429
 210        8.3456
 211        8.3456
 212        9.9787
 213        9.9795
 214        9.9801
 215        9.9805
 216        9.9809
 
  0.8333333E-01  0.0000000E+00  0.0000000E+00  0.1157407E-02
   1       -4.5604
   2       -2.8530
   3       -2.6037
   4       -2.6037
   5       -2.6037
   6       -2.6037
   7       -2.4816
   8       -2.4816
   9       -2.4816
  10       -2.4816
  11       -2.4109
  12       -2.2401
  13       -2.2352
  14       -2.2352
  15       -2.0557
  16       -2.0531
  17       -2.0531
  18       -1.6937
  19       -1.6937
  20       -1.6937
  21       -1.6937
  22       -1.6601
  23       -1.6601
  24       -1.6601
  25       -1.6601
  26       -1.5542
  27       -1.5542
  28       -1.5542
  29       -1.5541
  30       -1.5343
  31       -1.5047
  32       -1.5046
  33       -1.4790
  34       -1.4790
  35       -1.4790
  36       -1.4789
  37       -1.4463
  38       -1.4463
  39       -1.4463
  40       -1.4463
  41       -1.3655
  42       -1.1580
  43       -1.1580
  44       -1.0772
  45       -1.0771
  46       -1.0771
  47       -1.0771
  48       -1.0154
  49       -1.0142
  50       -1.0142
  51       -1.0142
  52       -1.0135
  53       -1.0135
  54       -1.0135
  55       -1.0124
  56       -0.9975
  57       -0.9975
  58       -0.9975
  59       -0.9975
  60       -0.9895
  61       -0.9894
  62       -0.9894
  63       -0.9893
  64       -0.8121
  65       -0.8121
  66       -0.8121
  67       -0.8120
  68       -0.8099
  69       -0.8099
  70       -0.7750
  71       -0.7749
  72       -0.7749
  73       -0.7749
  74       -0.7678
  75       -0.7677
  76       -0.7677
  77       -0.7676
  78       -0.7666
  79       -0.7662
  80       -0.7661
  81       -0.7661
  82       -0.7661
  83       -0.7543
  84       -0.7543
  85       -0.7475
  86       -0.7475
  87       -0.7475
  88       -0.7473
  89       -0.2848
  90       -0.2848
  91       -0.2848
  92       -0.2848
  93       -0.2714
  94       -0.1854
  95       -0.1853
  96       -0.1853
  97       -0.1853
  98       -0.1552
  99       -0.1549
 100       -0.1549
 101       -0.1549
 102       -0.1453
 103       -0.1205
 104       -0.1205
 105       -0.1205
 106       -0.1205
 107       -0.0817
 108       -0.0817
 109        0.0341
 110        0.0341
 111        0.0341
 112        0.0341
 113        0.0730
 114        0.0730
 115        0.0730
 116        0.0730
 117        0.1415
 118        0.1415
 119        0.1420
 120        0.1420
 121        0.1431
 122        0.1432
 123        0.1435
 124        0.1435
 125        0.1556
 126        0.1556
 127        0.1600
 128        0.1601
 129        0.1724
 130        0.1818
 131        0.2283
 132        0.2283
 133        0.2283
 134        0.2284
 135        0.2661
 136        0.2661
 137        0.2661
 138        0.2661
 139        0.4792
 140        0.5347
 141        0.5347
 142        0.5347
 143        0.5347
 144        0.5724
 145        0.8846
 146        0.8847
 147        0.8905
 148        0.8988
 149        0.8988
 150        0.8988
 151        0.8988
 152        0.9183
 153        0.9183
 154        0.9183
 155        0.9183
 156        1.0877
 157        1.0877
 158        1.1115
 159        1.1115
 160        1.1115
 161        1.1115
 162        1.1117
 163        1.1117
 164        1.1228
 165        1.1230
 166        1.1239
 167        1.1242
 168        2.0499
 169        2.0499
 170        2.0499
 171        2.0499
 172        2.2957
 173        2.2957
 174        2.2957
 175        2.2957
 176        2.5583
 177        2.5583
 178        2.5583
 179        2.5583
 180        2.8989
 181        2.8989
 182        2.8989
 183        2.8989
 184        4.2818
 185        4.5423
 186        4.5423
 187        4.7641
 188        4.7641
 189        4.7641
 190        4.7641
 191        6.1665
 192        6.1665
 193        6.1665
 194        6.1665
 195        6.2658
 196        6.2658
 197        6.7394
 198        6.7394
 199        6.9889
 200        7.9047
 201        7.9047
 202        8.3521
 203        8.3521
 204        8.3522
 205        8.3522
 206        8.3696
 207        8.3696
 208        8.3696
 209        8.3696
 210        8.7811
 211        8.7811
 212        9.6898
 213        9.6900
 214        9.6915
 215        9.6950
 216        9.6962
 
  0.1666667E+00  0.0000000E+00  0.0000000E+00  0.1157407E-02
   1       -4.5122
   2       -3.1050
   3       -2.5697
   4       -2.5696
   5       -2.5696
   6       -2.5696
   7       -2.4572
   8       -2.4572
   9       -2.4572
  10       -2.4572
  11       -2.2580
  12       -2.2267
  13       -2.2069
  14       -2.2069
  15       -2.0409
  16       -2.0304
  17       -2.0304
  18       -1.7839
  19       -1.7839
  20       -1.7839
  21       -1.7839
  22       -1.7584
  23       -1.7584
  24       -1.7584
  25       -1.7584
  26       -1.6153
  27       -1.5592
  28       -1.5592
  29       -1.4984
  30       -1.4984
  31       -1.4984
  32       -1.4984
  33       -1.4610
  34       -1.4610
  35       -1.4610
  36       -1.4610
  37       -1.4334
  38       -1.4334
  39       -1.4334
  40       -1.4334
  41       -1.3125
  42       -1.3125
  43       -1.2806
  44       -1.1187
  45       -1.1187
  46       -1.1187
  47       -1.1187
  48       -1.0182
  49       -1.0182
  50       -1.0182
  51       -1.0181
  52       -0.9946
  53       -0.9942
  54       -0.9942
  55       -0.9942
  56       -0.9873
  57       -0.9873
  58       -0.9873
  59       -0.9870
  60       -0.9643
  61       -0.9643
  62       -0.9643
  63       -0.9642
  64       -0.8703
  65       -0.8703
  66       -0.8703
  67       -0.8703
  68       -0.7854
  69       -0.7828
  70       -0.7827
  71       -0.7827
  72       -0.7826
  73       -0.7749
  74       -0.7749
  75       -0.7749
  76       -0.7747
  77       -0.7480
  78       -0.7480
  79       -0.7480
  80       -0.7480
  81       -0.7363
  82       -0.7363
  83       -0.6527
  84       -0.6527
  85       -0.6527
  86       -0.6527
  87       -0.6181
  88       -0.6181
  89       -0.3734
  90       -0.3734
  91       -0.3734
  92       -0.3734
  93       -0.2574
  94       -0.2528
  95       -0.2528
  96       -0.2528
  97       -0.2528
  98       -0.1918
  99       -0.1918
 100       -0.1199
 101       -0.1199
 102       -0.1199
 103       -0.1199
 104       -0.0608
 105       -0.0608
 106       -0.0608
 107       -0.0608
 108        0.0330
 109        0.0330
 110        0.0330
 111        0.0330
 112        0.0341
 113        0.1001
 114        0.1001
 115        0.1001
 116        0.1001
 117        0.1392
 118        0.1392
 119        0.1392
 120        0.1393
 121        0.1505
 122        0.1506
 123        0.1506
 124        0.1506
 125        0.1529
 126        0.1904
 127        0.2152
 128        0.2153
 129        0.2794
 130        0.2794
 131        0.3013
 132        0.3013
 133        0.3013
 134        0.3014
 135        0.3478
 136        0.3478
 137        0.3479
 138        0.3479
 139        0.4340
 140        0.5687
 141        0.5687
 142        0.5687
 143        0.5687
 144        0.6187
 145        0.8180
 146        0.8180
 147        0.8180
 148        0.8180
 149        0.8576
 150        0.8576
 151        0.8808
 152        0.8944
 153        0.8944
 154        0.8944
 155        0.8944
 156        0.9874
 157        0.9874
 158        1.0750
 159        1.0750
 160        1.0750
 161        1.0750
 162        1.0781
 163        1.0781
 164        1.1228
 165        1.1231
 166        1.1239
 167        1.1242
 168        1.8263
 169        1.8263
 170        1.8263
 171        1.8263
 172        2.3054
 173        2.3054
 174        2.3054
 175        2.3054
 176        2.7982
 177        2.7983
 178        2.7983
 179        2.7983
 180        2.8513
 181        2.8513
 182        2.8513
 183        2.8514
 184        3.8043
 185        4.6814
 186        4.6814
 187        5.0142
 188        5.0142
 189        5.0142
 190        5.0142
 191        5.9186
 192        5.9186
 193        5.9186
 194        5.9186
 195        6.2897
 196        6.2897
 197        6.7147
 198        6.7147
 199        7.4708
 200        7.4708
 201        7.5531
 202        8.3807
 203        8.3807
 204        8.3808
 205        8.3808
 206        8.4495
 207        8.4495
 208        8.4496
 209        8.4496
 210        9.1471
 211        9.1471
 212        9.1472
 213        9.1472
 214        9.2164
 215        9.2164
 216        9.4321
 
  0.2500000E+00  0.0000000E+00  0.0000000E+00  0.1157407E-02
   1       -4.4324
   2       -3.3557
   3       -2.5140
   4       -2.5139
   5       -2.5139
   6       -2.5139
   7       -2.4168
   8       -2.4168
   9       -2.4168
  10       -2.4168
  11       -2.2057
  12       -2.1631
  13       -2.1605
  14       -2.1604
  15       -2.0165
  16       -1.9927
  17       -1.9927
  18       -1.8885
  19       -1.8885
  20       -1.8885
  21       -1.8885
  22       -1.8758
  23       -1.8758
  24       -1.8758
  25       -1.8758
  26       -1.6923
  27       -1.6391
  28       -1.6391
  29       -1.4533
  30       -1.4533
  31       -1.4483
  32       -1.4482
  33       -1.4482
  34       -1.4482
  35       -1.4329
  36       -1.4329
  37       -1.4329
  38       -1.4329
  39       -1.4123
  40       -1.4122
  41       -1.4122
  42       -1.4122
  43       -1.1973
  44       -1.1647
  45       -1.1647
  46       -1.1647
  47       -1.1647
  48       -1.0482
  49       -1.0482
  50       -1.0482
  51       -1.0482
  52       -0.9849
  53       -0.9841
  54       -0.9841
  55       -0.9841
  56       -0.9813
  57       -0.9812
  58       -0.9812
  59       -0.9805
  60       -0.9404
  61       -0.9403
  62       -0.9402
  63       -0.9402
  64       -0.9273
  65       -0.9273
  66       -0.9273
  67       -0.9271
  68       -0.8162
  69       -0.7951
  70       -0.7951
  71       -0.7951
  72       -0.7951
  73       -0.7805
  74       -0.7805
  75       -0.7805
  76       -0.7804
  77       -0.7181
  78       -0.7181
  79       -0.7181
  80       -0.7180
  81       -0.7065
  82       -0.7065
  83       -0.4980
  84       -0.4980
  85       -0.4980
  86       -0.4980
  87       -0.4687
  88       -0.4687
  89       -0.4687
  90       -0.4687
  91       -0.4160
  92       -0.4160
  93       -0.3331
  94       -0.3331
  95       -0.3331
  96       -0.3331
  97       -0.2944
  98       -0.2944
  99       -0.2161
 100       -0.0643
 101       -0.0643
 102       -0.0643
 103       -0.0643
 104        0.0060
 105        0.0060
 106        0.0060
 107        0.0060
 108        0.0314
 109        0.0314
 110        0.0314
 111        0.0315
 112        0.0703
 113        0.0703
 114        0.0703
 115        0.0703
 116        0.1211
 117        0.1591
 118        0.1591
 119        0.1591
 120        0.1591
 121        0.1819
 122        0.1820
 123        0.1820
 124        0.1820
 125        0.2047
 126        0.2959
 127        0.2960
 128        0.3058
 129        0.3894
 130        0.3905
 131        0.3905
 132        0.3905
 133        0.3917
 134        0.4041
 135        0.4041
 136        0.4404
 137        0.4404
 138        0.4404
 139        0.4404
 140        0.6415
 141        0.6415
 142        0.6415
 143        0.6415
 144        0.6638
 145        0.6890
 146        0.6890
 147        0.6890
 148        0.6890
 149        0.8130
 150        0.8130
 151        0.8366
 152        0.8366
 153        0.8553
 154        0.8553
 155        0.8553
 156        0.8553
 157        0.8649
 158        1.0168
 159        1.0168
 160        1.0168
 161        1.0168
 162        1.0237
 163        1.0237
 164        1.1229
 165        1.1231
 166        1.1238
 167        1.1241
 168        1.6178
 169        1.6178
 170        1.6178
 171        1.6178
 172        2.3224
 173        2.3224
 174        2.3224
 175        2.3224
 176        2.6832
 177        2.6832
 178        2.6832
 179        2.6832
 180        3.1743
 181        3.1743
 182        3.1743
 183        3.1743
 184        3.2414
 185        4.8968
 186        4.8968
 187        5.3727
 188        5.3727
 189        5.3727
 190        5.3727
 191        5.5679
 192        5.5680
 193        5.5680
 194        5.5680
 195        6.3278
 196        6.3278
 197        6.6752
 198        6.6752
 199        7.0442
 200        7.0442
 201        8.2615
 202        8.4289
 203        8.4289
 204        8.4289
 205        8.4290
 206        8.5483
 207        8.5483
 208        8.5484
 209        8.5484
 210        8.5802
 211        8.5802
 212        8.5803
 213        8.5803
 214        9.2059
 215        9.2059
 216        9.2059
 
  0.3333333E+00  0.0000000E+00  0.0000000E+00  0.1157407E-02
   1       -4.3216
   2       -3.5946
   3       -2.4383
   4       -2.4382
   5       -2.4382
   6       -2.4382
   7       -2.3607
   8       -2.3606
   9       -2.3606
  10       -2.3606
  11       -2.1792
  12       -2.1189
  13       -2.0975
  14       -2.0975
  15       -2.0035
  16       -2.0035
  17       -2.0034
  18       -2.0034
  19       -1.9938
  20       -1.9937
  21       -1.9937
  22       -1.9937
  23       -1.9828
  24       -1.9399
  25       -1.9399
  26       -1.7642
  27       -1.7336
  28       -1.7336
  29       -1.5798
  30       -1.5798
  31       -1.4036
  32       -1.4034
  33       -1.4034
  34       -1.4034
  35       -1.3985
  36       -1.3985
  37       -1.3985
  38       -1.3983
  39       -1.3835
  40       -1.3835
  41       -1.3835
  42       -1.3834
  43       -1.2129
  44       -1.2129
  45       -1.2129
  46       -1.2129
  47       -1.1170
  48       -1.0813
  49       -1.0813
  50       -1.0813
  51       -1.0813
  52       -1.0110
  53       -1.0110
  54       -1.0110
  55       -1.0110
  56       -0.9807
  57       -0.9802
  58       -0.9802
  59       -0.9802
  60       -0.9744
  61       -0.9744
  62       -0.9744
  63       -0.9739
  64       -0.8995
  65       -0.8995
  66       -0.8995
  67       -0.8995
  68       -0.8583
  69       -0.8114
  70       -0.8114
  71       -0.8114
  72       -0.8114
  73       -0.7723
  74       -0.7723
  75       -0.7723
  76       -0.7723
  77       -0.6767
  78       -0.6767
  79       -0.6767
  80       -0.6767
  81       -0.6650
  82       -0.6650
  83       -0.5581
  84       -0.5581
  85       -0.5581
  86       -0.5581
  87       -0.4146
  88       -0.4146
  89       -0.4146
  90       -0.4146
  91       -0.3885
  92       -0.3885
  93       -0.3075
  94       -0.3075
  95       -0.3075
  96       -0.3075
  97       -0.2055
  98       -0.2055
  99       -0.1598
 100       -0.0006
 101       -0.0006
 102       -0.0006
 103       -0.0006
 104        0.0302
 105        0.0302
 106        0.0302
 107        0.0302
 108        0.0505
 109        0.0505
 110        0.0505
 111        0.0505
 112        0.0666
 113        0.0666
 114        0.0666
 115        0.0667
 116        0.0782
 117        0.1641
 118        0.1641
 119        0.1642
 120        0.1642
 121        0.1871
 122        0.1871
 123        0.1871
 124        0.1871
 125        0.2243
 126        0.3498
 127        0.3912
 128        0.3912
 129        0.4836
 130        0.4836
 131        0.4836
 132        0.4836
 133        0.5210
 134        0.5210
 135        0.5210
 136        0.5210
 137        0.5274
 138        0.5274
 139        0.5409
 140        0.5409
 141        0.5409
 142        0.5409
 143        0.6514
 144        0.6514
 145        0.6630
 146        0.7068
 147        0.7518
 148        0.7519
 149        0.7554
 150        0.7554
 151        0.7554
 152        0.7555
 153        0.8021
 154        0.8022
 155        0.8022
 156        0.8022
 157        0.8431
 158        0.9403
 159        0.9403
 160        0.9403
 161        0.9403
 162        0.9505
 163        0.9505
 164        1.1229
 165        1.1232
 166        1.1237
 167        1.1241
 168        1.4215
 169        1.4215
 170        1.4215
 171        1.4215
 172        2.3476
 173        2.3477
 174        2.3477
 175        2.3477
 176        2.5796
 177        2.5796
 178        2.5796
 179        2.5796
 180        2.6656
 181        3.5280
 182        3.5280
 183        3.5280
 184        3.5280
 185        5.1635
 186        5.1635
 187        5.1636
 188        5.1636
 189        5.1720
 190        5.1720
 191        5.8041
 192        5.8041
 193        5.8041
 194        5.8042
 195        6.3779
 196        6.3779
 197        6.6238
 198        6.6238
 199        6.6286
 200        6.6286
 201        7.9501
 202        7.9501
 203        7.9501
 204        7.9501
 205        8.4977
 206        8.4977
 207        8.4977
 208        8.4977
 209        8.7581
 210        8.7581
 211        8.7581
 212        8.7581
 213        9.0099
 214        9.0099
 215        9.0100
 216        9.0117
 
  0.4166667E+00  0.0000000E+00  0.0000000E+00  0.1157407E-02
   1       -4.1806
   2       -3.8145
   3       -2.3452
   4       -2.3451
   5       -2.3451
   6       -2.3451
   7       -2.2893
   8       -2.2892
   9       -2.2892
  10       -2.2892
  11       -2.1507
  12       -2.1223
  13       -2.1223
  14       -2.1223
  15       -2.1223
  16       -2.1111
  17       -2.1042
  18       -2.1042
  19       -2.1042
  20       -2.1041
  21       -2.0199
  22       -2.0198
  23       -1.9401
  24       -1.8721
  25       -1.8721
  26       -1.8332
  27       -1.8332
  28       -1.8301
  29       -1.6920
  30       -1.6920
  31       -1.3688
  32       -1.3681
  33       -1.3681
  34       -1.3681
  35       -1.3666
  36       -1.3666
  37       -1.3666
  38       -1.3660
  39       -1.3478
  40       -1.3478
  41       -1.3478
  42       -1.3478
  43       -1.2608
  44       -1.2608
  45       -1.2608
  46       -1.2608
  47       -1.1065
  48       -1.1065
  49       -1.1065
  50       -1.1065
  51       -1.0713
  52       -1.0713
  53       -1.0713
  54       -1.0713
  55       -1.0416
  56       -0.9769
  57       -0.9763
  58       -0.9763
  59       -0.9763
  60       -0.9722
  61       -0.9722
  62       -0.9722
  63       -0.9716
  64       -0.9108
  65       -0.8752
  66       -0.8752
  67       -0.8752
  68       -0.8752
  69       -0.8308
  70       -0.8308
  71       -0.8308
  72       -0.8308
  73       -0.7453
  74       -0.7453
  75       -0.7453
  76       -0.7453
  77       -0.6362
  78       -0.6362
  79       -0.6362
  80       -0.6361
  81       -0.6246
  82       -0.6245
  83       -0.6245
  84       -0.6245
  85       -0.6120
  86       -0.6120
  87       -0.4920
  88       -0.4920
  89       -0.4920
  90       -0.4920
  91       -0.4733
  92       -0.4733
  93       -0.0993
  94       -0.0991
  95       -0.0991
  96       -0.0991
  97       -0.0968
  98        0.0109
  99        0.0109
 100        0.0258
 101        0.0301
 102        0.0301
 103        0.0301
 104        0.0301
 105        0.0385
 106        0.0385
 107        0.0386
 108        0.0386
 109        0.0624
 110        0.0624
 111        0.0624
 112        0.0624
 113        0.1139
 114        0.1139
 115        0.1139
 116        0.1139
 117        0.1605
 118        0.1607
 119        0.1609
 120        0.1609
 121        0.1626
 122        0.1626
 123        0.1628
 124        0.1630
 125        0.2490
 126        0.3122
 127        0.3257
 128        0.3257
 129        0.3257
 130        0.3257
 131        0.4456
 132        0.4456
 133        0.4910
 134        0.4910
 135        0.5746
 136        0.5746
 137        0.5746
 138        0.5746
 139        0.6454
 140        0.6454
 141        0.6454
 142        0.6454
 143        0.6467
 144        0.6467
 145        0.6760
 146        0.6760
 147        0.7363
 148        0.7363
 149        0.7363
 150        0.7363
 151        0.7470
 152        0.8158
 153        0.8498
 154        0.8498
 155        0.8498
 156        0.8498
 157        0.8613
 158        0.8613
 159        0.8988
 160        0.8988
 161        0.8988
 162        0.8988
 163        1.0917
 164        1.1229
 165        1.1233
 166        1.1236
 167        1.1240
 168        1.2359
 169        1.2359
 170        1.2359
 171        1.2359
 172        2.1055
 173        2.3831
 174        2.3831
 175        2.3831
 176        2.3831
 177        2.4958
 178        2.4958
 179        2.4958
 180        2.4958
 181        3.9106
 182        3.9106
 183        3.9106
 184        3.9106
 185        4.7395
 186        4.7395
 187        4.7395
 188        4.7395
 189        5.4924
 190        5.4924
 191        6.2279
 192        6.2279
 193        6.2880
 194        6.2880
 195        6.2880
 196        6.2880
 197        6.4367
 198        6.4367
 199        6.5641
 200        6.5641
 201        7.3685
 202        7.3685
 203        7.3685
 204        7.3685
 205        8.5885
 206        8.5885
 207        8.5885
 208        8.5885
 209        8.8429
 210        8.8429
 211        8.8429
 212        8.8429
 213        8.9788
 214        8.9788
 215        8.9788
 216        8.9788
 
  0.5000000E+00  0.0000000E+00  0.0000000E+00  0.5787037E-03
   1       -4.0122
   2       -4.0095
   3       -2.2411
   4       -2.2390
   5       -2.2387
   6       -2.2387
   7       -2.2377
   8       -2.2377
   9       -2.2375
  10       -2.2355
  11       -2.2046
  12       -2.2046
  13       -2.2042
  14       -2.2040
  15       -2.2027
  16       -2.2024
  17       -2.2021
  18       -2.2021
  19       -2.1260
  20       -2.1248
  21       -1.9317
  22       -1.9311
  23       -1.9298
  24       -1.9291
  25       -1.8898
  26       -1.8881
  27       -1.7904
  28       -1.7904
  29       -1.7885
  30       -1.7885
  31       -1.3544
  32       -1.3532
  33       -1.3531
  34       -1.3531
  35       -1.3530
  36       -1.3530
  37       -1.3530
  38       -1.3518
  39       -1.3076
  40       -1.3075
  41       -1.3075
  42       -1.3066
  43       -1.3062
  44       -1.3054
  45       -1.3054
  46       -1.3052
  47       -1.1072
  48       -1.1071
  49       -1.1071
  50       -1.1068
  51       -1.1064
  52       -1.1060
  53       -1.1060
  54       -1.1059
  55       -0.9755
  56       -0.9737
  57       -0.9737
  58       -0.9735
  59       -0.9731
  60       -0.9728
  61       -0.9728
  62       -0.9728
  63       -0.9723
  64       -0.9706
  65       -0.8527
  66       -0.8525
  67       -0.8525
  68       -0.8525
  69       -0.8521
  70       -0.8521
  71       -0.8520
  72       -0.8519
  73       -0.7002
  74       -0.7002
  75       -0.7001
  76       -0.6995
  77       -0.6992
  78       -0.6987
  79       -0.6985
  80       -0.6985
  81       -0.5642
  82       -0.5638
  83       -0.5638
  84       -0.5628
  85       -0.5624
  86       -0.5615
  87       -0.5615
  88       -0.5610
  89       -0.5488
  90       -0.5488
  91       -0.5470
  92       -0.5470
  93       -0.0341
  94       -0.0331
  95        0.0319
  96        0.0319
  97        0.0321
  98        0.0323
  99        0.0324
 100        0.0326
 101        0.0328
 102        0.0328
 103        0.1146
 104        0.1147
 105        0.1151
 106        0.1151
 107        0.1153
 108        0.1156
 109        0.1156
 110        0.1161
 111        0.1181
 112        0.1183
 113        0.1183
 114        0.1184
 115        0.1189
 116        0.1191
 117        0.1191
 118        0.1200
 119        0.1443
 120        0.1445
 121        0.1450
 122        0.1450
 123        0.1452
 124        0.1452
 125        0.1457
 126        0.1460
 127        0.2291
 128        0.2291
 129        0.2303
 130        0.2303
 131        0.2777
 132        0.2792
 133        0.5875
 134        0.5876
 135        0.5878
 136        0.5879
 137        0.6588
 138        0.6592
 139        0.6592
 140        0.6594
 141        0.6601
 142        0.6602
 143        0.6602
 144        0.6607
 145        0.7488
 146        0.7488
 147        0.7497
 148        0.7497
 149        0.7501
 150        0.7502
 151        0.7510
 152        0.7510
 153        0.7587
 154        0.7587
 155        0.7593
 156        0.7593
 157        0.7834
 158        0.7836
 159        1.0601
 160        1.0605
 161        1.0605
 162        1.0606
 163        1.0611
 164        1.0613
 165        1.0613
 166        1.0617
 167        1.1229
 168        1.1235
 169        1.1235
 170        1.1240
 171        1.5767
 172        1.5769
 173        2.4295
 174        2.4305
 175        2.4309
 176        2.4309
 177        2.4319
 178        2.4319
 179        2.4323
 180        2.4333
 181        4.3158
 182        4.3158
 183        4.3163
 184        4.3171
 185        4.3175
 186        4.3183
 187        4.3188
 188        4.3188
 189        5.8460
 190        5.8460
 191        5.8483
 192        5.8483
 193        6.5000
 194        6.5002
 195        6.5002
 196        6.5004
 197        6.8100
 198        6.8100
 199        6.8117
 200        6.8121
 201        6.8122
 202        6.8126
 203        6.8143
 204        6.8143
 205        8.7007
 206        8.7028
 207        8.7028
 208        8.7029
 209        8.7030
 210        8.7031
 211        8.7031
 212        8.7053
 213        9.2365
 214        9.2373
 215        9.2377
 216        9.2384
 
  0.0000000E+00  0.8333333E-01  0.0000000E+00  0.2314815E-02
   1       -4.5604
   2       -2.8530
   3       -2.6058
   4       -2.6037
   5       -2.6037
   6       -2.6017
   7       -2.4816
   8       -2.4816
   9       -2.4816
  10       -2.4815
  11       -2.4109
  12       -2.2401
  13       -2.2352
  14       -2.2352
  15       -2.0557
  16       -2.0531
  17       -2.0531
  18       -1.6953
  19       -1.6937
  20       -1.6937
  21       -1.6921
  22       -1.6609
  23       -1.6602
  24       -1.6599
  25       -1.6592
  26       -1.5555
  27       -1.5542
  28       -1.5542
  29       -1.5529
  30       -1.5343