 vasp.4.6.28 25Jul05 complex 
 executed on             LinuxIFC date 2017.01.14  12:19:40
 running on    8 nodes
 distr:  one band on    1 nodes,    8 groups


--------------------------------------------------------------------------------------------------------


 INCAR:
 POTCAR:   PAW_PBE Au 06Sep2000                   
 POTCAR:   PAW_PBE Au 06Sep2000                   
   VRHFIN =Au: s1d10                                                            
   LEXCH  = PE                                                                  
   EATOM  =   926.0567 eV,   68.0632 Ry                                         
                                                                                
   TITEL  = PAW_PBE Au 06Sep2000                                                
   LULTRA =        F    use ultrasoft PP ?                                      
   IUNSCR =        1    unscreen: 0-lin 1-nonlin 2-no                           
   RPACOR =    2.330    partial core radius                                     
   POMASS =  196.966; ZVAL   =   11.000    mass and valenz                      
   RCORE  =    2.500    outmost cutoff radius                                   
   RWIGS  =    2.840; RWIGS  =    1.503    wigner-seitz radius (au A)           
   ENMAX  =  229.948; ENMIN  =  172.461 eV                                      
   RCLOC  =    1.964    cutoff for local pot                                    
   LCOR   =        T    correct aug charges                                     
   LPAW   =        T    paw PP                                                  
   EAUG   =  356.670                                                            
   DEXC   =    -.025                                                            
   RMAX   =    3.041    core radius for proj-oper                               
   RAUG   =    1.300    factor for augmentation sphere                          
   RDEP   =    2.598    radius for radial grids                                 
   QCUT   =   -4.111; QGAM   =    8.222    optimization parameters              
                                                                                
   Description                                                                  
     l     E      TYP  RCUT    TYP  RCUT                                        
     2   .000     23  2.500                                                     
     2   .000     23  2.500                                                     
     0   .000     23  2.500                                                     
     0   .000     23  2.500                                                     
     1  -.200     23  2.500                                                     
     1   .000     23  2.500                                                     
     3   .000      7   .000                                                     
  local pseudopotential read in
  partial core-charges read in
  atomic valenz-charges read in
  non local Contribution for L=           2  read in
    real space projection operators read in
  non local Contribution for L=           2  read in
    real space projection operators read in
  non local Contribution for L=           0  read in
    real space projection operators read in
  non local Contribution for L=           0  read in
    real space projection operators read in
  non local Contribution for L=           1  read in
    real space projection operators read in
  non local Contribution for L=           1  read in
    real space projection operators read in
    PAW grid and wavefunctions read in
 
   number of l-projection  operators is LMAX  =           6
   number of lm-projection operators is LMMAX =          18
 

 ----------------------------------------------------------------------------- 
|                                                                             |
|  ADVICE TO THIS USER RUNNING 'VASP/VAMP'   (HEAR YOUR MASTER'S VOICE ...):  |
|                                                                             |
|      You have a (more or less) 'large supercell' and for larger cells       |
|      it might be more efficient to use real space projection operators      |
|      So try LREAL= Auto  in the INCAR   file.                               |
|      Mind: If you want to do an extremely accurate calculations keep the    |
|      reciprocal projection scheme          (i.e. LREAL=.FALSE.)             |
|                                                                             |
 ----------------------------------------------------------------------------- 

 PAW_PBE Au 06Sep2000                   :
 energy of atom  1       EATOM= -926.0567
 kinetic energy error for atom=    0.0008 (will be added to EATOM!!)
 
 EXHCAR: internal setup
 exchange correlation table for  LEXCH =        8
   RHO(1)=    0.500       N(1)  =     2000
   RHO(2)=  100.500       N(2)  =     4000
 
 POSCAR: Au                                      
  positions in direct lattice
  No initial velocities read in
 


--------------------------------------------------------------------------------------------------------


 ion  position               nearest neighbor table
   1  0.001  0.000  0.000-   9 3.15  11 3.15  17 3.15  21 3.15  25 3.16  27 3.16  29 3.16  31 3.16
                            10 3.16  18 3.16  12 3.16  22 3.16
   2  0.500  0.000  0.000-   9 3.16  10 3.16  11 3.16  12 3.16  17 3.16  18 3.16  21 3.16  22 3.16
                            26 3.16  28 3.16  30 3.16  32 3.16
   3  0.000  0.500  0.000-   9 3.16  10 3.16  11 3.16  12 3.16  19 3.16  20 3.16  23 3.16  24 3.16
                            25 3.16  27 3.16  29 3.16  31 3.16
   4  0.500  0.500  0.000-   9 3.16  10 3.16  11 3.16  12 3.16  19 3.16  20 3.16  23 3.16  24 3.16
                            26 3.16  28 3.16  30 3.16  32 3.16
   5  0.000  0.000  0.500-  13 3.16  14 3.16  15 3.16  16 3.16  17 3.16  18 3.16  21 3.16  22 3.16
                            25 3.16  27 3.16  29 3.16  31 3.16
   6  0.500  0.000  0.500-  13 3.16  14 3.16  15 3.16  16 3.16  17 3.16  18 3.16  21 3.16  22 3.16
                            26 3.16  28 3.16  30 3.16  32 3.16
   7  0.000  0.500  0.500-  13 3.16  14 3.16  15 3.16  16 3.16  19 3.16  20 3.16  23 3.16  24 3.16
                            25 3.16  27 3.16  29 3.16  31 3.16
   8  0.500  0.500  0.500-  13 3.16  14 3.16  15 3.16  16 3.16  19 3.16  20 3.16  23 3.16  24 3.16
                            26 3.16  28 3.16  30 3.16  32 3.16
   9  0.250  0.250  0.000-   1 3.15   2 3.16   3 3.16   4 3.16  17 3.16  19 3.16  21 3.16  23 3.16
                            25 3.16  26 3.16  29 3.16  30 3.16
  10  0.750  0.250  0.000-   2 3.16   3 3.16   4 3.16  18 3.16  20 3.16  22 3.16  24 3.16  25 3.16
                            26 3.16  29 3.16  30 3.16   1 3.16
  11  0.250  0.750  0.000-   1 3.15   2 3.16   3 3.16   4 3.16  17 3.16  19 3.16  21 3.16  23 3.16
                            27 3.16  28 3.16  31 3.16  32 3.16
  12  0.750  0.750  0.000-   2 3.16   3 3.16   4 3.16  18 3.16  20 3.16  22 3.16  24 3.16  27 3.16
                            28 3.16  31 3.16  32 3.16   1 3.16
  13  0.250  0.250  0.500-   5 3.16   6 3.16   7 3.16   8 3.16  17 3.16  19 3.16  21 3.16  23 3.16
                            25 3.16  26 3.16  29 3.16  30 3.16
  14  0.750  0.250  0.500-   5 3.16   6 3.16   7 3.16   8 3.16  18 3.16  20 3.16  22 3.16  24 3.16
                            25 3.16  26 3.16  29 3.16  30 3.16
  15  0.250  0.750  0.500-   5 3.16   6 3.16   7 3.16   8 3.16  17 3.16  19 3.16  21 3.16  23 3.16
                            27 3.16  28 3.16  31 3.16  32 3.16
  16  0.750  0.750  0.500-   5 3.16   6 3.16   7 3.16   8 3.16  18 3.16  20 3.16  22 3.16  24 3.16
                            27 3.16  28 3.16  31 3.16  32 3.16
  17  0.250  0.000  0.250-   1 3.15   2 3.16   5 3.16   6 3.16   9 3.16  11 3.16  13 3.16  15 3.16
                            25 3.16  26 3.16  27 3.16  28 3.16
  18  0.750  0.000  0.250-   2 3.16   5 3.16   6 3.16  10 3.16  12 3.16  14 3.16  16 3.16  25 3.16
                            26 3.16  27 3.16  28 3.16   1 3.16
  19  0.250  0.500  0.250-   3 3.16   4 3.16   7 3.16   8 3.16   9 3.16  11 3.16  13 3.16  15 3.16
                            25 3.16  26 3.16  27 3.16  28 3.16
  20  0.750  0.500  0.250-   3 3.16   4 3.16   7 3.16   8 3.16  10 3.16  12 3.16  14 3.16  16 3.16
                            25 3.16  26 3.16  27 3.16  28 3.16
  21  0.250  0.000  0.750-   1 3.15   2 3.16   5 3.16   6 3.16   9 3.16  11 3.16  13 3.16  15 3.16
                            29 3.16  30 3.16  31 3.16  32 3.16
  22  0.750  0.000  0.750-   2 3.16   5 3.16   6 3.16  10 3.16  12 3.16  14 3.16  16 3.16  29 3.16
                            30 3.16  31 3.16  32 3.16   1 3.16
  23  0.250  0.500  0.750-   3 3.16   4 3.16   7 3.16   8 3.16   9 3.16  11 3.16  13 3.16  15 3.16
                            29 3.16  30 3.16  31 3.16  32 3.16
  24  0.750  0.500  0.750-   3 3.16   4 3.16   7 3.16   8 3.16  10 3.16  12 3.16  14 3.16  16 3.16
                            29 3.16  30 3.16  31 3.16  32 3.16
  25  0.000  0.250  0.250-   3 3.16   5 3.16   7 3.16   9 3.16  10 3.16  13 3.16  14 3.16  17 3.16
                            18 3.16  19 3.16  20 3.16   1 3.16
  26  0.500  0.250  0.250-   2 3.16   4 3.16   6 3.16   8 3.16   9 3.16  10 3.16  13 3.16  14 3.16
                            17 3.16  18 3.16  19 3.16  20 3.16
  27  0.000  0.750  0.250-   3 3.16   5 3.16   7 3.16  11 3.16  12 3.16  15 3.16  16 3.16  17 3.16
                            18 3.16  19 3.16  20 3.16   1 3.16
  28  0.500  0.750  0.250-   2 3.16   4 3.16   6 3.16   8 3.16  11 3.16  12 3.16  15 3.16  16 3.16
                            17 3.16  18 3.16  19 3.16  20 3.16
  29  0.000  0.250  0.750-   3 3.16   5 3.16   7 3.16   9 3.16  10 3.16  13 3.16  14 3.16  21 3.16
                            22 3.16  23 3.16  24 3.16   1 3.16
  30  0.500  0.250  0.750-   2 3.16   4 3.16   6 3.16   8 3.16   9 3.16  10 3.16  13 3.16  14 3.16
                            21 3.16  22 3.16  23 3.16  24 3.16
  31  0.000  0.750  0.750-   3 3.16   5 3.16   7 3.16  11 3.16  12 3.16  15 3.16  16 3.16  21 3.16
                            22 3.16  23 3.16  24 3.16   1 3.16
  32  0.500  0.750  0.750-   2 3.16   4 3.16   6 3.16   8 3.16  11 3.16  12 3.16  15 3.16  16 3.16
                            21 3.16  22 3.16  23 3.16  24 3.16
 
  LATTYP: Found a simple cubic cell.
 ALAT       =     8.9299030710
  
  Lattice vectors:
  
 A1 = (   8.9299030710,   0.0000000000,   0.0000000000)
 A2 = (   0.0000000000,   8.9299030710,   0.0000000000)
 A3 = (   0.0000000000,   0.0000000000,   8.9299030710)
 Subroutine PRICEL returns:
 Original cell was already a primitive cell.
 

Analysis of symmetry for initial positions (statically):

 Routine SETGRP: Setting up the symmetry group for a 
 simple cubic supercell.


 Subroutine GETGRP returns: Found  8 space group operations
 (whereof  8 operations were pure point group operations)
 out of a pool of 48 trial point group operations.


The static configuration has the point symmetry C_4v.

Analysis of symmetry for dynamics (positions and initial velocities):

 Subroutine DYNSYM returns: Found  8 space group operations
 (whereof  8 operations were pure point group operations)
 out of a pool of  8 trial space group operations
 (whereof  8 operations were pure point group operations)
 and found also     1 'primitive' translations


The dynamic configuration has the point symmetry C_4v.
 
 
 KPOINTS: Automatic mesh                          

Automatic generation of k-mesh.
 
 Subroutine IBZKPT returns following result:
 ===========================================
 
 Found    196 irreducible k-points:
 
 Following reciprocal coordinates:
            Coordinates               Weight
  0.000000  0.000000  0.000000      1.000000
  0.083333  0.000000  0.000000      2.000000
  0.166667  0.000000  0.000000      2.000000
  0.250000  0.000000  0.000000      2.000000
  0.333333  0.000000  0.000000      2.000000
  0.416667  0.000000  0.000000      2.000000
  0.500000  0.000000  0.000000      1.000000
  0.000000  0.083333  0.000000      4.000000
  0.083333  0.083333  0.000000      8.000000
  0.166667  0.083333  0.000000      8.000000
  0.250000  0.083333  0.000000      8.000000
  0.333333  0.083333  0.000000      8.000000
  0.416667  0.083333  0.000000      8.000000
  0.500000  0.083333  0.000000      4.000000
  0.000000  0.166667  0.000000      4.000000
  0.083333  0.166667  0.000000      8.000000
  0.166667  0.166667  0.000000      8.000000
  0.250000  0.166667  0.000000      8.000000
  0.333333  0.166667  0.000000      8.000000
  0.416667  0.166667  0.000000      8.000000
  0.500000  0.166667  0.000000      4.000000
  0.000000  0.250000  0.000000      4.000000
  0.083333  0.250000  0.000000      8.000000
  0.166667  0.250000  0.000000      8.000000
  0.250000  0.250000  0.000000      8.000000
  0.333333  0.250000  0.000000      8.000000
  0.416667  0.250000  0.000000      8.000000
  0.500000  0.250000  0.000000      4.000000
  0.000000  0.333333  0.000000      4.000000
  0.083333  0.333333  0.000000      8.000000
  0.166667  0.333333  0.000000      8.000000
  0.250000  0.333333  0.000000      8.000000
  0.333333  0.333333  0.000000      8.000000
  0.416667  0.333333  0.000000      8.000000
  0.500000  0.333333  0.000000      4.000000
  0.000000  0.416667  0.000000      4.000000
  0.083333  0.416667  0.000000      8.000000
  0.166667  0.416667  0.000000      8.000000
  0.250000  0.416667  0.000000      8.000000
  0.333333  0.416667  0.000000      8.000000
  0.416667  0.416667  0.000000      8.000000
  0.500000  0.416667  0.000000      4.000000
  0.000000  0.500000  0.000000      2.000000
  0.083333  0.500000  0.000000      4.000000
  0.166667  0.500000  0.000000      4.000000
  0.250000  0.500000  0.000000      4.000000
  0.333333  0.500000  0.000000      4.000000
  0.416667  0.500000  0.000000      4.000000
  0.500000  0.500000  0.000000      2.000000
  0.000000  0.083333  0.083333      4.000000
  0.083333  0.083333  0.083333      8.000000
  0.166667  0.083333  0.083333      8.000000
  0.250000  0.083333  0.083333      8.000000
  0.333333  0.083333  0.083333      8.000000
  0.416667  0.083333  0.083333      8.000000
  0.500000  0.083333  0.083333      4.000000
  0.000000  0.166667  0.083333      8.000000
  0.083333  0.166667  0.083333     16.000000
  0.166667  0.166667  0.083333     16.000000
  0.250000  0.166667  0.083333     16.000000
  0.333333  0.166667  0.083333     16.000000
  0.416667  0.166667  0.083333     16.000000
  0.500000  0.166667  0.083333      8.000000
  0.000000  0.250000  0.083333      8.000000
  0.083333  0.250000  0.083333     16.000000
  0.166667  0.250000  0.083333     16.000000
  0.250000  0.250000  0.083333     16.000000
  0.333333  0.250000  0.083333     16.000000
  0.416667  0.250000  0.083333     16.000000
  0.500000  0.250000  0.083333      8.000000
  0.000000  0.333333  0.083333      8.000000
  0.083333  0.333333  0.083333     16.000000
  0.166667  0.333333  0.083333     16.000000
  0.250000  0.333333  0.083333     16.000000
  0.333333  0.333333  0.083333     16.000000
  0.416667  0.333333  0.083333     16.000000
  0.500000  0.333333  0.083333      8.000000
  0.000000  0.416667  0.083333      8.000000
  0.083333  0.416667  0.083333     16.000000
  0.166667  0.416667  0.083333     16.000000
  0.250000  0.416667  0.083333     16.000000
  0.333333  0.416667  0.083333     16.000000
  0.416667  0.416667  0.083333     16.000000
  0.500000  0.416667  0.083333      8.000000
  0.000000  0.500000  0.083333      4.000000
  0.083333  0.500000  0.083333      8.000000
  0.166667  0.500000  0.083333      8.000000
  0.250000  0.500000  0.083333      8.000000
  0.333333  0.500000  0.083333      8.000000
  0.416667  0.500000  0.083333      8.000000
  0.500000  0.500000  0.083333      4.000000
  0.000000  0.166667  0.166667      4.000000
  0.083333  0.166667  0.166667      8.000000
  0.166667  0.166667  0.166667      8.000000
  0.250000  0.166667  0.166667      8.000000
  0.333333  0.166667  0.166667      8.000000
  0.416667  0.166667  0.166667      8.000000
  0.500000  0.166667  0.166667      4.000000
  0.000000  0.250000  0.166667      8.000000
  0.083333  0.250000  0.166667     16.000000
  0.166667  0.250000  0.166667     16.000000
  0.250000  0.250000  0.166667     16.000000
  0.333333  0.250000  0.166667     16.000000
  0.416667  0.250000  0.166667     16.000000
  0.500000  0.250000  0.166667      8.000000
  0.000000  0.333333  0.166667      8.000000
  0.083333  0.333333  0.166667     16.000000
  0.166667  0.333333  0.166667     16.000000
  0.250000  0.333333  0.166667     16.000000
  0.333333  0.333333  0.166667     16.000000
  0.416667  0.333333  0.166667     16.000000
  0.500000  0.333333  0.166667      8.000000
  0.000000  0.416667  0.166667      8.000000
  0.083333  0.416667  0.166667     16.000000
  0.166667  0.416667  0.166667     16.000000
  0.250000  0.416667  0.166667     16.000000
  0.333333  0.416667  0.166667     16.000000
  0.416667  0.416667  0.166667     16.000000
  0.500000  0.416667  0.166667      8.000000
  0.000000  0.500000  0.166667      4.000000
  0.083333  0.500000  0.166667      8.000000
  0.166667  0.500000  0.166667      8.000000
  0.250000  0.500000  0.166667      8.000000
  0.333333  0.500000  0.166667      8.000000
  0.416667  0.500000  0.166667      8.000000
  0.500000  0.500000  0.166667      4.000000
  0.000000  0.250000  0.250000      4.000000
  0.083333  0.250000  0.250000      8.000000
  0.166667  0.250000  0.250000      8.000000
  0.250000  0.250000  0.250000      8.000000
  0.333333  0.250000  0.250000      8.000000
  0.416667  0.250000  0.250000      8.000000
  0.500000  0.250000  0.250000      4.000000
  0.000000  0.333333  0.250000      8.000000
  0.083333  0.333333  0.250000     16.000000
  0.166667  0.333333  0.250000     16.000000
  0.250000  0.333333  0.250000     16.000000
  0.333333  0.333333  0.250000     16.000000
  0.416667  0.333333  0.250000     16.000000
  0.500000  0.333333  0.250000      8.000000
  0.000000  0.416667  0.250000      8.000000
  0.083333  0.416667  0.250000     16.000000
  0.166667  0.416667  0.250000     16.000000
  0.250000  0.416667  0.250000     16.000000
  0.333333  0.416667  0.250000     16.000000
  0.416667  0.416667  0.250000     16.000000
  0.500000  0.416667  0.250000      8.000000
  0.000000  0.500000  0.250000      4.000000
  0.083333  0.500000  0.250000      8.000000
  0.166667  0.500000  0.250000      8.000000
  0.250000  0.500000  0.250000      8.000000
  0.333333  0.500000  0.250000      8.000000
  0.416667  0.500000  0.250000      8.000000
  0.500000  0.500000  0.250000      4.000000
  0.000000  0.333333  0.333333      4.000000
  0.083333  0.333333  0.333333      8.000000
  0.166667  0.333333  0.333333      8.000000
  0.250000  0.333333  0.333333      8.000000
  0.333333  0.333333  0.333333      8.000000
  0.416667  0.333333  0.333333      8.000000
  0.500000  0.333333  0.333333      4.000000
  0.000000  0.416667  0.333333      8.000000
  0.083333  0.416667  0.333333     16.000000
  0.166667  0.416667  0.333333     16.000000
  0.250000  0.416667  0.333333     16.000000
  0.333333  0.416667  0.333333     16.000000
  0.416667  0.416667  0.333333     16.000000
  0.500000  0.416667  0.333333      8.000000
  0.000000  0.500000  0.333333      4.000000
  0.083333  0.500000  0.333333      8.000000
  0.166667  0.500000  0.333333      8.000000
  0.250000  0.500000  0.333333      8.000000
  0.333333  0.500000  0.333333      8.000000
  0.416667  0.500000  0.333333      8.000000
  0.500000  0.500000  0.333333      4.000000
  0.000000  0.416667  0.416667      4.000000
  0.083333  0.416667  0.416667      8.000000
  0.166667  0.416667  0.416667      8.000000
  0.250000  0.416667  0.416667      8.000000
  0.333333  0.416667  0.416667      8.000000
  0.416667  0.416667  0.416667      8.000000
  0.500000  0.416667  0.416667      4.000000
  0.000000  0.500000  0.416667      4.000000
  0.083333  0.500000  0.416667      8.000000
  0.166667  0.500000  0.416667      8.000000
  0.250000  0.500000  0.416667      8.000000
  0.333333  0.500000  0.416667      8.000000
  0.416667  0.500000  0.416667      8.000000
  0.500000  0.500000  0.416667      4.000000
  0.000000  0.500000  0.500000      1.000000
  0.083333  0.500000  0.500000      2.000000
  0.166667  0.500000  0.500000      2.000000
  0.250000  0.500000  0.500000      2.000000
  0.333333  0.500000  0.500000      2.000000
  0.416667  0.500000  0.500000      2.000000
  0.500000  0.500000  0.500000      1.000000
 
 Following cartesian coordinates:
            Coordinates               Weight
  0.000000  0.000000  0.000000      1.000000
  0.009332  0.000000  0.000000      2.000000
  0.018664  0.000000  0.000000      2.000000
  0.027996  0.000000  0.000000      2.000000
  0.037328  0.000000  0.000000      2.000000
  0.046660  0.000000  0.000000      2.000000
  0.055992  0.000000  0.000000      1.000000
  0.000000  0.009332  0.000000      4.000000
  0.009332  0.009332  0.000000      8.000000
  0.018664  0.009332  0.000000      8.000000
  0.027996  0.009332  0.000000      8.000000
  0.037328  0.009332  0.000000      8.000000
  0.046660  0.009332  0.000000      8.000000
  0.055992  0.009332  0.000000      4.000000
  0.000000  0.018664  0.000000      4.000000
  0.009332  0.018664  0.000000      8.000000
  0.018664  0.018664  0.000000      8.000000
  0.027996  0.018664  0.000000      8.000000
  0.037328  0.018664  0.000000      8.000000
  0.046660  0.018664  0.000000      8.000000
  0.055992  0.018664  0.000000      4.000000
  0.000000  0.027996  0.000000      4.000000
  0.009332  0.027996  0.000000      8.000000
  0.018664  0.027996  0.000000      8.000000
  0.027996  0.027996  0.000000      8.000000
  0.037328  0.027996  0.000000      8.000000
  0.046660  0.027996  0.000000      8.000000
  0.055992  0.027996  0.000000      4.000000
  0.000000  0.037328  0.000000      4.000000
  0.009332  0.037328  0.000000      8.000000
  0.018664  0.037328  0.000000      8.000000
  0.027996  0.037328  0.000000      8.000000
  0.037328  0.037328  0.000000      8.000000
  0.046660  0.037328  0.000000      8.000000
  0.055992  0.037328  0.000000      4.000000
  0.000000  0.046660  0.000000      4.000000
  0.009332  0.046660  0.000000      8.000000
  0.018664  0.046660  0.000000      8.000000
  0.027996  0.046660  0.000000      8.000000
  0.037328  0.046660  0.000000      8.000000
  0.046660  0.046660  0.000000      8.000000
  0.055992  0.046660  0.000000      4.000000
  0.000000  0.055992  0.000000      2.000000
  0.009332  0.055992  0.000000      4.000000
  0.018664  0.055992  0.000000      4.000000
  0.027996  0.055992  0.000000      4.000000
  0.037328  0.055992  0.000000      4.000000
  0.046660  0.055992  0.000000      4.000000
  0.055992  0.055992  0.000000      2.000000
  0.000000  0.009332  0.009332      4.000000
  0.009332  0.009332  0.009332      8.000000
  0.018664  0.009332  0.009332      8.000000
  0.027996  0.009332  0.009332      8.000000
  0.037328  0.009332  0.009332      8.000000
  0.046660  0.009332  0.009332      8.000000
  0.055992  0.009332  0.009332      4.000000
  0.000000  0.018664  0.009332      8.000000
  0.009332  0.018664  0.009332     16.000000
  0.018664  0.018664  0.009332     16.000000
  0.027996  0.018664  0.009332     16.000000
  0.037328  0.018664  0.009332     16.000000
  0.046660  0.018664  0.009332     16.000000
  0.055992  0.018664  0.009332      8.000000
  0.000000  0.027996  0.009332      8.000000
  0.009332  0.027996  0.009332     16.000000
  0.018664  0.027996  0.009332     16.000000
  0.027996  0.027996  0.009332     16.000000
  0.037328  0.027996  0.009332     16.000000
  0.046660  0.027996  0.009332     16.000000
  0.055992  0.027996  0.009332      8.000000
  0.000000  0.037328  0.009332      8.000000
  0.009332  0.037328  0.009332     16.000000
  0.018664  0.037328  0.009332     16.000000
  0.027996  0.037328  0.009332     16.000000
  0.037328  0.037328  0.009332     16.000000
  0.046660  0.037328  0.009332     16.000000
  0.055992  0.037328  0.009332      8.000000
  0.000000  0.046660  0.009332      8.000000
  0.009332  0.046660  0.009332     16.000000
  0.018664  0.046660  0.009332     16.000000
  0.027996  0.046660  0.009332     16.000000
  0.037328  0.046660  0.009332     16.000000
  0.046660  0.046660  0.009332     16.000000
  0.055992  0.046660  0.009332      8.000000
  0.000000  0.055992  0.009332      4.000000
  0.009332  0.055992  0.009332      8.000000
  0.018664  0.055992  0.009332      8.000000
  0.027996  0.055992  0.009332      8.000000
  0.037328  0.055992  0.009332      8.000000
  0.046660  0.055992  0.009332      8.000000
  0.055992  0.055992  0.009332      4.000000
  0.000000  0.018664  0.018664      4.000000
  0.009332  0.018664  0.018664      8.000000
  0.018664  0.018664  0.018664      8.000000
  0.027996  0.018664  0.018664      8.000000
  0.037328  0.018664  0.018664      8.000000
  0.046660  0.018664  0.018664      8.000000
  0.055992  0.018664  0.018664      4.000000
  0.000000  0.027996  0.018664      8.000000
  0.009332  0.027996  0.018664     16.000000
  0.018664  0.027996  0.018664     16.000000
  0.027996  0.027996  0.018664     16.000000
  0.037328  0.027996  0.018664     16.000000
  0.046660  0.027996  0.018664     16.000000
  0.055992  0.027996  0.018664      8.000000
  0.000000  0.037328  0.018664      8.000000
  0.009332  0.037328  0.018664     16.000000
  0.018664  0.037328  0.018664     16.000000
  0.027996  0.037328  0.018664     16.000000
  0.037328  0.037328  0.018664     16.000000
  0.046660  0.037328  0.018664     16.000000
  0.055992  0.037328  0.018664      8.000000
  0.000000  0.046660  0.018664      8.000000
  0.009332  0.046660  0.018664     16.000000
  0.018664  0.046660  0.018664     16.000000
  0.027996  0.046660  0.018664     16.000000
  0.037328  0.046660  0.018664     16.000000
  0.046660  0.046660  0.018664     16.000000
  0.055992  0.046660  0.018664      8.000000
  0.000000  0.055992  0.018664      4.000000
  0.009332  0.055992  0.018664      8.000000
  0.018664  0.055992  0.018664      8.000000
  0.027996  0.055992  0.018664      8.000000
  0.037328  0.055992  0.018664      8.000000
  0.046660  0.055992  0.018664      8.000000
  0.055992  0.055992  0.018664      4.000000
  0.000000  0.027996  0.027996      4.000000
  0.009332  0.027996  0.027996      8.000000
  0.018664  0.027996  0.027996      8.000000
  0.027996  0.027996  0.027996      8.000000
  0.037328  0.027996  0.027996      8.000000
  0.046660  0.027996  0.027996      8.000000
  0.055992  0.027996  0.027996      4.000000
  0.000000  0.037328  0.027996      8.000000
  0.009332  0.037328  0.027996     16.000000
  0.018664  0.037328  0.027996     16.000000
  0.027996  0.037328  0.027996     16.000000
  0.037328  0.037328  0.027996     16.000000
  0.046660  0.037328  0.027996     16.000000
  0.055992  0.037328  0.027996      8.000000
  0.000000  0.046660  0.027996      8.000000
  0.009332  0.046660  0.027996     16.000000
  0.018664  0.046660  0.027996     16.000000
  0.027996  0.046660  0.027996     16.000000
  0.037328  0.046660  0.027996     16.000000
  0.046660  0.046660  0.027996     16.000000
  0.055992  0.046660  0.027996      8.000000
  0.000000  0.055992  0.027996      4.000000
  0.009332  0.055992  0.027996      8.000000
  0.018664  0.055992  0.027996      8.000000
  0.027996  0.055992  0.027996      8.000000
  0.037328  0.055992  0.027996      8.000000
  0.046660  0.055992  0.027996      8.000000
  0.055992  0.055992  0.027996      4.000000
  0.000000  0.037328  0.037328      4.000000
  0.009332  0.037328  0.037328      8.000000
  0.018664  0.037328  0.037328      8.000000
  0.027996  0.037328  0.037328      8.000000
  0.037328  0.037328  0.037328      8.000000
  0.046660  0.037328  0.037328      8.000000
  0.055992  0.037328  0.037328      4.000000
  0.000000  0.046660  0.037328      8.000000
  0.009332  0.046660  0.037328     16.000000
  0.018664  0.046660  0.037328     16.000000
  0.027996  0.046660  0.037328     16.000000
  0.037328  0.046660  0.037328     16.000000
  0.046660  0.046660  0.037328     16.000000
  0.055992  0.046660  0.037328      8.000000
  0.000000  0.055992  0.037328      4.000000
  0.009332  0.055992  0.037328      8.000000
  0.018664  0.055992  0.037328      8.000000
  0.027996  0.055992  0.037328      8.000000
  0.037328  0.055992  0.037328      8.000000
  0.046660  0.055992  0.037328      8.000000
  0.055992  0.055992  0.037328      4.000000
  0.000000  0.046660  0.046660      4.000000
  0.009332  0.046660  0.046660      8.000000
  0.018664  0.046660  0.046660      8.000000
  0.027996  0.046660  0.046660      8.000000
  0.037328  0.046660  0.046660      8.000000
  0.046660  0.046660  0.046660      8.000000
  0.055992  0.046660  0.046660      4.000000
  0.000000  0.055992  0.046660      4.000000
  0.009332  0.055992  0.046660      8.000000
  0.018664  0.055992  0.046660      8.000000
  0.027996  0.055992  0.046660      8.000000
  0.037328  0.055992  0.046660      8.000000
  0.046660  0.055992  0.046660      8.000000
  0.055992  0.055992  0.046660      4.000000
  0.000000  0.055992  0.055992      1.000000
  0.009332  0.055992  0.055992      2.000000
  0.018664  0.055992  0.055992      2.000000
  0.027996  0.055992  0.055992      2.000000
  0.037328  0.055992  0.055992      2.000000
  0.046660  0.055992  0.055992      2.000000
  0.055992  0.055992  0.055992      1.000000
 


--------------------------------------------------------------------------------------------------------




 Dimension of arrays:
   k-Points           NKPTS =    196   number of bands    NBANDS=    216
   number of dos      NEDOS =    301   number of ions     NIONS =     32
   non local maximal  LDIM  =      6   non local SUM 2l+1 LMDIM =     18
   total plane-waves  NPLWV = 512000
   max r-space proj   IRMAX =      1   max aug-charges    IRDMAX= 351912
   dimension x,y,z NGX =    80 NGY =   80 NGZ =   80
   dimension x,y,z NGXF=   160 NGYF=  160 NGZF=  160
   support grid    NGXF=   320 NGYF=  320 NGZF=  320
   ions per type =              32
 NGX,Y,Z   is equivalent  to a cutoff of  14.89, 14.89, 14.89 a.u.
 NGXF,Y,Z  is equivalent  to a cutoff of  29.79, 29.79, 29.79 a.u.


 I would recommend the setting:
   dimension x,y,z NGX =    80 NGY =   80 NGZ =   80
 SYSTEM =  unknown system                          
 POSCAR =  Au                                      

 Startparameter for this run:
   NWRITE =      2    write-flag & timer
   PREC   = accura    medium, high low
   ISTART =      0    job   : 0-new  1-cont  2-samecut
   ICHARG =      2    charge: 1-file 2-atom 10-const
   ISPIN  =      1    spin polarized calculation?
   LNONCOLLINEAR =      F non collinear calculations
   LSORBIT =      F    spin-orbit coupling
   INIWAV =      1    electr: 0-lowe 1-rand  2-diag
   LASPH  =      F    aspherical Exc in radial PAW
   METAGGA=      F    non-selfconsistent MetaGGA calc.

 Electronic Relaxation 1
   ENCUT  =  750.0 eV  55.12 Ry    7.42 a.u.  19.94 19.94 19.94*2*pi/ulx,y,z
   ENINI  =  750.0     initial cutoff
   ENAUG  =  356.7 eV  augmentation charge cutoff
   NELM   =     60;   NELMIN=  2; NELMDL=  0     # of ELM steps 
   EDIFF  = 0.1E-07   stopping-criterion for ELM
   LREAL  =      F    real-space projection
   LCOMPAT=      F    compatible to vasp.4.4
   LREAL_COMPAT= F    compatible to vasp.4.5.1-3
   GGA_COMPAT  = T    GGA compatible to vasp.4.4-vasp.4.6
   LMAXPAW     = -100 max onsite density
   LMAXMIX     =    2 max onsite mixed and CHGCAR
   VOSKOWN=      0    Vosko Wilk Nusair interpolation
   ROPT   =    0.00000
 Ionic relaxation
   EDIFFG = 0.1E-06   stopping-criterion for IOM
   NSW    =      0    number of steps for IOM
   NBLOCK =      1;   KBLOCK =      1    inner block; outer block 
   IBRION =     -1    ionic relax: 0-MD 1-quasi-New 2-CG
   NFREE  =      0    steps in history (QN), initial steepest desc. (CG)
   ISIF   =      2    stress and relaxation
   IWAVPR =     10    prediction:  0-non 1-charg 2-wave 3-comb
   ISYM   =      2    0-nonsym 1-usesym 2-fastsym
   LCORR  =      T    Harris-Foulkes like correction to forces

   POTIM  =   0.50    time-step for ionic-motion
   TEIN   =    0.0    initial temperature
   TEBEG  =    0.0;   TEEND  =   0.0 temperature during run
   SMASS  =  -3.00    Nose mass-parameter (am)
   estimated Nose-frequenzy (Omega)   =  0.10E-29 period in steps =****** mass=  -0.182E-26a.u.
   NPACO  =    256;   APACO  = 16.0  distance and # of slots for P.C.
   PSTRESS=    0.0 pullay stress

  Mass of Ions in am
   POMASS = 196.97
  Ionic Valenz
   ZVAL   =  11.00
  Atomic Wigner-Seitz radii
   RWIGS  =  -1.00
   NELECT =     352.0000    total number of electrons
   NUPDOWN=      -1.0000    fix difference up-down

 DOS related values:
   EMIN   =  10.00;   EMAX   =-10.00  energy-range for DOS
   ISMEAR =     0;   SIGMA  =   0.01  broadening in eV -4-tet -1-fermi 0-gaus

 Electronic relaxation 2 (details)
   IALGO  =     38    algorithm
   LDIAG  =      T    sub-space diagonalisation
   IMIX   =      4    mixing-type and parameters
     AMIX     =   0.40;   BMIX     =  1.00
     AMIX_MAG =   1.60;   BMIX_MAG =  1.00
     AMIN     =   0.10
     WC   =   100.;   INIMIX=   1;  MIXPRE=   1

 Intra band minimization:
   WEIMIN = 0.0000     energy-eigenvalue tresh-hold
   EBREAK =  0.12E-10  absolut break condition
   DEPER  =   0.30     relativ break condition  

   TIME   =   0.10     timestep for ELM

  volume/ion in A,a.u.               =      22.25       150.17
  Fermi-wavevector in a.u.,eV,Ry     =   1.294421 22.796921  1.675526

 Second variation
   LSECVAR=     F    do a second variation
 
 Write flags
   LWAVE  =      F    write WAVECAR
   LCHARG =      F    write CHGCAR
   LVTOT  =      F    write LOCPOT, local potential
   LELF   =      F    write electronic localiz. function (ELF)
   LORBIT =      0    0 simple, 1 ext, 2 COOP (PROOUT)


 Dipole corrections
   IDIPOL =      0    1-x, 2-y, 3-z
   LDIPOL =      F    correct potential



--------------------------------------------------------------------------------------------------------


 Static calculation
 charge density will be updated during run
 non-spin polarized calculation
 Variant of blocked Davidson
 Davidson routine will perform the subspace rotation
 performe sub-space diagonalisation
    after iterative eigenvector-optimisation
 modified Broyden-mixing scheme, WC =      100.0
 initial mixing is a Kerker type mixing with AMIX =  0.4000 and BMIX =      1.0000
 Hartree-type preconditioning will be used
 using additional bands           40
 reciprocal scheme for non local part
 use partial core corrections
 calculate Harris-corrections to forces 
   (improved forces if not selfconsistent)
 use gradient corrections 
 use of overlap-Matrix (Vanderbilt PP)
 Gauss-broadening in eV      SIGMA  =   0.01


--------------------------------------------------------------------------------------------------------


  energy-cutoff  :      750.00
  volume of cell :      712.10
      direct lattice vectors                 reciprocal lattice vectors
     8.929903071  0.000000000  0.000000000     0.111983298  0.000000000  0.000000000
     0.000000000  8.929903071  0.000000000     0.000000000  0.111983298  0.000000000
     0.000000000  0.000000000  8.929903071     0.000000000  0.000000000  0.111983298

  length of vectors
     8.929903071  8.929903071  8.929903071     0.111983298  0.111983298  0.111983298


 
 k-points in units of 2pi/SCALE and weight: Automatic mesh                          
   0.00000000  0.00000000  0.00000000       0.001
   0.00933194  0.00000000  0.00000000       0.001
   0.01866388  0.00000000  0.00000000       0.001
   0.02799582  0.00000000  0.00000000       0.001
   0.03732777  0.00000000  0.00000000       0.001
   0.04665971  0.00000000  0.00000000       0.001
   0.05599165  0.00000000  0.00000000       0.001
   0.00000000  0.00933194  0.00000000       0.002
   0.00933194  0.00933194  0.00000000       0.005
   0.01866388  0.00933194  0.00000000       0.005
   0.02799582  0.00933194  0.00000000       0.005
   0.03732777  0.00933194  0.00000000       0.005
   0.04665971  0.00933194  0.00000000       0.005
   0.05599165  0.00933194  0.00000000       0.002
   0.00000000  0.01866388  0.00000000       0.002
   0.00933194  0.01866388  0.00000000       0.005
   0.01866388  0.01866388  0.00000000       0.005
   0.02799582  0.01866388  0.00000000       0.005
   0.03732777  0.01866388  0.00000000       0.005
   0.04665971  0.01866388  0.00000000       0.005
   0.05599165  0.01866388  0.00000000       0.002
   0.00000000  0.02799582  0.00000000       0.002
   0.00933194  0.02799582  0.00000000       0.005
   0.01866388  0.02799582  0.00000000       0.005
   0.02799582  0.02799582  0.00000000       0.005
   0.03732777  0.02799582  0.00000000       0.005
   0.04665971  0.02799582  0.00000000       0.005
   0.05599165  0.02799582  0.00000000       0.002
   0.00000000  0.03732777  0.00000000       0.002
   0.00933194  0.03732777  0.00000000       0.005
   0.01866388  0.03732777  0.00000000       0.005
   0.02799582  0.03732777  0.00000000       0.005
   0.03732777  0.03732777  0.00000000       0.005
   0.04665971  0.03732777  0.00000000       0.005
   0.05599165  0.03732777  0.00000000       0.002
   0.00000000  0.04665971  0.00000000       0.002
   0.00933194  0.04665971  0.00000000       0.005
   0.01866388  0.04665971  0.00000000       0.005
   0.02799582  0.04665971  0.00000000       0.005
   0.03732777  0.04665971  0.00000000       0.005
   0.04665971  0.04665971  0.00000000       0.005
   0.05599165  0.04665971  0.00000000       0.002
   0.00000000  0.05599165  0.00000000       0.001
   0.00933194  0.05599165  0.00000000       0.002
   0.01866388  0.05599165  0.00000000       0.002
   0.02799582  0.05599165  0.00000000       0.002
   0.03732777  0.05599165  0.00000000       0.002
   0.04665971  0.05599165  0.00000000       0.002
   0.05599165  0.05599165  0.00000000       0.001
   0.00000000  0.00933194  0.00933194       0.002
   0.00933194  0.00933194  0.00933194       0.005
   0.01866388  0.00933194  0.00933194       0.005
   0.02799582  0.00933194  0.00933194       0.005
   0.03732777  0.00933194  0.00933194       0.005
   0.04665971  0.00933194  0.00933194       0.005
   0.05599165  0.00933194  0.00933194       0.002
   0.00000000  0.01866388  0.00933194       0.005
   0.00933194  0.01866388  0.00933194       0.009
   0.01866388  0.01866388  0.00933194       0.009
   0.02799582  0.01866388  0.00933194       0.009
   0.03732777  0.01866388  0.00933194       0.009
   0.04665971  0.01866388  0.00933194       0.009
   0.05599165  0.01866388  0.00933194       0.005
   0.00000000  0.02799582  0.00933194       0.005
   0.00933194  0.02799582  0.00933194       0.009
   0.01866388  0.02799582  0.00933194       0.009
   0.02799582  0.02799582  0.00933194       0.009
   0.03732777  0.02799582  0.00933194       0.009
   0.04665971  0.02799582  0.00933194       0.009
   0.05599165  0.02799582  0.00933194       0.005
   0.00000000  0.03732777  0.00933194       0.005
   0.00933194  0.03732777  0.00933194       0.009
   0.01866388  0.03732777  0.00933194       0.009
   0.02799582  0.03732777  0.00933194       0.009
   0.03732777  0.03732777  0.00933194       0.009
   0.04665971  0.03732777  0.00933194       0.009
   0.05599165  0.03732777  0.00933194       0.005
   0.00000000  0.04665971  0.00933194       0.005
   0.00933194  0.04665971  0.00933194       0.009
   0.01866388  0.04665971  0.00933194       0.009
   0.02799582  0.04665971  0.00933194       0.009
   0.03732777  0.04665971  0.00933194       0.009
   0.04665971  0.04665971  0.00933194       0.009
   0.05599165  0.04665971  0.00933194       0.005
   0.00000000  0.05599165  0.00933194       0.002
   0.00933194  0.05599165  0.00933194       0.005
   0.01866388  0.05599165  0.00933194       0.005
   0.02799582  0.05599165  0.00933194       0.005
   0.03732777  0.05599165  0.00933194       0.005
   0.04665971  0.05599165  0.00933194       0.005
   0.05599165  0.05599165  0.00933194       0.002
   0.00000000  0.01866388  0.01866388       0.002
   0.00933194  0.01866388  0.01866388       0.005
   0.01866388  0.01866388  0.01866388       0.005
   0.02799582  0.01866388  0.01866388       0.005
   0.03732777  0.01866388  0.01866388       0.005
   0.04665971  0.01866388  0.01866388       0.005
   0.05599165  0.01866388  0.01866388       0.002
   0.00000000  0.02799582  0.01866388       0.005
   0.00933194  0.02799582  0.01866388       0.009
   0.01866388  0.02799582  0.01866388       0.009
   0.02799582  0.02799582  0.01866388       0.009
   0.03732777  0.02799582  0.01866388       0.009
   0.04665971  0.02799582  0.01866388       0.009
   0.05599165  0.02799582  0.01866388       0.005
   0.00000000  0.03732777  0.01866388       0.005
   0.00933194  0.03732777  0.01866388       0.009
   0.01866388  0.03732777  0.01866388       0.009
   0.02799582  0.03732777  0.01866388       0.009
   0.03732777  0.03732777  0.01866388       0.009
   0.04665971  0.03732777  0.01866388       0.009
   0.05599165  0.03732777  0.01866388       0.005
   0.00000000  0.04665971  0.01866388       0.005
   0.00933194  0.04665971  0.01866388       0.009
   0.01866388  0.04665971  0.01866388       0.009
   0.02799582  0.04665971  0.01866388       0.009
   0.03732777  0.04665971  0.01866388       0.009
   0.04665971  0.04665971  0.01866388       0.009
   0.05599165  0.04665971  0.01866388       0.005
   0.00000000  0.05599165  0.01866388       0.002
   0.00933194  0.05599165  0.01866388       0.005
   0.01866388  0.05599165  0.01866388       0.005
   0.02799582  0.05599165  0.01866388       0.005
   0.03732777  0.05599165  0.01866388       0.005
   0.04665971  0.05599165  0.01866388       0.005
   0.05599165  0.05599165  0.01866388       0.002
   0.00000000  0.02799582  0.02799582       0.002
   0.00933194  0.02799582  0.02799582       0.005
   0.01866388  0.02799582  0.02799582       0.005
   0.02799582  0.02799582  0.02799582       0.005
   0.03732777  0.02799582  0.02799582       0.005
   0.04665971  0.02799582  0.02799582       0.005
   0.05599165  0.02799582  0.02799582       0.002
   0.00000000  0.03732777  0.02799582       0.005
   0.00933194  0.03732777  0.02799582       0.009
   0.01866388  0.03732777  0.02799582       0.009
   0.02799582  0.03732777  0.02799582       0.009
   0.03732777  0.03732777  0.02799582       0.009
   0.04665971  0.03732777  0.02799582       0.009
   0.05599165  0.03732777  0.02799582       0.005
   0.00000000  0.04665971  0.02799582       0.005
   0.00933194  0.04665971  0.02799582       0.009
   0.01866388  0.04665971  0.02799582       0.009
   0.02799582  0.04665971  0.02799582       0.009
   0.03732777  0.04665971  0.02799582       0.009
   0.04665971  0.04665971  0.02799582       0.009
   0.05599165  0.04665971  0.02799582       0.005
   0.00000000  0.05599165  0.02799582       0.002
   0.00933194  0.05599165  0.02799582       0.005
   0.01866388  0.05599165  0.02799582       0.005
   0.02799582  0.05599165  0.02799582       0.005
   0.03732777  0.05599165  0.02799582       0.005
   0.04665971  0.05599165  0.02799582       0.005
   0.05599165  0.05599165  0.02799582       0.002
   0.00000000  0.03732777  0.03732777       0.002
   0.00933194  0.03732777  0.03732777       0.005
   0.01866388  0.03732777  0.03732777       0.005
   0.02799582  0.03732777  0.03732777       0.005
   0.03732777  0.03732777  0.03732777       0.005
   0.04665971  0.03732777  0.03732777       0.005
   0.05599165  0.03732777  0.03732777       0.002
   0.00000000  0.04665971  0.03732777       0.005
   0.00933194  0.04665971  0.03732777       0.009
   0.01866388  0.04665971  0.03732777       0.009
   0.02799582  0.04665971  0.03732777       0.009
   0.03732777  0.04665971  0.03732777       0.009
   0.04665971  0.04665971  0.03732777       0.009
   0.05599165  0.04665971  0.03732777       0.005
   0.00000000  0.05599165  0.03732777       0.002
   0.00933194  0.05599165  0.03732777       0.005
   0.01866388  0.05599165  0.03732777       0.005
   0.02799582  0.05599165  0.03732777       0.005
   0.03732777  0.05599165  0.03732777       0.005
   0.04665971  0.05599165  0.03732777       0.005
   0.05599165  0.05599165  0.03732777       0.002
   0.00000000  0.04665971  0.04665971       0.002
   0.00933194  0.04665971  0.04665971       0.005
   0.01866388  0.04665971  0.04665971       0.005
   0.02799582  0.04665971  0.04665971       0.005
   0.03732777  0.04665971  0.04665971       0.005
   0.04665971  0.04665971  0.04665971       0.005
   0.05599165  0.04665971  0.04665971       0.002
   0.00000000  0.05599165  0.04665971       0.002
   0.00933194  0.05599165  0.04665971       0.005
   0.01866388  0.05599165  0.04665971       0.005
   0.02799582  0.05599165  0.04665971       0.005
   0.03732777  0.05599165  0.04665971       0.005
   0.04665971  0.05599165  0.04665971       0.005
   0.05599165  0.05599165  0.04665971       0.002
   0.00000000  0.05599165  0.05599165       0.001
   0.00933194  0.05599165  0.05599165       0.001
   0.01866388  0.05599165  0.05599165       0.001
   0.02799582  0.05599165  0.05599165       0.001
   0.03732777  0.05599165  0.05599165       0.001
   0.04665971  0.05599165  0.05599165       0.001
   0.05599165  0.05599165  0.05599165       0.001
 
 k-points in reciprocal lattice and weights: Automatic mesh                          
   0.00000000  0.00000000  0.00000000       0.001
   0.08333333  0.00000000  0.00000000       0.001
   0.16666667  0.00000000  0.00000000       0.001
   0.25000000  0.00000000  0.00000000       0.001
   0.33333333  0.00000000  0.00000000       0.001
   0.41666667  0.00000000  0.00000000       0.001
   0.50000000  0.00000000  0.00000000       0.001
   0.00000000  0.08333333  0.00000000       0.002
   0.08333333  0.08333333  0.00000000       0.005
   0.16666667  0.08333333  0.00000000       0.005
   0.25000000  0.08333333  0.00000000       0.005
   0.33333333  0.08333333  0.00000000       0.005
   0.41666667  0.08333333  0.00000000       0.005
   0.50000000  0.08333333  0.00000000       0.002
   0.00000000  0.16666667  0.00000000       0.002
   0.08333333  0.16666667  0.00000000       0.005
   0.16666667  0.16666667  0.00000000       0.005
   0.25000000  0.16666667  0.00000000       0.005
   0.33333333  0.16666667  0.00000000       0.005
   0.41666667  0.16666667  0.00000000       0.005
   0.50000000  0.16666667  0.00000000       0.002
   0.00000000  0.25000000  0.00000000       0.002
   0.08333333  0.25000000  0.00000000       0.005
   0.16666667  0.25000000  0.00000000       0.005
   0.25000000  0.25000000  0.00000000       0.005
   0.33333333  0.25000000  0.00000000       0.005
   0.41666667  0.25000000  0.00000000       0.005
   0.50000000  0.25000000  0.00000000       0.002
   0.00000000  0.33333333  0.00000000       0.002
   0.08333333  0.33333333  0.00000000       0.005
   0.16666667  0.33333333  0.00000000       0.005
   0.25000000  0.33333333  0.00000000       0.005
   0.33333333  0.33333333  0.00000000       0.005
   0.41666667  0.33333333  0.00000000       0.005
   0.50000000  0.33333333  0.00000000       0.002
   0.00000000  0.41666667  0.00000000       0.002
   0.08333333  0.41666667  0.00000000       0.005
   0.16666667  0.41666667  0.00000000       0.005
   0.25000000  0.41666667  0.00000000       0.005
   0.33333333  0.41666667  0.00000000       0.005
   0.41666667  0.41666667  0.00000000       0.005
   0.50000000  0.41666667  0.00000000       0.002
   0.00000000  0.50000000  0.00000000       0.001
   0.08333333  0.50000000  0.00000000       0.002
   0.16666667  0.50000000  0.00000000       0.002
   0.25000000  0.50000000  0.00000000       0.002
   0.33333333  0.50000000  0.00000000       0.002
   0.41666667  0.50000000  0.00000000       0.002
   0.50000000  0.50000000  0.00000000       0.001
   0.00000000  0.08333333  0.08333333       0.002
   0.08333333  0.08333333  0.08333333       0.005
   0.16666667  0.08333333  0.08333333       0.005
   0.25000000  0.08333333  0.08333333       0.005
   0.33333333  0.08333333  0.08333333       0.005
   0.41666667  0.08333333  0.08333333       0.005
   0.50000000  0.08333333  0.08333333       0.002
   0.00000000  0.16666667  0.08333333       0.005
   0.08333333  0.16666667  0.08333333       0.009
   0.16666667  0.16666667  0.08333333       0.009
   0.25000000  0.16666667  0.08333333       0.009
   0.33333333  0.16666667  0.08333333       0.009
   0.41666667  0.16666667  0.08333333       0.009
   0.50000000  0.16666667  0.08333333       0.005
   0.00000000  0.25000000  0.08333333       0.005
   0.08333333  0.25000000  0.08333333       0.009
   0.16666667  0.25000000  0.08333333       0.009
   0.25000000  0.25000000  0.08333333       0.009
   0.33333333  0.25000000  0.08333333       0.009
   0.41666667  0.25000000  0.08333333       0.009
   0.50000000  0.25000000  0.08333333       0.005
   0.00000000  0.33333333  0.08333333       0.005
   0.08333333  0.33333333  0.08333333       0.009
   0.16666667  0.33333333  0.08333333       0.009
   0.25000000  0.33333333  0.08333333       0.009
   0.33333333  0.33333333  0.08333333       0.009
   0.41666667  0.33333333  0.08333333       0.009
   0.50000000  0.33333333  0.08333333       0.005
   0.00000000  0.41666667  0.08333333       0.005
   0.08333333  0.41666667  0.08333333       0.009
   0.16666667  0.41666667  0.08333333       0.009
   0.25000000  0.41666667  0.08333333       0.009
   0.33333333  0.41666667  0.08333333       0.009
   0.41666667  0.41666667  0.08333333       0.009
   0.50000000  0.41666667  0.08333333       0.005
   0.00000000  0.50000000  0.08333333       0.002
   0.08333333  0.50000000  0.08333333       0.005
   0.16666667  0.50000000  0.08333333       0.005
   0.25000000  0.50000000  0.08333333       0.005
   0.33333333  0.50000000  0.08333333       0.005
   0.41666667  0.50000000  0.08333333       0.005
   0.50000000  0.50000000  0.08333333       0.002
   0.00000000  0.16666667  0.16666667       0.002
   0.08333333  0.16666667  0.16666667       0.005
   0.16666667  0.16666667  0.16666667       0.005
   0.25000000  0.16666667  0.16666667       0.005
   0.33333333  0.16666667  0.16666667       0.005
   0.41666667  0.16666667  0.16666667       0.005
   0.50000000  0.16666667  0.16666667       0.002
   0.00000000  0.25000000  0.16666667       0.005
   0.08333333  0.25000000  0.16666667       0.009
   0.16666667  0.25000000  0.16666667       0.009
   0.25000000  0.25000000  0.16666667       0.009
   0.33333333  0.25000000  0.16666667       0.009
   0.41666667  0.25000000  0.16666667       0.009
   0.50000000  0.25000000  0.16666667       0.005
   0.00000000  0.33333333  0.16666667       0.005
   0.08333333  0.33333333  0.16666667       0.009
   0.16666667  0.33333333  0.16666667       0.009
   0.25000000  0.33333333  0.16666667       0.009
   0.33333333  0.33333333  0.16666667       0.009
   0.41666667  0.33333333  0.16666667       0.009
   0.50000000  0.33333333  0.16666667       0.005
   0.00000000  0.41666667  0.16666667       0.005
   0.08333333  0.41666667  0.16666667       0.009
   0.16666667  0.41666667  0.16666667       0.009
   0.25000000  0.41666667  0.16666667       0.009
   0.33333333  0.41666667  0.16666667       0.009
   0.41666667  0.41666667  0.16666667       0.009
   0.50000000  0.41666667  0.16666667       0.005
   0.00000000  0.50000000  0.16666667       0.002
   0.08333333  0.50000000  0.16666667       0.005
   0.16666667  0.50000000  0.16666667       0.005
   0.25000000  0.50000000  0.16666667       0.005
   0.33333333  0.50000000  0.16666667       0.005
   0.41666667  0.50000000  0.16666667       0.005
   0.50000000  0.50000000  0.16666667       0.002
   0.00000000  0.25000000  0.25000000       0.002
   0.08333333  0.25000000  0.25000000       0.005
   0.16666667  0.25000000  0.25000000       0.005
   0.25000000  0.25000000  0.25000000       0.005
   0.33333333  0.25000000  0.25000000       0.005
   0.41666667  0.25000000  0.25000000       0.005
   0.50000000  0.25000000  0.25000000       0.002
   0.00000000  0.33333333  0.25000000       0.005
   0.08333333  0.33333333  0.25000000       0.009
   0.16666667  0.33333333  0.25000000       0.009
   0.25000000  0.33333333  0.25000000       0.009
   0.33333333  0.33333333  0.25000000       0.009
   0.41666667  0.33333333  0.25000000       0.009
   0.50000000  0.33333333  0.25000000       0.005
   0.00000000  0.41666667  0.25000000       0.005
   0.08333333  0.41666667  0.25000000       0.009
   0.16666667  0.41666667  0.25000000       0.009
   0.25000000  0.41666667  0.25000000       0.009
   0.33333333  0.41666667  0.25000000       0.009
   0.41666667  0.41666667  0.25000000       0.009
   0.50000000  0.41666667  0.25000000       0.005
   0.00000000  0.50000000  0.25000000       0.002
   0.08333333  0.50000000  0.25000000       0.005
   0.16666667  0.50000000  0.25000000       0.005
   0.25000000  0.50000000  0.25000000       0.005
   0.33333333  0.50000000  0.25000000       0.005
   0.41666667  0.50000000  0.25000000       0.005
   0.50000000  0.50000000  0.25000000       0.002
   0.00000000  0.33333333  0.33333333       0.002
   0.08333333  0.33333333  0.33333333       0.005
   0.16666667  0.33333333  0.33333333       0.005
   0.25000000  0.33333333  0.33333333       0.005
   0.33333333  0.33333333  0.33333333       0.005
   0.41666667  0.33333333  0.33333333       0.005
   0.50000000  0.33333333  0.33333333       0.002
   0.00000000  0.41666667  0.33333333       0.005
   0.08333333  0.41666667  0.33333333       0.009
   0.16666667  0.41666667  0.33333333       0.009
   0.25000000  0.41666667  0.33333333       0.009
   0.33333333  0.41666667  0.33333333       0.009
   0.41666667  0.41666667  0.33333333       0.009
   0.50000000  0.41666667  0.33333333       0.005
   0.00000000  0.50000000  0.33333333       0.002
   0.08333333  0.50000000  0.33333333       0.005
   0.16666667  0.50000000  0.33333333       0.005
   0.25000000  0.50000000  0.33333333       0.005
   0.33333333  0.50000000  0.33333333       0.005
   0.41666667  0.50000000  0.33333333       0.005
   0.50000000  0.50000000  0.33333333       0.002
   0.00000000  0.41666667  0.41666667       0.002
   0.08333333  0.41666667  0.41666667       0.005
   0.16666667  0.41666667  0.41666667       0.005
   0.25000000  0.41666667  0.41666667       0.005
   0.33333333  0.41666667  0.41666667       0.005
   0.41666667  0.41666667  0.41666667       0.005
   0.50000000  0.41666667  0.41666667       0.002
   0.00000000  0.50000000  0.41666667       0.002
   0.08333333  0.50000000  0.41666667       0.005
   0.16666667  0.50000000  0.41666667       0.005
   0.25000000  0.50000000  0.41666667       0.005
   0.33333333  0.50000000  0.41666667       0.005
   0.41666667  0.50000000  0.41666667       0.005
   0.50000000  0.50000000  0.41666667       0.002
   0.00000000  0.50000000  0.50000000       0.001
   0.08333333  0.50000000  0.50000000       0.001
   0.16666667  0.50000000  0.50000000       0.001
   0.25000000  0.50000000  0.50000000       0.001
   0.33333333  0.50000000  0.50000000       0.001
   0.41666667  0.50000000  0.50000000       0.001
   0.50000000  0.50000000  0.50000000       0.001
 
 position of ions in fractional coordinates (direct lattice) 
   0.00111983  0.00000000  0.00000000
   0.50000000  0.00000000  0.00000000
   0.00000000  0.50000000  0.00000000
   0.50000000  0.50000000  0.00000000
   0.00000000  0.00000000  0.50000000
   0.50000000  0.00000000  0.50000000
   0.00000000  0.50000000  0.50000000
   0.50000000  0.50000000  0.50000000
   0.25000000  0.25000000  0.00000000
   0.75000000  0.25000000  0.00000000
   0.25000000  0.75000000  0.00000000
   0.75000000  0.75000000  0.00000000
   0.25000000  0.25000000  0.50000000
   0.75000000  0.25000000  0.50000000
   0.25000000  0.75000000  0.50000000
   0.75000000  0.75000000  0.50000000
   0.25000000  0.00000000  0.25000000
   0.75000000  0.00000000  0.25000000
   0.25000000  0.50000000  0.25000000
   0.75000000  0.50000000  0.25000000
   0.25000000  0.00000000  0.75000000
   0.75000000  0.00000000  0.75000000
   0.25000000  0.50000000  0.75000000
   0.75000000  0.50000000  0.75000000
   0.00000000  0.25000000  0.25000000
   0.50000000  0.25000000  0.25000000
   0.00000000  0.75000000  0.25000000
   0.50000000  0.75000000  0.25000000
   0.00000000  0.25000000  0.75000000
   0.50000000  0.25000000  0.75000000
   0.00000000  0.75000000  0.75000000
   0.50000000  0.75000000  0.75000000
 
 position of ions in cartesian coordinates  (Angst):
   0.01000000  0.00000000  0.00000000
   4.46495154  0.00000000  0.00000000
   0.00000000  4.46495154  0.00000000
   4.46495154  4.46495154  0.00000000
   0.00000000  0.00000000  4.46495154
   4.46495154  0.00000000  4.46495154
   0.00000000  4.46495154  4.46495154
   4.46495154  4.46495154  4.46495154
   2.23247577  2.23247577  0.00000000
   6.69742730  2.23247577  0.00000000
   2.23247577  6.69742730  0.00000000
   6.69742730  6.69742730  0.00000000
   2.23247577  2.23247577  4.46495154
   6.69742730  2.23247577  4.46495154
   2.23247577  6.69742730  4.46495154
   6.69742730  6.69742730  4.46495154
   2.23247577  0.00000000  2.23247577
   6.69742730  0.00000000  2.23247577
   2.23247577  4.46495154  2.23247577
   6.69742730  4.46495154  2.23247577
   2.23247577  0.00000000  6.69742730
   6.69742730  0.00000000  6.69742730
   2.23247577  4.46495154  6.69742730
   6.69742730  4.46495154  6.69742730
   0.00000000  2.23247577  2.23247577
   4.46495154  2.23247577  2.23247577
   0.00000000  6.69742730  2.23247577
   4.46495154  6.69742730  2.23247577
   0.00000000  2.23247577  6.69742730
   4.46495154  2.23247577  6.69742730
   0.00000000  6.69742730  6.69742730
   4.46495154  6.69742730  6.69742730
 


--------------------------------------------------------------------------------------------------------


 k-point  1 :  0.00000.00000.0000  plane waves:  33131
 k-point  2 :  0.08330.00000.0000  plane waves:  33176
 k-point  3 :  0.16670.00000.0000  plane waves:  33148
 k-point  4 :  0.25000.00000.0000  plane waves:  33212
 k-point  5 :  0.33330.00000.0000  plane waves:  33212
 k-point  6 :  0.41670.00000.0000  plane waves:  33180
 k-point  7 :  0.50000.00000.0000  plane waves:  33280
 k-point  8 :  0.00000.08330.0000  plane waves:  33176
 k-point  9 :  0.08330.08330.0000  plane waves:  33161
 k-point 10 :  0.16670.08330.0000  plane waves:  33196
 k-point 11 :  0.25000.08330.0000  plane waves:  33185
 k-point 12 :  0.33330.08330.0000  plane waves:  33176
 k-point 13 :  0.41670.08330.0000  plane waves:  33176
 k-point 14 :  0.50000.08330.0000  plane waves:  33206
 k-point 15 :  0.00000.16670.0000  plane waves:  33148
 k-point 16 :  0.08330.16670.0000  plane waves:  33196
 k-point 17 :  0.16670.16670.0000  plane waves:  33202
 k-point 18 :  0.25000.16670.0000  plane waves:  33190
 k-point 19 :  0.33330.16670.0000  plane waves:  33184
 k-point 20 :  0.41670.16670.0000  plane waves:  33211
 k-point 21 :  0.50000.16670.0000  plane waves:  33234
 k-point 22 :  0.00000.25000.0000  plane waves:  33212
 k-point 23 :  0.08330.25000.0000  plane waves:  33185
 k-point 24 :  0.16670.25000.0000  plane waves:  33190
 k-point 25 :  0.25000.25000.0000  plane waves:  33188
 k-point 26 :  0.33330.25000.0000  plane waves:  33189
 k-point 27 :  0.41670.25000.0000  plane waves:  33208
 k-point 28 :  0.50000.25000.0000  plane waves:  33206
 k-point 29 :  0.00000.33330.0000  plane waves:  33212
 k-point 30 :  0.08330.33330.0000  plane waves:  33176
 k-point 31 :  0.16670.33330.0000  plane waves:  33184
 k-point 32 :  0.25000.33330.0000  plane waves:  33189
 k-point 33 :  0.33330.33330.0000  plane waves:  33228
 k-point 34 :  0.41670.33330.0000  plane waves:  33212
 k-point 35 :  0.50000.33330.0000  plane waves:  33204
 k-point 36 :  0.00000.41670.0000  plane waves:  33180
 k-point 37 :  0.08330.41670.0000  plane waves:  33176
 k-point 38 :  0.16670.41670.0000  plane waves:  33211
 k-point 39 :  0.25000.41670.0000  plane waves:  33208
 k-point 40 :  0.33330.41670.0000  plane waves:  33212
 k-point 41 :  0.41670.41670.0000  plane waves:  33228
 k-point 42 :  0.50000.41670.0000  plane waves:  33226
 k-point 43 :  0.00000.50000.0000  plane waves:  33280
 k-point 44 :  0.08330.50000.0000  plane waves:  33206
 k-point 45 :  0.16670.50000.0000  plane waves:  33234
 k-point 46 :  0.25000.50000.0000  plane waves:  33206
 k-point 47 :  0.33330.50000.0000  plane waves:  33204
 k-point 48 :  0.41670.50000.0000  plane waves:  33226
 k-point 49 :  0.50000.50000.0000  plane waves:  33272
 k-point 50 :  0.00000.08330.0833  plane waves:  33161
 k-point 51 :  0.08330.08330.0833  plane waves:  33176
 k-point 52 :  0.16670.08330.0833  plane waves:  33189
 k-point 53 :  0.25000.08330.0833  plane waves:  33199
 k-point 54 :  0.33330.08330.0833  plane waves:  33200
 k-point 55 :  0.41670.08330.0833  plane waves:  33197
 k-point 56 :  0.50000.08330.0833  plane waves:  33218
 k-point 57 :  0.00000.16670.0833  plane waves:  33196
 k-point 58 :  0.08330.16670.0833  plane waves:  33189
 k-point 59 :  0.16670.16670.0833  plane waves:  33204
 k-point 60 :  0.25000.16670.0833  plane waves:  33200
 k-point 61 :  0.33330.16670.0833  plane waves:  33174
 k-point 62 :  0.41670.16670.0833  plane waves:  33210
 k-point 63 :  0.50000.16670.0833  plane waves:  33204
 k-point 64 :  0.00000.25000.0833  plane waves:  33185
 k-point 65 :  0.08330.25000.0833  plane waves:  33199
 k-point 66 :  0.16670.25000.0833  plane waves:  33200
 k-point 67 :  0.25000.25000.0833  plane waves:  33185
 k-point 68 :  0.33330.25000.0833  plane waves:  33192
 k-point 69 :  0.41670.25000.0833  plane waves:  33216
 k-point 70 :  0.50000.25000.0833  plane waves:  33216
 k-point 71 :  0.00000.33330.0833  plane waves:  33176
 k-point 72 :  0.08330.33330.0833  plane waves:  33200
 k-point 73 :  0.16670.33330.0833  plane waves:  33174
 k-point 74 :  0.25000.33330.0833  plane waves:  33192
 k-point 75 :  0.33330.33330.0833  plane waves:  33222
 k-point 76 :  0.41670.33330.0833  plane waves:  33211
 k-point 77 :  0.50000.33330.0833  plane waves:  33244
 k-point 78 :  0.00000.41670.0833  plane waves:  33176
 k-point 79 :  0.08330.41670.0833  plane waves:  33197
 k-point 80 :  0.16670.41670.0833  plane waves:  33210
 k-point 81 :  0.25000.41670.0833  plane waves:  33216
 k-point 82 :  0.33330.41670.0833  plane waves:  33211
 k-point 83 :  0.41670.41670.0833  plane waves:  33228
 k-point 84 :  0.50000.41670.0833  plane waves:  33250
 k-point 85 :  0.00000.50000.0833  plane waves:  33206
 k-point 86 :  0.08330.50000.0833  plane waves:  33218
 k-point 87 :  0.16670.50000.0833  plane waves:  33204
 k-point 88 :  0.25000.50000.0833  plane waves:  33216
 k-point 89 :  0.33330.50000.0833  plane waves:  33244
 k-point 90 :  0.41670.50000.0833  plane waves:  33250
 k-point 91 :  0.50000.50000.0833  plane waves:  33244
 k-point 92 :  0.00000.16670.1667  plane waves:  33202
 k-point 93 :  0.08330.16670.1667  plane waves:  33204
 k-point 94 :  0.16670.16670.1667  plane waves:  33215
 k-point 95 :  0.25000.16670.1667  plane waves:  33195
 k-point 96 :  0.33330.16670.1667  plane waves:  33212
 k-point 97 :  0.41670.16670.1667  plane waves:  33226
 k-point 98 :  0.50000.16670.1667  plane waves:  33160
 k-point 99 :  0.00000.25000.1667  plane waves:  33190
 k-point ** :  0.08330.25000.1667  plane waves:  33200
 k-point ** :  0.16670.25000.1667  plane waves:  33195
 k-point ** :  0.25000.25000.1667  plane waves:  33205
 k-point ** :  0.33330.25000.1667  plane waves:  33222
 k-point ** :  0.41670.25000.1667  plane waves:  33224
 k-point ** :  0.50000.25000.1667  plane waves:  33220
 k-point ** :  0.00000.33330.1667  plane waves:  33184
 k-point ** :  0.08330.33330.1667  plane waves:  33174
 k-point ** :  0.16670.33330.1667  plane waves:  33212
 k-point ** :  0.25000.33330.1667  plane waves:  33222
 k-point ** :  0.33330.33330.1667  plane waves:  33244
 k-point ** :  0.41670.33330.1667  plane waves:  33220
 k-point ** :  0.50000.33330.1667  plane waves:  33236
 k-point ** :  0.00000.41670.1667  plane waves:  33211
 k-point ** :  0.08330.41670.1667  plane waves:  33210
 k-point ** :  0.16670.41670.1667  plane waves:  33226
 k-point ** :  0.25000.41670.1667  plane waves:  33224
 k-point ** :  0.33330.41670.1667  plane waves:  33220
 k-point ** :  0.41670.41670.1667  plane waves:  33234
 k-point ** :  0.50000.41670.1667  plane waves:  33234
 k-point ** :  0.00000.50000.1667  plane waves:  33234
 k-point ** :  0.08330.50000.1667  plane waves:  33204
 k-point ** :  0.16670.50000.1667  plane waves:  33160
 k-point ** :  0.25000.50000.1667  plane waves:  33220
 k-point ** :  0.33330.50000.1667  plane waves:  33236
 k-point ** :  0.41670.50000.1667  plane waves:  33234
 k-point ** :  0.50000.50000.1667  plane waves:  33280
 k-point ** :  0.00000.25000.2500  plane waves:  33188
 k-point ** :  0.08330.25000.2500  plane waves:  33185
 k-point ** :  0.16670.25000.2500  plane waves:  33205
 k-point ** :  0.25000.25000.2500  plane waves:  33197
 k-point ** :  0.33330.25000.2500  plane waves:  33235
 k-point ** :  0.41670.25000.2500  plane waves:  33220
 k-point ** :  0.50000.25000.2500  plane waves:  33208
 k-point ** :  0.00000.33330.2500  plane waves:  33189
 k-point ** :  0.08330.33330.2500  plane waves:  33192
 k-point ** :  0.16670.33330.2500  plane waves:  33222
 k-point ** :  0.25000.33330.2500  plane waves:  33235
 k-point ** :  0.33330.33330.2500  plane waves:  33245
 k-point ** :  0.41670.33330.2500  plane waves:  33236
 k-point ** :  0.50000.33330.2500  plane waves:  33238
 k-point ** :  0.00000.41670.2500  plane waves:  33208
 k-point ** :  0.08330.41670.2500  plane waves:  33216
 k-point ** :  0.16670.41670.2500  plane waves:  33224
 k-point ** :  0.25000.41670.2500  plane waves:  33220
 k-point ** :  0.33330.41670.2500  plane waves:  33236
 k-point ** :  0.41670.41670.2500  plane waves:  33241
 k-point ** :  0.50000.41670.2500  plane waves:  33228
 k-point ** :  0.00000.50000.2500  plane waves:  33206
 k-point ** :  0.08330.50000.2500  plane waves:  33216
 k-point ** :  0.16670.50000.2500  plane waves:  33220
 k-point ** :  0.25000.50000.2500  plane waves:  33208
 k-point ** :  0.33330.50000.2500  plane waves:  33238
 k-point ** :  0.41670.50000.2500  plane waves:  33228
 k-point ** :  0.50000.50000.2500  plane waves:  33252
 k-point ** :  0.00000.33330.3333  plane waves:  33228
 k-point ** :  0.08330.33330.3333  plane waves:  33222
 k-point ** :  0.16670.33330.3333  plane waves:  33244
 k-point ** :  0.25000.33330.3333  plane waves:  33245
 k-point ** :  0.33330.33330.3333  plane waves:  33215
 k-point ** :  0.41670.33330.3333  plane waves:  33248
 k-point ** :  0.50000.33330.3333  plane waves:  33216
 k-point ** :  0.00000.41670.3333  plane waves:  33212
 k-point ** :  0.08330.41670.3333  plane waves:  33211
 k-point ** :  0.16670.41670.3333  plane waves:  33220
 k-point ** :  0.25000.41670.3333  plane waves:  33236
 k-point ** :  0.33330.41670.3333  plane waves:  33248
 k-point ** :  0.41670.41670.3333  plane waves:  33214
 k-point ** :  0.50000.41670.3333  plane waves:  33214
 k-point ** :  0.00000.50000.3333  plane waves:  33204
 k-point ** :  0.08330.50000.3333  plane waves:  33244
 k-point ** :  0.16670.50000.3333  plane waves:  33236
 k-point ** :  0.25000.50000.3333  plane waves:  33238
 k-point ** :  0.33330.50000.3333  plane waves:  33216
 k-point ** :  0.41670.50000.3333  plane waves:  33214
 k-point ** :  0.50000.50000.3333  plane waves:  33196
 k-point ** :  0.00000.41670.4167  plane waves:  33228
 k-point ** :  0.08330.41670.4167  plane waves:  33228
 k-point ** :  0.16670.41670.4167  plane waves:  33234
 k-point ** :  0.25000.41670.4167  plane waves:  33241
 k-point ** :  0.33330.41670.4167  plane waves:  33214
 k-point ** :  0.41670.41670.4167  plane waves:  33200
 k-point ** :  0.50000.41670.4167  plane waves:  33220
 k-point ** :  0.00000.50000.4167  plane waves:  33226
 k-point ** :  0.08330.50000.4167  plane waves:  33250
 k-point ** :  0.16670.50000.4167  plane waves:  33234
 k-point ** :  0.25000.50000.4167  plane waves:  33228
 k-point ** :  0.33330.50000.4167  plane waves:  33214
 k-point ** :  0.41670.50000.4167  plane waves:  33220
 k-point ** :  0.50000.50000.4167  plane waves:  33228
 k-point ** :  0.00000.50000.5000  plane waves:  33272
 k-point ** :  0.08330.50000.5000  plane waves:  33244
 k-point ** :  0.16670.50000.5000  plane waves:  33280
 k-point ** :  0.25000.50000.5000  plane waves:  33252
 k-point ** :  0.33330.50000.5000  plane waves:  33196
 k-point ** :  0.41670.50000.5000  plane waves:  33228
 k-point ** :  0.50000.50000.5000  plane waves:  33168

 maximum and minimum number of plane-waves per node :  33280 33131

 maximum number of plane-waves:  33280
 maximal index in each direction: 
   IXMAX= 19   IYMAX= 19   IZMAX= 19
   IXMIN=-20   IYMIN=-20   IZMIN=-20

 NGX is ok and might be reduce to  80
 NGY is ok and might be reduce to  80
 NGZ is ok and might be reduce to  80

 parallel 3dFFT wavefunction:
    minimum data exchange during FFTs selected (reduces bandwidth)
 parallel 3dFFT charge:
    minimum data exchange during FFTs selected (reduces bandwidth)

 For storing wavefunctions ******* MBYTES are necessary
 For predicting wavefunctions  240.34 MBYTES are necessary
Broyden mixing: mesh for mixing (old mesh)
   NGX = 39   NGY = 39   NGZ = 39
  (NGX  =160   NGY  =160   NGZ  =160)
 gives a total of  59319 points
 initial charge density was supplied:
 charge density of overlapping atoms calculated
 number of electron  352.0000000 magnetization 
 keeping initial charge density in first step


--------------------------------------------------------------------------------------------------------


 Maximum index for augmentation-charges        42871 (set IRDMAX)


--------------------------------------------------------------------------------------------------------


 First call to EWALD:  gamma=   0.198
 Maximum number of real-space cells 3x 3x 3
 Maximum number of reciprocal cells 3x 3x 3

    FEWALD:  VPU time    0.00: CPU time    0.00


----------------------------------------- Iteration    1(   1)  ---------------------------------------


    POTLOK:  VPU time    0.38: CPU time    0.38
    SETDIJ:  VPU time    0.51: CPU time    0.51
    EDDAV :  VPU time 1710.03: CPU time 1709.54
    DOS   :  VPU time    0.00: CPU time   -0.00
    ------------------------------------------
      LOOP:  VPU time 1711.05: CPU time 1710.55

 eigenvalue-minimisations  : 84680
 total energy-change (2. order) : 0.4361112E+04  (-0.2023691E+05)
 number of electron  352.0000000 magnetization 
 augmentation part   352.0000000 magnetization 

 Free energy of the ion-electron system (eV)
  ---------------------------------------------------
  alpha Z        PSCENC =      2693.12091881
  Ewald energy   TEWEN  =    -28626.66544490
  -1/2 Hartree   DENC   =     -5115.36199746
  -V(xc)+E(xc)   XCENC  =       465.93403376
  PAW double counting   =     23920.39735419   -23172.13309131
  entropy T*S    EENTRO =        -0.00051607
  eigenvalues    EBANDS =      4562.03063263
  atomic energy  EATOM  =     29633.78979189
  ---------------------------------------------------
  free energy    TOTEN  =      4361.11168156 eV

  energy without entropy =     4361.11219762  energy(sigma->0) =     4361.11193959


--------------------------------------------------------------------------------------------------------




----------------------------------------- Iteration    1(   2)  ---------------------------------------


    EDDAV :  VPU time 1709.08: CPU time 1708.55
    DOS   :  VPU time    0.00: CPU time   -0.00
    ------------------------------------------
      LOOP:  VPU time 1709.20: CPU time 1708.68

 eigenvalue-minimisations  : 84712
 total energy-change (2. order) :-0.4195402E+04  (-0.3995551E+04)
 number of electron  352.0000000 magnetization 
 augmentation part   352.0000000 magnetization 

 Free energy of the ion-electron system (eV)
  ---------------------------------------------------
  alpha Z        PSCENC =      2693.12091881
  Ewald energy   TEWEN  =    -28626.66544490
  -1/2 Hartree   DENC   =     -5115.36199746
  -V(xc)+E(xc)   XCENC  =       465.93403376
  PAW double counting   =     23920.39735419   -23172.13309131
  entropy T*S    EENTRO =        -0.00056689
  eigenvalues    EBANDS =       366.62853271
  atomic energy  EATOM  =     29633.78979189
  ---------------------------------------------------
  free energy    TOTEN  =       165.70953081 eV

  energy without entropy =      165.71009770  energy(sigma->0) =      165.70981426


--------------------------------------------------------------------------------------------------------




----------------------------------------- Iteration    1(   3)  ---------------------------------------


    EDDAV :  VPU time 1879.52: CPU time 1878.94
    DOS   :  VPU time    0.00: CPU time   -0.00
    ------------------------------------------
      LOOP:  VPU time 1879.65: CPU time 1879.06

 eigenvalue-minimisations  : 94776
 total energy-change (2. order) :-0.2592272E+03  (-0.2342012E+03)
 number of electron  352.0000000 magnetization 
 augmentation part   352.0000000 magnetization 

 Free energy of the ion-electron system (eV)
  ---------------------------------------------------
  alpha Z        PSCENC =      2693.12091881
  Ewald energy   TEWEN  =    -28626.66544490
  -1/2 Hartree   DENC   =     -5115.36199746
  -V(xc)+E(xc)   XCENC  =       465.93403376
  PAW double counting   =     23920.39735419   -23172.13309131
  entropy T*S    EENTRO =        -0.00068285
  eigenvalues    EBANDS =       107.40146649
  atomic energy  EATOM  =     29633.78979189
  ---------------------------------------------------
  free energy    TOTEN  =       -93.51765137 eV

  energy without entropy =      -93.51696853  energy(sigma->0) =      -93.51730995


--------------------------------------------------------------------------------------------------------




----------------------------------------- Iteration    1(   4)  ---------------------------------------


    EDDAV :  VPU time 1803.75: CPU time 1803.27
    DOS   :  VPU time    0.00: CPU time   -0.00
    ------------------------------------------
      LOOP:  VPU time 1803.87: CPU time 1803.39

 eigenvalue-minimisations  : 90368
 total energy-change (2. order) :-0.9791992E+01  (-0.9627623E+01)
 number of electron  352.0000000 magnetization 
 augmentation part   352.0000000 magnetization 

 Free energy of the ion-electron system (eV)
  ---------------------------------------------------
  alpha Z        PSCENC =      2693.12091881
  Ewald energy   TEWEN  =    -28626.66544490
  -1/2 Hartree   DENC   =     -5115.36199746
  -V(xc)+E(xc)   XCENC  =       465.93403376
  PAW double counting   =     23920.39735419   -23172.13309131
  entropy T*S    EENTRO =        -0.00084706
  eigenvalues    EBANDS =        97.60963912
  atomic energy  EATOM  =     29633.78979189
  ---------------------------------------------------
  free energy    TOTEN  =      -103.30964295 eV

  energy without entropy =     -103.30879589  energy(sigma->0) =     -103.30921942


--------------------------------------------------------------------------------------------------------




----------------------------------------- Iteration    1(   5)  ---------------------------------------


    EDDAV :  VPU time 1925.43: CPU time 1966.61
    DOS   :  VPU time    0.00: CPU time   -0.00
    CHARGE:  VPU time   78.97: CPU time   82.01
    MIXING:  VPU time    0.02: CPU time    0.02
    ------------------------------------------
      LOOP:  VPU time 2004.54: CPU time 2048.76

 eigenvalue-minimisations  : 91320
 total energy-change (2. order) :-0.1809587E+00  (-0.1804739E+00)
 number of electron  352.0000009 magnetization 
 augmentation part   125.4930357 magnetization 

 Broyden mixing:
  rms(total) = 0.14151E+01    rms(broyden)= 0.14151E+01
  rms(prec ) = 0.21576E+01
  weight for this iteration     100.00

 Free energy of the ion-electron system (eV)
  ---------------------------------------------------
  alpha Z        PSCENC =      2693.12091881
  Ewald energy   TEWEN  =    -28626.66544490
  -1/2 Hartree   DENC   =     -5115.36199746
  -V(xc)+E(xc)   XCENC  =       465.93403376
  PAW double counting   =     23920.39735419   -23172.13309131
  entropy T*S    EENTRO =        -0.00082759
  eigenvalues    EBANDS =        97.42866099
  atomic energy  EATOM  =     29633.78979189
  ---------------------------------------------------
  free energy    TOTEN  =      -103.49060161 eV

  energy without entropy =     -103.48977402  energy(sigma->0) =     -103.49018782


--------------------------------------------------------------------------------------------------------




----------------------------------------- Iteration    1(   6)  ---------------------------------------


    POTLOK:  VPU time    0.81: CPU time    0.81
    SETDIJ:  VPU time    0.87: CPU time    0.87
    EDDAV :  VPU time 2836.02: CPU time 2837.76
    DOS   :  VPU time    0.00: CPU time   -0.00
    CHARGE:  VPU time   81.24: CPU time   81.22
    MIXING:  VPU time    0.05: CPU time    0.05
    ------------------------------------------
      LOOP:  VPU time 2919.20: CPU time 2920.93

 eigenvalue-minimisations  : 89144
 total energy-change (2. order) : 0.6343885E+01  (-0.2056356E+01)
 number of electron  352.0000009 magnetization 
 augmentation part   129.9549699 magnetization 

 Broyden mixing:
  rms(total) = 0.33452E+00    rms(broyden)= 0.33452E+00
  rms(prec ) = 0.46138E+00
  weight for this iteration     100.00

 eigenvalues of (default mixing * dielectric matrix)
  average eigenvalue GAMMA=   1.1034
  1.1034

 Free energy of the ion-electron system (eV)
  ---------------------------------------------------
  alpha Z        PSCENC =      2693.12091881
  Ewald energy   TEWEN  =    -28626.66544490
  -1/2 Hartree   DENC   =     -4868.17447691
  -V(xc)+E(xc)   XCENC  =       454.90434581
  PAW double counting   =     23437.37024172   -22713.69148879
  entropy T*S    EENTRO =        -0.00054041
  eigenvalues    EBANDS =      -107.80006414
  atomic energy  EATOM  =     29633.78979189
  ---------------------------------------------------
  free energy    TOTEN  =       -97.14671690 eV

  energy without entropy =      -97.14617650  energy(sigma->0) =      -97.14644670


--------------------------------------------------------------------------------------------------------




----------------------------------------- Iteration    1(   7)  ---------------------------------------


    POTLOK:  VPU time    0.68: CPU time    0.68
    SETDIJ:  VPU time    0.80: CPU time    0.80
    EDDAV :  VPU time 2987.31: CPU time 3010.22
    DOS   :  VPU time    0.00: CPU time   -0.00
    CHARGE:  VPU time   77.97: CPU time   77.95
    MIXING:  VPU time    0.01: CPU time    0.01
    ------------------------------------------
      LOOP:  VPU time 3066.89: CPU time 3089.82

 eigenvalue-minimisations  : 92904
 total energy-change (2. order) : 0.1546821E+00  (-0.7619942E-01)
 number of electron  352.0000009 magnetization 
 augmentation part   130.6460730 magnetization 

 Broyden mixing:
  rms(total) = 0.18103E+00    rms(broyden)= 0.18103E+00
  rms(prec ) = 0.21329E+00
  weight for this iteration     100.00

 eigenvalues of (default mixing * dielectric matrix)
  average eigenvalue GAMMA=   1.8132
  1.1327  2.4938

 Free energy of the ion-electron system (eV)
  ---------------------------------------------------
  alpha Z        PSCENC =      2693.12091881
  Ewald energy   TEWEN  =    -28626.66544490
  -1/2 Hartree   DENC   =     -4818.66802313
  -V(xc)+E(xc)   XCENC  =       452.50620003
  PAW double counting   =     23375.72372424   -22664.39971450
  entropy T*S    EENTRO =        -0.00046931
  eigenvalues    EBANDS =      -142.39901791
  atomic energy  EATOM  =     29633.78979189
[...]
     72      -0.5762      2.00000
     73      -0.5759      2.00000
     74      -0.5759      2.00000
     75      -0.5759      2.00000
     76      -0.5758      2.00000
     77      -0.5754      2.00000
     78      -0.5753      2.00000
     79      -0.5750      2.00000
     80      -0.5750      2.00000
     81      -0.4427      2.00000
     82      -0.4427      2.00000
     83      -0.4421      2.00000
     84      -0.4415      2.00000
     85      -0.4403      2.00000
     86      -0.4398      2.00000
     87      -0.4398      2.00000
     88      -0.4398      2.00000
     89      -0.4397      2.00000
     90      -0.4397      2.00000
     91      -0.4397      2.00000
     92      -0.4397      2.00000
     93      -0.4396      2.00000
     94      -0.4396      2.00000
     95      -0.4396      2.00000
     96      -0.4396      2.00000
     97      -0.4395      2.00000
     98      -0.4395      2.00000
     99      -0.4395      2.00000
    100      -0.4390      2.00000
    101      -0.4378      2.00000
    102      -0.4372      2.00000
    103      -0.4365      2.00000
    104      -0.4365      2.00000
    105       0.0021      2.00000
    106       0.0031      2.00000
    107       0.0031      2.00000
    108       0.0047      2.00000
    109       0.0049      2.00000
    110       0.0050      2.00000
    111       0.0050      2.00000
    112       0.0051      2.00000
    113       0.0052      2.00000
    114       0.0053      2.00000
    115       0.0053      2.00000
    116       0.0053      2.00000
    117       0.0054      2.00000
    118       0.0054      2.00000
    119       0.0054      2.00000
    120       0.0054      2.00000
    121       0.0055      2.00000
    122       0.0057      2.00000
    123       0.0057      2.00000
    124       0.0058      2.00000
    125       0.0059      2.00000
    126       0.0075      2.00000
    127       0.0075      2.00000
    128       0.0085      2.00000
    129       0.2985      2.00000
    130       0.2996      2.00000
    131       0.2996      2.00000
    132       0.2996      2.00000
    133       0.3004      2.00000
    134       0.3004      2.00000
    135       0.3006      2.00000
    136       0.3006      2.00000
    137       0.3007      2.00000
    138       0.3008      2.00000
    139       0.3010      2.00000
    140       0.3010      2.00000
    141       0.3018      2.00000
    142       0.3018      2.00000
    143       0.3018      2.00000
    144       0.3029      2.00000
    145       0.9792      2.00000
    146       0.9792      2.00000
    147       0.9794      2.00000
    148       0.9795      2.00000
    149       0.9796      2.00000
    150       0.9796      2.00000
    151       0.9796      2.00000
    152       0.9796      2.00000
    153       0.9797      2.00000
    154       0.9798      2.00000
    155       0.9798      2.00000
    156       0.9798      2.00000
    157       0.9799      2.00000
    158       0.9800      2.00000
    159       0.9800      2.00000
    160       0.9800      2.00000
    161       0.9801      2.00000
    162       0.9801      2.00000
    163       0.9801      2.00000
    164       0.9801      2.00000
    165       0.9802      2.00000
    166       0.9803      2.00000
    167       0.9805      2.00000
    168       0.9805      2.00000
    169       3.5044      0.00000
    170       3.5082      0.00000
    171       3.5082      0.00000
    172       3.5096      0.00000
    173       3.5099      0.00000
    174       3.5101      0.00000
    175       3.5101      0.00000
    176       3.5102      0.00000
    177       3.5102      0.00000
    178       3.5102      0.00000
    179       3.5102      0.00000
    180       3.5103      0.00000
    181       3.5104      0.00000
    182       3.5104      0.00000
    183       3.5105      0.00000
    184       3.5105      0.00000
    185       3.5105      0.00000
    186       3.5105      0.00000
    187       3.5105      0.00000
    188       3.5107      0.00000
    189       3.5111      0.00000
    190       3.5125      0.00000
    191       3.5125      0.00000
    192       3.5163      0.00000
    193       7.4213      0.00000
    194       7.4213      0.00000
    195       7.4226      0.00000
    196       7.4241      0.00000
    197       7.4245      0.00000
    198       7.4249      0.00000
    199       7.4249      0.00000
    200       7.4252      0.00000
    201       7.4253      0.00000
    202       7.4253      0.00000
    203       7.4253      0.00000
    204       7.4254      0.00000
    205       7.4254      0.00000
    206       7.4254      0.00000
    207       7.4255      0.00000
    208       7.4255      0.00000
    209       7.4256      0.00000
    210       7.4259      0.00000
    211       7.4259      0.00000
    212       7.4262      0.00000
    213       7.4267      0.00000
    214       7.4282      0.00000
    215       7.4295      0.00000
    216       7.4295      0.00000


--------------------------------------------------------------------------------------------------------


 soft charge-density along one line, spin component           1
         0         1         2         3         4         5         6         7         8         9
 total charge-density along one line
 
 pseudopotential strength for first ion, spin component:           1
-10.741  -0.000   0.000  -0.000  -0.000   0.031   0.000  -0.000
 -0.000 -10.741   0.000  -0.000   0.000   0.000   0.031  -0.000
  0.000   0.000 -10.731   0.000  -0.000  -0.000  -0.000   0.030
 -0.000  -0.000   0.000 -10.741  -0.000   0.000   0.000  -0.000
 -0.000   0.000  -0.000  -0.000 -10.731   0.000  -0.000   0.000
  0.031   0.000  -0.000   0.000   0.000   0.266  -0.000   0.000
  0.000   0.031  -0.000   0.000  -0.000  -0.000   0.266   0.000
 -0.000  -0.000   0.030  -0.000   0.000   0.000   0.000   0.266
  0.000   0.000  -0.000   0.031   0.000  -0.000  -0.000   0.000
  0.000  -0.000   0.000   0.000   0.030  -0.000   0.000  -0.000
  0.000   0.000   0.000   0.000  -0.000   0.000   0.000  -0.000
 -0.000  -0.000  -0.000  -0.000   0.000   0.000   0.000   0.000
 -0.000  -0.000   0.000  -0.000  -0.000   0.000   0.000  -0.000
 -0.000  -0.000   0.000  -0.000  -0.000   0.000   0.000   0.000
 -0.000  -0.000   0.000  -0.000  -0.000   0.000   0.000  -0.000
  0.000   0.000  -0.000   0.000   0.000  -0.000  -0.000   0.000
  0.000  -0.000  -0.000   0.000   0.000  -0.000  -0.000   0.000
  0.000   0.000  -0.000   0.000   0.000  -0.000  -0.000   0.000
 total augmentation occupancy for first ion, spin component:           1
  1.913   0.000  -0.002  -0.000  -0.001  -0.076   0.000  -0.000   0.000   0.000   0.004  -0.000   0.000   0.000  -0.000  -0.000
  0.000   1.918  -0.001  -0.001  -0.002   0.000  -0.081   0.002   0.001   0.000   0.003  -0.000   0.000   0.000  -0.000  -0.000
 -0.002  -0.001   1.963  -0.000  -0.003  -0.000   0.002  -0.111   0.001   0.002   0.012   0.002   0.000  -0.000   0.000  -0.000
 -0.000  -0.001  -0.000   1.924   0.001   0.000   0.001   0.001  -0.085   0.000   0.002  -0.001   0.000   0.000  -0.000  -0.000
 -0.001  -0.002  -0.003   0.001   1.952   0.000   0.000   0.002   0.000  -0.104   0.007   0.001   0.000   0.000  -0.000  -0.000
 -0.076   0.000  -0.000   0.000   0.000   0.093  -0.000   0.001  -0.000  -0.000  -0.000   0.001   0.001  -0.000   0.000  -0.000
  0.000  -0.081   0.002   0.001   0.000  -0.000   0.096  -0.002  -0.000   0.001   0.000   0.001  -0.000  -0.000   0.000   0.000
 -0.000   0.002  -0.111   0.001   0.002   0.001  -0.002   0.076  -0.001  -0.001  -0.007  -0.001   0.000   0.000  -0.000   0.000
  0.000   0.001   0.001  -0.085   0.000  -0.000  -0.000  -0.001   0.099  -0.002   0.001   0.002  -0.000   0.001   0.000   0.000
  0.000   0.000   0.002   0.000  -0.104  -0.000   0.001  -0.001  -0.002   0.073  -0.004  -0.000  -0.000  -0.000   0.000   0.000
  0.004   0.003   0.012   0.002   0.007  -0.000   0.000  -0.007   0.001  -0.004   0.972  -0.242   0.000  -0.000   0.002  -0.000
 -0.000  -0.000   0.002  -0.001   0.001   0.001   0.001  -0.001   0.002  -0.000  -0.242   0.125   0.000   0.000  -0.001  -0.000
  0.000   0.000   0.000   0.000   0.000   0.001  -0.000   0.000  -0.000  -0.000   0.000   0.000   0.087   0.001   0.002  -0.006
  0.000   0.000  -0.000   0.000   0.000  -0.000  -0.000   0.000   0.001  -0.000  -0.000   0.000   0.001   0.088  -0.000  -0.000
 -0.000  -0.000   0.000  -0.000  -0.000   0.000   0.000  -0.000   0.000   0.000   0.002  -0.001   0.002  -0.000   0.087  -0.000
 -0.000  -0.000  -0.000  -0.000  -0.000  -0.000   0.000   0.000   0.000   0.000  -0.000  -0.000  -0.006  -0.000  -0.000   0.000
 -0.000  -0.000   0.000  -0.000   0.000   0.000   0.000  -0.000  -0.000   0.000   0.000   0.000  -0.000  -0.006  -0.000   0.000
  0.000   0.000   0.000   0.000  -0.000  -0.000  -0.000   0.000  -0.000  -0.000  -0.000   0.000  -0.000  -0.000  -0.006   0.000


------------------------ aborting loop because EDIFF is reached ----------------------------------------




--------------------------------------------------------------------------------------------------------


    CHARGE:  VPU time  126.13: CPU time  126.10
    FORLOC:  VPU time    0.07: CPU time    0.07
    FORNL :  VPU time  624.65: CPU time  624.39
    STRESS:  VPU time 2802.72: CPU time 2802.12
    FORCOR:  VPU time    0.44: CPU time    0.44
    FORHAR:  VPU time    0.14: CPU time    0.14
    MIXING:  VPU time    0.01: CPU time    0.01


--------------------------------------------------------------------------------------------------------



  FREE ENERGIE OF THE ION-ELECTRON SYSTEM (eV)
  ---------------------------------------------------
  free  energy   TOTEN  =       -96.961886 eV

  energy  without entropy=      -96.961437  energy(sigma->0) =      -96.961661
 

  FORCE on cell =-STRESS in cart. coord.  units (eV/reduce length):
  Direction    X        Y        Z        XY       YZ       ZX
  --------------------------------------------------------------------------------------
  Alpha Z   2693.12   2693.12   2693.12
  Ewald    -9542.28  -9542.25  -9542.25      0.00      0.00      0.00
  Hartree   1597.91   1597.93   1597.93     -0.00     -0.00     -0.00
  E(xc)    -1571.01  -1571.01  -1571.01     -0.00      0.00      0.00
  Local     2214.32   2214.27   2214.27     -0.00     -0.00      0.00
  n-local  -1714.88  -1720.96  -1708.81      2.92      2.03      1.14
  augment   1377.18   1377.18   1377.18     -0.00     -0.00     -0.00
  Kinetic   4879.51   4873.72   4885.29      0.51     -0.36     -1.23
  -------------------------------------------------------------------------------------
  Total      -66.14    -66.14    -66.14      0.00      0.00      0.00
  in kB     -148.81   -148.81   -148.81      0.00      0.00      0.00
  external pressure =     -148.81 kB  Pullay stress =        0.00 kB


 VOLUME and BASIS-vectors are now :
 -----------------------------------------------------------------------------
  energy-cutoff  :      750.00
  volume of cell :      712.10
      direct lattice vectors                 reciprocal lattice vectors
     8.929903071  0.000000000  0.000000000     0.111983298  0.000000000  0.000000000
     0.000000000  8.929903071  0.000000000     0.000000000  0.111983298  0.000000000
     0.000000000  0.000000000  8.929903071     0.000000000  0.000000000  0.111983298

  length of vectors
     8.929903071  8.929903071  8.929903071     0.111983298  0.111983298  0.111983298


 FORCES acting on ions
    electron-ion (+dipol)            ewald-force                    non-local-force                 convergence-correction
 -----------------------------------------------------------------------------------------------
   0.321E+01 0.454E-13 0.206E-07   -.318E+01 -.355E-13 0.178E-13   -.356E-01 0.174E-19 0.104E-19   -.474E-04 0.989E-13 -.127E-12
   -.830E+00 0.975E-13 -.207E-07   0.839E+00 -.711E-13 0.000E+00   -.537E-02 0.335E-20 -.705E-21   -.197E-04 0.748E-13 -.208E-12
   0.265E+00 -.490E-13 0.242E-11   -.266E+00 -.497E-13 -.391E-13   0.212E-03 -.118E-20 0.729E-21   -.391E-05 -.205E-12 -.733E-13
   -.213E+00 0.109E-11 0.233E-11   0.209E+00 -.568E-13 -.426E-13   0.282E-02 -.572E-20 -.406E-20   -.188E-05 -.173E-12 -.102E-12
   0.265E+00 0.454E-13 0.169E-10   -.266E+00 -.639E-13 -.107E-13   0.212E-03 -.457E-20 0.167E-21   -.358E-05 0.102E-12 0.137E-13
   -.213E+00 0.431E-13 0.180E-10   0.209E+00 -.568E-13 -.284E-13   0.282E-02 0.957E-20 -.120E-20   -.196E-05 0.768E-13 0.848E-13
   0.111E+00 -.485E-13 0.207E-11   -.110E+00 -.213E-13 0.391E-13   -.934E-03 -.205E-20 -.153E-20   -.444E-05 -.208E-12 -.518E-13
   -.102E+00 -.511E-11 0.349E-11   0.102E+00 -.568E-13 0.426E-13   -.269E-03 0.328E-23 0.171E-21   -.177E-05 -.176E-12 -.260E-13
   -.406E+00 -.775E+00 0.907E-12   0.403E+00 0.774E+00 -.142E-13   0.370E-02 0.225E-02 0.598E-20   0.116E-04 0.219E-05 -.170E-12
   -.408E+00 0.769E+00 -.591E-11   0.405E+00 -.768E+00 -.142E-13   0.361E-02 -.218E-02 -.130E-20   0.119E-04 -.505E-05 -.111E-12
   -.406E+00 0.775E+00 0.791E-12   0.403E+00 -.774E+00 0.000E+00   0.370E-02 -.225E-02 -.145E-20   0.116E-04 -.219E-05 -.130E-12
   -.408E+00 -.769E+00 0.678E-11   0.405E+00 0.768E+00 -.284E-13   0.361E-02 0.218E-02 -.836E-20   0.119E-04 0.505E-05 -.865E-13
   -.119E-01 -.638E-01 0.265E-11   0.123E-01 0.636E-01 0.142E-13   -.177E-03 0.128E-03 -.405E-21   0.177E-06 -.115E-05 0.456E-13
   -.131E-01 0.637E-01 0.351E-11   0.135E-01 -.636E-01 0.142E-13   -.175E-03 -.133E-03 0.564E-23   0.340E-05 -.386E-06 0.488E-15
   -.119E-01 0.638E-01 0.277E-11   0.123E-01 -.636E-01 0.000E+00   -.177E-03 -.128E-03 0.331E-20   0.177E-06 0.115E-05 0.264E-14
   -.131E-01 -.637E-01 -.925E-11   0.135E-01 0.636E-01 0.284E-13   -.175E-03 0.133E-03 0.504E-21   0.340E-05 0.386E-06 -.216E-13
   -.406E+00 0.410E-13 -.775E+00   0.403E+00 -.142E-13 0.774E+00   0.370E-02 0.346E-20 0.225E-02   0.116E-04 0.677E-13 0.225E-05
   -.408E+00 0.454E-13 0.769E+00   0.405E+00 0.142E-13 -.768E+00   0.361E-02 0.819E-20 -.218E-02   0.118E-04 0.827E-13 -.511E-05
   -.119E-01 0.666E-12 -.638E-01   0.123E-01 0.142E-13 0.636E-01   -.177E-03 -.128E-20 0.128E-03   0.196E-06 -.154E-12 -.109E-05
   -.131E-01 0.769E-11 0.637E-01   0.135E-01 0.142E-13 -.636E-01   -.175E-03 -.142E-20 -.133E-03   0.342E-05 -.190E-12 -.447E-06
   -.406E+00 0.641E-13 0.775E+00   0.403E+00 0.284E-13 -.774E+00   0.370E-02 -.259E-20 -.225E-02   0.116E-04 0.109E-12 -.225E-05
   -.408E+00 0.542E-13 -.769E+00   0.405E+00 0.284E-13 0.768E+00   0.361E-02 -.316E-20 0.218E-02   0.118E-04 0.107E-12 0.511E-05
   -.119E-01 0.844E-12 0.638E-01   0.123E-01 0.284E-13 -.636E-01   -.177E-03 -.147E-21 -.128E-03   0.196E-06 -.195E-12 0.109E-05
   -.131E-01 -.532E-11 -.637E-01   0.135E-01 0.284E-13 0.636E-01   -.175E-03 -.129E-21 0.133E-03   0.342E-05 -.213E-12 0.447E-06
   0.497E+00 0.177E-02 0.177E-02   -.501E+00 -.176E-02 -.176E-02   0.215E-02 -.158E-05 -.158E-05   -.575E-06 -.458E-06 -.459E-06
   -.281E+00 -.513E-03 -.513E-03   0.282E+00 0.528E-03 0.528E-03   -.675E-04 -.997E-05 -.997E-05   -.525E-05 -.182E-05 -.182E-05
   0.497E+00 -.177E-02 0.177E-02   -.501E+00 0.176E-02 -.176E-02   0.215E-02 0.158E-05 -.158E-05   -.575E-06 0.458E-06 -.459E-06
   -.281E+00 0.513E-03 -.513E-03   0.282E+00 -.528E-03 0.528E-03   -.675E-04 0.997E-05 -.997E-05   -.525E-05 0.182E-05 -.182E-05
   0.497E+00 0.177E-02 -.177E-02   -.501E+00 -.176E-02 0.176E-02   0.215E-02 -.158E-05 0.158E-05   -.575E-06 -.458E-06 0.459E-06
   -.281E+00 -.513E-03 0.513E-03   0.282E+00 0.528E-03 -.528E-03   -.675E-04 -.997E-05 0.997E-05   -.525E-05 -.182E-05 0.182E-05
   0.497E+00 -.177E-02 -.177E-02   -.501E+00 0.176E-02 0.176E-02   0.215E-02 0.158E-05 0.158E-05   -.575E-06 0.458E-06 0.459E-06
   -.281E+00 0.513E-03 0.513E-03   0.282E+00 -.528E-03 -.528E-03   -.675E-04 0.997E-05 0.997E-05   -.525E-05 0.182E-05 0.182E-05
 -----------------------------------------------------------------------------------------------
   -.127E-05 0.332E-11 -.118E-09   -.233E-13 -.106E-12 -.259E-13   -.381E-05 0.559E-19 -.142E-18   0.373E-06 -.197E-12 -.458E-12
 
 
 POSITION                                       TOTAL-FORCE (eV/Angst)
 -----------------------------------------------------------------------------------
      0.01000      0.00000      0.00000        -0.003802      0.000000     -0.000000
      4.46495      0.00000      0.00000         0.003178     -0.000000      0.000000
      0.00000      4.46495      0.00000        -0.000405      0.000000     -0.000000
      4.46495      4.46495      0.00000        -0.001625      0.000000     -0.000000
      0.00000      0.00000      4.46495        -0.000405     -0.000000     -0.000000
      4.46495      0.00000      4.46495        -0.001625     -0.000000      0.000000
      0.00000      4.46495      4.46495         0.000275     -0.000000      0.000000
      4.46495      4.46495      4.46495        -0.000089      0.000000      0.000000
      2.23248      2.23248      0.00000         0.000784      0.001420      0.000000
      6.69743      2.23248      0.00000         0.000686     -0.001292     -0.000000
      2.23248      6.69743      0.00000         0.000784     -0.001420      0.000000
      6.69743      6.69743      0.00000         0.000686      0.001292      0.000000
      2.23248      2.23248      4.46495         0.000207     -0.000005      0.000000
      6.69743      2.23248      4.46495         0.000206      0.000008      0.000000
      2.23248      6.69743      4.46495         0.000207      0.000005     -0.000000
      6.69743      6.69743      4.46495         0.000206     -0.000008     -0.000000
      2.23248      0.00000      2.23248         0.000784     -0.000000      0.001420
      6.69743      0.00000      2.23248         0.000686     -0.000000     -0.001292
      2.23248      4.46495      2.23248         0.000207     -0.000000     -0.000005
      6.69743      4.46495      2.23248         0.000206     -0.000000      0.000008
      2.23248      0.00000      6.69743         0.000784     -0.000000     -0.001420
      6.69743      0.00000      6.69743         0.000686     -0.000000      0.001292
      2.23248      4.46495      6.69743         0.000207     -0.000000      0.000005
      6.69743      4.46495      6.69743         0.000206     -0.000000     -0.000008
      0.00000      2.23248      2.23248        -0.001390      0.000007      0.000007
      4.46495      2.23248      2.23248         0.000632      0.000004      0.000004
      0.00000      6.69743      2.23248        -0.001390     -0.000007      0.000007
      4.46495      6.69743      2.23248         0.000632     -0.000004      0.000004
      0.00000      2.23248      6.69743        -0.001390      0.000007     -0.000007
      4.46495      2.23248      6.69743         0.000632      0.000004     -0.000004
      0.00000      6.69743      6.69743        -0.001390     -0.000007     -0.000007
      4.46495      6.69743      6.69743         0.000632     -0.000004     -0.000004
 -----------------------------------------------------------------------------------
    total drift:                               -0.000005      0.000000     -0.000000


--------------------------------------------------------------------------------------------------------



 mean value of Nose-termostat <S>:     1.000 mean value of <T> :     0.000
 mean temperature <T/S>/<1/S>  :     0.000

     LOOP+:  VPU time42266.06: CPU time42474.85
  
  
 General timing and accounting informations for this job:
 ========================================================
  
                  Total CPU time used (sec):    42598.806
                            User time (sec):    36961.906
                          System time (sec):     5636.900
                         Elapsed time (sec):    42807.490
  
                   Maximum memory used (kb):     9389612.
                   Average memory used (kb):           0.
  
                          Minor page faults:      1509267
                          Major page faults:            1
                 Voluntary context switches:         1045
