  32  32   0   0
  0.1455556E+02  0.7751628E-09  0.7751628E-09  0.7751628E-09  0.5000000E-15
  1.000000000000000E-004
  CAR 
 unknown system                          
     14.15256338     -3.45767702  301      9.38572183      1.00000000
     -3.458  0.0000E+00  0.0000E+00
     -3.399  0.0000E+00  0.0000E+00
     -3.340  0.0000E+00  0.0000E+00
     -3.282  0.0000E+00  0.0000E+00
     -3.223  0.0000E+00  0.0000E+00
     -3.164  0.0000E+00  0.0000E+00
     -3.105  0.0000E+00  0.0000E+00
     -3.047  0.0000E+00  0.0000E+00
     -2.988  0.0000E+00  0.0000E+00
     -2.929  0.0000E+00  0.0000E+00
     -2.871  0.0000E+00  0.0000E+00
     -2.812  0.0000E+00  0.0000E+00
     -2.753  0.0000E+00  0.0000E+00
     -2.695  0.1254E-08  0.7362E-10
     -2.636  0.1140E+00  0.6689E-02
     -2.577  0.6366E+00  0.4406E-01
     -2.518  0.1002E+01  0.1029E+00
     -2.460  0.1600E+01  0.1968E+00
     -2.401  0.1590E+01  0.2901E+00
     -2.342  0.1720E+01  0.3911E+00
     -2.284  0.2122E+01  0.5156E+00
     -2.225  0.1316E+01  0.5929E+00
     -2.166  0.2519E+01  0.7408E+00
     -2.108  0.2146E+01  0.8667E+00
     -2.049  0.2956E+01  0.1040E+01
     -1.990  0.2413E+01  0.1182E+01
     -1.931  0.3301E+01  0.1376E+01
     -1.873  0.2861E+01  0.1544E+01
     -1.814  0.1726E+01  0.1645E+01
     -1.755  0.3665E+01  0.1860E+01
     -1.697  0.3535E+01  0.2068E+01
     -1.638  0.2908E+01  0.2238E+01
     -1.579  0.3340E+01  0.2434E+01
     -1.521  0.3987E+01  0.2668E+01
     -1.462  0.3907E+01  0.2898E+01
     -1.403  0.2470E+01  0.3043E+01
     -1.344  0.4689E+01  0.3318E+01
     -1.286  0.2409E+01  0.3459E+01
     -1.227  0.4585E+01  0.3729E+01
     -1.168  0.3744E+01  0.3948E+01
     -1.110  0.6124E+01  0.4308E+01
     -1.051  0.3077E+01  0.4488E+01
     -0.992  0.2746E+01  0.4650E+01
     -0.934  0.6059E+01  0.5005E+01
     -0.875  0.3557E+01  0.5214E+01
     -0.816  0.4491E+01  0.5478E+01
     -0.757  0.4198E+01  0.5724E+01
     -0.699  0.4730E+01  0.6002E+01
     -0.640  0.5182E+01  0.6306E+01
     -0.581  0.4591E+01  0.6576E+01
     -0.523  0.5250E+01  0.6884E+01
     -0.464  0.4350E+01  0.7139E+01
     -0.405  0.5033E+01  0.7435E+01
     -0.347  0.4804E+01  0.7717E+01
     -0.288  0.5591E+01  0.8045E+01
     -0.229  0.3451E+01  0.8247E+01
     -0.170  0.6633E+01  0.8637E+01
     -0.112  0.6461E+01  0.9016E+01
     -0.053  0.5431E+01  0.9335E+01
      0.006  0.4378E+01  0.9592E+01
      0.064  0.4113E+01  0.9833E+01
      0.123  0.6485E+01  0.1021E+02
      0.182  0.4801E+01  0.1050E+02
      0.240  0.6983E+01  0.1091E+02
      0.299  0.6850E+01  0.1131E+02
      0.358  0.3440E+01  0.1151E+02
      0.417  0.7560E+01  0.1195E+02
      0.475  0.6144E+01  0.1231E+02
      0.534  0.5910E+01  0.1266E+02
      0.593  0.2845E+01  0.1283E+02
      0.651  0.8119E+01  0.1330E+02
      0.710  0.5451E+01  0.1362E+02
      0.769  0.6866E+01  0.1403E+02
      0.827  0.7935E+01  0.1449E+02
      0.886  0.6848E+01  0.1490E+02
      0.945  0.5607E+01  0.1522E+02
      1.004  0.4509E+01  0.1549E+02
      1.062  0.6042E+01  0.1584E+02
      1.121  0.6177E+01  0.1621E+02
      1.180  0.7544E+01  0.1665E+02
      1.238  0.7675E+01  0.1710E+02
      1.297  0.8063E+01  0.1757E+02
      1.356  0.6397E+01  0.1795E+02
      1.414  0.4723E+01  0.1823E+02
      1.473  0.8183E+01  0.1871E+02
      1.532  0.6382E+01  0.1908E+02
      1.591  0.7120E+01  0.1950E+02
      1.649  0.4817E+01  0.1978E+02
      1.708  0.8166E+01  0.2026E+02
      1.767  0.6956E+01  0.2067E+02
      1.825  0.8746E+01  0.2118E+02
      1.884  0.9642E+01  0.2175E+02
      1.943  0.5127E+01  0.2205E+02
      2.001  0.7440E+01  0.2249E+02
      2.060  0.7236E+01  0.2291E+02
      2.119  0.5802E+01  0.2325E+02
      2.178  0.5837E+01  0.2359E+02
      2.236  0.9093E+01  0.2413E+02
      2.295  0.8448E+01  0.2462E+02
      2.354  0.9832E+01  0.2520E+02
      2.412  0.6737E+01  0.2560E+02
      2.471  0.8500E+01  0.2610E+02
      2.530  0.7650E+01  0.2655E+02
      2.589  0.4862E+01  0.2683E+02
      2.647  0.9587E+01  0.2739E+02
      2.706  0.5581E+01  0.2772E+02
      2.765  0.8997E+01  0.2825E+02
      2.823  0.9191E+01  0.2879E+02
      2.882  0.9478E+01  0.2934E+02
      2.941  0.6407E+01  0.2972E+02
      2.999  0.7333E+01  0.3015E+02
      3.058  0.1308E+02  0.3092E+02
      3.117  0.6245E+01  0.3129E+02
      3.176  0.7844E+01  0.3175E+02
      3.234  0.7303E+01  0.3218E+02
      3.293  0.9781E+01  0.3275E+02
      3.352  0.5307E+01  0.3306E+02
      3.410  0.9533E+01  0.3362E+02
      3.469  0.7471E+01  0.3406E+02
      3.528  0.1195E+02  0.3476E+02
      3.586  0.1025E+02  0.3536E+02
      3.645  0.9748E+01  0.3593E+02
      3.704  0.7460E+01  0.3637E+02
      3.763  0.5946E+01  0.3672E+02
      3.821  0.1155E+02  0.3740E+02
      3.880  0.7159E+01  0.3782E+02
      3.939  0.8981E+01  0.3835E+02
      3.997  0.7358E+01  0.3878E+02
      4.056  0.1132E+02  0.3944E+02
      4.115  0.9080E+01  0.3998E+02
      4.173  0.1060E+02  0.4060E+02
      4.232  0.9946E+01  0.4118E+02
      4.291  0.9650E+01  0.4175E+02
      4.350  0.6775E+01  0.4215E+02
      4.408  0.1536E+02  0.4305E+02
      4.467  0.7850E+01  0.4351E+02
      4.526  0.7253E+01  0.4394E+02
      4.584  0.1124E+02  0.4460E+02
      4.643  0.8658E+01  0.4510E+02
      4.702  0.7336E+01  0.4553E+02
      4.760  0.8117E+01  0.4601E+02
      4.819  0.1195E+02  0.4671E+02
      4.878  0.8679E+01  0.4722E+02
      4.937  0.1118E+02  0.4788E+02
      4.995  0.7367E+01  0.4831E+02
      5.054  0.1139E+02  0.4898E+02
      5.113  0.9374E+01  0.4953E+02
      5.171  0.1010E+02  0.5012E+02
      5.230  0.7027E+01  0.5054E+02
      5.289  0.8681E+01  0.5105E+02
      5.347  0.1223E+02  0.5176E+02
      5.406  0.9990E+01  0.5235E+02
      5.465  0.1173E+02  0.5304E+02
      5.524  0.1049E+02  0.5365E+02
      5.582  0.1056E+02  0.5427E+02
      5.641  0.8232E+01  0.5476E+02
      5.700  0.1016E+02  0.5535E+02
      5.758  0.7648E+01  0.5580E+02
      5.817  0.1247E+02  0.5654E+02
      5.876  0.1018E+02  0.5713E+02
      5.934  0.1447E+02  0.5798E+02
      5.993  0.8374E+01  0.5847E+02
      6.052  0.1232E+02  0.5920E+02
      6.111  0.1164E+02  0.5988E+02
      6.169  0.8033E+01  0.6035E+02
      6.228  0.1215E+02  0.6106E+02
      6.287  0.1189E+02  0.6176E+02
      6.345  0.1115E+02  0.6242E+02
      6.404  0.1577E+02  0.6334E+02
      6.463  0.8561E+01  0.6385E+02
      6.521  0.9483E+01  0.6440E+02
      6.580  0.1097E+02  0.6505E+02
      6.639  0.1127E+02  0.6571E+02
      6.698  0.1218E+02  0.6642E+02
      6.756  0.1010E+02  0.6702E+02
      6.815  0.1233E+02  0.6774E+02
      6.874  0.9799E+01  0.6831E+02
      6.932  0.1409E+02  0.6914E+02
      6.991  0.8620E+01  0.6965E+02
      7.050  0.8168E+01  0.7013E+02
      7.108  0.9478E+01  0.7068E+02
      7.167  0.1546E+02  0.7159E+02
      7.226  0.9314E+01  0.7214E+02
      7.285  0.1000E+02  0.7273E+02
      7.343  0.9819E+01  0.7330E+02
      7.402  0.9175E+01  0.7384E+02
      7.461  0.1033E+02  0.7445E+02
      7.519  0.1084E+02  0.7508E+02
      7.578  0.1155E+02  0.7576E+02
      7.637  0.9006E+01  0.7629E+02
      7.695  0.1058E+02  0.7691E+02
      7.754  0.1438E+02  0.7775E+02
      7.813  0.7131E+01  0.7817E+02
      7.872  0.1049E+02  0.7879E+02
      7.930  0.1251E+02  0.7952E+02
      7.989  0.8620E+01  0.8003E+02
      8.048  0.1467E+02  0.8089E+02
      8.106  0.7347E+01  0.8132E+02
      8.165  0.1469E+02  0.8218E+02
      8.224  0.1449E+02  0.8304E+02
      8.282  0.1026E+02  0.8364E+02
      8.341  0.1322E+02  0.8441E+02
      8.400  0.1039E+02  0.8502E+02
      8.459  0.1029E+02  0.8563E+02
      8.517  0.1597E+02  0.8657E+02
      8.576  0.1138E+02  0.8723E+02
      8.635  0.1150E+02  0.8791E+02
      8.693  0.1201E+02  0.8861E+02
      8.752  0.7470E+01  0.8905E+02
      8.811  0.1525E+02  0.8995E+02
      8.869  0.1000E+02  0.9053E+02
      8.928  0.8329E+01  0.9102E+02
      8.987  0.1200E+02  0.9173E+02
      9.046  0.1108E+02  0.9238E+02
      9.104  0.1055E+02  0.9300E+02
      9.163  0.1091E+02  0.9364E+02
      9.222  0.9865E+01  0.9422E+02
      9.280  0.1190E+02  0.9492E+02
      9.339  0.9028E+01  0.9545E+02
      9.398  0.1133E+02  0.9611E+02
      9.456  0.9022E+01  0.9664E+02
      9.515  0.1208E+02  0.9735E+02
      9.574  0.1420E+02  0.9818E+02
      9.633  0.1673E+02  0.9917E+02
      9.691  0.1429E+02  0.1000E+03
      9.750  0.8591E+01  0.1005E+03
      9.809  0.1116E+02  0.1012E+03
      9.867  0.9464E+01  0.1017E+03
      9.926  0.1734E+02  0.1027E+03
      9.985  0.1397E+02  0.1036E+03
     10.044  0.1487E+02  0.1044E+03
     10.102  0.1092E+02  0.1051E+03
     10.161  0.1518E+02  0.1060E+03
     10.220  0.9462E+01  0.1065E+03
     10.278  0.8567E+01  0.1070E+03
     10.337  0.9991E+01  0.1076E+03
     10.396  0.1083E+02  0.1082E+03
     10.454  0.1155E+02  0.1089E+03
     10.513  0.1884E+02  0.1100E+03
     10.572  0.1525E+02  0.1109E+03
     10.631  0.1687E+02  0.1119E+03
     10.689  0.1317E+02  0.1127E+03
     10.748  0.1306E+02  0.1135E+03
     10.807  0.7793E+01  0.1139E+03
     10.865  0.1021E+02  0.1145E+03
     10.924  0.1198E+02  0.1152E+03
     10.983  0.8789E+01  0.1157E+03
     11.041  0.1240E+02  0.1165E+03
     11.100  0.1028E+02  0.1171E+03
     11.159  0.1587E+02  0.1180E+03
     11.218  0.1784E+02  0.1190E+03
     11.276  0.8835E+01  0.1196E+03
     11.335  0.1039E+02  0.1202E+03
     11.394  0.1450E+02  0.1210E+03
     11.452  0.1719E+02  0.1220E+03
     11.511  0.1119E+02  0.1227E+03
     11.570  0.1167E+02  0.1234E+03
     11.628  0.1081E+02  0.1240E+03
     11.687  0.1562E+02  0.1249E+03
     11.746  0.9802E+01  0.1255E+03
     11.805  0.1355E+02  0.1263E+03
     11.863  0.6352E+01  0.1267E+03
     11.922  0.1926E+02  0.1278E+03
     11.981  0.9173E+01  0.1283E+03
     12.039  0.1417E+02  0.1292E+03
     12.098  0.6274E+01  0.1295E+03
     12.157  0.1505E+02  0.1304E+03
     12.215  0.1502E+02  0.1313E+03
     12.274  0.1510E+02  0.1322E+03
     12.333  0.7154E+01  0.1326E+03
     12.392  0.9183E+01  0.1331E+03
     12.450  0.7034E+01  0.1336E+03
     12.509  0.9695E+01  0.1341E+03
     12.568  0.7637E+01  0.1346E+03
     12.626  0.6422E+01  0.1350E+03
     12.685  0.5164E+01  0.1353E+03
     12.744  0.3709E+01  0.1355E+03
     12.802  0.2914E+01  0.1356E+03
     12.861  0.8579E+00  0.1357E+03
     12.920  0.1996E+01  0.1358E+03
     12.979  0.4571E+00  0.1358E+03
     13.037  0.1272E+01  0.1359E+03
     13.096  0.7958E+00  0.1360E+03
     13.155  0.3577E-02  0.1360E+03
     13.213  0.4730E+00  0.1360E+03
     13.272  0.1182E+00  0.1360E+03
     13.331  0.1831E-03  0.1360E+03
     13.389  0.7869E-01  0.1360E+03
     13.448  0.0000E+00  0.1360E+03
     13.507  0.0000E+00  0.1360E+03
     13.566  0.0000E+00  0.1360E+03
     13.624  0.0000E+00  0.1360E+03
     13.683  0.0000E+00  0.1360E+03
     13.742  0.0000E+00  0.1360E+03
     13.800  0.0000E+00  0.1360E+03
     13.859  0.0000E+00  0.1360E+03
     13.918  0.0000E+00  0.1360E+03
     13.976  0.0000E+00  0.1360E+03
     14.035  0.0000E+00  0.1360E+03
     14.094  0.0000E+00  0.1360E+03
     14.153  0.0000E+00  0.1360E+03
