   32   32    1    1
  0.1455556E+02  0.7751628E-09  0.7751628E-09  0.7751628E-09  0.5000000E-15
  1.000000000000000E-004
  CAR 
 unknown system                          
   96  196   68
 
  0.0000000E+00  0.0000000E+00  0.0000000E+00  0.5787037E-03
   1       -2.6572
   2       -0.2235
   3       -0.2194
   4       -0.2194
   5       -0.2194
   6       -0.2194
   7       -0.2154
   8        2.1636
   9        2.1681
  10        2.1681
  11        2.1700
  12        2.1701
  13        2.1701
  14        2.1701
  15        2.1701
  16        2.1703
  17        2.1722
  18        2.1722
  19        2.1767
  20        4.2680
  21        4.2680
  22        4.2680
  23        4.2680
  24        4.8151
  25        4.8151
  26        4.8151
  27        4.8151
  28        6.1457
  29        6.1457
  30        6.1457
  31        7.7200
  32        7.7200
  33        7.7200
  34        8.3629
  35        8.3629
  36        8.3676
  37        8.3676
  38        8.3678
  39        8.3678
  40        8.3678
  41        8.3679
  42        8.3680
  43        8.3680
  44        8.3727
  45        8.3727
  46        9.3032
  47        9.3078
  48        9.3078
  49        9.3078
  50        9.3078
  51        9.3124
  52       10.5993
  53       10.5993
  54       10.6007
  55       10.6035
  56       10.6036
  57       10.6036
  58       10.6036
  59       10.6037
  60       10.6038
  61       10.6066
  62       10.6079
  63       10.6079
  64       11.2155
  65       11.2167
  66       11.2167
  67       11.2167
  68       11.2179
 
  0.8333333E-01  0.0000000E+00  0.0000000E+00  0.1157407E-02
   1       -2.6401
   2       -0.6055
   3       -0.2027
   4       -0.2027
   5       -0.2027
   6       -0.2027
   7        0.1987
   8        1.7918
   9        1.7918
  10        1.7918
  11        1.7918
  12        2.1865
  13        2.1865
  14        2.1865
  15        2.1865
  16        2.5798
  17        2.5798
  18        2.5798
  19        2.5799
  20        4.0808
  21        4.0808
  22        4.0809
  23        4.0809
  24        5.0335
  25        5.0335
  26        5.0335
  27        5.0335
  28        5.8435
  29        6.1611
  30        6.1611
  31        7.7357
  32        7.7358
  33        8.0121
  34        8.0121
  35        8.0505
  36        8.0575
  37        8.0576
  38        8.0576
  39        8.0580
  40        8.3833
  41        8.3833
  42        8.3833
  43        8.3833
  44        8.7546
  45        8.7546
  46        9.2451
  47        9.2451
  48        9.5406
  49        9.5406
  50        9.5406
  51        9.5406
  52       10.2460
  53       10.2460
  54       10.2460
  55       10.2460
  56       10.3540
  57       10.3541
  58       10.3541
  59       10.3541
  60       10.9925
  61       10.9925
  62       10.9925
  63       10.9925
  64       11.3080
  65       11.3103
  66       11.3391
  67       11.3391
  68       11.3391
 
  0.1666667E+00  0.0000000E+00  0.0000000E+00  0.1157407E-02
   1       -2.5889
   2       -0.9591
   3       -0.1524
   4       -0.1524
   5       -0.1524
   6       -0.1524
   7        0.6486
   8        1.4452
   9        1.4452
  10        1.4452
  11        1.4452
  12        2.2357
  13        2.2357
  14        2.2357
  15        2.2357
  16        3.0203
  17        3.0203
  18        3.0203
  19        3.0203
  20        3.7779
  21        3.7779
  22        3.7779
  23        3.7779
  24        5.2545
  25        5.4301
  26        5.4301
  27        5.4301
  28        5.4301
  29        6.2073
  30        6.2073
  31        7.4884
  32        7.4884
  33        7.4884
  34        7.4884
  35        7.6876
  36        7.6876
  37        7.7829
  38        7.7829
  39        8.4298
  40        8.4298
  41        8.4298
  42        8.4298
  43        8.7261
  44        9.0861
  45        9.0861
  46        9.1727
  47        9.1727
  48        9.8249
  49        9.8250
  50        9.8250
  51        9.8251
  52        9.8746
  53        9.8746
  54        9.8746
  55        9.8748
  56        9.9196
  57        9.9196
  58        9.9198
  59        9.9198
  60       11.4127
  61       11.4127
  62       11.4127
  63       11.4127
  64       11.5526
  65       11.5526
  66       11.7088
  67       11.7089
  68       11.7096
 
  0.2500000E+00  0.0000000E+00  0.0000000E+00  0.1157407E-02
   1       -2.5034
   2       -1.2799
   3       -0.0687
   4       -0.0687
   5       -0.0687
   6       -0.0687
   7        1.1276
   8        1.1307
   9        1.1307
  10        1.1307
  11        1.1329
  12        2.3177
  13        2.3177
  14        2.3177
  15        2.3177
  16        3.4811
  17        3.4818
  18        3.4818
  19        3.4821
  20        3.4911
  21        3.4913
  22        3.4913
  23        3.4921
  24        4.6125
  25        5.8818
  26        5.8818
  27        5.8818
  28        5.8818
  29        6.2842
  30        6.2842
  31        6.8734
  32        6.8734
  33        6.8734
  34        6.8734
  35        7.3942
  36        7.3942
  37        7.8611
  38        7.8611
  39        8.5073
  40        8.5073
  41        8.5073
  42        8.5073
  43        8.8814
  44        8.8815
  45        9.2231
  46        9.2231
  47        9.2231
  48        9.2231
  49        9.5117
  50        9.6204
  51        9.6204
  52        9.6245
  53        9.6245
  54        9.6260
  55        9.6260
  56       10.1324
  57       10.1324
  58       10.1324
  59       10.1324
  60       11.5097
  61       11.5097
  62       11.5097
  63       11.5097
  64       11.8641
  65       11.8641
  66       11.8641
  67       11.8660
  68       11.8989
 
  0.3333333E+00  0.0000000E+00  0.0000000E+00  0.1157407E-02
   1       -2.3840
   2       -1.5677
   3        0.0484
   4        0.0484
   5        0.0484
   6        0.0484
   7        0.8486
   8        0.8486
   9        0.8486
  10        0.8486
  11        1.6414
  12        2.4322
  13        2.4322
  14        2.4322
  15        2.4322
  16        3.2110
  17        3.2110
  18        3.2110
  19        3.2110
  20        3.9727
  21        3.9913
  22        3.9913
  23        3.9913
  24        3.9914
  25        6.2575
  26        6.2575
  27        6.2576
  28        6.2576
  29        6.3704
  30        6.3704
  31        6.3705
  32        6.3705
  33        6.3921
  34        6.3921
  35        7.1319
  36        7.1319
  37        7.9695
  38        7.9695
  39        8.6115
  40        8.6115
  41        8.6125
  42        8.6129
  43        8.6158
  44        8.6163
  45        8.6172
  46        8.6172
  47        8.6663
  48        8.6664
  49        9.3605
  50        9.3605
  51        9.3605
  52        9.3605
  53       10.1024
  54       10.1024
  55       10.3410
  56       10.3410
  57       10.3410
  58       10.3410
  59       10.3524
  60       11.2297
  61       11.2297
  62       11.2297
  63       11.2297
  64       12.3146
  65       12.3162
  66       12.3382
  67       12.3414
  68       12.3469
 
  0.4166667E+00  0.0000000E+00  0.0000000E+00  0.1157407E-02
   1       -2.2305
   2       -1.8222
   3        0.1988
   4        0.1989
   5        0.1989
   6        0.1989
   7        0.5991
   8        0.5991
   9        0.5991
  10        0.5992
  11        2.1830
  12        2.5792
  13        2.5792
  14        2.5792
  15        2.5792
  16        2.9693
  17        2.9693
  18        2.9693
  19        2.9693
  20        3.3510
  21        4.5200
  22        4.5200
  23        4.5200
  24        4.5200
  25        5.6561
  26        5.6561
  27        5.6561
  28        5.6561
  29        6.5306
  30        6.5306
  31        6.8906
  32        6.8906
  33        6.8910
  34        6.8910
  35        6.9009
  36        6.9009
  37        8.0158
  38        8.0158
  39        8.0158
  40        8.0158
  41        8.1069
  42        8.1069
  43        8.4597
  44        8.4597
  45        8.7553
  46        8.7553
  47        8.7553
  48        8.7554
  49        9.1277
  50        9.1277
  51        9.1277
  52        9.1277
  53       10.5392
  54       10.5392
  55       10.5392
  56       10.5392
  57       10.6139
  58       10.6139
  59       10.9764
  60       10.9764
  61       10.9764
  62       10.9764
  63       11.2323
  64       11.7289
  65       11.7289
  66       12.7651
  67       12.7660
  68       12.8608
 
  0.5000000E+00  0.0000000E+00  0.0000000E+00  0.5787037E-03
   1       -2.0447
   2       -2.0417
   3        0.3783
   4        0.3816
   5        0.3816
   6        0.3824
   7        0.3826
   8        0.3834
   9        0.3834
  10        0.3867
  11        2.7507
  12        2.7535
  13        2.7569
  14        2.7571
  15        2.7571
  16        2.7579
  17        2.7589
  18        2.7597
  19        2.7597
  20        2.7625
  21        5.0747
  22        5.0747
  23        5.0754
  24        5.0755
  25        5.0758
  26        5.0759
  27        5.0766
  28        5.0766
  29        6.6984
  30        6.6984
  31        6.7018
  32        6.7018
  33        7.4394
  34        7.4394
  35        7.4397
  36        7.4403
  37        7.4404
  38        7.4411
  39        7.4413
  40        7.4413
  41        8.2692
  42        8.2705
  43        8.2722
  44        8.2735
  45        8.9234
  46        8.9234
  47        8.9243
  48        8.9259
  49        8.9260
  50        8.9276
  51        8.9285
  52        8.9285
  53       10.7454
  54       10.7463
  55       10.7463
  56       10.7464
  57       10.7490
  58       10.7491
  59       10.7491
  60       10.7500
  61       11.1550
  62       11.1550
  63       11.1573
  64       11.1573
  65       12.1447
  66       12.1456
  67       13.2482
  68       13.2497
 
  0.0000000E+00  0.8333333E-01  0.0000000E+00  0.2314815E-02
   1       -2.6401
   2       -0.6055
   3       -0.2058
   4       -0.2027
   5       -0.2027
   6       -0.1996
   7        0.1987
   8        1.7887
   9        1.7918
  10        1.7918
  11        1.7949
  12        2.1844
  13        2.1853
  14        2.1878
  15        2.1887
  16        2.5767
  17        2.5798
  18        2.5798
  19        2.5829
  20        4.0791
  21        4.0798
  22        4.0819
  23        4.0826
  24        5.0317
  25        5.0324
  26        5.0345
  27        5.0353
  28        5.8435
  29        6.1611
  30        6.1611
  31        7.7357
  32        7.7358
  33        8.0120
  34        8.0121
  35        8.0509
  36        8.0541
  37        8.0575
  38        8.0575
  39        8.0611
  40        8.3804
  41        8.3833
  42        8.3833
  43        8.3862
  44        8.7546
  45        8.7546
  46        9.2451
  47        9.2451
  48        9.5374
  49        9.5406
  50        9.5406
  51        9.5438
  52       10.2430
  53       10.2460
  54       10.2460
  55       10.2490
  56       10.3512
  57       10.3528
  58       10.3553
  59       10.3569
  60       10.9895
  61       10.9925
  62       10.9925
  63       10.9956
  64       11.3080
  65       11.3082
  66       11.3381
  67       11.3391
  68       11.3399
 
  0.8333333E-01  0.8333333E-01  0.0000000E+00  0.4629630E-02
   1       -2.6230
   2       -0.5900
   3       -0.5874
   4       -0.1859
   5       -0.1859
   6        0.2141
   7        0.2167
   8        1.4122
   9        1.8065
  10        1.8075
  11        1.8091
  12        1.8101
  13        2.2024
  14        2.2033
  15        2.5943
  16        2.5953
  17        2.5969
  18        2.5979
  19        2.9879
  20        3.7458
  21        3.7458
  22        4.2993
  23        4.2993
  24        4.8481
  25        4.8481
  26        5.3980
  27        5.3980
  28        5.8587
  29        5.8594
  30        6.1765
  31        7.7109
  32        7.7133
  33        7.7515
  34        7.9750
  35        7.9751
  36        8.0261
  37        8.0291
  38        8.0661
  39        8.0668
  40        8.1965
  41        8.1965
  42        8.4162
  43        8.4183
  44        8.7687
  45        8.7716
  46        9.4544
  47        9.4570
  48        9.5135
  49        9.5166
  50        9.7644
  51        9.7645
  52        9.8886
  53        9.9934
  54        9.9944
  55        9.9959
  56        9.9969
  57       10.6337
  58       10.6355
  59       10.7426
  60       10.7436
  61       10.7443
  62       10.7453
  63       11.3816
  64       11.3829
  65       11.3836
  66       11.4449
  67       11.4539
  68       11.4798
 
  0.1666667E+00  0.8333333E-01  0.0000000E+00  0.4629630E-02
   1       -2.5718
   2       -0.9423
   3       -0.5383
   4       -0.1357
   5       -0.1357
   6        0.2655
   7        0.6652
   8        1.0645
   9        1.4617
  10        1.4617
  11        1.8569
  12        1.8577
  13        1.8583
  14        2.6443
  15        2.6451
  16        2.6457
  17        3.0365
  18        3.0365
  19        3.4174
  20        3.4174
  21        3.4266
  22        4.1444
  23        4.1444
  24        5.0984
  25        5.0984
  26        5.2703
  27        5.8182
  28        5.8182
  29        5.9058
  30        6.2227
  31        7.1410
  32        7.3917
  33        7.4848
  34        7.4848
  35        7.7031
  36        7.7984
  37        7.8545
  38        8.0741
  39        8.1130
  40        8.1795
  41        8.1795
  42        8.7368
  43        8.7415
  44        8.8167
  45        9.1882
  46        9.3606
  47        9.3812
  48        9.4644
  49        9.4644
  50        9.5625
  51        9.6673
  52        9.6673
  53        9.6901
  54        9.9719
  55       10.1190
  56       10.1190
  57       10.2166
  58       10.2167
  59       10.3080
  60       11.0546
  61       11.1648
  62       11.1648
  63       11.4561
  64       11.5983
  65       11.6319
  66       11.7596
  67       11.7786
  68       11.7861
 
  0.2500000E+00  0.8333333E-01  0.0000000E+00  0.4629630E-02
   1       -2.4864
   2       -1.2630
   3       -0.4543
   4       -0.0520
   5       -0.0519
   6        0.3490
   7        0.7490
   8        1.1449
   9        1.1473
  10        1.1487
  11        1.5442
  12        1.9400
  13        1.9400
  14        2.7266
  15        2.7266
  16        3.1129
  17        3.1136
  18        3.1183
  19        3.5072
  20        3.5072
  21        3.8741
  22        3.8742
  23        3.8955
  24        4.6285
  25        5.5263
  26        5.5263
  27        5.9836
  28        6.2760
  29        6.2761
  30        6.2997
  31        6.5200
  32        6.8820
  33        6.8820
  34        7.0996
  35        7.2503
  36        7.4097
  37        7.8761
  38        8.1515
  39        8.1900
  40        8.2501
  41        8.2501
  42        8.8062
  43        8.8610
  44        8.8610
  45        8.8943
  46        9.1897
  47        9.2676
  48        9.3707
  49        9.3707
  50        9.5159
  51        9.5264
  52        9.6161
  53        9.6161
  54        9.6375
  55        9.8692
  56       10.0126
  57       10.3572
  58       10.3994
  59       10.3994
  60       11.1502
  61       11.5058
  62       11.6164
  63       11.6164
  64       11.7915
  65       11.7915
  66       11.8957
  67       11.9301
  68       12.1209
 
  0.3333333E+00  0.8333333E-01  0.0000000E+00  0.4629630E-02
   1       -2.3669
   2       -1.5508
   3       -0.3368
   4        0.0651
   5        0.0652
   6        0.4652
   7        0.4664
   8        0.8652
   9        0.8652
  10        1.2631
  11        1.6579
  12        2.0550
  13        2.0550
  14        2.8386
  15        2.8389
  16        2.8406
  17        2.8409
  18        3.6112
  19        3.6112
  20        3.6198
  21        3.9888
  22        4.0072
  23        4.0072
  24        4.3932
  25        5.8988
  26        6.0086
  27        6.0086
  28        6.0925
  29        6.2702
  30        6.2702
  31        6.4074
  32        6.6428
  33        6.7666
  34        6.7666
  35        6.8371
  36        7.1473
  37        7.9837
  38        8.2495
  39        8.2498
  40        8.2602
  41        8.2969
  42        8.3572
  43        8.3572
  44        8.6536
  45        8.9816
  46        9.0019
  47        9.0041
  48        9.0073
  49        9.0080
  50        9.1053
  51        9.1053
  52        9.7484
  53        9.9220
  54       10.0339
  55       10.1180
  56       10.3666
  57       10.6192
  58       10.6193
  59       10.6444
  60       10.8730
  61       11.5127
  62       11.5127
  63       11.6120
  64       11.9882
  65       12.0959
  66       12.0986
  67       12.0991
  68       12.3358
 
  0.4166667E+00  0.8333333E-01  0.0000000E+00  0.4629630E-02
   1       -2.2135
   2       -1.8052
   3       -0.1859
   4        0.2141
   5        0.2156
   6        0.2171
   7        0.6142
   8        0.6158
   9        0.6172
  10        1.0145
  11        2.1989
  12        2.2027
  13        2.2033
  14        2.5951
  15        2.5951
  16        2.9866
  17        2.9866
  18        3.3669
  19        3.3732
  20        3.3735
  21        4.1508
  22        4.5356
  23        4.5356
  24        4.9191
  25        5.2931
  26        5.6704
  27        5.6704
  28        6.0472
  29        6.2324
  30        6.5271
  31        6.5272
  32        6.5461
  33        6.6049
  34        6.9159
  35        7.2874
  36        7.2874
  37        7.6519
  38        7.6519
  39        8.1197
  40        8.3992
  41        8.4110
  42        8.4112
  43        8.4323
  44        8.4636
  45        8.4969
  46        8.4969
  47        8.7713
  48        8.7794
  49        8.8711
  50        8.8711
  51        9.1426
  52        9.5153
  53       10.2084
  54       10.4093
  55       10.6244
  56       10.6295
  57       10.8218
  58       10.8218
  59       10.8829
  60       11.2457
  61       11.2602
  62       11.2603
  63       11.3523
  64       11.5034
  65       11.7446
  66       12.5020
  67       12.6110
  68       12.6110
 
  0.5000000E+00  0.8333333E-01  0.0000000E+00  0.2314815E-02
   1       -2.0277
   2       -2.0247
   3       -0.0032
   4       -0.0001
   5        0.3970
   6        0.3982
   7        0.4001
   8        0.4013
   9        0.7970
  10        0.8001
  11        2.3806
  12        2.3819
  13        2.3838
  14        2.3850
  15        2.7692
  16        2.7704
  17        3.1622
  18        3.1635
  19        3.1653
  20        3.1666
  21        4.7087
  22        4.7098
  23        5.0899
  24        5.0906
  25        5.0910
  26        5.0917
  27        5.4707
  28        5.4718
  29        6.4016
  30        6.4048
  31        6.7138
  32        6.7172
  33        7.0754
  34        7.0757
  35        7.0766
  36        7.0770
  37        7.8356
  38        7.8360
  39        7.8369
  40        7.8373
  41        8.2799
  42        8.2829
  43        8.5680
  44        8.5714
  45        8.5927
  46        8.5958
  47        8.6659
  48        8.6674
  49        8.6692
  50        8.6707
  51        9.3117
  52        9.3151
  53       10.4020
  54       10.4052
  55       10.9385
  56       10.9406
  57       11.0297
  58       11.0303
  59       11.0330
  60       11.0336
  61       11.1106
  62       11.1139
  63       11.1707
  64       11.1730
  65       12.1571
  66       12.1580
  67       13.0476
  68       13.0695
 
  0.0000000E+00  0.1666667E+00  0.0000000E+00  0.2314815E-02
   1       -2.5889
   2       -0.9591
   3       -0.1555
   4       -0.1524
   5       -0.1524
   6       -0.1493
   7        0.6486
   8        1.4421
   9        1.4452
  10        1.4452
  11        1.4483
  12        2.2336
  13        2.2345
  14        2.2370
  15        2.2379
  16        3.0172
  17        3.0203
  18        3.0203
  19        3.0234
  20        3.7759
  21        3.7767
  22        3.7791
  23        3.7800
  24        5.2545
  25        5.4280
  26        5.4288
  27        5.4313
  28        5.4322
  29        6.2073
  30        6.2073
  31        7.4850
  32        7.4884
  33        7.4884
  34        7.4918
  35        7.6876
  36        7.6877
  37        7.7829
  38        7.7829
  39        8.4269
  40        8.4298
  41        8.4298
  42        8.4327
  43        8.7261
  44        9.0860
  45        9.0861
  46        9.1727
  47        9.1727
  48        9.8224
  49        9.8238
  50        9.8264
  51        9.8277
  52        9.8716
  53        9.8746
  54        9.8746
  55        9.8776
  56        9.9167
  57        9.9196
  58        9.9197
  59        9.9227
  60       11.4096
  61       11.4127
  62       11.4127
  63       11.4157
  64       11.5526
  65       11.5526
  66       11.7078
  67       11.7100
  68       11.7109
 
  0.8333333E-01  0.1666667E+00  0.0000000E+00  0.4629630E-02
   1       -2.5718
   2       -0.9423
   3       -0.5383
   4       -0.1357
   5       -0.1357
   6        0.2655
   7        0.6652
   8        1.0645
   9        1.4617
  10        1.4617
  11        1.8562
  12        1.8577
  13        1.8590
  14        2.6436
  15        2.6451
  16        2.6464
  17        3.0365
  18        3.0365
  19        3.4174
  20        3.4174
  21        3.4266
  22        4.1444
  23        4.1444
  24        5.0984
  25        5.0984
  26        5.2703
  27        5.8182
  28        5.8182
  29        5.9058
  30        6.2227
  31        7.1410
  32        7.3917
  33        7.4848
  34        7.4848
  35        7.7031
  36        7.7984
  37        7.8545
  38        8.0740
  39        8.1129
  40        8.1795
  41        8.1795
  42        8.7367
  43        8.7416
  44        8.8167
  45        9.1882
  46        9.3606
  47        9.3812
  48        9.4644
  49        9.4644
  50        9.5625
  51        9.6673
  52        9.6674
  53        9.6900
  54        9.9719
  55       10.1190
  56       10.1190
  57       10.2166
  58       10.2166
  59       10.3080
  60       11.0545
  61       11.1648
  62       11.1648
  63       11.4561
  64       11.5983
  65       11.6319
  66       11.7634
  67       11.7786
  68       11.7921
 
  0.1666667E+00  0.1666667E+00  0.0000000E+00  0.4629630E-02
   1       -2.5205
   2       -0.8930
   3       -0.8904
   4       -0.0854
   5       -0.0854
   6        0.7134
   7        0.7154
   8        0.7173
   9        1.5095
  10        1.5105
  11        1.5121
  12        1.5131
  13        2.3006
  14        2.3015
  15        3.0804
  16        3.0809
  17        3.0839
  18        3.0845
  19        3.0861
  20        3.0873
  21        3.8633
  22        4.3932
  23        4.3932
  24        4.9469
  25        4.9469
  26        5.3173
  27        5.3181
  28        6.2445
  29        6.2445
  30        6.2689
  31        6.8176
  32        6.8201
  33        7.3722
  34        7.3722
  35        7.7480
  36        7.7509
  37        7.7944
  38        7.7945
  39        7.8446
  40        8.2185
  41        8.2208
  42        8.7862
  43        8.7871
  44        9.1329
  45        9.1340
  46        9.1356
  47        9.1366
  48        9.2328
  49        9.2354
  50        9.2381
  51        9.4949
  52        9.4967
  53        9.9344
  54        9.9374
  55       10.5589
  56       10.5590
  57       10.6376
  58       10.6385
  59       10.6391
  60       10.6401
  61       10.7268
  62       10.7286
  63       11.1230
  64       11.7507
  65       11.7514
  66       12.0173
  67       12.0173
  68       12.2232
 
  0.2500000E+00  0.1666667E+00  0.0000000E+00  0.4629630E-02
   1       -2.4352
   2       -1.2123
   3       -0.8074
   4       -0.0018
   5       -0.0017
   6        0.3993
   7        0.7983
   8        1.1946
   9        1.1970
  10        1.1984
  11        1.5939
  12        1.5939
  13        1.9889
  14        2.7725
  15        2.7737
  16        2.7764
  17        3.1661
  18        3.1661
  19        3.5554
  20        3.5554
  21        4.2714
  22        4.2714
  23        4.3297
  24        4.6763
  25        5.2280
  26        5.2280
  27        5.3966
  28        6.1936
  29        6.3458
  30        6.5247
  31        6.7042
  32        6.7042
  33        6.8947
  34        6.8947
  35        7.4560
  36        7.6426
  37        7.7424
  38        7.7424
  39        7.8268
  40        7.9209
  41        8.5124
  42        8.5301
  43        8.5301
  44        8.8365
  45        8.8365
  46        8.8618
  47        8.9420
  48        9.3125
  49        9.3988
  50        9.5705
  51        9.6138
  52        9.6842
  53        9.7983
  54       10.0396
  55       10.0397
  56       10.4320
  57       10.4770
  58       10.8188
  59       10.9317
  60       10.9317
  61       11.0913
  62       11.0913
  63       11.1786
  64       12.0308
  65       12.0593
  66       12.1932
  67       12.3064
  68       12.4109
 
  0.3333333E+00  0.1666667E+00  0.0000000E+00  0.4629630E-02
   1       -2.3157
   2       -1.5000
   3       -0.6896
   4        0.1139
   5        0.1153
   6        0.1168
   7        0.9133
   8        0.9151
   9        0.9163
  10        1.7061
  11        1.7089
  12        1.7093
  13        1.7107
  14        2.4970
  15        2.4970
  16        3.2785
  17        3.2792
  18        3.2799
  19        4.0338
  20        4.0345
  21        4.0377
  22        4.0549
  23        4.0550
  24        4.8247
  25        5.5069
  26        5.5686
  27        5.6860
  28        5.6860
  29        6.2600
  30        6.3051
  31        6.3051
  32        6.4536
  33        7.0505
  34        7.1928
  35        7.1950
  36        7.1958
  37        7.8284
  38        7.8285
  39        7.9180
  40        7.9182
  41        7.9353
  42        8.0259
  43        8.5695
  44        8.5696
  45        8.5797
  46        8.6784
  47        8.9658
  48        9.4210
  49        9.4321
  50        9.4324
  51        9.5690
  52        9.6173
  53        9.7453
  54       10.1638
  55       10.1684
  56       10.4089
  57       10.5443
  58       10.9025
  59       11.2028
  60       11.2028
  61       11.5736
  62       11.5736
  63       11.5933
  64       11.6608
  65       12.0170
  66       12.1316
  67       12.1316
  68       12.4060
 
  0.4166667E+00  0.1666667E+00  0.0000000E+00  0.4629630E-02
   1       -2.1624
   2       -1.7543
   3       -0.5383
   4       -0.1356
   5        0.2657
   6        0.2657
   7        0.6657
   8        0.6657
   9        1.0639
  10        1.4612
  11        1.8576
  12        1.8576
  13        2.2481
  14        2.2517
  15        2.2523
  16        3.4156
  17        3.4240
  18        3.4242
  19        3.8047
  20        3.8047
  21        3.8122
  22        4.5823
  23        4.5823
  24        4.9595
  25        5.3470
  26        5.6486
  27        5.7124
  28        5.7124
  29        6.0254
  30        6.1980
  31        6.1980
  32        6.4643
  33        6.5922
  34        6.9622
  35        7.3201
  36        7.3201
  37        7.7154
  38        7.7154
  39        7.9621
  40        7.9621
  41        8.0744
  42        8.1568
  43        8.3345
  44        8.3345
  45        8.4460
  46        8.4651
  47        8.8372
  48        8.8372
  49        9.0972
  50        9.4297
  51        9.5611
  52        9.9013
  53        9.9342
  54        9.9706
  55       10.2999
  56       10.6763
  57       11.0143
  58       11.2199
  59       11.2857
  60       11.4274
  61       11.4274
  62       11.7472
  63       11.7915
  64       11.8784
  65       11.8784
  66       12.0853
  67       12.0853
  68       12.1743
 
  0.5000000E+00  0.1666667E+00  0.0000000E+00  0.2314815E-02
   1       -1.9767
   2       -1.9736
   3       -0.3550
   4       -0.3520
   5        0.4470
   6        0.4483
   7        0.4501
   8        0.4513
   9        1.2446
  10        1.2477
  11        2.0363
  12        2.0375
  13        2.0394
  14        2.0406
  15        2.8182
  16        2.8193
  17        3.5974
  18        3.5988
  19        3.6005
  20        3.6019
  21        4.3724
  22        4.3735
  23        5.1350
  24        5.1357
  25        5.1361
  26        5.1368
  27        5.8199
  28        5.8232
  29        5.8941
  30        5.8952
  31        6.7439
  32        6.7444
  33        6.7453
  34        6.7454
  35        6.7603
  36        6.7636
  37        8.1294
  38        8.1307
  39        8.1327
  40        8.1340
  41        8.2430
  42        8.2463
  43        8.2628
  44        8.2631
  45        8.2640
  46        8.2645
  47        8.3067
  48        8.3096
  49        9.2518
  50        9.2549
  51        9.7304
  52        9.7338
  53       10.0842
  54       10.0872
  55       10.4672
  56       10.4689
  57       11.2176
  58       11.2199
  59       11.4862
  60       11.4896
  61       11.6443
  62       11.6451
  63       11.6476
  64       11.6485
  65       12.1934
  66       12.1942
  67       12.6252
  68       12.6280
 
  0.0000000E+00  0.2500000E+00  0.0000000E+00  0.2314815E-02
   1       -2.5034
   2       -1.2799
   3       -0.0718
   4       -0.0687
   5       -0.0687
   6       -0.0656
   7        1.1275
   8        1.1298
   9        1.1307
  10        1.1307
  11        1.1339
  12        2.3155
  13        2.3164
  14        2.3189
  15        2.3198
  16        3.4798
  17        3.4808
  18        3.4833
  19        3.4840
  20        3.4881
  21        3.4911
  22        3.4911
  23        3.4943
  24        4.6125
  25        5.8796
  26        5.8805
  27        5.8831
  28        5.8840
  29        6.2842
  30        6.2843
  31        6.8700
  32        6.8734
  33        6.8734
  34        6.8767
  35        7.3942
  36        7.3942
  37        7.8611
  38        7.8611
  39        8.5043
  40        8.5073
  41        8.5073
  42        8.5102
  43        8.8814
  44        8.8815
  45        9.2206
  46        9.2218
  47        9.2244
  48        9.2256
  49        9.5117
  50        9.6205
  51        9.6220
  52        9.6227
  53        9.6245
  54        9.6245
  55        9.6277
  56       10.1296
  57       10.1324
  58       10.1324
  59       10.1352
  60       11.5071
  61       11.5097
  62       11.5097
  63       11.5123
  64       11.8620
  65       11.8641
  66       11.8648
  67       11.8699
  68       11.8989
 