 vasp.4.6.28 25Jul05 complex 
 executed on             LinuxIFC date 2016.11.12  15:04:56
 running on    4 nodes
 distr:  one band on    1 nodes,    4 groups


--------------------------------------------------------------------------------------------------------


 INCAR:
 POTCAR:   PAW_PBE Al 04Jan2001                   
 POTCAR:   PAW_PBE Al 04Jan2001                   
   VRHFIN =Al: s2p1                                                             
   LEXCH  = PE                                                                  
   EATOM  =    53.5387 eV,    3.9350 Ry                                         
                                                                                
   TITEL  = PAW_PBE Al 04Jan2001                                                
   LULTRA =        F    use ultrasoft PP ?                                      
   IUNSCR =        1    unscreen: 0-lin 1-nonlin 2-no                           
   RPACOR =    1.500    partial core radius                                     
   POMASS =   26.982; ZVAL   =    3.000    mass and valenz                      
   RCORE  =    1.900    outmost cutoff radius                                   
   RWIGS  =    2.650; RWIGS  =    1.402    wigner-seitz radius (au A)           
   ENMAX  =  240.300; ENMIN  =  180.225 eV                                      
   ICORE  =        2    local potential                                         
   LCOR   =        T    correct aug charges                                     
   LPAW   =        T    paw PP                                                  
   EAUG   =  291.052                                                            
   DEXC   =    -.041                                                            
   RMAX   =    2.974    core radius for proj-oper                               
   RAUG   =    1.300    factor for augmentation sphere                          
   RDEP   =    1.966    radius for radial grids                                 
   QCUT   =   -4.203; QGAM   =    8.405    optimization parameters              
                                                                                
   Description                                                                  
     l     E      TYP  RCUT    TYP  RCUT                                        
     0   .000     23  1.900                                                     
     0   .000     23  1.900                                                     
     1   .000     23  1.900                                                     
     1  1.000     23  1.900                                                     
     2   .000      7  1.900                                                     
  local pseudopotential read in
  partial core-charges read in
  atomic valenz-charges read in
  non local Contribution for L=           0  read in
    real space projection operators read in
  non local Contribution for L=           0  read in
    real space projection operators read in
  non local Contribution for L=           1  read in
    real space projection operators read in
  non local Contribution for L=           1  read in
    real space projection operators read in
    PAW grid and wavefunctions read in
 
   number of l-projection  operators is LMAX  =           4
   number of lm-projection operators is LMMAX =           8
 

 ----------------------------------------------------------------------------- 
|                                                                             |
|  ADVICE TO THIS USER RUNNING 'VASP/VAMP'   (HEAR YOUR MASTER'S VOICE ...):  |
|                                                                             |
|      You have a (more or less) 'large supercell' and for larger cells       |
|      it might be more efficient to use real space projection operators      |
|      So try LREAL= Auto  in the INCAR   file.                               |
|      Mind: If you want to do an extremely accurate calculations keep the    |
|      reciprocal projection scheme          (i.e. LREAL=.FALSE.)             |
|                                                                             |
 ----------------------------------------------------------------------------- 

 PAW_PBE Al 04Jan2001                   :
 energy of atom  1       EATOM=  -53.5387
 kinetic energy error for atom=    0.0001 (will be added to EATOM!!)
 
 EXHCAR: internal setup
 exchange correlation table for  LEXCH =        8
   RHO(1)=    0.500       N(1)  =     2000
   RHO(2)=  100.500       N(2)  =     4000
 
 POSCAR: Al                                      
  positions in direct lattice
  No initial velocities read in
 


--------------------------------------------------------------------------------------------------------


 ion  position               nearest neighbor table
   1  0.251  0.250  0.000-  18 2.73  22 2.73  26 2.73  28 2.73   9 2.74  11 2.74  13 2.74  15 2.74
                            25 2.75  21 2.75  27 2.75  17 2.75
   2  0.750  0.250  0.000-  10 2.74  12 2.74  14 2.74  16 2.74  17 2.74  18 2.74  21 2.74  22 2.74
                            25 2.74  26 2.74  27 2.74  28 2.74
   3  0.250  0.750  0.000-   9 2.74  11 2.74  13 2.74  15 2.74  19 2.74  20 2.74  23 2.74  24 2.74
                            25 2.74  26 2.74  27 2.74  28 2.74
   4  0.750  0.750  0.000-  10 2.74  12 2.74  14 2.74  16 2.74  19 2.74  20 2.74  23 2.74  24 2.74
                            25 2.74  26 2.74  27 2.74  28 2.74
   5  0.250  0.250  0.500-   9 2.74  11 2.74  13 2.74  15 2.74  17 2.74  18 2.74  21 2.74  22 2.74
                            29 2.74  30 2.74  31 2.74  32 2.74
   6  0.750  0.250  0.500-  10 2.74  12 2.74  14 2.74  16 2.74  17 2.74  18 2.74  21 2.74  22 2.74
                            29 2.74  30 2.74  31 2.74  32 2.74
   7  0.250  0.750  0.500-   9 2.74  11 2.74  13 2.74  15 2.74  19 2.74  20 2.74  23 2.74  24 2.74
                            29 2.74  30 2.74  31 2.74  32 2.74
   8  0.750  0.750  0.500-  10 2.74  12 2.74  14 2.74  16 2.74  19 2.74  20 2.74  23 2.74  24 2.74
                            29 2.74  30 2.74  31 2.74  32 2.74
   9  0.250  0.000  0.250-   3 2.74   5 2.74   7 2.74  17 2.74  18 2.74  19 2.74  20 2.74  25 2.74
                            26 2.74  29 2.74  30 2.74   1 2.74
  10  0.750  0.000  0.250-   2 2.74   4 2.74   6 2.74   8 2.74  17 2.74  18 2.74  19 2.74  20 2.74
                            25 2.74  26 2.74  29 2.74  30 2.74
  11  0.250  0.500  0.250-   3 2.74   5 2.74   7 2.74  17 2.74  18 2.74  19 2.74  20 2.74  27 2.74
                            28 2.74  31 2.74  32 2.74   1 2.74
  12  0.750  0.500  0.250-   2 2.74   4 2.74   6 2.74   8 2.74  17 2.74  18 2.74  19 2.74  20 2.74
                            27 2.74  28 2.74  31 2.74  32 2.74
  13  0.250  0.000  0.750-   3 2.74   5 2.74   7 2.74  21 2.74  22 2.74  23 2.74  24 2.74  25 2.74
                            26 2.74  29 2.74  30 2.74   1 2.74
  14  0.750  0.000  0.750-   2 2.74   4 2.74   6 2.74   8 2.74  21 2.74  22 2.74  23 2.74  24 2.74
                            25 2.74  26 2.74  29 2.74  30 2.74
  15  0.250  0.500  0.750-   3 2.74   5 2.74   7 2.74  21 2.74  22 2.74  23 2.74  24 2.74  27 2.74
                            28 2.74  31 2.74  32 2.74   1 2.74
  16  0.750  0.500  0.750-   2 2.74   4 2.74   6 2.74   8 2.74  21 2.74  22 2.74  23 2.74  24 2.74
                            27 2.74  28 2.74  31 2.74  32 2.74
  17  0.000  0.250  0.250-   2 2.74   5 2.74   6 2.74   9 2.74  10 2.74  11 2.74  12 2.74  25 2.74
                            27 2.74  29 2.74  31 2.74   1 2.75
  18  0.500  0.250  0.250-   1 2.73   2 2.74   5 2.74   6 2.74   9 2.74  10 2.74  11 2.74  12 2.74
                            26 2.74  28 2.74  30 2.74  32 2.74
  19  0.000  0.750  0.250-   3 2.74   4 2.74   7 2.74   8 2.74   9 2.74  10 2.74  11 2.74  12 2.74
                            25 2.74  27 2.74  29 2.74  31 2.74
  20  0.500  0.750  0.250-   3 2.74   4 2.74   7 2.74   8 2.74   9 2.74  10 2.74  11 2.74  12 2.74
                            26 2.74  28 2.74  30 2.74  32 2.74
  21  0.000  0.250  0.750-   2 2.74   5 2.74   6 2.74  13 2.74  14 2.74  15 2.74  16 2.74  25 2.74
                            27 2.74  29 2.74  31 2.74   1 2.75
  22  0.500  0.250  0.750-   1 2.73   2 2.74   5 2.74   6 2.74  13 2.74  14 2.74  15 2.74  16 2.74
                            26 2.74  28 2.74  30 2.74  32 2.74
  23  0.000  0.750  0.750-   3 2.74   4 2.74   7 2.74   8 2.74  13 2.74  14 2.74  15 2.74  16 2.74
                            25 2.74  27 2.74  29 2.74  31 2.74
  24  0.500  0.750  0.750-   3 2.74   4 2.74   7 2.74   8 2.74  13 2.74  14 2.74  15 2.74  16 2.74
                            26 2.74  28 2.74  30 2.74  32 2.74
  25  0.000  0.000  0.000-   2 2.74   3 2.74   4 2.74   9 2.74  10 2.74  13 2.74  14 2.74  17 2.74
                            19 2.74  21 2.74  23 2.74   1 2.75
  26  0.500  0.000  0.000-   1 2.73   2 2.74   3 2.74   4 2.74   9 2.74  10 2.74  13 2.74  14 2.74
                            18 2.74  20 2.74  22 2.74  24 2.74
  27  0.000  0.500  0.000-   2 2.74   3 2.74   4 2.74  11 2.74  12 2.74  15 2.74  16 2.74  17 2.74
                            19 2.74  21 2.74  23 2.74   1 2.75
  28  0.500  0.500  0.000-   1 2.73   2 2.74   3 2.74   4 2.74  11 2.74  12 2.74  15 2.74  16 2.74
                            18 2.74  20 2.74  22 2.74  24 2.74
  29  0.000  0.000  0.500-   5 2.74   6 2.74   7 2.74   8 2.74   9 2.74  10 2.74  13 2.74  14 2.74
                            17 2.74  19 2.74  21 2.74  23 2.74
  30  0.500  0.000  0.500-   5 2.74   6 2.74   7 2.74   8 2.74   9 2.74  10 2.74  13 2.74  14 2.74
                            18 2.74  20 2.74  22 2.74  24 2.74
  31  0.000  0.500  0.500-   5 2.74   6 2.74   7 2.74   8 2.74  11 2.74  12 2.74  15 2.74  16 2.74
                            17 2.74  19 2.74  21 2.74  23 2.74
  32  0.500  0.500  0.500-   5 2.74   6 2.74   7 2.74   8 2.74  11 2.74  12 2.74  15 2.74  16 2.74
                            18 2.74  20 2.74  22 2.74  24 2.74
 
  LATTYP: Found a simple cubic cell.
 ALAT       =     7.7516282298
  
  Lattice vectors:
  
 A1 = (   7.7516282298,   0.0000000000,   0.0000000000)
 A2 = (   0.0000000000,   7.7516282298,   0.0000000000)
 A3 = (   0.0000000000,   0.0000000000,   7.7516282298)
 Subroutine PRICEL returns:
 Original cell was already a primitive cell.
 

Analysis of symmetry for initial positions (statically):

 Routine SETGRP: Setting up the symmetry group for a 
 simple cubic supercell.


 Subroutine GETGRP returns: Found  8 space group operations
 (whereof  2 operations were pure point group operations)
 out of a pool of 48 trial point group operations.


The static configuration has the point symmetry C_1h.
 The point group associated with its full space group is C_4v.

Analysis of symmetry for dynamics (positions and initial velocities):

 Subroutine DYNSYM returns: Found  8 space group operations
 (whereof  2 operations were pure point group operations)
 out of a pool of  8 trial space group operations
 (whereof  2 operations were pure point group operations)
 and found also     1 'primitive' translations


The dynamic configuration has the point symmetry C_1h.
 The point group associated with its full space group is C_4v.
 
 
 KPOINTS: Automatic mesh                          

Automatic generation of k-mesh.
 
 Subroutine IBZKPT returns following result:
 ===========================================
 
 Found    196 irreducible k-points:
 
 Following reciprocal coordinates:
            Coordinates               Weight
  0.000000  0.000000  0.000000      1.000000
  0.083333  0.000000  0.000000      2.000000
  0.166667  0.000000  0.000000      2.000000
  0.250000  0.000000  0.000000      2.000000
  0.333333  0.000000  0.000000      2.000000
  0.416667  0.000000  0.000000      2.000000
  0.500000  0.000000  0.000000      1.000000
  0.000000  0.083333  0.000000      4.000000
  0.083333  0.083333  0.000000      8.000000
  0.166667  0.083333  0.000000      8.000000
  0.250000  0.083333  0.000000      8.000000
  0.333333  0.083333  0.000000      8.000000
  0.416667  0.083333  0.000000      8.000000
  0.500000  0.083333  0.000000      4.000000
  0.000000  0.166667  0.000000      4.000000
  0.083333  0.166667  0.000000      8.000000
  0.166667  0.166667  0.000000      8.000000
  0.250000  0.166667  0.000000      8.000000
  0.333333  0.166667  0.000000      8.000000
  0.416667  0.166667  0.000000      8.000000
  0.500000  0.166667  0.000000      4.000000
  0.000000  0.250000  0.000000      4.000000
  0.083333  0.250000  0.000000      8.000000
  0.166667  0.250000  0.000000      8.000000
  0.250000  0.250000  0.000000      8.000000
  0.333333  0.250000  0.000000      8.000000
  0.416667  0.250000  0.000000      8.000000
  0.500000  0.250000  0.000000      4.000000
  0.000000  0.333333  0.000000      4.000000
  0.083333  0.333333  0.000000      8.000000
  0.166667  0.333333  0.000000      8.000000
  0.250000  0.333333  0.000000      8.000000
  0.333333  0.333333  0.000000      8.000000
  0.416667  0.333333  0.000000      8.000000
  0.500000  0.333333  0.000000      4.000000
  0.000000  0.416667  0.000000      4.000000
  0.083333  0.416667  0.000000      8.000000
  0.166667  0.416667  0.000000      8.000000
  0.250000  0.416667  0.000000      8.000000
  0.333333  0.416667  0.000000      8.000000
  0.416667  0.416667  0.000000      8.000000
  0.500000  0.416667  0.000000      4.000000
  0.000000  0.500000  0.000000      2.000000
  0.083333  0.500000  0.000000      4.000000
  0.166667  0.500000  0.000000      4.000000
  0.250000  0.500000  0.000000      4.000000
  0.333333  0.500000  0.000000      4.000000
  0.416667  0.500000  0.000000      4.000000
  0.500000  0.500000  0.000000      2.000000
  0.000000  0.083333  0.083333      4.000000
  0.083333  0.083333  0.083333      8.000000
  0.166667  0.083333  0.083333      8.000000
  0.250000  0.083333  0.083333      8.000000
  0.333333  0.083333  0.083333      8.000000
  0.416667  0.083333  0.083333      8.000000
  0.500000  0.083333  0.083333      4.000000
  0.000000  0.166667  0.083333      8.000000
  0.083333  0.166667  0.083333     16.000000
  0.166667  0.166667  0.083333     16.000000
  0.250000  0.166667  0.083333     16.000000
  0.333333  0.166667  0.083333     16.000000
  0.416667  0.166667  0.083333     16.000000
  0.500000  0.166667  0.083333      8.000000
  0.000000  0.250000  0.083333      8.000000
  0.083333  0.250000  0.083333     16.000000
  0.166667  0.250000  0.083333     16.000000
  0.250000  0.250000  0.083333     16.000000
  0.333333  0.250000  0.083333     16.000000
  0.416667  0.250000  0.083333     16.000000
  0.500000  0.250000  0.083333      8.000000
  0.000000  0.333333  0.083333      8.000000
  0.083333  0.333333  0.083333     16.000000
  0.166667  0.333333  0.083333     16.000000
  0.250000  0.333333  0.083333     16.000000
  0.333333  0.333333  0.083333     16.000000
  0.416667  0.333333  0.083333     16.000000
  0.500000  0.333333  0.083333      8.000000
  0.000000  0.416667  0.083333      8.000000
  0.083333  0.416667  0.083333     16.000000
  0.166667  0.416667  0.083333     16.000000
  0.250000  0.416667  0.083333     16.000000
  0.333333  0.416667  0.083333     16.000000
  0.416667  0.416667  0.083333     16.000000
  0.500000  0.416667  0.083333      8.000000
  0.000000  0.500000  0.083333      4.000000
  0.083333  0.500000  0.083333      8.000000
  0.166667  0.500000  0.083333      8.000000
  0.250000  0.500000  0.083333      8.000000
  0.333333  0.500000  0.083333      8.000000
  0.416667  0.500000  0.083333      8.000000
  0.500000  0.500000  0.083333      4.000000
  0.000000  0.166667  0.166667      4.000000
  0.083333  0.166667  0.166667      8.000000
  0.166667  0.166667  0.166667      8.000000
  0.250000  0.166667  0.166667      8.000000
  0.333333  0.166667  0.166667      8.000000
  0.416667  0.166667  0.166667      8.000000
  0.500000  0.166667  0.166667      4.000000
  0.000000  0.250000  0.166667      8.000000
  0.083333  0.250000  0.166667     16.000000
  0.166667  0.250000  0.166667     16.000000
  0.250000  0.250000  0.166667     16.000000
  0.333333  0.250000  0.166667     16.000000
  0.416667  0.250000  0.166667     16.000000
  0.500000  0.250000  0.166667      8.000000
  0.000000  0.333333  0.166667      8.000000
  0.083333  0.333333  0.166667     16.000000
  0.166667  0.333333  0.166667     16.000000
  0.250000  0.333333  0.166667     16.000000
  0.333333  0.333333  0.166667     16.000000
  0.416667  0.333333  0.166667     16.000000
  0.500000  0.333333  0.166667      8.000000
  0.000000  0.416667  0.166667      8.000000
  0.083333  0.416667  0.166667     16.000000
  0.166667  0.416667  0.166667     16.000000
  0.250000  0.416667  0.166667     16.000000
  0.333333  0.416667  0.166667     16.000000
  0.416667  0.416667  0.166667     16.000000
  0.500000  0.416667  0.166667      8.000000
  0.000000  0.500000  0.166667      4.000000
  0.083333  0.500000  0.166667      8.000000
  0.166667  0.500000  0.166667      8.000000
  0.250000  0.500000  0.166667      8.000000
  0.333333  0.500000  0.166667      8.000000
  0.416667  0.500000  0.166667      8.000000
  0.500000  0.500000  0.166667      4.000000
  0.000000  0.250000  0.250000      4.000000
  0.083333  0.250000  0.250000      8.000000
  0.166667  0.250000  0.250000      8.000000
  0.250000  0.250000  0.250000      8.000000
  0.333333  0.250000  0.250000      8.000000
  0.416667  0.250000  0.250000      8.000000
  0.500000  0.250000  0.250000      4.000000
  0.000000  0.333333  0.250000      8.000000
  0.083333  0.333333  0.250000     16.000000
  0.166667  0.333333  0.250000     16.000000
  0.250000  0.333333  0.250000     16.000000
  0.333333  0.333333  0.250000     16.000000
  0.416667  0.333333  0.250000     16.000000
  0.500000  0.333333  0.250000      8.000000
  0.000000  0.416667  0.250000      8.000000
  0.083333  0.416667  0.250000     16.000000
  0.166667  0.416667  0.250000     16.000000
  0.250000  0.416667  0.250000     16.000000
  0.333333  0.416667  0.250000     16.000000
  0.416667  0.416667  0.250000     16.000000
  0.500000  0.416667  0.250000      8.000000
  0.000000  0.500000  0.250000      4.000000
  0.083333  0.500000  0.250000      8.000000
  0.166667  0.500000  0.250000      8.000000
  0.250000  0.500000  0.250000      8.000000
  0.333333  0.500000  0.250000      8.000000
  0.416667  0.500000  0.250000      8.000000
  0.500000  0.500000  0.250000      4.000000
  0.000000  0.333333  0.333333      4.000000
  0.083333  0.333333  0.333333      8.000000
  0.166667  0.333333  0.333333      8.000000
  0.250000  0.333333  0.333333      8.000000
  0.333333  0.333333  0.333333      8.000000
  0.416667  0.333333  0.333333      8.000000
  0.500000  0.333333  0.333333      4.000000
  0.000000  0.416667  0.333333      8.000000
  0.083333  0.416667  0.333333     16.000000
  0.166667  0.416667  0.333333     16.000000
  0.250000  0.416667  0.333333     16.000000
  0.333333  0.416667  0.333333     16.000000
  0.416667  0.416667  0.333333     16.000000
  0.500000  0.416667  0.333333      8.000000
  0.000000  0.500000  0.333333      4.000000
  0.083333  0.500000  0.333333      8.000000
  0.166667  0.500000  0.333333      8.000000
  0.250000  0.500000  0.333333      8.000000
  0.333333  0.500000  0.333333      8.000000
  0.416667  0.500000  0.333333      8.000000
  0.500000  0.500000  0.333333      4.000000
  0.000000  0.416667  0.416667      4.000000
  0.083333  0.416667  0.416667      8.000000
  0.166667  0.416667  0.416667      8.000000
  0.250000  0.416667  0.416667      8.000000
  0.333333  0.416667  0.416667      8.000000
  0.416667  0.416667  0.416667      8.000000
  0.500000  0.416667  0.416667      4.000000
  0.000000  0.500000  0.416667      4.000000
  0.083333  0.500000  0.416667      8.000000
  0.166667  0.500000  0.416667      8.000000
  0.250000  0.500000  0.416667      8.000000
  0.333333  0.500000  0.416667      8.000000
  0.416667  0.500000  0.416667      8.000000
  0.500000  0.500000  0.416667      4.000000
  0.000000  0.500000  0.500000      1.000000
  0.083333  0.500000  0.500000      2.000000
  0.166667  0.500000  0.500000      2.000000
  0.250000  0.500000  0.500000      2.000000
  0.333333  0.500000  0.500000      2.000000
  0.416667  0.500000  0.500000      2.000000
  0.500000  0.500000  0.500000      1.000000
 
 Following cartesian coordinates:
            Coordinates               Weight
  0.000000  0.000000  0.000000      1.000000
  0.010750  0.000000  0.000000      2.000000
  0.021501  0.000000  0.000000      2.000000
  0.032251  0.000000  0.000000      2.000000
  0.043002  0.000000  0.000000      2.000000
  0.053752  0.000000  0.000000      2.000000
  0.064503  0.000000  0.000000      1.000000
  0.000000  0.010750  0.000000      4.000000
  0.010750  0.010750  0.000000      8.000000
  0.021501  0.010750  0.000000      8.000000
  0.032251  0.010750  0.000000      8.000000
  0.043002  0.010750  0.000000      8.000000
  0.053752  0.010750  0.000000      8.000000
  0.064503  0.010750  0.000000      4.000000
  0.000000  0.021501  0.000000      4.000000
  0.010750  0.021501  0.000000      8.000000
  0.021501  0.021501  0.000000      8.000000
  0.032251  0.021501  0.000000      8.000000
  0.043002  0.021501  0.000000      8.000000
  0.053752  0.021501  0.000000      8.000000
  0.064503  0.021501  0.000000      4.000000
  0.000000  0.032251  0.000000      4.000000
  0.010750  0.032251  0.000000      8.000000
  0.021501  0.032251  0.000000      8.000000
  0.032251  0.032251  0.000000      8.000000
  0.043002  0.032251  0.000000      8.000000
  0.053752  0.032251  0.000000      8.000000
  0.064503  0.032251  0.000000      4.000000
  0.000000  0.043002  0.000000      4.000000
  0.010750  0.043002  0.000000      8.000000
  0.021501  0.043002  0.000000      8.000000
  0.032251  0.043002  0.000000      8.000000
  0.043002  0.043002  0.000000      8.000000
  0.053752  0.043002  0.000000      8.000000
  0.064503  0.043002  0.000000      4.000000
  0.000000  0.053752  0.000000      4.000000
  0.010750  0.053752  0.000000      8.000000
  0.021501  0.053752  0.000000      8.000000
  0.032251  0.053752  0.000000      8.000000
  0.043002  0.053752  0.000000      8.000000
  0.053752  0.053752  0.000000      8.000000
  0.064503  0.053752  0.000000      4.000000
  0.000000  0.064503  0.000000      2.000000
  0.010750  0.064503  0.000000      4.000000
  0.021501  0.064503  0.000000      4.000000
  0.032251  0.064503  0.000000      4.000000
  0.043002  0.064503  0.000000      4.000000
  0.053752  0.064503  0.000000      4.000000
  0.064503  0.064503  0.000000      2.000000
  0.000000  0.010750  0.010750      4.000000
  0.010750  0.010750  0.010750      8.000000
  0.021501  0.010750  0.010750      8.000000
  0.032251  0.010750  0.010750      8.000000
  0.043002  0.010750  0.010750      8.000000
  0.053752  0.010750  0.010750      8.000000
  0.064503  0.010750  0.010750      4.000000
  0.000000  0.021501  0.010750      8.000000
  0.010750  0.021501  0.010750     16.000000
  0.021501  0.021501  0.010750     16.000000
  0.032251  0.021501  0.010750     16.000000
  0.043002  0.021501  0.010750     16.000000
  0.053752  0.021501  0.010750     16.000000
  0.064503  0.021501  0.010750      8.000000
  0.000000  0.032251  0.010750      8.000000
  0.010750  0.032251  0.010750     16.000000
  0.021501  0.032251  0.010750     16.000000
  0.032251  0.032251  0.010750     16.000000
  0.043002  0.032251  0.010750     16.000000
  0.053752  0.032251  0.010750     16.000000
  0.064503  0.032251  0.010750      8.000000
  0.000000  0.043002  0.010750      8.000000
  0.010750  0.043002  0.010750     16.000000
  0.021501  0.043002  0.010750     16.000000
  0.032251  0.043002  0.010750     16.000000
  0.043002  0.043002  0.010750     16.000000
  0.053752  0.043002  0.010750     16.000000
  0.064503  0.043002  0.010750      8.000000
  0.000000  0.053752  0.010750      8.000000
  0.010750  0.053752  0.010750     16.000000
  0.021501  0.053752  0.010750     16.000000
  0.032251  0.053752  0.010750     16.000000
  0.043002  0.053752  0.010750     16.000000
  0.053752  0.053752  0.010750     16.000000
  0.064503  0.053752  0.010750      8.000000
  0.000000  0.064503  0.010750      4.000000
  0.010750  0.064503  0.010750      8.000000
  0.021501  0.064503  0.010750      8.000000
  0.032251  0.064503  0.010750      8.000000
  0.043002  0.064503  0.010750      8.000000
  0.053752  0.064503  0.010750      8.000000
  0.064503  0.064503  0.010750      4.000000
  0.000000  0.021501  0.021501      4.000000
  0.010750  0.021501  0.021501      8.000000
  0.021501  0.021501  0.021501      8.000000
  0.032251  0.021501  0.021501      8.000000
  0.043002  0.021501  0.021501      8.000000
  0.053752  0.021501  0.021501      8.000000
  0.064503  0.021501  0.021501      4.000000
  0.000000  0.032251  0.021501      8.000000
  0.010750  0.032251  0.021501     16.000000
  0.021501  0.032251  0.021501     16.000000
  0.032251  0.032251  0.021501     16.000000
  0.043002  0.032251  0.021501     16.000000
  0.053752  0.032251  0.021501     16.000000
  0.064503  0.032251  0.021501      8.000000
  0.000000  0.043002  0.021501      8.000000
  0.010750  0.043002  0.021501     16.000000
  0.021501  0.043002  0.021501     16.000000
  0.032251  0.043002  0.021501     16.000000
  0.043002  0.043002  0.021501     16.000000
  0.053752  0.043002  0.021501     16.000000
  0.064503  0.043002  0.021501      8.000000
  0.000000  0.053752  0.021501      8.000000
  0.010750  0.053752  0.021501     16.000000
  0.021501  0.053752  0.021501     16.000000
  0.032251  0.053752  0.021501     16.000000
  0.043002  0.053752  0.021501     16.000000
  0.053752  0.053752  0.021501     16.000000
  0.064503  0.053752  0.021501      8.000000
  0.000000  0.064503  0.021501      4.000000
  0.010750  0.064503  0.021501      8.000000
  0.021501  0.064503  0.021501      8.000000
  0.032251  0.064503  0.021501      8.000000
  0.043002  0.064503  0.021501      8.000000
  0.053752  0.064503  0.021501      8.000000
  0.064503  0.064503  0.021501      4.000000
  0.000000  0.032251  0.032251      4.000000
  0.010750  0.032251  0.032251      8.000000
  0.021501  0.032251  0.032251      8.000000
  0.032251  0.032251  0.032251      8.000000
  0.043002  0.032251  0.032251      8.000000
  0.053752  0.032251  0.032251      8.000000
  0.064503  0.032251  0.032251      4.000000
  0.000000  0.043002  0.032251      8.000000
  0.010750  0.043002  0.032251     16.000000
  0.021501  0.043002  0.032251     16.000000
  0.032251  0.043002  0.032251     16.000000
  0.043002  0.043002  0.032251     16.000000
  0.053752  0.043002  0.032251     16.000000
  0.064503  0.043002  0.032251      8.000000
  0.000000  0.053752  0.032251      8.000000
  0.010750  0.053752  0.032251     16.000000
  0.021501  0.053752  0.032251     16.000000
  0.032251  0.053752  0.032251     16.000000
  0.043002  0.053752  0.032251     16.000000
  0.053752  0.053752  0.032251     16.000000
  0.064503  0.053752  0.032251      8.000000
  0.000000  0.064503  0.032251      4.000000
  0.010750  0.064503  0.032251      8.000000
  0.021501  0.064503  0.032251      8.000000
  0.032251  0.064503  0.032251      8.000000
  0.043002  0.064503  0.032251      8.000000
  0.053752  0.064503  0.032251      8.000000
  0.064503  0.064503  0.032251      4.000000
  0.000000  0.043002  0.043002      4.000000
  0.010750  0.043002  0.043002      8.000000
  0.021501  0.043002  0.043002      8.000000
  0.032251  0.043002  0.043002      8.000000
  0.043002  0.043002  0.043002      8.000000
  0.053752  0.043002  0.043002      8.000000
  0.064503  0.043002  0.043002      4.000000
  0.000000  0.053752  0.043002      8.000000
  0.010750  0.053752  0.043002     16.000000
  0.021501  0.053752  0.043002     16.000000
  0.032251  0.053752  0.043002     16.000000
  0.043002  0.053752  0.043002     16.000000
  0.053752  0.053752  0.043002     16.000000
  0.064503  0.053752  0.043002      8.000000
  0.000000  0.064503  0.043002      4.000000
  0.010750  0.064503  0.043002      8.000000
  0.021501  0.064503  0.043002      8.000000
  0.032251  0.064503  0.043002      8.000000
  0.043002  0.064503  0.043002      8.000000
  0.053752  0.064503  0.043002      8.000000
  0.064503  0.064503  0.043002      4.000000
  0.000000  0.053752  0.053752      4.000000
  0.010750  0.053752  0.053752      8.000000
  0.021501  0.053752  0.053752      8.000000
  0.032251  0.053752  0.053752      8.000000
  0.043002  0.053752  0.053752      8.000000
  0.053752  0.053752  0.053752      8.000000
  0.064503  0.053752  0.053752      4.000000
  0.000000  0.064503  0.053752      4.000000
  0.010750  0.064503  0.053752      8.000000
  0.021501  0.064503  0.053752      8.000000
  0.032251  0.064503  0.053752      8.000000
  0.043002  0.064503  0.053752      8.000000
  0.053752  0.064503  0.053752      8.000000
  0.064503  0.064503  0.053752      4.000000
  0.000000  0.064503  0.064503      1.000000
  0.010750  0.064503  0.064503      2.000000
  0.021501  0.064503  0.064503      2.000000
  0.032251  0.064503  0.064503      2.000000
  0.043002  0.064503  0.064503      2.000000
  0.053752  0.064503  0.064503      2.000000
  0.064503  0.064503  0.064503      1.000000
 


--------------------------------------------------------------------------------------------------------




 Dimension of arrays:
   k-Points           NKPTS =    196   number of bands    NBANDS=     68
   number of dos      NEDOS =    301   number of ions     NIONS =     32
   non local maximal  LDIM  =      4   non local SUM 2l+1 LMDIM =      8
   total plane-waves  NPLWV = 343000
   max r-space proj   IRMAX =      1   max aug-charges    IRDMAX= 229457
   dimension x,y,z NGX =    70 NGY =   70 NGZ =   70
   dimension x,y,z NGXF=   140 NGYF=  140 NGZF=  140
   support grid    NGXF=   280 NGYF=  280 NGZF=  280
   ions per type =              32
 NGX,Y,Z   is equivalent  to a cutoff of  15.01, 15.01, 15.01 a.u.
 NGXF,Y,Z  is equivalent  to a cutoff of  30.03, 30.03, 30.03 a.u.


 I would recommend the setting:
   dimension x,y,z NGX =    69 NGY =   69 NGZ =   69
 SYSTEM =  unknown system                          
 POSCAR =  Al                                      

 Startparameter for this run:
   NWRITE =      2    write-flag & timer
   PREC   = accura    medium, high low
   ISTART =      0    job   : 0-new  1-cont  2-samecut
   ICHARG =      2    charge: 1-file 2-atom 10-const
   ISPIN  =      1    spin polarized calculation?
   LNONCOLLINEAR =      F non collinear calculations
   LSORBIT =      F    spin-orbit coupling
   INIWAV =      1    electr: 0-lowe 1-rand  2-diag
   LASPH  =      F    aspherical Exc in radial PAW
   METAGGA=      F    non-selfconsistent MetaGGA calc.

 Electronic Relaxation 1
   ENCUT  =  750.0 eV  55.12 Ry    7.42 a.u.  17.31 17.31 17.31*2*pi/ulx,y,z
   ENINI  =  750.0     initial cutoff
   ENAUG  =  291.1 eV  augmentation charge cutoff
   NELM   =     60;   NELMIN=  2; NELMDL= -5     # of ELM steps 
   EDIFF  = 0.1E-07   stopping-criterion for ELM
   LREAL  =      F    real-space projection
   LCOMPAT=      F    compatible to vasp.4.4
   LREAL_COMPAT= F    compatible to vasp.4.5.1-3
   GGA_COMPAT  = T    GGA compatible to vasp.4.4-vasp.4.6
   LMAXPAW     = -100 max onsite density
   LMAXMIX     =    2 max onsite mixed and CHGCAR
   VOSKOWN=      0    Vosko Wilk Nusair interpolation
   ROPT   =    0.00000
 Ionic relaxation
   EDIFFG = 0.1E-06   stopping-criterion for IOM
   NSW    =      0    number of steps for IOM
   NBLOCK =      1;   KBLOCK =      1    inner block; outer block 
   IBRION =     -1    ionic relax: 0-MD 1-quasi-New 2-CG
   NFREE  =      0    steps in history (QN), initial steepest desc. (CG)
   ISIF   =      2    stress and relaxation
   IWAVPR =     10    prediction:  0-non 1-charg 2-wave 3-comb
   ISYM   =      2    0-nonsym 1-usesym 2-fastsym
   LCORR  =      T    Harris-Foulkes like correction to forces

   POTIM  =   0.50    time-step for ionic-motion
   TEIN   =    0.0    initial temperature
   TEBEG  =    0.0;   TEEND  =   0.0 temperature during run
   SMASS  =  -3.00    Nose mass-parameter (am)
   estimated Nose-frequenzy (Omega)   =  0.10E-29 period in steps =****** mass=  -0.137E-26a.u.
   NPACO  =    256;   APACO  = 16.0  distance and # of slots for P.C.
   PSTRESS=    0.0 pullay stress

  Mass of Ions in am
   POMASS =  26.98
  Ionic Valenz
   ZVAL   =   3.00
  Atomic Wigner-Seitz radii
   RWIGS  =  -1.00
   NELECT =      96.0000    total number of electrons
   NUPDOWN=      -1.0000    fix difference up-down

 DOS related values:
   EMIN   =  10.00;   EMAX   =-10.00  energy-range for DOS
   ISMEAR =     0;   SIGMA  =   0.01  broadening in eV -4-tet -1-fermi 0-gaus

 Electronic relaxation 2 (details)
   IALGO  =     38    algorithm
   LDIAG  =      T    sub-space diagonalisation
   IMIX   =      4    mixing-type and parameters
     AMIX     =   0.40;   BMIX     =  1.00
     AMIX_MAG =   1.60;   BMIX_MAG =  1.00
     AMIN     =   0.10
     WC   =   100.;   INIMIX=   1;  MIXPRE=   1

 Intra band minimization:
   WEIMIN = 0.0000     energy-eigenvalue tresh-hold
   EBREAK =  0.38E-10  absolut break condition
   DEPER  =   0.30     relativ break condition  

   TIME   =   0.10     timestep for ELM

  volume/ion in A,a.u.               =      14.56        98.23
  Fermi-wavevector in a.u.,eV,Ry     =   0.967028 12.723391  0.935143

 Second variation
   LSECVAR=     F    do a second variation
 
 Write flags
   LWAVE  =      F    write WAVECAR
   LCHARG =      F    write CHGCAR
   LVTOT  =      F    write LOCPOT, local potential
   LELF   =      F    write electronic localiz. function (ELF)
   LORBIT =      0    0 simple, 1 ext, 2 COOP (PROOUT)


 Dipole corrections
   IDIPOL =      0    1-x, 2-y, 3-z
   LDIPOL =      F    correct potential



--------------------------------------------------------------------------------------------------------


 Static calculation
 charge density will be updated during run
 non-spin polarized calculation
 Variant of blocked Davidson
 Davidson routine will perform the subspace rotation
 performe sub-space diagonalisation
    after iterative eigenvector-optimisation
 modified Broyden-mixing scheme, WC =      100.0
 initial mixing is a Kerker type mixing with AMIX =  0.4000 and BMIX =      1.0000
 Hartree-type preconditioning will be used
 using additional bands           20
 reciprocal scheme for non local part
 use partial core corrections
 calculate Harris-corrections to forces 
   (improved forces if not selfconsistent)
 use gradient corrections 
 use of overlap-Matrix (Vanderbilt PP)
 Gauss-broadening in eV      SIGMA  =   0.01


--------------------------------------------------------------------------------------------------------


  energy-cutoff  :      750.00
  volume of cell :      465.78
      direct lattice vectors                 reciprocal lattice vectors
     7.751628230  0.000000000  0.000000000     0.129005155  0.000000000  0.000000000
     0.000000000  7.751628230  0.000000000     0.000000000  0.129005155  0.000000000
     0.000000000  0.000000000  7.751628230     0.000000000  0.000000000  0.129005155

  length of vectors
     7.751628230  7.751628230  7.751628230     0.129005155  0.129005155  0.129005155


 
 k-points in units of 2pi/SCALE and weight: Automatic mesh                          
   0.00000000  0.00000000  0.00000000       0.001
   0.01075043  0.00000000  0.00000000       0.001
   0.02150086  0.00000000  0.00000000       0.001
   0.03225129  0.00000000  0.00000000       0.001
   0.04300172  0.00000000  0.00000000       0.001
   0.05375215  0.00000000  0.00000000       0.001
   0.06450258  0.00000000  0.00000000       0.001
   0.00000000  0.01075043  0.00000000       0.002
   0.01075043  0.01075043  0.00000000       0.005
   0.02150086  0.01075043  0.00000000       0.005
   0.03225129  0.01075043  0.00000000       0.005
   0.04300172  0.01075043  0.00000000       0.005
   0.05375215  0.01075043  0.00000000       0.005
   0.06450258  0.01075043  0.00000000       0.002
   0.00000000  0.02150086  0.00000000       0.002
   0.01075043  0.02150086  0.00000000       0.005
   0.02150086  0.02150086  0.00000000       0.005
   0.03225129  0.02150086  0.00000000       0.005
   0.04300172  0.02150086  0.00000000       0.005
   0.05375215  0.02150086  0.00000000       0.005
   0.06450258  0.02150086  0.00000000       0.002
   0.00000000  0.03225129  0.00000000       0.002
   0.01075043  0.03225129  0.00000000       0.005
   0.02150086  0.03225129  0.00000000       0.005
   0.03225129  0.03225129  0.00000000       0.005
   0.04300172  0.03225129  0.00000000       0.005
   0.05375215  0.03225129  0.00000000       0.005
   0.06450258  0.03225129  0.00000000       0.002
   0.00000000  0.04300172  0.00000000       0.002
   0.01075043  0.04300172  0.00000000       0.005
   0.02150086  0.04300172  0.00000000       0.005
   0.03225129  0.04300172  0.00000000       0.005
   0.04300172  0.04300172  0.00000000       0.005
   0.05375215  0.04300172  0.00000000       0.005
   0.06450258  0.04300172  0.00000000       0.002
   0.00000000  0.05375215  0.00000000       0.002
   0.01075043  0.05375215  0.00000000       0.005
   0.02150086  0.05375215  0.00000000       0.005
   0.03225129  0.05375215  0.00000000       0.005
   0.04300172  0.05375215  0.00000000       0.005
   0.05375215  0.05375215  0.00000000       0.005
   0.06450258  0.05375215  0.00000000       0.002
   0.00000000  0.06450258  0.00000000       0.001
   0.01075043  0.06450258  0.00000000       0.002
   0.02150086  0.06450258  0.00000000       0.002
   0.03225129  0.06450258  0.00000000       0.002
   0.04300172  0.06450258  0.00000000       0.002
   0.05375215  0.06450258  0.00000000       0.002
   0.06450258  0.06450258  0.00000000       0.001
   0.00000000  0.01075043  0.01075043       0.002
   0.01075043  0.01075043  0.01075043       0.005
   0.02150086  0.01075043  0.01075043       0.005
   0.03225129  0.01075043  0.01075043       0.005
   0.04300172  0.01075043  0.01075043       0.005
   0.05375215  0.01075043  0.01075043       0.005
   0.06450258  0.01075043  0.01075043       0.002
   0.00000000  0.02150086  0.01075043       0.005
   0.01075043  0.02150086  0.01075043       0.009
   0.02150086  0.02150086  0.01075043       0.009
   0.03225129  0.02150086  0.01075043       0.009
   0.04300172  0.02150086  0.01075043       0.009
   0.05375215  0.02150086  0.01075043       0.009
   0.06450258  0.02150086  0.01075043       0.005
   0.00000000  0.03225129  0.01075043       0.005
   0.01075043  0.03225129  0.01075043       0.009
   0.02150086  0.03225129  0.01075043       0.009
   0.03225129  0.03225129  0.01075043       0.009
   0.04300172  0.03225129  0.01075043       0.009
   0.05375215  0.03225129  0.01075043       0.009
   0.06450258  0.03225129  0.01075043       0.005
   0.00000000  0.04300172  0.01075043       0.005
   0.01075043  0.04300172  0.01075043       0.009
   0.02150086  0.04300172  0.01075043       0.009
   0.03225129  0.04300172  0.01075043       0.009
   0.04300172  0.04300172  0.01075043       0.009
   0.05375215  0.04300172  0.01075043       0.009
   0.06450258  0.04300172  0.01075043       0.005
   0.00000000  0.05375215  0.01075043       0.005
   0.01075043  0.05375215  0.01075043       0.009
   0.02150086  0.05375215  0.01075043       0.009
   0.03225129  0.05375215  0.01075043       0.009
   0.04300172  0.05375215  0.01075043       0.009
   0.05375215  0.05375215  0.01075043       0.009
   0.06450258  0.05375215  0.01075043       0.005
   0.00000000  0.06450258  0.01075043       0.002
   0.01075043  0.06450258  0.01075043       0.005
   0.02150086  0.06450258  0.01075043       0.005
   0.03225129  0.06450258  0.01075043       0.005
   0.04300172  0.06450258  0.01075043       0.005
   0.05375215  0.06450258  0.01075043       0.005
   0.06450258  0.06450258  0.01075043       0.002
   0.00000000  0.02150086  0.02150086       0.002
   0.01075043  0.02150086  0.02150086       0.005
   0.02150086  0.02150086  0.02150086       0.005
   0.03225129  0.02150086  0.02150086       0.005
   0.04300172  0.02150086  0.02150086       0.005
   0.05375215  0.02150086  0.02150086       0.005
   0.06450258  0.02150086  0.02150086       0.002
   0.00000000  0.03225129  0.02150086       0.005
   0.01075043  0.03225129  0.02150086       0.009
   0.02150086  0.03225129  0.02150086       0.009
   0.03225129  0.03225129  0.02150086       0.009
   0.04300172  0.03225129  0.02150086       0.009
   0.05375215  0.03225129  0.02150086       0.009
   0.06450258  0.03225129  0.02150086       0.005
   0.00000000  0.04300172  0.02150086       0.005
   0.01075043  0.04300172  0.02150086       0.009
   0.02150086  0.04300172  0.02150086       0.009
   0.03225129  0.04300172  0.02150086       0.009
   0.04300172  0.04300172  0.02150086       0.009
   0.05375215  0.04300172  0.02150086       0.009
   0.06450258  0.04300172  0.02150086       0.005
   0.00000000  0.05375215  0.02150086       0.005
   0.01075043  0.05375215  0.02150086       0.009
   0.02150086  0.05375215  0.02150086       0.009
   0.03225129  0.05375215  0.02150086       0.009
   0.04300172  0.05375215  0.02150086       0.009
   0.05375215  0.05375215  0.02150086       0.009
   0.06450258  0.05375215  0.02150086       0.005
   0.00000000  0.06450258  0.02150086       0.002
   0.01075043  0.06450258  0.02150086       0.005
   0.02150086  0.06450258  0.02150086       0.005
   0.03225129  0.06450258  0.02150086       0.005
   0.04300172  0.06450258  0.02150086       0.005
   0.05375215  0.06450258  0.02150086       0.005
   0.06450258  0.06450258  0.02150086       0.002
   0.00000000  0.03225129  0.03225129       0.002
   0.01075043  0.03225129  0.03225129       0.005
   0.02150086  0.03225129  0.03225129       0.005
   0.03225129  0.03225129  0.03225129       0.005
   0.04300172  0.03225129  0.03225129       0.005
   0.05375215  0.03225129  0.03225129       0.005
   0.06450258  0.03225129  0.03225129       0.002
   0.00000000  0.04300172  0.03225129       0.005
   0.01075043  0.04300172  0.03225129       0.009
   0.02150086  0.04300172  0.03225129       0.009
   0.03225129  0.04300172  0.03225129       0.009
   0.04300172  0.04300172  0.03225129       0.009
   0.05375215  0.04300172  0.03225129       0.009
   0.06450258  0.04300172  0.03225129       0.005
   0.00000000  0.05375215  0.03225129       0.005
   0.01075043  0.05375215  0.03225129       0.009
   0.02150086  0.05375215  0.03225129       0.009
   0.03225129  0.05375215  0.03225129       0.009
   0.04300172  0.05375215  0.03225129       0.009
   0.05375215  0.05375215  0.03225129       0.009
   0.06450258  0.05375215  0.03225129       0.005
   0.00000000  0.06450258  0.03225129       0.002
   0.01075043  0.06450258  0.03225129       0.005
   0.02150086  0.06450258  0.03225129       0.005
   0.03225129  0.06450258  0.03225129       0.005
   0.04300172  0.06450258  0.03225129       0.005
   0.05375215  0.06450258  0.03225129       0.005
   0.06450258  0.06450258  0.03225129       0.002
   0.00000000  0.04300172  0.04300172       0.002
   0.01075043  0.04300172  0.04300172       0.005
   0.02150086  0.04300172  0.04300172       0.005
   0.03225129  0.04300172  0.04300172       0.005
   0.04300172  0.04300172  0.04300172       0.005
   0.05375215  0.04300172  0.04300172       0.005
   0.06450258  0.04300172  0.04300172       0.002
   0.00000000  0.05375215  0.04300172       0.005
   0.01075043  0.05375215  0.04300172       0.009
   0.02150086  0.05375215  0.04300172       0.009
   0.03225129  0.05375215  0.04300172       0.009
   0.04300172  0.05375215  0.04300172       0.009
   0.05375215  0.05375215  0.04300172       0.009
   0.06450258  0.05375215  0.04300172       0.005
   0.00000000  0.06450258  0.04300172       0.002
   0.01075043  0.06450258  0.04300172       0.005
   0.02150086  0.06450258  0.04300172       0.005
   0.03225129  0.06450258  0.04300172       0.005
   0.04300172  0.06450258  0.04300172       0.005
   0.05375215  0.06450258  0.04300172       0.005
   0.06450258  0.06450258  0.04300172       0.002
   0.00000000  0.05375215  0.05375215       0.002
   0.01075043  0.05375215  0.05375215       0.005
   0.02150086  0.05375215  0.05375215       0.005
   0.03225129  0.05375215  0.05375215       0.005
   0.04300172  0.05375215  0.05375215       0.005
   0.05375215  0.05375215  0.05375215       0.005
   0.06450258  0.05375215  0.05375215       0.002
   0.00000000  0.06450258  0.05375215       0.002
   0.01075043  0.06450258  0.05375215       0.005
   0.02150086  0.06450258  0.05375215       0.005
   0.03225129  0.06450258  0.05375215       0.005
   0.04300172  0.06450258  0.05375215       0.005
   0.05375215  0.06450258  0.05375215       0.005
   0.06450258  0.06450258  0.05375215       0.002
   0.00000000  0.06450258  0.06450258       0.001
   0.01075043  0.06450258  0.06450258       0.001
   0.02150086  0.06450258  0.06450258       0.001
   0.03225129  0.06450258  0.06450258       0.001
   0.04300172  0.06450258  0.06450258       0.001
   0.05375215  0.06450258  0.06450258       0.001
   0.06450258  0.06450258  0.06450258       0.001
 
 k-points in reciprocal lattice and weights: Automatic mesh                          
   0.00000000  0.00000000  0.00000000       0.001
   0.08333333  0.00000000  0.00000000       0.001
   0.16666667  0.00000000  0.00000000       0.001
   0.25000000  0.00000000  0.00000000       0.001
   0.33333333  0.00000000  0.00000000       0.001
   0.41666667  0.00000000  0.00000000       0.001
   0.50000000  0.00000000  0.00000000       0.001
   0.00000000  0.08333333  0.00000000       0.002
   0.08333333  0.08333333  0.00000000       0.005
   0.16666667  0.08333333  0.00000000       0.005
   0.25000000  0.08333333  0.00000000       0.005
   0.33333333  0.08333333  0.00000000       0.005
   0.41666667  0.08333333  0.00000000       0.005
   0.50000000  0.08333333  0.00000000       0.002
   0.00000000  0.16666667  0.00000000       0.002
   0.08333333  0.16666667  0.00000000       0.005
   0.16666667  0.16666667  0.00000000       0.005
   0.25000000  0.16666667  0.00000000       0.005
   0.33333333  0.16666667  0.00000000       0.005
   0.41666667  0.16666667  0.00000000       0.005
   0.50000000  0.16666667  0.00000000       0.002
   0.00000000  0.25000000  0.00000000       0.002
   0.08333333  0.25000000  0.00000000       0.005
   0.16666667  0.25000000  0.00000000       0.005
   0.25000000  0.25000000  0.00000000       0.005
   0.33333333  0.25000000  0.00000000       0.005
   0.41666667  0.25000000  0.00000000       0.005
   0.50000000  0.25000000  0.00000000       0.002
   0.00000000  0.33333333  0.00000000       0.002
   0.08333333  0.33333333  0.00000000       0.005
   0.16666667  0.33333333  0.00000000       0.005
   0.25000000  0.33333333  0.00000000       0.005
   0.33333333  0.33333333  0.00000000       0.005
   0.41666667  0.33333333  0.00000000       0.005
   0.50000000  0.33333333  0.00000000       0.002
   0.00000000  0.41666667  0.00000000       0.002
   0.08333333  0.41666667  0.00000000       0.005
   0.16666667  0.41666667  0.00000000       0.005
   0.25000000  0.41666667  0.00000000       0.005
   0.33333333  0.41666667  0.00000000       0.005
   0.41666667  0.41666667  0.00000000       0.005
   0.50000000  0.41666667  0.00000000       0.002
   0.00000000  0.50000000  0.00000000       0.001
   0.08333333  0.50000000  0.00000000       0.002
   0.16666667  0.50000000  0.00000000       0.002
   0.25000000  0.50000000  0.00000000       0.002
   0.33333333  0.50000000  0.00000000       0.002
   0.41666667  0.50000000  0.00000000       0.002
   0.50000000  0.50000000  0.00000000       0.001
   0.00000000  0.08333333  0.08333333       0.002
   0.08333333  0.08333333  0.08333333       0.005
   0.16666667  0.08333333  0.08333333       0.005
   0.25000000  0.08333333  0.08333333       0.005
   0.33333333  0.08333333  0.08333333       0.005
   0.41666667  0.08333333  0.08333333       0.005
   0.50000000  0.08333333  0.08333333       0.002
   0.00000000  0.16666667  0.08333333       0.005
   0.08333333  0.16666667  0.08333333       0.009
   0.16666667  0.16666667  0.08333333       0.009
   0.25000000  0.16666667  0.08333333       0.009
   0.33333333  0.16666667  0.08333333       0.009
   0.41666667  0.16666667  0.08333333       0.009
   0.50000000  0.16666667  0.08333333       0.005
   0.00000000  0.25000000  0.08333333       0.005
   0.08333333  0.25000000  0.08333333       0.009
   0.16666667  0.25000000  0.08333333       0.009
   0.25000000  0.25000000  0.08333333       0.009
   0.33333333  0.25000000  0.08333333       0.009
   0.41666667  0.25000000  0.08333333       0.009
   0.50000000  0.25000000  0.08333333       0.005
   0.00000000  0.33333333  0.08333333       0.005
   0.08333333  0.33333333  0.08333333       0.009
   0.16666667  0.33333333  0.08333333       0.009
   0.25000000  0.33333333  0.08333333       0.009
   0.33333333  0.33333333  0.08333333       0.009
   0.41666667  0.33333333  0.08333333       0.009
   0.50000000  0.33333333  0.08333333       0.005
   0.00000000  0.41666667  0.08333333       0.005
   0.08333333  0.41666667  0.08333333       0.009
   0.16666667  0.41666667  0.08333333       0.009
   0.25000000  0.41666667  0.08333333       0.009
   0.33333333  0.41666667  0.08333333       0.009
   0.41666667  0.41666667  0.08333333       0.009
   0.50000000  0.41666667  0.08333333       0.005
   0.00000000  0.50000000  0.08333333       0.002
   0.08333333  0.50000000  0.08333333       0.005
   0.16666667  0.50000000  0.08333333       0.005
   0.25000000  0.50000000  0.08333333       0.005
   0.33333333  0.50000000  0.08333333       0.005
   0.41666667  0.50000000  0.08333333       0.005
   0.50000000  0.50000000  0.08333333       0.002
   0.00000000  0.16666667  0.16666667       0.002
   0.08333333  0.16666667  0.16666667       0.005
   0.16666667  0.16666667  0.16666667       0.005
   0.25000000  0.16666667  0.16666667       0.005
   0.33333333  0.16666667  0.16666667       0.005
   0.41666667  0.16666667  0.16666667       0.005
   0.50000000  0.16666667  0.16666667       0.002
   0.00000000  0.25000000  0.16666667       0.005
   0.08333333  0.25000000  0.16666667       0.009
   0.16666667  0.25000000  0.16666667       0.009
   0.25000000  0.25000000  0.16666667       0.009
   0.33333333  0.25000000  0.16666667       0.009
   0.41666667  0.25000000  0.16666667       0.009
   0.50000000  0.25000000  0.16666667       0.005
   0.00000000  0.33333333  0.16666667       0.005
   0.08333333  0.33333333  0.16666667       0.009
   0.16666667  0.33333333  0.16666667       0.009
   0.25000000  0.33333333  0.16666667       0.009
   0.33333333  0.33333333  0.16666667       0.009
   0.41666667  0.33333333  0.16666667       0.009
   0.50000000  0.33333333  0.16666667       0.005
   0.00000000  0.41666667  0.16666667       0.005
   0.08333333  0.41666667  0.16666667       0.009
   0.16666667  0.41666667  0.16666667       0.009
   0.25000000  0.41666667  0.16666667       0.009
   0.33333333  0.41666667  0.16666667       0.009
   0.41666667  0.41666667  0.16666667       0.009
   0.50000000  0.41666667  0.16666667       0.005
   0.00000000  0.50000000  0.16666667       0.002
   0.08333333  0.50000000  0.16666667       0.005
   0.16666667  0.50000000  0.16666667       0.005
   0.25000000  0.50000000  0.16666667       0.005
   0.33333333  0.50000000  0.16666667       0.005
   0.41666667  0.50000000  0.16666667       0.005
   0.50000000  0.50000000  0.16666667       0.002
   0.00000000  0.25000000  0.25000000       0.002
   0.08333333  0.25000000  0.25000000       0.005
   0.16666667  0.25000000  0.25000000       0.005
   0.25000000  0.25000000  0.25000000       0.005
   0.33333333  0.25000000  0.25000000       0.005
   0.41666667  0.25000000  0.25000000       0.005
   0.50000000  0.25000000  0.25000000       0.002
   0.00000000  0.33333333  0.25000000       0.005
   0.08333333  0.33333333  0.25000000       0.009
   0.16666667  0.33333333  0.25000000       0.009
   0.25000000  0.33333333  0.25000000       0.009
   0.33333333  0.33333333  0.25000000       0.009
   0.41666667  0.33333333  0.25000000       0.009
   0.50000000  0.33333333  0.25000000       0.005
   0.00000000  0.41666667  0.25000000       0.005
   0.08333333  0.41666667  0.25000000       0.009
   0.16666667  0.41666667  0.25000000       0.009
   0.25000000  0.41666667  0.25000000       0.009
   0.33333333  0.41666667  0.25000000       0.009
   0.41666667  0.41666667  0.25000000       0.009
   0.50000000  0.41666667  0.25000000       0.005
   0.00000000  0.50000000  0.25000000       0.002
   0.08333333  0.50000000  0.25000000       0.005
   0.16666667  0.50000000  0.25000000       0.005
   0.25000000  0.50000000  0.25000000       0.005
   0.33333333  0.50000000  0.25000000       0.005
   0.41666667  0.50000000  0.25000000       0.005
   0.50000000  0.50000000  0.25000000       0.002
   0.00000000  0.33333333  0.33333333       0.002
   0.08333333  0.33333333  0.33333333       0.005
   0.16666667  0.33333333  0.33333333       0.005
   0.25000000  0.33333333  0.33333333       0.005
   0.33333333  0.33333333  0.33333333       0.005
   0.41666667  0.33333333  0.33333333       0.005
   0.50000000  0.33333333  0.33333333       0.002
   0.00000000  0.41666667  0.33333333       0.005
   0.08333333  0.41666667  0.33333333       0.009
   0.16666667  0.41666667  0.33333333       0.009
   0.25000000  0.41666667  0.33333333       0.009
   0.33333333  0.41666667  0.33333333       0.009
   0.41666667  0.41666667  0.33333333       0.009
   0.50000000  0.41666667  0.33333333       0.005
   0.00000000  0.50000000  0.33333333       0.002
   0.08333333  0.50000000  0.33333333       0.005
   0.16666667  0.50000000  0.33333333       0.005
   0.25000000  0.50000000  0.33333333       0.005
   0.33333333  0.50000000  0.33333333       0.005
   0.41666667  0.50000000  0.33333333       0.005
   0.50000000  0.50000000  0.33333333       0.002
   0.00000000  0.41666667  0.41666667       0.002
   0.08333333  0.41666667  0.41666667       0.005
   0.16666667  0.41666667  0.41666667       0.005
   0.25000000  0.41666667  0.41666667       0.005
   0.33333333  0.41666667  0.41666667       0.005
   0.41666667  0.41666667  0.41666667       0.005
   0.50000000  0.41666667  0.41666667       0.002
   0.00000000  0.50000000  0.41666667       0.002
   0.08333333  0.50000000  0.41666667       0.005
   0.16666667  0.50000000  0.41666667       0.005
   0.25000000  0.50000000  0.41666667       0.005
   0.33333333  0.50000000  0.41666667       0.005
   0.41666667  0.50000000  0.41666667       0.005
   0.50000000  0.50000000  0.41666667       0.002
   0.00000000  0.50000000  0.50000000       0.001
   0.08333333  0.50000000  0.50000000       0.001
   0.16666667  0.50000000  0.50000000       0.001
   0.25000000  0.50000000  0.50000000       0.001
   0.33333333  0.50000000  0.50000000       0.001
   0.41666667  0.50000000  0.50000000       0.001
   0.50000000  0.50000000  0.50000000       0.001
 
 position of ions in fractional coordinates (direct lattice) 
   0.25129005  0.25000000  0.00000000
   0.75000000  0.25000000  0.00000000
   0.25000000  0.75000000  0.00000000
   0.75000000  0.75000000  0.00000000
   0.25000000  0.25000000  0.50000000
   0.75000000  0.25000000  0.50000000
   0.25000000  0.75000000  0.50000000
   0.75000000  0.75000000  0.50000000
   0.25000000  0.00000000  0.25000000
   0.75000000  0.00000000  0.25000000
   0.25000000  0.50000000  0.25000000
   0.75000000  0.50000000  0.25000000
   0.25000000  0.00000000  0.75000000
   0.75000000  0.00000000  0.75000000
   0.25000000  0.50000000  0.75000000
   0.75000000  0.50000000  0.75000000
   0.00000000  0.25000000  0.25000000
   0.50000000  0.25000000  0.25000000
   0.00000000  0.75000000  0.25000000
   0.50000000  0.75000000  0.25000000
   0.00000000  0.25000000  0.75000000
   0.50000000  0.25000000  0.75000000
   0.00000000  0.75000000  0.75000000
   0.50000000  0.75000000  0.75000000
   0.00000000  0.00000000  0.00000000
   0.50000000  0.00000000  0.00000000
   0.00000000  0.50000000  0.00000000
   0.50000000  0.50000000  0.00000000
   0.00000000  0.00000000  0.50000000
   0.50000000  0.00000000  0.50000000
   0.00000000  0.50000000  0.50000000
   0.50000000  0.50000000  0.50000000
 
 position of ions in cartesian coordinates  (Angst):
   1.94790706  1.93790706  0.00000000
   5.81372117  1.93790706  0.00000000
   1.93790706  5.81372117  0.00000000
   5.81372117  5.81372117  0.00000000
   1.93790706  1.93790706  3.87581411
   5.81372117  1.93790706  3.87581411
   1.93790706  5.81372117  3.87581411
   5.81372117  5.81372117  3.87581411
   1.93790706  0.00000000  1.93790706
   5.81372117  0.00000000  1.93790706
   1.93790706  3.87581411  1.93790706
   5.81372117  3.87581411  1.93790706
   1.93790706  0.00000000  5.81372117
   5.81372117  0.00000000  5.81372117
   1.93790706  3.87581411  5.81372117
   5.81372117  3.87581411  5.81372117
   0.00000000  1.93790706  1.93790706
   3.87581411  1.93790706  1.93790706
   0.00000000  5.81372117  1.93790706
   3.87581411  5.81372117  1.93790706
   0.00000000  1.93790706  5.81372117
   3.87581411  1.93790706  5.81372117
   0.00000000  5.81372117  5.81372117
   3.87581411  5.81372117  5.81372117
   0.00000000  0.00000000  0.00000000
   3.87581411  0.00000000  0.00000000
   0.00000000  3.87581411  0.00000000
   3.87581411  3.87581411  0.00000000
   0.00000000  0.00000000  3.87581411
   3.87581411  0.00000000  3.87581411
   0.00000000  3.87581411  3.87581411
   3.87581411  3.87581411  3.87581411
 


--------------------------------------------------------------------------------------------------------


 k-point  1 :  0.00000.00000.0000  plane waves:  21823
 k-point  2 :  0.08330.00000.0000  plane waves:  21779
 k-point  3 :  0.16670.00000.0000  plane waves:  21755
 k-point  4 :  0.25000.00000.0000  plane waves:  21779
 k-point  5 :  0.33330.00000.0000  plane waves:  21706
 k-point  6 :  0.41670.00000.0000  plane waves:  21702
 k-point  7 :  0.50000.00000.0000  plane waves:  21730
 k-point  8 :  0.00000.08330.0000  plane waves:  21779
 k-point  9 :  0.08330.08330.0000  plane waves:  21771
 k-point 10 :  0.16670.08330.0000  plane waves:  21744
 k-point 11 :  0.25000.08330.0000  plane waves:  21749
 k-point 12 :  0.33330.08330.0000  plane waves:  21732
 k-point 13 :  0.41670.08330.0000  plane waves:  21727
 k-point 14 :  0.50000.08330.0000  plane waves:  21720
 k-point 15 :  0.00000.16670.0000  plane waves:  21755
 k-point 16 :  0.08330.16670.0000  plane waves:  21744
 k-point 17 :  0.16670.16670.0000  plane waves:  21725
 k-point 18 :  0.25000.16670.0000  plane waves:  21731
 k-point 19 :  0.33330.16670.0000  plane waves:  21738
 k-point 20 :  0.41670.16670.0000  plane waves:  21729
 k-point 21 :  0.50000.16670.0000  plane waves:  21768
 k-point 22 :  0.00000.25000.0000  plane waves:  21779
 k-point 23 :  0.08330.25000.0000  plane waves:  21749
 k-point 24 :  0.16670.25000.0000  plane waves:  21731
 k-point 25 :  0.25000.25000.0000  plane waves:  21684
 k-point 26 :  0.33330.25000.0000  plane waves:  21718
 k-point 27 :  0.41670.25000.0000  plane waves:  21723
 k-point 28 :  0.50000.25000.0000  plane waves:  21726
 k-point 29 :  0.00000.33330.0000  plane waves:  21706
 k-point 30 :  0.08330.33330.0000  plane waves:  21732
 k-point 31 :  0.16670.33330.0000  plane waves:  21738
 k-point 32 :  0.25000.33330.0000  plane waves:  21718
 k-point 33 :  0.33330.33330.0000  plane waves:  21706
 k-point 34 :  0.41670.33330.0000  plane waves:  21707
 k-point 35 :  0.50000.33330.0000  plane waves:  21688
 k-point 36 :  0.00000.41670.0000  plane waves:  21702
 k-point 37 :  0.08330.41670.0000  plane waves:  21727
 k-point 38 :  0.16670.41670.0000  plane waves:  21729
 k-point 39 :  0.25000.41670.0000  plane waves:  21723
 k-point 40 :  0.33330.41670.0000  plane waves:  21707
 k-point 41 :  0.41670.41670.0000  plane waves:  21708
 k-point 42 :  0.50000.41670.0000  plane waves:  21708
 k-point 43 :  0.00000.50000.0000  plane waves:  21730
 k-point 44 :  0.08330.50000.0000  plane waves:  21720
 k-point 45 :  0.16670.50000.0000  plane waves:  21768
 k-point 46 :  0.25000.50000.0000  plane waves:  21726
 k-point 47 :  0.33330.50000.0000  plane waves:  21688
 k-point 48 :  0.41670.50000.0000  plane waves:  21708
 k-point 49 :  0.50000.50000.0000  plane waves:  21712
 k-point 50 :  0.00000.08330.0833  plane waves:  21771
 k-point 51 :  0.08330.08330.0833  plane waves:  21743
 k-point 52 :  0.16670.08330.0833  plane waves:  21741
 k-point 53 :  0.25000.08330.0833  plane waves:  21752
 k-point 54 :  0.33330.08330.0833  plane waves:  21725
 k-point 55 :  0.41670.08330.0833  plane waves:  21722
 k-point 56 :  0.50000.08330.0833  plane waves:  21738
 k-point 57 :  0.00000.16670.0833  plane waves:  21744
 k-point 58 :  0.08330.16670.0833  plane waves:  21741
 k-point 59 :  0.16670.16670.0833  plane waves:  21728
 k-point 60 :  0.25000.16670.0833  plane waves:  21740
 k-point 61 :  0.33330.16670.0833  plane waves:  21726
 k-point 62 :  0.41670.16670.0833  plane waves:  21727
 k-point 63 :  0.50000.16670.0833  plane waves:  21730
 k-point 64 :  0.00000.25000.0833  plane waves:  21749
 k-point 65 :  0.08330.25000.0833  plane waves:  21752
 k-point 66 :  0.16670.25000.0833  plane waves:  21740
 k-point 67 :  0.25000.25000.0833  plane waves:  21709
 k-point 68 :  0.33330.25000.0833  plane waves:  21720
 k-point 69 :  0.41670.25000.0833  plane waves:  21730
 k-point 70 :  0.50000.25000.0833  plane waves:  21726
 k-point 71 :  0.00000.33330.0833  plane waves:  21732
 k-point 72 :  0.08330.33330.0833  plane waves:  21725
 k-point 73 :  0.16670.33330.0833  plane waves:  21726
 k-point 74 :  0.25000.33330.0833  plane waves:  21720
 k-point 75 :  0.33330.33330.0833  plane waves:  21704
 k-point 76 :  0.41670.33330.0833  plane waves:  21700
 k-point 77 :  0.50000.33330.0833  plane waves:  21712
 k-point 78 :  0.00000.41670.0833  plane waves:  21727
 k-point 79 :  0.08330.41670.0833  plane waves:  21722
 k-point 80 :  0.16670.41670.0833  plane waves:  21727
 k-point 81 :  0.25000.41670.0833  plane waves:  21730
 k-point 82 :  0.33330.41670.0833  plane waves:  21700
 k-point 83 :  0.41670.41670.0833  plane waves:  21702
 k-point 84 :  0.50000.41670.0833  plane waves:  21700
 k-point 85 :  0.00000.50000.0833  plane waves:  21720
 k-point 86 :  0.08330.50000.0833  plane waves:  21738
 k-point 87 :  0.16670.50000.0833  plane waves:  21730
 k-point 88 :  0.25000.50000.0833  plane waves:  21726
 k-point 89 :  0.33330.50000.0833  plane waves:  21712
 k-point 90 :  0.41670.50000.0833  plane waves:  21700
 k-point 91 :  0.50000.50000.0833  plane waves:  21680
 k-point 92 :  0.00000.16670.1667  plane waves:  21725
 k-point 93 :  0.08330.16670.1667  plane waves:  21728
 k-point 94 :  0.16670.16670.1667  plane waves:  21794
 k-point 95 :  0.25000.16670.1667  plane waves:  21716
 k-point 96 :  0.33330.16670.1667  plane waves:  21709
 k-point 97 :  0.41670.16670.1667  plane waves:  21731
 k-point 98 :  0.50000.16670.1667  plane waves:  21690
 k-point 99 :  0.00000.25000.1667  plane waves:  21731
 k-point ** :  0.08330.25000.1667  plane waves:  21740
 k-point ** :  0.16670.25000.1667  plane waves:  21716
 k-point ** :  0.25000.25000.1667  plane waves:  21710
 k-point ** :  0.33330.25000.1667  plane waves:  21711
 k-point ** :  0.41670.25000.1667  plane waves:  21731
 k-point ** :  0.50000.25000.1667  plane waves:  21728
 k-point ** :  0.00000.33330.1667  plane waves:  21738
 k-point ** :  0.08330.33330.1667  plane waves:  21726
 k-point ** :  0.16670.33330.1667  plane waves:  21709
 k-point ** :  0.25000.33330.1667  plane waves:  21711
 k-point ** :  0.33330.33330.1667  plane waves:  21719
 k-point ** :  0.41670.33330.1667  plane waves:  21715
 k-point ** :  0.50000.33330.1667  plane waves:  21710
 k-point ** :  0.00000.41670.1667  plane waves:  21729
 k-point ** :  0.08330.41670.1667  plane waves:  21727
 k-point ** :  0.16670.41670.1667  plane waves:  21731
 k-point ** :  0.25000.41670.1667  plane waves:  21731
 k-point ** :  0.33330.41670.1667  plane waves:  21715
 k-point ** :  0.41670.41670.1667  plane waves:  21707
 k-point ** :  0.50000.41670.1667  plane waves:  21702
 k-point ** :  0.00000.50000.1667  plane waves:  21768
 k-point ** :  0.08330.50000.1667  plane waves:  21730
 k-point ** :  0.16670.50000.1667  plane waves:  21690
 k-point ** :  0.25000.50000.1667  plane waves:  21728
 k-point ** :  0.33330.50000.1667  plane waves:  21710
 k-point ** :  0.41670.50000.1667  plane waves:  21702
 k-point ** :  0.50000.50000.1667  plane waves:  21700
 k-point ** :  0.00000.25000.2500  plane waves:  21684
 k-point ** :  0.08330.25000.2500  plane waves:  21709
 k-point ** :  0.16670.25000.2500  plane waves:  21710
 k-point ** :  0.25000.25000.2500  plane waves:  21716
 k-point ** :  0.33330.25000.2500  plane waves:  21713
 k-point ** :  0.41670.25000.2500  plane waves:  21720
 k-point ** :  0.50000.25000.2500  plane waves:  21698
 k-point ** :  0.00000.33330.2500  plane waves:  21718
 k-point ** :  0.08330.33330.2500  plane waves:  21720
 k-point ** :  0.16670.33330.2500  plane waves:  21711
 k-point ** :  0.25000.33330.2500  plane waves:  21713
 k-point ** :  0.33330.33330.2500  plane waves:  21709
 k-point ** :  0.41670.33330.2500  plane waves:  21725
 k-point ** :  0.50000.33330.2500  plane waves:  21728
 k-point ** :  0.00000.41670.2500  plane waves:  21723
 k-point ** :  0.08330.41670.2500  plane waves:  21730
 k-point ** :  0.16670.41670.2500  plane waves:  21731
 k-point ** :  0.25000.41670.2500  plane waves:  21720
 k-point ** :  0.33330.41670.2500  plane waves:  21725
 k-point ** :  0.41670.41670.2500  plane waves:  21731
 k-point ** :  0.50000.41670.2500  plane waves:  21710
 k-point ** :  0.00000.50000.2500  plane waves:  21726
 k-point ** :  0.08330.50000.2500  plane waves:  21726
 k-point ** :  0.16670.50000.2500  plane waves:  21728
 k-point ** :  0.25000.50000.2500  plane waves:  21698
 k-point ** :  0.33330.50000.2500  plane waves:  21728
 k-point ** :  0.41670.50000.2500  plane waves:  21710
 k-point ** :  0.50000.50000.2500  plane waves:  21744
 k-point ** :  0.00000.33330.3333  plane waves:  21706
 k-point ** :  0.08330.33330.3333  plane waves:  21704
 k-point ** :  0.16670.33330.3333  plane waves:  21719
 k-point ** :  0.25000.33330.3333  plane waves:  21709
 k-point ** :  0.33330.33330.3333  plane waves:  21737
 k-point ** :  0.41670.33330.3333  plane waves:  21720
 k-point ** :  0.50000.33330.3333  plane waves:  21740
 k-point ** :  0.00000.41670.3333  plane waves:  21707
 k-point ** :  0.08330.41670.3333  plane waves:  21700
 k-point ** :  0.16670.41670.3333  plane waves:  21715
 k-point ** :  0.25000.41670.3333  plane waves:  21725
 k-point ** :  0.33330.41670.3333  plane waves:  21720
 k-point ** :  0.41670.41670.3333  plane waves:  21729
 k-point ** :  0.50000.41670.3333  plane waves:  21752
 k-point ** :  0.00000.50000.3333  plane waves:  21688
 k-point ** :  0.08330.50000.3333  plane waves:  21712
 k-point ** :  0.16670.50000.3333  plane waves:  21710
 k-point ** :  0.25000.50000.3333  plane waves:  21728
 k-point ** :  0.33330.50000.3333  plane waves:  21740
 k-point ** :  0.41670.50000.3333  plane waves:  21752
 k-point ** :  0.50000.50000.3333  plane waves:  21804
 k-point ** :  0.00000.41670.4167  plane waves:  21708
 k-point ** :  0.08330.41670.4167  plane waves:  21702
 k-point ** :  0.16670.41670.4167  plane waves:  21707
 k-point ** :  0.25000.41670.4167  plane waves:  21731
 k-point ** :  0.33330.41670.4167  plane waves:  21729
 k-point ** :  0.41670.41670.4167  plane waves:  21743
 k-point ** :  0.50000.41670.4167  plane waves:  21768
 k-point ** :  0.00000.50000.4167  plane waves:  21708
 k-point ** :  0.08330.50000.4167  plane waves:  21700
 k-point ** :  0.16670.50000.4167  plane waves:  21702
 k-point ** :  0.25000.50000.4167  plane waves:  21710
 k-point ** :  0.33330.50000.4167  plane waves:  21752
 k-point ** :  0.41670.50000.4167  plane waves:  21768
 k-point ** :  0.50000.50000.4167  plane waves:  21760
 k-point ** :  0.00000.50000.5000  plane waves:  21712
 k-point ** :  0.08330.50000.5000  plane waves:  21680
 k-point ** :  0.16670.50000.5000  plane waves:  21700
 k-point ** :  0.25000.50000.5000  plane waves:  21744
 k-point ** :  0.33330.50000.5000  plane waves:  21804
 k-point ** :  0.41670.50000.5000  plane waves:  21760
 k-point ** :  0.50000.50000.5000  plane waves:  21776

 maximum and minimum number of plane-waves per node :  21823 21680

 maximum number of plane-waves:  21823
 maximal index in each direction: 
   IXMAX= 17   IYMAX= 17   IZMAX= 17
   IXMIN=-17   IYMIN=-17   IZMIN=-17

 NGX is ok and might be reduce to  70
 NGY is ok and might be reduce to  70
 NGZ is ok and might be reduce to  70

 parallel 3dFFT wavefunction:
    minimum data exchange during FFTs selected (reduces bandwidth)
 parallel 3dFFT charge:
    minimum data exchange during FFTs selected (reduces bandwidth)

 For storing wavefunctions 4633.01 MBYTES are necessary
 For predicting wavefunctions   55.03 MBYTES are necessary
Broyden mixing: mesh for mixing (old mesh)
   NGX = 35   NGY = 35   NGZ = 35
  (NGX  =140   NGY  =140   NGZ  =140)
 gives a total of  42875 points
 initial charge density was supplied:
 charge density of overlapping atoms calculated
 number of electron   96.0000000 magnetization 
 keeping initial charge density in first step


--------------------------------------------------------------------------------------------------------


 Maximum index for augmentation-charges        55639 (set IRDMAX)


--------------------------------------------------------------------------------------------------------


 First call to EWALD:  gamma=   0.229
 Maximum number of real-space cells 3x 3x 3
 Maximum number of reciprocal cells 3x 3x 3

    FEWALD:  VPU time    0.01: CPU time    0.01


----------------------------------------- Iteration    1(   1)  ---------------------------------------


    POTLOK:  VPU time    2.12: CPU time    2.12
    SETDIJ:  VPU time    2.00: CPU time    2.00
    EDDAV :  VPU time 1523.92: CPU time 1524.66
    DOS   :  VPU time   -0.00: CPU time   -0.00
    ------------------------------------------
      LOOP:  VPU time 1528.10: CPU time 1528.84

 eigenvalue-minimisations  : 26656
 total energy-change (2. order) : 0.2027728E+03  (-0.4361033E+04)
 number of electron   96.0000000 magnetization 
 augmentation part    96.0000000 magnetization 

 Free energy of the ion-electron system (eV)
  ---------------------------------------------------
  alpha Z        PSCENC =        -7.38425772
  Ewald energy   TEWEN  =     -2452.91010324
  -1/2 Hartree   DENC   =        -2.22650109
  -V(xc)+E(xc)   XCENC  =      -832.28823517
  PAW double counting   =      1137.73615723     -115.16745734
  entropy T*S    EENTRO =        -0.00020154
  eigenvalues    EBANDS =       761.77827626
  atomic energy  EATOM  =      1713.23509266
  ---------------------------------------------------
  free energy    TOTEN  =       202.77277004 eV

  energy without entropy =      202.77297158  energy(sigma->0) =      202.77287081


--------------------------------------------------------------------------------------------------------




----------------------------------------- Iteration    1(   2)  ---------------------------------------


    EDDAV :  VPU time 1697.28: CPU time 1698.09
    DOS   :  VPU time    0.00: CPU time   -0.00
    ------------------------------------------
      LOOP:  VPU time 1697.34: CPU time 1698.15

 eigenvalue-minimisations  : 31072
 total energy-change (2. order) :-0.3025904E+03  (-0.2833231E+03)
 number of electron   96.0000000 magnetization 
 augmentation part    96.0000000 magnetization 

 Free energy of the ion-electron system (eV)
  ---------------------------------------------------
  alpha Z        PSCENC =        -7.38425772
  Ewald energy   TEWEN  =     -2452.91010324
  -1/2 Hartree   DENC   =        -2.22650109
  -V(xc)+E(xc)   XCENC  =      -832.28823517
  PAW double counting   =      1137.73615723     -115.16745734
  entropy T*S    EENTRO =        -0.00050902
  eigenvalues    EBANDS =       459.18818088
  atomic energy  EATOM  =      1713.23509266
  ---------------------------------------------------
  free energy    TOTEN  =       -99.81763282 eV

  energy without entropy =      -99.81712380  energy(sigma->0) =      -99.81737831


--------------------------------------------------------------------------------------------------------




----------------------------------------- Iteration    1(   3)  ---------------------------------------


    EDDAV :  VPU time 1790.27: CPU time 1813.02
    DOS   :  VPU time    0.00: CPU time   -0.00
    ------------------------------------------
      LOOP:  VPU time 1790.33: CPU time 1813.09

 eigenvalue-minimisations  : 33052
 total energy-change (2. order) :-0.1823294E+02  (-0.1718653E+02)
 number of electron   96.0000000 magnetization 
 augmentation part    96.0000000 magnetization 

 Free energy of the ion-electron system (eV)
  ---------------------------------------------------
  alpha Z        PSCENC =        -7.38425772
  Ewald energy   TEWEN  =     -2452.91010324
  -1/2 Hartree   DENC   =        -2.22650109
  -V(xc)+E(xc)   XCENC  =      -832.28823517
  PAW double counting   =      1137.73615723     -115.16745734
  entropy T*S    EENTRO =        -0.00042346
  eigenvalues    EBANDS =       440.95515744
  atomic energy  EATOM  =      1713.23509266
  ---------------------------------------------------
  free energy    TOTEN  =      -118.05057070 eV

  energy without entropy =     -118.05014724  energy(sigma->0) =     -118.05035897


--------------------------------------------------------------------------------------------------------




----------------------------------------- Iteration    1(   4)  ---------------------------------------


    EDDAV :  VPU time 1722.28: CPU time 1742.36
    DOS   :  VPU time    0.00: CPU time   -0.00
    ------------------------------------------
      LOOP:  VPU time 1722.34: CPU time 1742.41

 eigenvalue-minimisations  : 31384
 total energy-change (2. order) :-0.4272891E+00  (-0.4220701E+00)
 number of electron   96.0000000 magnetization 
 augmentation part    96.0000000 magnetization 

 Free energy of the ion-electron system (eV)
  ---------------------------------------------------
  alpha Z        PSCENC =        -7.38425772
  Ewald energy   TEWEN  =     -2452.91010324
  -1/2 Hartree   DENC   =        -2.22650109
  -V(xc)+E(xc)   XCENC  =      -832.28823517
  PAW double counting   =      1137.73615723     -115.16745734
  entropy T*S    EENTRO =        -0.00050133
  eigenvalues    EBANDS =       440.52794621
  atomic energy  EATOM  =      1713.23509266
  ---------------------------------------------------
  free energy    TOTEN  =      -118.47785980 eV

  energy without entropy =     -118.47735847  energy(sigma->0) =     -118.47760913


--------------------------------------------------------------------------------------------------------




----------------------------------------- Iteration    1(   5)  ---------------------------------------


    EDDAV :  VPU time 1728.35: CPU time 1749.72
    DOS   :  VPU time    0.00: CPU time   -0.00
    CHARGE:  VPU time  114.57: CPU time  115.82
    MIXING:  VPU time    0.05: CPU time    0.05
    ------------------------------------------
      LOOP:  VPU time 1843.01: CPU time 1865.65

 eigenvalue-minimisations  : 31584
 total energy-change (2. order) :-0.5268718E-02  (-0.5260185E-02)
 number of electron   96.0000000 magnetization 
 augmentation part    -1.1126372 magnetization 

 Broyden mixing:
  rms(total) = 0.56191E+00    rms(broyden)= 0.56191E+00
  rms(prec ) = 0.80527E+00
  weight for this iteration     100.00

 Free energy of the ion-electron system (eV)
  ---------------------------------------------------
  alpha Z        PSCENC =        -7.38425772
  Ewald energy   TEWEN  =     -2452.91010324
  -1/2 Hartree   DENC   =        -2.22650109
  -V(xc)+E(xc)   XCENC  =      -832.28823517
  PAW double counting   =      1137.73615723     -115.16745734
  entropy T*S    EENTRO =        -0.00049890
  eigenvalues    EBANDS =       440.52267505
  atomic energy  EATOM  =      1713.23509266
  ---------------------------------------------------
  free energy    TOTEN  =      -118.48312852 eV

  energy without entropy =     -118.48262962  energy(sigma->0) =     -118.48287907


--------------------------------------------------------------------------------------------------------




----------------------------------------- Iteration    1(   6)  ---------------------------------------


    POTLOK:  VPU time    2.11: CPU time    2.11
    SETDIJ:  VPU time    2.02: CPU time    2.02
    EDDAV :  VPU time 1688.17: CPU time 1689.47
    DOS   :  VPU time   -0.00: CPU time   -0.00
    CHARGE:  VPU time  111.37: CPU time  111.45
    MIXING:  VPU time    0.04: CPU time    0.04
    ------------------------------------------
      LOOP:  VPU time 1803.76: CPU time 1805.15

 eigenvalue-minimisations  : 30640
 total energy-change (2. order) : 0.4759992E+00  (-0.3446538E-02)
 number of electron   96.0000000 magnetization 
 augmentation part    -1.1261736 magnetization 

 Broyden mixing:
  rms(total) = 0.34955E+00    rms(broyden)= 0.34955E+00
  rms(prec ) = 0.50308E+00
  weight for this iteration     100.00

 eigenvalues of (default mixing * dielectric matrix)
  average eigenvalue GAMMA=   2.6376
  2.6376

 Free energy of the ion-electron system (eV)
  ---------------------------------------------------
  alpha Z        PSCENC =        -7.38425772
  Ewald energy   TEWEN  =     -2452.91010324
  -1/2 Hartree   DENC   =        -2.43775893
  -V(xc)+E(xc)   XCENC  =      -830.82333129
  PAW double counting   =      1145.09709275     -122.93887061
  entropy T*S    EENTRO =        -0.00049903
  eigenvalues    EBANDS =       440.15550608
  atomic energy  EATOM  =      1713.23509266
  ---------------------------------------------------
  free energy    TOTEN  =      -118.00712933 eV

  energy without entropy =     -118.00663030  energy(sigma->0) =     -118.00687981


--------------------------------------------------------------------------------------------------------




----------------------------------------- Iteration    1(   7)  ---------------------------------------


    POTLOK:  VPU time    2.05: CPU time    2.05
    SETDIJ:  VPU time    2.01: CPU time    2.02
    EDDAV :  VPU time 1636.39: CPU time 1638.34
    DOS   :  VPU time    0.00: CPU time   -0.00
    CHARGE:  VPU time  111.98: CPU time  112.55
    MIXING:  VPU time    0.05: CPU time    0.05
    ------------------------------------------
      LOOP:  VPU time 1752.54: CPU time 1755.07

 eigenvalue-minimisations  : 29148
 total energy-change (2. order) : 0.3445009E+00  (-0.1067184E-01)
 number of electron   96.0000000 magnetization 
 augmentation part    -1.1550851 magnetization 

 Broyden mixing:
  rms(total) = 0.13471E-01    rms(broyden)= 0.13471E-01
  rms(prec ) = 0.15807E-01
  weight for this iteration     100.00

 eigenvalues of (default mixing * dielectric matrix)
  average eigenvalue GAMMA=   2.4709
  2.4709  2.4709

 Free energy of the ion-electron system (eV)
  ---------------------------------------------------
  alpha Z        PSCENC =        -7.38425772
  Ewald energy   TEWEN  =     -2452.91010324
  -1/2 Hartree   DENC   =        -4.23093058
  -V(xc)+E(xc)   XCENC  =      -827.95276787
  PAW double counting   =      1156.25885184     -134.85137991
  entropy T*S    EENTRO =        -0.00058646
  eigenvalues    EBANDS =       440.17345288
  atomic energy  EATOM  =      1713.23509266
  ---------------------------------------------------
  free energy    TOTEN  =      -117.66262841 eV

  energy without entropy =     -117.66204195  energy(sigma->0) =     -117.66233518


[...]
     64      11.5386      0.00000
     65      12.8880      0.00000
     66      12.8884      0.00000
     67      12.8887      0.00000
     68      12.8890      0.00000

 k-point 194 :       0.3333    0.5000    0.5000
  band No.  band energies     occupation 
      1      -1.1617      2.00000
      2      -1.1617      2.00000
      3      -1.1617      2.00000
      4      -1.1617      2.00000
      5      -0.3535      2.00000
      6      -0.3535      2.00000
      7      -0.3535      2.00000
      8      -0.3535      2.00000
      9       2.8226      2.00000
     10       2.8226      2.00000
     11       2.8226      2.00000
     12       2.8226      2.00000
     13       3.5984      2.00000
     14       3.5984      2.00000
     15       3.5984      2.00000
     16       3.5984      2.00000
     17       3.5984      2.00000
     18       3.5984      2.00000
     19       3.5985      2.00000
     20       3.5985      2.00000
     21       4.3667      2.00000
     22       4.3667      2.00000
     23       4.3669      2.00000
     24       4.3669      2.00000
     25       4.3669      2.00000
     26       4.3669      2.00000
     27       4.3671      2.00000
     28       4.3671      2.00000
     29       5.1192      2.00000
     30       5.1192      2.00000
     31       5.1192      2.00000
     32       5.1193      2.00000
     33       7.4963      2.00000
     34       7.4963      2.00000
     35       7.4969      2.00000
     36       7.4969      2.00000
     37       7.4969      2.00000
     38       7.4969      2.00000
     39       7.4975      2.00000
     40       7.4975      2.00000
     41       8.2221      2.00000
     42       8.2221      2.00000
     43       8.2221      2.00000
     44       8.2221      2.00000
     45       8.9995      2.00000
     46       8.9995      2.00000
     47       8.9995      2.00000
     48       8.9995      2.00000
     49       9.7028      0.00000
     50       9.7028      0.00000
     51       9.7034      0.00000
     52       9.7034      0.00000
     53       9.7034      0.00000
     54       9.7034      0.00000
     55       9.7041      0.00000
     56       9.7041      0.00000
     57      11.5972      0.00000
     58      11.5972      0.00000
     59      11.5972      0.00000
     60      11.5972      0.00000
     61      12.0213      0.00000
     62      12.0213      0.00000
     63      12.0213      0.00000
     64      12.0213      0.00000
     65      13.0249      0.00000
     66      13.0256      0.00000
     67      13.0258      0.00000
     68      13.0263      0.00000

 k-point 195 :       0.4167    0.5000    0.5000
  band No.  band energies     occupation 
      1      -1.0098      2.00000
      2      -1.0097      2.00000
      3      -1.0097      2.00000
      4      -1.0097      2.00000
      5      -0.6055      2.00000
      6      -0.6055      2.00000
      7      -0.6055      2.00000
      8      -0.6054      2.00000
      9       3.3576      2.00000
     10       3.3576      2.00000
     11       3.3576      2.00000
     12       3.3576      2.00000
     13       3.7435      2.00000
     14       3.7435      2.00000
     15       3.7435      2.00000
     16       3.7436      2.00000
     17       3.7436      2.00000
     18       3.7436      2.00000
     19       3.7436      2.00000
     20       3.7436      2.00000
     21       4.1284      2.00000
     22       4.1284      2.00000
     23       4.1285      2.00000
     24       4.1285      2.00000
     25       4.1285      2.00000
     26       4.1285      2.00000
     27       4.1286      2.00000
     28       4.1286      2.00000
     29       4.5089      2.00000
     30       4.5089      2.00000
     31       4.5089      2.00000
     32       4.5090      2.00000
     33       8.0091      2.00000
     34       8.0091      2.00000
     35       8.0097      2.00000
     36       8.0097      2.00000
     37       8.0097      2.00000
     38       8.0097      2.00000
     39       8.0102      2.00000
     40       8.0102      2.00000
     41       8.3719      2.00000
     42       8.3719      2.00000
     43       8.3719      2.00000
     44       8.3719      2.00000
     45       8.7598      2.00000
     46       8.7598      2.00000
     47       8.7598      2.00000
     48       8.7598      2.00000
     49       9.1162      2.00000
     50       9.1162      2.00000
     51       9.1168      2.00000
     52       9.1168      2.00000
     53       9.1168      2.00000
     54       9.1168      2.00000
     55       9.1174      2.00000
     56       9.1174      2.00000
     57      12.4564      0.00000
     58      12.4565      0.00000
     59      12.4565      0.00000
     60      12.4566      0.00000
     61      12.5322      0.00000
     62      12.5322      0.00000
     63      12.5322      0.00000
     64      12.5323      0.00000
     65      13.1776      0.00000
     66      13.1779      0.00000
     67      13.1784      0.00000
     68      13.1790      0.00000

 k-point 196 :       0.5000    0.5000    0.5000
  band No.  band energies     occupation 
      1      -0.8294      2.00000
      2      -0.8248      2.00000
      3      -0.8248      2.00000
      4      -0.8243      2.00000
      5      -0.8243      2.00000
      6      -0.8238      2.00000
      7      -0.8238      2.00000
      8      -0.8192      2.00000
      9       3.9099      2.00000
     10       3.9159      2.00000
     11       3.9159      2.00000
     12       3.9194      2.00000
     13       3.9198      2.00000
     14       3.9199      2.00000
     15       3.9203      2.00000
     16       3.9203      2.00000
     17       3.9204      2.00000
     18       3.9204      2.00000
     19       3.9204      2.00000
     20       3.9204      2.00000
     21       3.9204      2.00000
     22       3.9204      2.00000
     23       3.9204      2.00000
     24       3.9205      2.00000
     25       3.9205      2.00000
     26       3.9205      2.00000
     27       3.9209      2.00000
     28       3.9211      2.00000
     29       3.9214      2.00000
     30       3.9249      2.00000
     31       3.9249      2.00000
     32       3.9310      2.00000
     33       8.5441      2.00000
     34       8.5441      2.00000
     35       8.5466      2.00000
     36       8.5480      2.00000
     37       8.5498      2.00000
     38       8.5503      2.00000
     39       8.5504      2.00000
     40       8.5504      2.00000
     41       8.5506      2.00000
     42       8.5506      2.00000
     43       8.5507      2.00000
     44       8.5507      2.00000
     45       8.5507      2.00000
     46       8.5508      2.00000
     47       8.5508      2.00000
     48       8.5508      2.00000
     49       8.5510      2.00000
     50       8.5510      2.00000
     51       8.5512      2.00000
     52       8.5516      2.00000
     53       8.5534      2.00000
     54       8.5548      2.00000
     55       8.5573      2.00000
     56       8.5573      2.00000
     57      13.0684      0.00000
     58      13.0690      0.00000
     59      13.0690      0.00000
     60      13.0692      0.00000
     61      13.0712      0.00000
     62      13.0714      0.00000
     63      13.0714      0.00000
     64      13.0722      0.00000
     65      13.3497      0.00000
     66      13.3505      0.00000
     67      13.3514      0.00000
     68      13.3521      0.00000


--------------------------------------------------------------------------------------------------------


 soft charge-density along one line, spin component           1
         0         1         2         3         4         5         6         7         8         9
 total charge-density along one line
 
 pseudopotential strength for first ion, spin component:           1
  8.402  -0.008  -0.000  -0.000  -0.000  -0.000  -0.000  -0.000
 -0.008   0.000  -0.000  -0.000  -0.000   0.000   0.000   0.000
 -0.000  -0.000   1.995  -0.000   0.000  -0.031   0.000  -0.000
 -0.000  -0.000  -0.000   1.995  -0.000   0.000  -0.031   0.000
 -0.000  -0.000   0.000  -0.000   1.995  -0.000   0.000  -0.031
 -0.000   0.000  -0.031   0.000  -0.000  -0.011   0.000  -0.000
 -0.000   0.000   0.000  -0.031   0.000   0.000  -0.011   0.000
 -0.000   0.000  -0.000   0.000  -0.031  -0.000   0.000  -0.011
 total augmentation occupancy for first ion, spin component:           1
  1.293  -0.625  -0.000   0.000   0.003   0.000  -0.000  -0.002
 -0.625   0.632   0.000   0.000  -0.004   0.000  -0.000   0.002
 -0.000   0.000   0.836   0.002   0.006  -0.182  -0.001  -0.001
  0.000   0.000   0.002   0.842  -0.002  -0.001  -0.179  -0.001
  0.003  -0.004   0.006  -0.002   0.839  -0.001  -0.001  -0.180
  0.000   0.000  -0.182  -0.001  -0.001   0.046   0.000   0.000
 -0.000  -0.000  -0.001  -0.179  -0.001   0.000   0.044   0.000
 -0.002   0.002  -0.001  -0.001  -0.180   0.000   0.000   0.045


------------------------ aborting loop because EDIFF is reached ----------------------------------------




--------------------------------------------------------------------------------------------------------


    CHARGE:  VPU time   39.53: CPU time   40.00
    FORLOC:  VPU time    0.19: CPU time    0.19
    FORNL :  VPU time  153.78: CPU time  154.82
    STRESS:  VPU time  381.43: CPU time  384.54
    FORCOR:  VPU time    1.24: CPU time    1.25
    FORHAR:  VPU time    0.45: CPU time    0.45
    MIXING:  VPU time    0.04: CPU time    0.04


--------------------------------------------------------------------------------------------------------



  FREE ENERGIE OF THE ION-ELECTRON SYSTEM (eV)
  ---------------------------------------------------
  free  energy   TOTEN  =      -117.662887 eV

  energy  without entropy=     -117.662293  energy(sigma->0) =     -117.662590
 

  FORCE on cell =-STRESS in cart. coord.  units (eV/reduce length):
  Direction    X        Y        Z        XY       YZ       ZX
  --------------------------------------------------------------------------------------
  Alpha Z     -7.38     -7.38     -7.38
  Ewald     -817.64   -817.64   -817.64     -0.00     -0.00     -0.00
  Hartree      1.43      1.43      1.43     -0.00     -0.00     -0.00
  E(xc)     -285.66   -285.66   -285.66     -0.00      0.00      0.00
  Local       27.40     27.40     27.40     -0.00      0.00     -0.00
  n-local    627.72    626.71    628.74     -1.88     -0.54      0.80
  augment    -30.81    -30.81    -30.81      0.00      0.00      0.00
  Kinetic    521.99    514.88    529.11      6.52     -0.03     -6.58
  -------------------------------------------------------------------------------------
  Total       37.04     37.04     37.04      0.00      0.00      0.00
  in kB      127.42    127.42    127.42      0.00      0.00      0.00
  external pressure =      127.42 kB  Pullay stress =        0.00 kB


 VOLUME and BASIS-vectors are now :
 -----------------------------------------------------------------------------
  energy-cutoff  :      750.00
  volume of cell :      465.78
      direct lattice vectors                 reciprocal lattice vectors
     7.751628230  0.000000000  0.000000000     0.129005155  0.000000000  0.000000000
     0.000000000  7.751628230  0.000000000     0.000000000  0.129005155  0.000000000
     0.000000000  0.000000000  7.751628230     0.000000000  0.000000000  0.129005155

  length of vectors
     7.751628230  7.751628230  7.751628230     0.129005155  0.129005155  0.129005155


 FORCES acting on ions
    electron-ion (+dipol)            ewald-force                    non-local-force                 convergence-correction
 -----------------------------------------------------------------------------------------------
   0.441E+00 -.154E-12 -.178E-08   -.361E+00 0.333E-14 0.234E-14   -.154E+00 0.108E-18 -.136E-19   -.322E-06 0.157E-14 0.625E-14
   -.950E-01 0.505E-12 0.120E-08   0.954E-01 -.405E-14 0.285E-14   0.220E-02 0.271E-19 -.136E-19   -.762E-06 0.333E-14 0.684E-14
   0.309E-01 0.149E-12 0.666E-12   -.302E-01 -.833E-15 0.409E-15   -.855E-03 -.271E-19 0.000E+00   -.112E-05 -.145E-14 0.735E-14
   -.238E-01 -.234E-12 0.104E-11   0.237E-01 0.228E-14 0.396E-14   0.781E-03 -.203E-19 0.000E+00   0.314E-06 -.326E-14 0.888E-14
   0.309E-01 0.784E-13 -.712E-11   -.302E-01 -.416E-14 0.663E-15   -.855E-03 0.000E+00 0.000E+00   -.111E-05 0.573E-15 -.314E-14
   -.238E-01 -.183E-12 -.702E-11   0.237E-01 -.416E-14 0.885E-15   0.781E-03 -.271E-19 0.000E+00   0.309E-06 0.129E-14 -.369E-14
   0.135E-01 -.109E-12 0.152E-12   -.125E-01 0.239E-14 -.226E-15   -.321E-03 -.136E-19 0.339E-20   -.237E-05 -.452E-15 -.423E-14
   -.127E-01 -.393E-12 0.323E-12   0.117E-01 0.239E-14 -.378E-14   0.382E-03 -.136E-19 0.000E+00   0.217E-05 -.123E-14 -.574E-14
   0.548E-01 -.265E-03 0.265E-03   -.570E-01 0.231E-03 -.231E-03   0.811E-03 0.687E-04 -.687E-04   -.116E-05 0.172E-06 -.172E-06
   -.344E-01 0.835E-04 -.835E-04   0.320E-01 -.692E-04 0.692E-04   0.196E-02 -.169E-04 0.169E-04   0.345E-06 0.120E-06 -.120E-06
   0.548E-01 0.265E-03 0.265E-03   -.570E-01 -.231E-03 -.231E-03   0.811E-03 -.687E-04 -.687E-04   -.116E-05 -.172E-06 -.172E-06
   -.344E-01 -.835E-04 -.835E-04   0.320E-01 0.692E-04 0.692E-04   0.196E-02 0.169E-04 0.169E-04   0.345E-06 -.120E-06 -.120E-06
   0.548E-01 -.265E-03 -.265E-03   -.570E-01 0.231E-03 0.231E-03   0.811E-03 0.687E-04 0.687E-04   -.116E-05 0.172E-06 0.172E-06
   -.344E-01 0.835E-04 0.835E-04   0.320E-01 -.692E-04 -.692E-04   0.196E-02 -.169E-04 -.169E-04   0.345E-06 0.120E-06 0.120E-06
   0.548E-01 0.265E-03 -.265E-03   -.570E-01 -.231E-03 0.231E-03   0.811E-03 -.687E-04 0.687E-04   -.116E-05 -.172E-06 0.172E-06
   -.344E-01 -.835E-04 0.835E-04   0.320E-01 0.692E-04 -.692E-04   0.196E-02 0.169E-04 -.169E-04   0.345E-06 -.120E-06 0.120E-06
   -.541E-01 0.396E-14 0.957E-01   0.461E-01 0.611E-15 -.873E-01   0.176E-01 -.271E-19 -.187E-01   0.535E-06 0.130E-14 0.268E-06
   -.539E-01 -.680E-13 -.966E-01   0.458E-01 -.228E-14 0.881E-01   0.179E-01 0.000E+00 0.192E-01   0.477E-06 0.997E-15 -.662E-06
   -.138E-02 -.615E-14 0.747E-02   0.154E-02 0.494E-14 -.723E-02   -.166E-03 0.000E+00 -.240E-03   0.248E-06 -.107E-14 0.688E-06
   -.123E-02 -.568E-13 -.748E-02   0.139E-02 0.761E-14 0.724E-02   -.158E-03 0.102E-19 0.236E-03   0.292E-06 -.922E-15 -.861E-06
   -.541E-01 0.254E-14 -.957E-01   0.461E-01 -.294E-14 0.873E-01   0.176E-01 0.000E+00 0.187E-01   0.535E-06 0.217E-14 -.268E-06
   -.539E-01 -.251E-13 0.966E-01   0.458E-01 -.228E-14 -.881E-01   0.179E-01 0.000E+00 -.192E-01   0.477E-06 0.227E-14 0.662E-06
   -.138E-02 -.966E-14 -.747E-02   0.154E-02 0.494E-14 0.723E-02   -.166E-03 0.000E+00 0.240E-03   0.248E-06 -.196E-14 -.688E-06
   -.123E-02 0.993E-13 0.748E-02   0.139E-02 0.761E-14 -.724E-02   -.158E-03 -.678E-20 -.236E-03   0.292E-06 -.221E-14 0.861E-06
   -.541E-01 -.957E-01 0.679E-11   0.461E-01 0.873E-01 -.267E-15   0.176E-01 0.187E-01 0.000E+00   0.536E-06 -.271E-06 0.740E-14
   -.539E-01 0.966E-01 0.710E-11   0.458E-01 -.881E-01 0.620E-15   0.179E-01 -.192E-01 0.000E+00   0.478E-06 0.665E-06 0.834E-14
   -.541E-01 0.957E-01 0.678E-11   0.461E-01 -.873E-01 0.306E-14   0.176E-01 -.187E-01 0.000E+00   0.536E-06 0.271E-06 0.652E-14
   -.539E-01 -.966E-01 0.673E-11   0.458E-01 0.881E-01 0.417E-14   0.179E-01 0.192E-01 0.678E-20   0.478E-06 -.665E-06 0.706E-14
   -.138E-02 -.747E-02 -.271E-12   0.154E-02 0.723E-02 0.293E-15   -.166E-03 0.240E-03 -.136E-19   0.247E-06 -.691E-06 -.430E-14
   -.123E-02 0.748E-02 -.376E-12   0.139E-02 -.724E-02 -.597E-15   -.158E-03 -.236E-03 0.169E-20   0.292E-06 0.865E-06 -.518E-14
   -.138E-02 0.747E-02 -.267E-12   0.154E-02 -.723E-02 -.326E-14   -.166E-03 -.240E-03 0.169E-20   0.247E-06 0.691E-06 -.343E-14
   -.123E-02 -.748E-02 -.317E-12   0.139E-02 0.724E-02 -.415E-14   -.158E-03 0.236E-03 0.000E+00   0.292E-06 -.865E-06 -.390E-14
 -----------------------------------------------------------------------------------------------
   0.199E-05 0.490E-12 -.574E-09   -.207E-14 -.281E-14 0.101E-15   -.132E-05 0.342E-17 0.268E-18   0.382E-07 -.160E-14 -.189E-14
 
 
 POSITION                                       TOTAL-FORCE (eV/Angst)
 -----------------------------------------------------------------------------------
      1.94791      1.93791      0.00000        -0.074489     -0.000000     -0.000000
      5.81372      1.93791      0.00000         0.002530      0.000000      0.000000
      1.93791      5.81372      0.00000        -0.000168     -0.000000     -0.000000
      5.81372      5.81372      0.00000         0.000701     -0.000000     -0.000000
      1.93791      1.93791      3.87581        -0.000168     -0.000000      0.000000
      5.81372      1.93791      3.87581         0.000701      0.000000      0.000000
      1.93791      5.81372      3.87581         0.000727     -0.000000     -0.000000
      5.81372      5.81372      3.87581        -0.000648     -0.000000      0.000000
      1.93791      0.00000      1.93791        -0.001320      0.000035     -0.000035
      5.81372      0.00000      1.93791        -0.000406     -0.000002      0.000002
      1.93791      3.87581      1.93791        -0.001320     -0.000035     -0.000035
      5.81372      3.87581      1.93791        -0.000406      0.000002      0.000002
      1.93791      0.00000      5.81372        -0.001320      0.000035      0.000035
      5.81372      0.00000      5.81372        -0.000406     -0.000002     -0.000002
      1.93791      3.87581      5.81372        -0.001320     -0.000035      0.000035
      5.81372      3.87581      5.81372        -0.000406      0.000002     -0.000002
      0.00000      1.93791      1.93791         0.009609      0.000000     -0.010311
      3.87581      1.93791      1.93791         0.009820      0.000000      0.010619
      0.00000      5.81372      1.93791        -0.000002     -0.000000      0.000010
      3.87581      5.81372      1.93791         0.000003      0.000000     -0.000005
      0.00000      1.93791      5.81372         0.009609      0.000000      0.010311
      3.87581      1.93791      5.81372         0.009820      0.000000     -0.010619
      0.00000      5.81372      5.81372        -0.000002     -0.000000     -0.000010
      3.87581      5.81372      5.81372         0.000003     -0.000000      0.000005
      0.00000      0.00000      0.00000         0.009609      0.010311     -0.000000
      3.87581      0.00000      0.00000         0.009820     -0.010619      0.000000
      0.00000      3.87581      0.00000         0.009609     -0.010311      0.000000
      3.87581      3.87581      0.00000         0.009820      0.010619      0.000000
      0.00000      0.00000      3.87581        -0.000002     -0.000010     -0.000000
      3.87581      0.00000      3.87581         0.000003      0.000005     -0.000000
      0.00000      3.87581      3.87581        -0.000002      0.000010      0.000000
      3.87581      3.87581      3.87581         0.000003     -0.000005     -0.000000
 -----------------------------------------------------------------------------------
    total drift:                                0.000001      0.000000     -0.000000


--------------------------------------------------------------------------------------------------------



 mean value of Nose-termostat <S>:     1.000 mean value of <T> :     0.000
 mean temperature <T/S>/<1/S>  :     0.000

     LOOP+:  VPU time21581.72: CPU time21696.56
  
  
 General timing and accounting informations for this job:
 ========================================================
  
                  Total CPU time used (sec):    21783.378
                            User time (sec):    21022.752
                          System time (sec):      760.626
                         Elapsed time (sec):    21898.882
  
                   Maximum memory used (kb):     6711336.
                   Average memory used (kb):           0.
  
                          Minor page faults:      1260861
                          Major page faults:            0
                 Voluntary context switches:          900
