32   
1    

1    
  0.0100000000000000   0.0000000000000000   0.0000000000000000
   0.0036220000    0.0000000000   -0.0000000000
   0.0028510800    0.0000000000   -0.0000000000
  -0.0003862500   -0.0000000000    0.0000000000
  -0.0015530400    0.0000000000   -0.0000000000
  -0.0003862500    0.0000000000    0.0000000000
  -0.0015530400    0.0000000000    0.0000000000
   0.0002341300   -0.0000000000    0.0000000000
  -0.0000057500    0.0000000000   -0.0000000000
  -0.0002690900    0.0001026700   -0.0000000000
  -0.0003386600   -0.0000143600    0.0000000000
  -0.0002690900   -0.0001026700    0.0000000000
  -0.0003386600    0.0000143600    0.0000000000
   0.0002140900   -0.0000469200    0.0000000000
   0.0002135300    0.0000492000   -0.0000000000
   0.0002140900    0.0000469200    0.0000000000
   0.0002135300   -0.0000492000   -0.0000000000
  -0.0002690900   -0.0000000000    0.0001026700
  -0.0003386600    0.0000000000   -0.0000143600
   0.0002140900   -0.0000000000   -0.0000469200
   0.0002135300    0.0000000000    0.0000492000
  -0.0002690900    0.0000000000   -0.0001026700
  -0.0003386600    0.0000000000    0.0000143600
   0.0002140900   -0.0000000000    0.0000469200
   0.0002135300    0.0000000000   -0.0000492000
  -0.0010389400    0.0000078100    0.0000078100
   0.0005133500    0.0000037100    0.0000037100
  -0.0010389400   -0.0000078100    0.0000078100
   0.0005133500   -0.0000037100    0.0000037100
  -0.0010389400    0.0000078100   -0.0000078100
   0.0005133500    0.0000037100   -0.0000037100
  -0.0010389400   -0.0000078100   -0.0000078100
   0.0005133500   -0.0000037100   -0.0000037100
