phonopy:
  version: 1.11.2
  configuration:
    dim: "2 2 2"
    primitive_axis: "0.0 0.5 0.5  0.5 0.0 0.5  0.5 0.5 0.0"
    band: "0.0 0.0 0.0  0.5 0.0 0.0  0.5 0.5 0.0  0.0 0.0 0.0  0.5 0.5 0.5"

supercell_matrix:
- [   2,   0,   0 ]
- [   0,   2,   0 ]
- [   0,   0,   2 ]

primitive_matrix:
- [  0.000000000000000,  0.500000000000000,  0.500000000000000 ]
- [  0.500000000000000,  0.000000000000000,  0.500000000000000 ]
- [  0.500000000000000,  0.500000000000000,  0.000000000000000 ]

primitive_cell:
  lattice:
  - [     0.000000000000000,     2.274204286761603,     2.274204286761603 ] # a
  - [     2.274204286761603,     0.000000000000000,     2.274204286761603 ] # b
  - [     2.274204286761603,     2.274204286761603,     0.000000000000000 ] # c
  points:
  - symbol: Au # 1
    coordinates: [  0.000000000000000,  0.000000000000000,  0.000000000000000 ]
    mass: 196.966569
  reciprocal_lattice: # without 2pi
  - [    -0.219857117898579,     0.219857117898579,     0.219857117898579 ] # a*
  - [     0.219857117898579,    -0.219857117898579,     0.219857117898579 ] # b*
  - [     0.219857117898579,     0.219857117898579,    -0.219857117898579 ] # c*

unit_cell:
  lattice:
  - [     4.548408573523206,     0.000000000000000,     0.000000000000000 ] # a
  - [    -0.000000000000000,     4.548408573523206,     0.000000000000000 ] # b
  - [    -0.000000000000000,     0.000000000000000,     4.548408573523206 ] # c
  points:
  - symbol: Au # 1
    coordinates: [ -0.000000000000000,  0.000000000000000,  0.000000000000000 ]
    mass: 196.966569
    reduced_to: 1
  - symbol: Au # 2
    coordinates: [  0.500000000000000,  0.500000000000000,  0.000000000000000 ]
    mass: 196.966569
    reduced_to: 1
  - symbol: Au # 3
    coordinates: [  0.500000000000000, -0.000000000000000,  0.500000000000000 ]
    mass: 196.966569
    reduced_to: 1
  - symbol: Au # 4
    coordinates: [ -0.000000000000000,  0.500000000000000,  0.500000000000000 ]
    mass: 196.966569
    reduced_to: 1

supercell:
  lattice:
  - [     9.096817147046412,     0.000000000000000,     0.000000000000000 ] # a
  - [     0.000000000000000,     9.096817147046412,     0.000000000000000 ] # b
  - [     0.000000000000000,     0.000000000000000,     9.096817147046412 ] # c
  points:
  - symbol: Au # 1
    coordinates: [  0.000000000000000,  0.000000000000000,  0.000000000000000 ]
    mass: 196.966569
    reduced_to: 1
  - symbol: Au # 2
    coordinates: [  0.500000000000000,  0.000000000000000,  0.000000000000000 ]
    mass: 196.966569
    reduced_to: 1
  - symbol: Au # 3
    coordinates: [  0.000000000000000,  0.500000000000000,  0.000000000000000 ]
    mass: 196.966569
    reduced_to: 1
  - symbol: Au # 4
    coordinates: [  0.500000000000000,  0.500000000000000,  0.000000000000000 ]
    mass: 196.966569
    reduced_to: 1
  - symbol: Au # 5
    coordinates: [  0.000000000000000,  0.000000000000000,  0.500000000000000 ]
    mass: 196.966569
    reduced_to: 1
  - symbol: Au # 6
    coordinates: [  0.500000000000000,  0.000000000000000,  0.500000000000000 ]
    mass: 196.966569
    reduced_to: 1
  - symbol: Au # 7
    coordinates: [  0.000000000000000,  0.500000000000000,  0.500000000000000 ]
    mass: 196.966569
    reduced_to: 1
  - symbol: Au # 8
    coordinates: [  0.500000000000000,  0.500000000000000,  0.500000000000000 ]
    mass: 196.966569
    reduced_to: 1
  - symbol: Au # 9
    coordinates: [  0.250000000000000,  0.250000000000000,  0.000000000000000 ]
    mass: 196.966569
    reduced_to: 1
  - symbol: Au # 10
    coordinates: [  0.750000000000000,  0.250000000000000,  0.000000000000000 ]
    mass: 196.966569
    reduced_to: 1
  - symbol: Au # 11
    coordinates: [  0.250000000000000,  0.750000000000000,  0.000000000000000 ]
    mass: 196.966569
    reduced_to: 1
  - symbol: Au # 12
    coordinates: [  0.750000000000000,  0.750000000000000,  0.000000000000000 ]
    mass: 196.966569
    reduced_to: 1
  - symbol: Au # 13
    coordinates: [  0.250000000000000,  0.250000000000000,  0.500000000000000 ]
    mass: 196.966569
    reduced_to: 1
  - symbol: Au # 14
    coordinates: [  0.750000000000000,  0.250000000000000,  0.500000000000000 ]
    mass: 196.966569
    reduced_to: 1
  - symbol: Au # 15
    coordinates: [  0.250000000000000,  0.750000000000000,  0.500000000000000 ]
    mass: 196.966569
    reduced_to: 1
  - symbol: Au # 16
    coordinates: [  0.750000000000000,  0.750000000000000,  0.500000000000000 ]
    mass: 196.966569
    reduced_to: 1
  - symbol: Au # 17
    coordinates: [  0.250000000000000,  0.000000000000000,  0.250000000000000 ]
    mass: 196.966569
    reduced_to: 1
  - symbol: Au # 18
    coordinates: [  0.750000000000000,  0.000000000000000,  0.250000000000000 ]
    mass: 196.966569
    reduced_to: 1
  - symbol: Au # 19
    coordinates: [  0.250000000000000,  0.500000000000000,  0.250000000000000 ]
    mass: 196.966569
    reduced_to: 1
  - symbol: Au # 20
    coordinates: [  0.750000000000000,  0.500000000000000,  0.250000000000000 ]
    mass: 196.966569
    reduced_to: 1
  - symbol: Au # 21
    coordinates: [  0.250000000000000,  0.000000000000000,  0.750000000000000 ]
    mass: 196.966569
    reduced_to: 1
  - symbol: Au # 22
    coordinates: [  0.750000000000000,  0.000000000000000,  0.750000000000000 ]
    mass: 196.966569
    reduced_to: 1
  - symbol: Au # 23
    coordinates: [  0.250000000000000,  0.500000000000000,  0.750000000000000 ]
    mass: 196.966569
    reduced_to: 1
  - symbol: Au # 24
    coordinates: [  0.750000000000000,  0.500000000000000,  0.750000000000000 ]
    mass: 196.966569
    reduced_to: 1
  - symbol: Au # 25
    coordinates: [  0.000000000000000,  0.250000000000000,  0.250000000000000 ]
    mass: 196.966569
    reduced_to: 1
  - symbol: Au # 26
    coordinates: [  0.500000000000000,  0.250000000000000,  0.250000000000000 ]
    mass: 196.966569
    reduced_to: 1
  - symbol: Au # 27
    coordinates: [  0.000000000000000,  0.750000000000000,  0.250000000000000 ]
    mass: 196.966569
    reduced_to: 1
  - symbol: Au # 28
    coordinates: [  0.500000000000000,  0.750000000000000,  0.250000000000000 ]
    mass: 196.966569
    reduced_to: 1
  - symbol: Au # 29
    coordinates: [  0.000000000000000,  0.250000000000000,  0.750000000000000 ]
    mass: 196.966569
    reduced_to: 1
  - symbol: Au # 30
    coordinates: [  0.500000000000000,  0.250000000000000,  0.750000000000000 ]
    mass: 196.966569
    reduced_to: 1
  - symbol: Au # 31
    coordinates: [  0.000000000000000,  0.750000000000000,  0.750000000000000 ]
    mass: 196.966569
    reduced_to: 1
  - symbol: Au # 32
    coordinates: [  0.500000000000000,  0.750000000000000,  0.750000000000000 ]
    mass: 196.966569
    reduced_to: 1
