<?xml version="1.0" encoding="ISO-8859-1"?>
<modeling>
 <generator>
  <i name="program" type="string">vasp</i>
  <i name="version" type="string">4.6.28 </i>
  <i name="subversion" type="string">25Jul05 complex  parallel</i>
  <i name="platform" type="string">LinuxIFC</i>
  <i name="date" type="string">2017 01 14</i>
  <i name="time" type="string">12:20:19</i>
 </generator>
 <incar>
  <i type="string" name="PREC">accurate</i>
  <i type="int" name="IALGO">    38</i>
  <i type="logical" name="ADDGRID"> T  </i>
  <i name="EDIFF">      0.00000001</i>
  <i type="int" name="IBRION">    -1</i>
  <i name="ENCUT">    750.00000000</i>
  <i type="logical" name="LREAL"> F  </i>
  <i type="int" name="ISMEAR">     0</i>
  <i name="SIGMA">      0.01000000</i>
  <i type="logical" name="LWAVE"> F  </i>
  <i type="logical" name="LCHARG"> F  </i>
 </incar>
 <kpoints>
  <generation param="Gamma">
   <v type="int" name="divisions">      12      12      12</v>
   <v name="usershift">      0.00000000      0.00000000      0.00000000</v>
   <v name="genvec1">      0.08333333      0.00000000      0.00000000</v>
   <v name="genvec2">      0.00000000      0.08333333      0.00000000</v>
   <v name="genvec3">      0.00000000      0.00000000      0.08333333</v>
   <v name="shift">      0.00000000      0.00000000      0.00000000</v>
  </generation>
  <varray name="kpointlist" >
   <v>       0.00000000      0.00000000      0.00000000</v>
   <v>       0.08333333      0.00000000      0.00000000</v>
   <v>       0.16666667      0.00000000      0.00000000</v>
   <v>       0.25000000      0.00000000      0.00000000</v>
   <v>       0.33333333      0.00000000      0.00000000</v>
   <v>       0.41666667      0.00000000      0.00000000</v>
   <v>       0.50000000      0.00000000      0.00000000</v>
   <v>       0.00000000      0.08333333      0.00000000</v>
   <v>       0.08333333      0.08333333      0.00000000</v>
   <v>       0.16666667      0.08333333      0.00000000</v>
   <v>       0.25000000      0.08333333      0.00000000</v>
   <v>       0.33333333      0.08333333      0.00000000</v>
   <v>       0.41666667      0.08333333      0.00000000</v>
   <v>       0.50000000      0.08333333      0.00000000</v>
   <v>       0.00000000      0.16666667      0.00000000</v>
   <v>       0.08333333      0.16666667      0.00000000</v>
   <v>       0.16666667      0.16666667      0.00000000</v>
   <v>       0.25000000      0.16666667      0.00000000</v>
   <v>       0.33333333      0.16666667      0.00000000</v>
   <v>       0.41666667      0.16666667      0.00000000</v>
   <v>       0.50000000      0.16666667      0.00000000</v>
   <v>       0.00000000      0.25000000      0.00000000</v>
   <v>       0.08333333      0.25000000      0.00000000</v>
   <v>       0.16666667      0.25000000      0.00000000</v>
   <v>       0.25000000      0.25000000      0.00000000</v>
   <v>       0.33333333      0.25000000      0.00000000</v>
   <v>       0.41666667      0.25000000      0.00000000</v>
   <v>       0.50000000      0.25000000      0.00000000</v>
   <v>       0.00000000      0.33333333      0.00000000</v>
   <v>       0.08333333      0.33333333      0.00000000</v>
   <v>       0.16666667      0.33333333      0.00000000</v>
   <v>       0.25000000      0.33333333      0.00000000</v>
   <v>       0.33333333      0.33333333      0.00000000</v>
   <v>       0.41666667      0.33333333      0.00000000</v>
   <v>       0.50000000      0.33333333      0.00000000</v>
   <v>       0.00000000      0.41666667      0.00000000</v>
   <v>       0.08333333      0.41666667      0.00000000</v>
   <v>       0.16666667      0.41666667      0.00000000</v>
   <v>       0.25000000      0.41666667      0.00000000</v>
   <v>       0.33333333      0.41666667      0.00000000</v>
   <v>       0.41666667      0.41666667      0.00000000</v>
   <v>       0.50000000      0.41666667      0.00000000</v>
   <v>       0.00000000      0.50000000      0.00000000</v>
   <v>       0.08333333      0.50000000      0.00000000</v>
   <v>       0.16666667      0.50000000      0.00000000</v>
   <v>       0.25000000      0.50000000      0.00000000</v>
   <v>       0.33333333      0.50000000      0.00000000</v>
   <v>       0.41666667      0.50000000      0.00000000</v>
   <v>       0.50000000      0.50000000      0.00000000</v>
   <v>       0.00000000      0.08333333      0.08333333</v>
   <v>       0.08333333      0.08333333      0.08333333</v>
   <v>       0.16666667      0.08333333      0.08333333</v>
   <v>       0.25000000      0.08333333      0.08333333</v>
   <v>       0.33333333      0.08333333      0.08333333</v>
   <v>       0.41666667      0.08333333      0.08333333</v>
   <v>       0.50000000      0.08333333      0.08333333</v>
   <v>       0.00000000      0.16666667      0.08333333</v>
   <v>       0.08333333      0.16666667      0.08333333</v>
   <v>       0.16666667      0.16666667      0.08333333</v>
   <v>       0.25000000      0.16666667      0.08333333</v>
   <v>       0.33333333      0.16666667      0.08333333</v>
   <v>       0.41666667      0.16666667      0.08333333</v>
   <v>       0.50000000      0.16666667      0.08333333</v>
   <v>       0.00000000      0.25000000      0.08333333</v>
   <v>       0.08333333      0.25000000      0.08333333</v>
   <v>       0.16666667      0.25000000      0.08333333</v>
   <v>       0.25000000      0.25000000      0.08333333</v>
   <v>       0.33333333      0.25000000      0.08333333</v>
   <v>       0.41666667      0.25000000      0.08333333</v>
   <v>       0.50000000      0.25000000      0.08333333</v>
   <v>       0.00000000      0.33333333      0.08333333</v>
   <v>       0.08333333      0.33333333      0.08333333</v>
   <v>       0.16666667      0.33333333      0.08333333</v>
   <v>       0.25000000      0.33333333      0.08333333</v>
   <v>       0.33333333      0.33333333      0.08333333</v>
   <v>       0.41666667      0.33333333      0.08333333</v>
   <v>       0.50000000      0.33333333      0.08333333</v>
   <v>       0.00000000      0.41666667      0.08333333</v>
   <v>       0.08333333      0.41666667      0.08333333</v>
   <v>       0.16666667      0.41666667      0.08333333</v>
   <v>       0.25000000      0.41666667      0.08333333</v>
   <v>       0.33333333      0.41666667      0.08333333</v>
   <v>       0.41666667      0.41666667      0.08333333</v>
   <v>       0.50000000      0.41666667      0.08333333</v>
   <v>       0.00000000      0.50000000      0.08333333</v>
   <v>       0.08333333      0.50000000      0.08333333</v>
   <v>       0.16666667      0.50000000      0.08333333</v>
   <v>       0.25000000      0.50000000      0.08333333</v>
   <v>       0.33333333      0.50000000      0.08333333</v>
   <v>       0.41666667      0.50000000      0.08333333</v>
   <v>       0.50000000      0.50000000      0.08333333</v>
   <v>       0.00000000      0.16666667      0.16666667</v>
   <v>       0.08333333      0.16666667      0.16666667</v>
   <v>       0.16666667      0.16666667      0.16666667</v>
   <v>       0.25000000      0.16666667      0.16666667</v>
   <v>       0.33333333      0.16666667      0.16666667</v>
   <v>       0.41666667      0.16666667      0.16666667</v>
   <v>       0.50000000      0.16666667      0.16666667</v>
   <v>       0.00000000      0.25000000      0.16666667</v>
   <v>       0.08333333      0.25000000      0.16666667</v>
   <v>       0.16666667      0.25000000      0.16666667</v>
   <v>       0.25000000      0.25000000      0.16666667</v>
   <v>       0.33333333      0.25000000      0.16666667</v>
   <v>       0.41666667      0.25000000      0.16666667</v>
   <v>       0.50000000      0.25000000      0.16666667</v>
   <v>       0.00000000      0.33333333      0.16666667</v>
   <v>       0.08333333      0.33333333      0.16666667</v>
   <v>       0.16666667      0.33333333      0.16666667</v>
   <v>       0.25000000      0.33333333      0.16666667</v>
   <v>       0.33333333      0.33333333      0.16666667</v>
   <v>       0.41666667      0.33333333      0.16666667</v>
   <v>       0.50000000      0.33333333      0.16666667</v>
   <v>       0.00000000      0.41666667      0.16666667</v>
   <v>       0.08333333      0.41666667      0.16666667</v>
   <v>       0.16666667      0.41666667      0.16666667</v>
   <v>       0.25000000      0.41666667      0.16666667</v>
   <v>       0.33333333      0.41666667      0.16666667</v>
   <v>       0.41666667      0.41666667      0.16666667</v>
   <v>       0.50000000      0.41666667      0.16666667</v>
   <v>       0.00000000      0.50000000      0.16666667</v>
   <v>       0.08333333      0.50000000      0.16666667</v>
   <v>       0.16666667      0.50000000      0.16666667</v>
   <v>       0.25000000      0.50000000      0.16666667</v>
   <v>       0.33333333      0.50000000      0.16666667</v>
   <v>       0.41666667      0.50000000      0.16666667</v>
   <v>       0.50000000      0.50000000      0.16666667</v>
   <v>       0.00000000      0.25000000      0.25000000</v>
   <v>       0.08333333      0.25000000      0.25000000</v>
   <v>       0.16666667      0.25000000      0.25000000</v>
   <v>       0.25000000      0.25000000      0.25000000</v>
   <v>       0.33333333      0.25000000      0.25000000</v>
   <v>       0.41666667      0.25000000      0.25000000</v>
   <v>       0.50000000      0.25000000      0.25000000</v>
   <v>       0.00000000      0.33333333      0.25000000</v>
   <v>       0.08333333      0.33333333      0.25000000</v>
   <v>       0.16666667      0.33333333      0.25000000</v>
   <v>       0.25000000      0.33333333      0.25000000</v>
   <v>       0.33333333      0.33333333      0.25000000</v>
   <v>       0.41666667      0.33333333      0.25000000</v>
   <v>       0.50000000      0.33333333      0.25000000</v>
   <v>       0.00000000      0.41666667      0.25000000</v>
   <v>       0.08333333      0.41666667      0.25000000</v>
   <v>       0.16666667      0.41666667      0.25000000</v>
   <v>       0.25000000      0.41666667      0.25000000</v>
   <v>       0.33333333      0.41666667      0.25000000</v>
   <v>       0.41666667      0.41666667      0.25000000</v>
   <v>       0.50000000      0.41666667      0.25000000</v>
   <v>       0.00000000      0.50000000      0.25000000</v>
   <v>       0.08333333      0.50000000      0.25000000</v>
   <v>       0.16666667      0.50000000      0.25000000</v>
   <v>       0.25000000      0.50000000      0.25000000</v>
   <v>       0.33333333      0.50000000      0.25000000</v>
   <v>       0.41666667      0.50000000      0.25000000</v>
   <v>       0.50000000      0.50000000      0.25000000</v>
   <v>       0.00000000      0.33333333      0.33333333</v>
   <v>       0.08333333      0.33333333      0.33333333</v>
   <v>       0.16666667      0.33333333      0.33333333</v>
   <v>       0.25000000      0.33333333      0.33333333</v>
   <v>       0.33333333      0.33333333      0.33333333</v>
   <v>       0.41666667      0.33333333      0.33333333</v>
   <v>       0.50000000      0.33333333      0.33333333</v>
   <v>       0.00000000      0.41666667      0.33333333</v>
   <v>       0.08333333      0.41666667      0.33333333</v>
   <v>       0.16666667      0.41666667      0.33333333</v>
   <v>       0.25000000      0.41666667      0.33333333</v>
   <v>       0.33333333      0.41666667      0.33333333</v>
   <v>       0.41666667      0.41666667      0.33333333</v>
   <v>       0.50000000      0.41666667      0.33333333</v>
   <v>       0.00000000      0.50000000      0.33333333</v>
   <v>       0.08333333      0.50000000      0.33333333</v>
   <v>       0.16666667      0.50000000      0.33333333</v>
   <v>       0.25000000      0.50000000      0.33333333</v>
   <v>       0.33333333      0.50000000      0.33333333</v>
   <v>       0.41666667      0.50000000      0.33333333</v>
   <v>       0.50000000      0.50000000      0.33333333</v>
   <v>       0.00000000      0.41666667      0.41666667</v>
   <v>       0.08333333      0.41666667      0.41666667</v>
   <v>       0.16666667      0.41666667      0.41666667</v>
   <v>       0.25000000      0.41666667      0.41666667</v>
   <v>       0.33333333      0.41666667      0.41666667</v>
   <v>       0.41666667      0.41666667      0.41666667</v>
   <v>       0.50000000      0.41666667      0.41666667</v>
   <v>       0.00000000      0.50000000      0.41666667</v>
   <v>       0.08333333      0.50000000      0.41666667</v>
   <v>       0.16666667      0.50000000      0.41666667</v>
   <v>       0.25000000      0.50000000      0.41666667</v>
   <v>       0.33333333      0.50000000      0.41666667</v>
   <v>       0.41666667      0.50000000      0.41666667</v>
   <v>       0.50000000      0.50000000      0.41666667</v>
   <v>       0.00000000      0.50000000      0.50000000</v>
   <v>       0.08333333      0.50000000      0.50000000</v>
   <v>       0.16666667      0.50000000      0.50000000</v>
   <v>       0.25000000      0.50000000      0.50000000</v>
   <v>       0.33333333      0.50000000      0.50000000</v>
   <v>       0.41666667      0.50000000      0.50000000</v>
   <v>       0.50000000      0.50000000      0.50000000</v>
  </varray>
  <varray name="weights" >
   <v>       0.00057870</v>
   <v>       0.00115741</v>
   <v>       0.00115741</v>
   <v>       0.00115741</v>
   <v>       0.00115741</v>
   <v>       0.00115741</v>
   <v>       0.00057870</v>
   <v>       0.00231481</v>
   <v>       0.00462963</v>
   <v>       0.00462963</v>
   <v>       0.00462963</v>
   <v>       0.00462963</v>
   <v>       0.00462963</v>
   <v>       0.00231481</v>
   <v>       0.00231481</v>
   <v>       0.00462963</v>
   <v>       0.00462963</v>
   <v>       0.00462963</v>
   <v>       0.00462963</v>
   <v>       0.00462963</v>
   <v>       0.00231481</v>
   <v>       0.00231481</v>
   <v>       0.00462963</v>
   <v>       0.00462963</v>
   <v>       0.00462963</v>
   <v>       0.00462963</v>
   <v>       0.00462963</v>
   <v>       0.00231481</v>
   <v>       0.00231481</v>
   <v>       0.00462963</v>
   <v>       0.00462963</v>
   <v>       0.00462963</v>
   <v>       0.00462963</v>
   <v>       0.00462963</v>
   <v>       0.00231481</v>
   <v>       0.00231481</v>
   <v>       0.00462963</v>
   <v>       0.00462963</v>
   <v>       0.00462963</v>
   <v>       0.00462963</v>
   <v>       0.00462963</v>
   <v>       0.00231481</v>
   <v>       0.00115741</v>
   <v>       0.00231481</v>
   <v>       0.00231481</v>
   <v>       0.00231481</v>
   <v>       0.00231481</v>
   <v>       0.00231481</v>
   <v>       0.00115741</v>
   <v>       0.00231481</v>
   <v>       0.00462963</v>
   <v>       0.00462963</v>
   <v>       0.00462963</v>
   <v>       0.00462963</v>
   <v>       0.00462963</v>
   <v>       0.00231481</v>
   <v>       0.00462963</v>
   <v>       0.00925926</v>
   <v>       0.00925926</v>
   <v>       0.00925926</v>
   <v>       0.00925926</v>
   <v>       0.00925926</v>
   <v>       0.00462963</v>
   <v>       0.00462963</v>
   <v>       0.00925926</v>
   <v>       0.00925926</v>
   <v>       0.00925926</v>
   <v>       0.00925926</v>
   <v>       0.00925926</v>
   <v>       0.00462963</v>
   <v>       0.00462963</v>
   <v>       0.00925926</v>
   <v>       0.00925926</v>
   <v>       0.00925926</v>
   <v>       0.00925926</v>
   <v>       0.00925926</v>
   <v>       0.00462963</v>
   <v>       0.00462963</v>
   <v>       0.00925926</v>
   <v>       0.00925926</v>
   <v>       0.00925926</v>
   <v>       0.00925926</v>
   <v>       0.00925926</v>
   <v>       0.00462963</v>
   <v>       0.00231481</v>
   <v>       0.00462963</v>
   <v>       0.00462963</v>
   <v>       0.00462963</v>
   <v>       0.00462963</v>
   <v>       0.00462963</v>
   <v>       0.00231481</v>
   <v>       0.00231481</v>
   <v>       0.00462963</v>
   <v>       0.00462963</v>
   <v>       0.00462963</v>
   <v>       0.00462963</v>
   <v>       0.00462963</v>
   <v>       0.00231481</v>
   <v>       0.00462963</v>
   <v>       0.00925926</v>
   <v>       0.00925926</v>
   <v>       0.00925926</v>
   <v>       0.00925926</v>
   <v>       0.00925926</v>
   <v>       0.00462963</v>
   <v>       0.00462963</v>
   <v>       0.00925926</v>
   <v>       0.00925926</v>
   <v>       0.00925926</v>
   <v>       0.00925926</v>
   <v>       0.00925926</v>
   <v>       0.00462963</v>
   <v>       0.00462963</v>
   <v>       0.00925926</v>
   <v>       0.00925926</v>
   <v>       0.00925926</v>
   <v>       0.00925926</v>
   <v>       0.00925926</v>
   <v>       0.00462963</v>
   <v>       0.00231481</v>
   <v>       0.00462963</v>
   <v>       0.00462963</v>
   <v>       0.00462963</v>
   <v>       0.00462963</v>
   <v>       0.00462963</v>
   <v>       0.00231481</v>
   <v>       0.00231481</v>
   <v>       0.00462963</v>
   <v>       0.00462963</v>
   <v>       0.00462963</v>
   <v>       0.00462963</v>
   <v>       0.00462963</v>
   <v>       0.00231481</v>
   <v>       0.00462963</v>
   <v>       0.00925926</v>
   <v>       0.00925926</v>
   <v>       0.00925926</v>
   <v>       0.00925926</v>
   <v>       0.00925926</v>
   <v>       0.00462963</v>
   <v>       0.00462963</v>
   <v>       0.00925926</v>
   <v>       0.00925926</v>
   <v>       0.00925926</v>
   <v>       0.00925926</v>
   <v>       0.00925926</v>
   <v>       0.00462963</v>
   <v>       0.00231481</v>
   <v>       0.00462963</v>
   <v>       0.00462963</v>
   <v>       0.00462963</v>
   <v>       0.00462963</v>
   <v>       0.00462963</v>
   <v>       0.00231481</v>
   <v>       0.00231481</v>
   <v>       0.00462963</v>
   <v>       0.00462963</v>
   <v>       0.00462963</v>
   <v>       0.00462963</v>
   <v>       0.00462963</v>
   <v>       0.00231481</v>
   <v>       0.00462963</v>
   <v>       0.00925926</v>
   <v>       0.00925926</v>
   <v>       0.00925926</v>
   <v>       0.00925926</v>
   <v>       0.00925926</v>
   <v>       0.00462963</v>
   <v>       0.00231481</v>
   <v>       0.00462963</v>
   <v>       0.00462963</v>
   <v>       0.00462963</v>
   <v>       0.00462963</v>
   <v>       0.00462963</v>
   <v>       0.00231481</v>
   <v>       0.00231481</v>
   <v>       0.00462963</v>
   <v>       0.00462963</v>
   <v>       0.00462963</v>
   <v>       0.00462963</v>
   <v>       0.00462963</v>
   <v>       0.00231481</v>
   <v>       0.00231481</v>
   <v>       0.00462963</v>
   <v>       0.00462963</v>
   <v>       0.00462963</v>
   <v>       0.00462963</v>
   <v>       0.00462963</v>
   <v>       0.00231481</v>
   <v>       0.00057870</v>
   <v>       0.00115741</v>
   <v>       0.00115741</v>
   <v>       0.00115741</v>
   <v>       0.00115741</v>
   <v>       0.00115741</v>
   <v>       0.00057870</v>
  </varray>
 </kpoints>
 <parameters>
  <separator name="general" >
   <i type="string" name="SYSTEM">unknown system</i>
   <i type="logical" name="LCOMPAT"> F  </i>
  </separator>
  <separator name="electronic" >
   <i type="string" name="PREC">accura</i>
   <i name="ENMAX">    750.00000000</i>
   <i name="ENAUG">    356.67000000</i>
   <i name="EDIFF">      0.00000001</i>
   <i type="int" name="IALGO">    38</i>
   <i type="int" name="IWAVPR">    10</i>
   <i type="int" name="NBANDS">   211</i>
   <i name="NELECT">    352.00000000</i>
   <separator name="electronic smearing" >
    <i type="int" name="ISMEAR">     0</i>
    <i name="SIGMA">      0.01000000</i>
   </separator>
   <separator name="electronic projectors" >
    <i type="logical" name="LREAL"> F  </i>
    <v name="ROPT">      0.00000000</v>
    <i type="int" name="LMAXPAW">  -100</i>
    <i type="int" name="LMAXMIX">     2</i>
   </separator>
   <separator name="electronic startup" >
    <i type="int" name="ISTART">     0</i>
    <i type="int" name="ICHARG">     2</i>
    <i type="int" name="INIWAV">     1</i>
   </separator>
   <separator name="electronic spin" >
    <i type="int" name="ISPIN">     1</i>
    <i type="logical" name="LNONCOLLINEAR"> F  </i>
    <v name="MAGMOM">      1.00000000      1.00000000      1.00000000      1.00000000      1.00000000      1.00000000      1.00000000      1.00000000      1.00000000      1.00000000      1.00000000      1.00000000      1.00000000      1.00000000      1.00000000      1.00000000      1.00000000      1.00000000      1.00000000      1.00000000
      1.00000000      1.00000000      1.00000000      1.00000000      1.00000000      1.00000000      1.00000000      1.00000000      1.00000000      1.00000000      1.00000000      1.00000000</v>
    <i name="NUPDOWN">     -1.00000000</i>
    <i type="logical" name="LSORBIT"> F  </i>
    <v name="SAXIS">      0.00000000      0.00000000      1.00000000</v>
    <i type="logical" name="LSPIRAL"> F  </i>
    <v name="QSPIRAL">      0.00000000      0.00000000      0.00000000</v>
    <i type="logical" name="LZEROZ"> F  </i>
   </separator>
   <separator name="electronic exchange-correlation" >
    <i type="string" name="GGA">--</i>
    <i type="int" name="VOSKOWN">     0</i>
    <i type="logical" name="LASPH"> F  </i>
    <i type="logical" name="LMETAGGA"> F  </i>
    <i type="string" name="GGA2">--</i>
   </separator>
   <separator name="electronic convergence" >
    <i type="int" name="NELM">    60</i>
    <i type="int" name="NELMDL">     0</i>
    <i type="int" name="NELMIN">     2</i>
    <i name="ENINI">    750.00000000</i>
    <separator name="electronic convergence detail" >
     <i type="logical" name="LDIAG"> T  </i>
     <i name="WEIMIN">      0.00000000</i>
     <i name="EBREAK">      0.00000000</i>
     <i name="DEPER">      0.30000000</i>
     <i type="int" name="NRMM">     4</i>
     <i name="TIME">      0.10000000</i>
    </separator>
   </separator>
   <separator name="electronic mixer" >
    <i name="AMIX">      0.40000000</i>
    <i name="BMIX">      1.00000000</i>
    <i name="AMIN">      0.10000000</i>
    <i name="AMIX_MAG">      1.60000000</i>
    <i name="BMIX_MAG">      1.00000000</i>
    <separator name="electronic mixer details" >
     <i type="int" name="IMIX">     4</i>
     <i type="int" name="MAXMIX">   -45</i>
     <i name="WC">    100.00000000</i>
     <i type="int" name="INIMIX">     1</i>
     <i type="int" name="MIXPRE">     1</i>
     <i type="int" name="MREMOVE">     5</i>
    </separator>
   </separator>
   <separator name="electronic dipolcorrection" >
    <i type="int" name="IDIPOL">     0</i>
    <i type="logical" name="LDIPOL"> F  </i>
    <v name="DIPOL">   -100.00000000</v>
    <i name="EFIELD">      0.00000000</i>
   </separator>
  </separator>
  <separator name="grids" >
   <i type="int" name="NGX">    84</i>
   <i type="int" name="NGY">    84</i>
   <i type="int" name="NGZ">    84</i>
   <i type="int" name="NGXF">   168</i>
   <i type="int" name="NGYF">   168</i>
   <i type="int" name="NGZF">   168</i>
   <i type="logical" name="ADDGRID"> T  </i>
  </separator>
  <separator name="ionic" >
   <i type="int" name="NSW">     0</i>
   <i type="int" name="IBRION">    -1</i>
   <i type="int" name="ISIF">     2</i>
   <i name="PSTRESS">      0.00000000</i>
   <i name="EDIFFG">      0.00000010</i>
   <i type="int" name="NFREE">     0</i>
   <i name="POTIM">      0.50000000</i>
   <i name="SMASS">     -3.00000000</i>
  </separator>
  <separator name="ionic md" >
   <i name="TEBEG">      0.00010000</i>
   <i name="TEEND">      0.00010000</i>
   <i type="int" name="NBLOCK">     1</i>
   <i type="int" name="KBLOCK">     1</i>
   <i type="int" name="NPACO">   256</i>
   <i name="APACO">     16.00000000</i>
  </separator>
  <separator name="symmetry" >
   <i type="int" name="ISYM">     2</i>
   <i name="SYMPREC">      0.00001000</i>
  </separator>
  <separator name="dos" >
   <i type="logical" name="LORBIT"> F  </i>
   <v name="RWIGS">     -1.00000000</v>
   <i type="int" name="NEDOS">   301</i>
   <i name="EMIN">     10.00000000</i>
   <i name="EMAX">    -10.00000000</i>
  </separator>
  <separator name="writing" >
   <i type="int" name="NWRITE">     2</i>
   <i type="logical" name="LWAVE"> F  </i>
   <i type="logical" name="LCHARG"> F  </i>
   <i type="logical" name="LPARD"> F  </i>
   <i type="logical" name="LVTOT"> F  </i>
   <i type="logical" name="LELF"> F  </i>
   <i type="logical" name="LOPTICS"> F  </i>
   <i name="STM">      0.00000000</i>
  </separator>
  <separator name="performance" >
   <i type="int" name="NPAR">     8</i>
   <i type="int" name="NSIM">     4</i>
   <i type="int" name="NBLK">   256</i>
   <i type="logical" name="LPLANE"> T  </i>
   <i type="logical" name="LCRITICAL_MEM"> F  </i>
   <i type="logical" name="LSCALAPACK"> F  </i>
   <i type="logical" name="LSCALU"> F  </i>
   <i type="logical" name="LASYNC"> F  </i>
  </separator>
  <separator name="miscellaneous" >
   <i type="int" name="IDIOT">     3</i>
   <i type="logical" name="LMUSIC"> F  </i>
   <v name="POMASS">    196.96600000</v>
   <i type="logical" name="LCORR"> T  </i>
  </separator>
  <i type="logical" name="LREAL_COMPAT"> F  </i>
  <i type="logical" name="GGA_COMPAT"> T  </i>
  <i type="logical" name="LBERRY"> F  </i>
  <i type="int" name="ICORELEVEL">     0</i>
  <i type="logical" name="LDAU"> F  </i>
  <i type="int" name="I_CONSTRAINED_M">     0</i>
 </parameters>
 <atominfo>
  <atoms>      32</atoms>
  <types>       1</types>
  <array name="atoms" >
   <dimension dim="1">ion</dimension>
   <field type="string">element</field>
   <field type="int">atomtype</field>
   <set>
    <rc><c>Au</c><c>   1</c></rc>
    <rc><c>Au</c><c>   1</c></rc>
    <rc><c>Au</c><c>   1</c></rc>
    <rc><c>Au</c><c>   1</c></rc>
    <rc><c>Au</c><c>   1</c></rc>
    <rc><c>Au</c><c>   1</c></rc>
    <rc><c>Au</c><c>   1</c></rc>
    <rc><c>Au</c><c>   1</c></rc>
    <rc><c>Au</c><c>   1</c></rc>
    <rc><c>Au</c><c>   1</c></rc>
    <rc><c>Au</c><c>   1</c></rc>
    <rc><c>Au</c><c>   1</c></rc>
    <rc><c>Au</c><c>   1</c></rc>
    <rc><c>Au</c><c>   1</c></rc>
    <rc><c>Au</c><c>   1</c></rc>
    <rc><c>Au</c><c>   1</c></rc>
    <rc><c>Au</c><c>   1</c></rc>
    <rc><c>Au</c><c>   1</c></rc>
    <rc><c>Au</c><c>   1</c></rc>
    <rc><c>Au</c><c>   1</c></rc>
    <rc><c>Au</c><c>   1</c></rc>
    <rc><c>Au</c><c>   1</c></rc>
    <rc><c>Au</c><c>   1</c></rc>
    <rc><c>Au</c><c>   1</c></rc>
    <rc><c>Au</c><c>   1</c></rc>
    <rc><c>Au</c><c>   1</c></rc>
    <rc><c>Au</c><c>   1</c></rc>
    <rc><c>Au</c><c>   1</c></rc>
    <rc><c>Au</c><c>   1</c></rc>
    <rc><c>Au</c><c>   1</c></rc>
    <rc><c>Au</c><c>   1</c></rc>
    <rc><c>Au</c><c>   1</c></rc>
   </set>
  </array>
  <array name="atomtypes" >
   <dimension dim="1">type</dimension>
   <field type="int">atomspertype</field>
   <field type="string">element</field>
   <field>mass</field>
   <field>valence</field>
   <field type="string">pseudopotential</field>
   <set>
    <rc><c>  32</c><c>Au</c><c>    196.96600000</c><c>     11.00000000</c><c> PAW_PBE Au 06Sep2000                   </c></rc>
   </set>
  </array>
 </atominfo>
 <structure name="initialpos" >
  <crystal>
   <varray name="basis" >
    <v>       9.09681715      0.00000000      0.00000000</v>
    <v>       0.00000000      9.09681715      0.00000000</v>
    <v>       0.00000000      0.00000000      9.09681715</v>
   </varray>
   <i name="volume">    752.78056037</i>
   <varray name="rec_basis" >
    <v>       0.10992856      0.00000000      0.00000000</v>
    <v>       0.00000000      0.10992856      0.00000000</v>
    <v>       0.00000000      0.00000000      0.10992856</v>
   </varray>
  </crystal>
  <varray name="positions" >
   <v>       0.00109929      0.00000000      0.00000000</v>
   <v>       0.50000000      0.00000000      0.00000000</v>
   <v>       0.00000000      0.50000000      0.00000000</v>
   <v>       0.50000000      0.50000000      0.00000000</v>
   <v>       0.00000000      0.00000000      0.50000000</v>
   <v>       0.50000000      0.00000000      0.50000000</v>
   <v>       0.00000000      0.50000000      0.50000000</v>
   <v>       0.50000000      0.50000000      0.50000000</v>
   <v>       0.25000000      0.25000000      0.00000000</v>
   <v>       0.75000000      0.25000000      0.00000000</v>
   <v>       0.25000000      0.75000000      0.00000000</v>
   <v>       0.75000000      0.75000000      0.00000000</v>
   <v>       0.25000000      0.25000000      0.50000000</v>
   <v>       0.75000000      0.25000000      0.50000000</v>
   <v>       0.25000000      0.75000000      0.50000000</v>
   <v>       0.75000000      0.75000000      0.50000000</v>
   <v>       0.25000000      0.00000000      0.25000000</v>
   <v>       0.75000000      0.00000000      0.25000000</v>
   <v>       0.25000000      0.50000000      0.25000000</v>
   <v>       0.75000000      0.50000000      0.25000000</v>
   <v>       0.25000000      0.00000000      0.75000000</v>
   <v>       0.75000000      0.00000000      0.75000000</v>
   <v>       0.25000000      0.50000000      0.75000000</v>
   <v>       0.75000000      0.50000000      0.75000000</v>
   <v>       0.00000000      0.25000000      0.25000000</v>
   <v>       0.50000000      0.25000000      0.25000000</v>
   <v>       0.00000000      0.75000000      0.25000000</v>
   <v>       0.50000000      0.75000000      0.25000000</v>
   <v>       0.00000000      0.25000000      0.75000000</v>
   <v>       0.50000000      0.25000000      0.75000000</v>
   <v>       0.00000000      0.75000000      0.75000000</v>
   <v>       0.50000000      0.75000000      0.75000000</v>
  </varray>
 </structure>
 <calculation>
  <scstep>
   <time name="dav"> 1167.48 1167.54</time>
   <time name="total"> 1168.49 1168.55</time>
   <energy>
    <i name="alphaZ">   2547.57918915</i>
    <i name="ewald"> -28101.40609550</i>
    <i name="hartreedc">  -5366.66944266</i>
    <i name="XCdc">    461.72884375</i>
    <i name="pawpsdc">  23920.39735419</i>
    <i name="pawaedc"> -23172.13309131</i>
    <i name="eentropy">     -0.00106114</i>
    <i name="bandstr">   4343.29809728</i>
    <i name="atom">  29633.78979189</i>
    <i name="e_fr_energy">   4266.58358563</i>
    <i name="e_wo_entrp">   4266.58464677</i>
    <i name="e_0_energy">   4266.58411620</i>
   </energy>
  </scstep>
  <scstep>
   <time name="dav"> 1169.48 1169.39</time>
   <time name="total"> 1169.61 1169.52</time>
   <energy>
    <i name="e_fr_energy">    170.32671044</i>
    <i name="e_wo_entrp">    170.32737865</i>
    <i name="e_0_energy">    170.32704454</i>
   </energy>
  </scstep>
  <scstep>
   <time name="dav"> 1283.51 1283.28</time>
   <time name="total"> 1283.64 1283.41</time>
   <energy>
    <i name="e_fr_energy">    -88.74704168</i>
    <i name="e_wo_entrp">    -88.74647806</i>
    <i name="e_0_energy">    -88.74675987</i>
   </energy>
  </scstep>
  <scstep>
   <time name="dav"> 1234.13 1233.91</time>
   <time name="total"> 1234.26 1234.04</time>
   <energy>
    <i name="e_fr_energy">    -98.83942953</i>
    <i name="e_wo_entrp">    -98.83856243</i>
    <i name="e_0_energy">    -98.83899598</i>
   </energy>
  </scstep>
  <scstep>
   <time name="dav"> 1245.39 1245.17</time>
   <time name="total"> 1300.28 1300.04</time>
   <energy>
    <i name="e_fr_energy">    -99.03164826</i>
    <i name="e_wo_entrp">    -99.03078337</i>
    <i name="e_0_energy">    -99.03121582</i>
   </energy>
  </scstep>
  <scstep>
   <time name="dav"> 1224.04 1223.82</time>
   <time name="total"> 1282.18 1281.96</time>
   <energy>
    <i name="e_fr_energy">    -93.15129325</i>
    <i name="e_wo_entrp">    -93.15072111</i>
    <i name="e_0_energy">    -93.15100718</i>
   </energy>
  </scstep>
  <scstep>
   <time name="dav"> 1652.29 1652.09</time>
   <time name="total"> 1756.42 1756.21</time>
   <energy>
    <i name="e_fr_energy">    -93.04783130</i>
    <i name="e_wo_entrp">    -93.04722529</i>
    <i name="e_0_energy">    -93.04752829</i>
   </energy>
  </scstep>
  <scstep>
   <time name="dav"> 1803.44 1803.78</time>
   <time name="total"> 1933.62 1933.94</time>
   <energy>
    <i name="e_fr_energy">    -93.02993321</i>
    <i name="e_wo_entrp">    -93.02933464</i>
    <i name="e_0_energy">    -93.02963393</i>
   </energy>
  </scstep>
  <scstep>
   <time name="dav"> 2875.80 2875.41</time>
   <time name="total"> 3009.07 3008.65</time>
   <energy>
    <i name="e_fr_energy">    -93.03053088</i>
    <i name="e_wo_entrp">    -93.02993582</i>
    <i name="e_0_energy">    -93.03023335</i>
   </energy>
  </scstep>
  <scstep>
   <time name="dav"> 2756.60 2756.23</time>
   <time name="total"> 2885.02 2884.63</time>
   <energy>
    <i name="e_fr_energy">    -93.03068561</i>
    <i name="e_wo_entrp">    -93.03009123</i>
    <i name="e_0_energy">    -93.03038842</i>
   </energy>
  </scstep>
  <scstep>
   <time name="dav"> 2960.57 2960.14</time>
   <time name="total"> 3094.91 3094.97</time>
   <energy>
    <i name="e_fr_energy">    -93.03069487</i>
    <i name="e_wo_entrp">    -93.03010052</i>
    <i name="e_0_energy">    -93.03039769</i>
   </energy>
  </scstep>
  <scstep>
   <time name="dav"> 2529.81 2529.45</time>
   <time name="total"> 2666.24 2666.04</time>
   <energy>
    <i name="e_fr_energy">    -93.03069666</i>
    <i name="e_wo_entrp">    -93.03010239</i>
    <i name="e_0_energy">    -93.03039953</i>
   </energy>
  </scstep>
  <scstep>
   <time name="dav"> 2495.83 2495.60</time>
   <time name="total"> 2583.95 2607.45</time>
   <energy>
    <i name="e_fr_energy">    -93.03069529</i>
    <i name="e_wo_entrp">    -93.03010102</i>
    <i name="e_0_energy">    -93.03039815</i>
   </energy>
  </scstep>
  <scstep>
   <time name="dav"> 1699.17 1727.78</time>
   <time name="total"> 1779.78 1810.14</time>
   <energy>
    <i name="e_fr_energy">    -93.03069506</i>
    <i name="e_wo_entrp">    -93.03010080</i>
    <i name="e_0_energy">    -93.03039793</i>
   </energy>
  </scstep>
  <scstep>
   <time name="dav"> 1537.57 1538.71</time>
   <time name="total"> 1627.01 1630.70</time>
   <energy>
    <i name="e_fr_energy">    -93.03069514</i>
    <i name="e_wo_entrp">    -93.03010087</i>
    <i name="e_0_energy">    -93.03039801</i>
   </energy>
  </scstep>
  <scstep>
   <time name="dav"> 1493.50 1498.94</time>
   <time name="total"> 1495.23 1500.71</time>
   <energy>
    <i name="alphaZ">   2547.57918915</i>
    <i name="ewald"> -28101.40609550</i>
    <i name="hartreedc">  -5054.49872475</i>
    <i name="XCdc">    447.19894512</i>
    <i name="pawpsdc">  23350.78454362</i>
    <i name="pawaedc"> -22644.60497485</i>
    <i name="eentropy">     -0.00059426</i>
    <i name="bandstr">   -271.87277552</i>
    <i name="atom">  29633.78979189</i>
    <i name="e_fr_energy">    -93.03069513</i>
    <i name="e_wo_entrp">    -93.03010087</i>
    <i name="e_0_energy">    -93.03039800</i>
   </energy>
  </scstep>
  <structure>
   <crystal>
    <varray name="basis" >
     <v>       9.09681715      0.00000000      0.00000000</v>
     <v>       0.00000000      9.09681715      0.00000000</v>
     <v>       0.00000000      0.00000000      9.09681715</v>
    </varray>
    <i name="volume">    752.78056037</i>
    <varray name="rec_basis" >
     <v>       0.10992856      0.00000000      0.00000000</v>
     <v>       0.00000000      0.10992856      0.00000000</v>
     <v>       0.00000000      0.00000000      0.10992856</v>
    </varray>
   </crystal>
   <varray name="positions" >
    <v>       0.00109929      0.00000000      0.00000000</v>
    <v>       0.50000000      0.00000000      0.00000000</v>
    <v>       0.00000000      0.50000000      0.00000000</v>
    <v>       0.50000000      0.50000000      0.00000000</v>
    <v>       0.00000000      0.00000000      0.50000000</v>
    <v>       0.50000000      0.00000000      0.50000000</v>
    <v>       0.00000000      0.50000000      0.50000000</v>
    <v>       0.50000000      0.50000000      0.50000000</v>
    <v>       0.25000000      0.25000000      0.00000000</v>
    <v>       0.75000000      0.25000000      0.00000000</v>
    <v>       0.25000000      0.75000000      0.00000000</v>
    <v>       0.75000000      0.75000000      0.00000000</v>
    <v>       0.25000000      0.25000000      0.50000000</v>
    <v>       0.75000000      0.25000000      0.50000000</v>
    <v>       0.25000000      0.75000000      0.50000000</v>
    <v>       0.75000000      0.75000000      0.50000000</v>
    <v>       0.25000000      0.00000000      0.25000000</v>
    <v>       0.75000000      0.00000000      0.25000000</v>
    <v>       0.25000000      0.50000000      0.25000000</v>
    <v>       0.75000000      0.50000000      0.25000000</v>
    <v>       0.25000000      0.00000000      0.75000000</v>
    <v>       0.75000000      0.00000000      0.75000000</v>
    <v>       0.25000000      0.50000000      0.75000000</v>
    <v>       0.75000000      0.50000000      0.75000000</v>
    <v>       0.00000000      0.25000000      0.25000000</v>
    <v>       0.50000000      0.25000000      0.25000000</v>
    <v>       0.00000000      0.75000000      0.25000000</v>
    <v>       0.50000000      0.75000000      0.25000000</v>
    <v>       0.00000000      0.25000000      0.75000000</v>
    <v>       0.50000000      0.25000000      0.75000000</v>
    <v>       0.00000000      0.75000000      0.75000000</v>
    <v>       0.50000000      0.75000000      0.75000000</v>
   </varray>
  </structure>
  <varray name="forces" >
   <v>       0.00362200      0.00000000     -0.00000000</v>
   <v>       0.00285108      0.00000000     -0.00000000</v>
   <v>      -0.00038625     -0.00000000      0.00000000</v>
   <v>      -0.00155304      0.00000000     -0.00000000</v>
   <v>      -0.00038625      0.00000000      0.00000000</v>
   <v>      -0.00155304      0.00000000      0.00000000</v>
   <v>       0.00023413     -0.00000000      0.00000000</v>
   <v>      -0.00000575      0.00000000     -0.00000000</v>
   <v>      -0.00026909      0.00010267     -0.00000000</v>
   <v>      -0.00033866     -0.00001436      0.00000000</v>
   <v>      -0.00026909     -0.00010267      0.00000000</v>
   <v>      -0.00033866      0.00001436      0.00000000</v>
   <v>       0.00021409     -0.00004692      0.00000000</v>
   <v>       0.00021353      0.00004920     -0.00000000</v>
   <v>       0.00021409      0.00004692      0.00000000</v>
   <v>       0.00021353     -0.00004920     -0.00000000</v>
   <v>      -0.00026909     -0.00000000      0.00010267</v>
   <v>      -0.00033866      0.00000000     -0.00001436</v>
   <v>       0.00021409     -0.00000000     -0.00004692</v>
   <v>       0.00021353      0.00000000      0.00004920</v>
   <v>      -0.00026909      0.00000000     -0.00010267</v>
   <v>      -0.00033866      0.00000000      0.00001436</v>
   <v>       0.00021409     -0.00000000      0.00004692</v>
   <v>       0.00021353      0.00000000     -0.00004920</v>
   <v>      -0.00103894      0.00000781      0.00000781</v>
   <v>       0.00051335      0.00000371      0.00000371</v>
   <v>      -0.00103894     -0.00000781      0.00000781</v>
   <v>       0.00051335     -0.00000371      0.00000371</v>
   <v>      -0.00103894      0.00000781     -0.00000781</v>
   <v>       0.00051335      0.00000371     -0.00000371</v>
   <v>      -0.00103894     -0.00000781     -0.00000781</v>
   <v>       0.00051335     -0.00000371     -0.00000371</v>
  </varray>
  <varray name="stress" >
   <v>    -159.79209815      0.00000000      0.00000000</v>
   <v>       0.00000000   -159.79244357      0.00000000</v>
   <v>       0.00000000      0.00000000   -159.79244357</v>
  </varray>
  <energy>
   <i name="e_fr_energy">    -93.03069513</i>
   <i name="e_wo_entrp">    -93.03039800</i>
   <i name="e_0_energy">     -0.00059426</i>
  </energy>
  <eigenvalues>
   <array>
    <dimension dim="1">band</dimension>
    <dimension dim="2">kpoint</dimension>
    <dimension dim="3">spin</dimension>
    <field>eigene</field>
    <field>occ</field>
    <set>
     <set comment="spin 1">
      <set comment="kpoint 1">
       <r>  -4.6429  1.0000</r>
       <r>  -2.7701  1.0000</r>
       <r>  -2.7676  1.0000</r>
       <r>  -2.7675  1.0000</r>
       <r>  -2.7675  1.0000</r>
       <r>  -2.7675  1.0000</r>
       <r>  -2.7650  1.0000</r>
       <r>  -2.6513  1.0000</r>
       <r>  -2.6513  1.0000</r>
       <r>  -2.6513  1.0000</r>
       <r>  -2.6513  1.0000</r>
       <r>  -2.4128  1.0000</r>
       <r>  -2.4128  1.0000</r>
       <r>  -2.4128  1.0000</r>
       <r>  -2.2502  1.0000</r>
       <r>  -2.2502  1.0000</r>
       <r>  -2.2502  1.0000</r>
       <r>  -1.8411  1.0000</r>
       <r>  -1.8401  1.0000</r>
       <r>  -1.8401  1.0000</r>
       <r>  -1.8389  1.0000</r>
       <r>  -1.8387  1.0000</r>
       <r>  -1.8387  1.0000</r>
       <r>  -1.8387  1.0000</r>
       <r>  -1.8387  1.0000</r>
       <r>  -1.8385  1.0000</r>
       <r>  -1.8373  1.0000</r>
       <r>  -1.8373  1.0000</r>
       <r>  -1.8363  1.0000</r>
       <r>  -1.7139  1.0000</r>
       <r>  -1.7126  1.0000</r>
       <r>  -1.7126  1.0000</r>
       <r>  -1.7126  1.0000</r>
       <r>  -1.7126  1.0000</r>
       <r>  -1.7112  1.0000</r>
       <r>  -1.6967  1.0000</r>
       <r>  -1.6954  1.0000</r>
       <r>  -1.6954  1.0000</r>
       <r>  -1.6954  1.0000</r>
       <r>  -1.6954  1.0000</r>
       <r>  -1.6941  1.0000</r>
       <r>  -1.3181  1.0000</r>
       <r>  -1.3165  1.0000</r>
       <r>  -1.3165  1.0000</r>
       <r>  -1.3157  1.0000</r>
       <r>  -1.3157  1.0000</r>
       <r>  -1.3157  1.0000</r>
       <r>  -1.3157  1.0000</r>
       <r>  -1.3157  1.0000</r>
       <r>  -1.3156  1.0000</r>
       <r>  -1.3149  1.0000</r>
       <r>  -1.3149  1.0000</r>
       <r>  -1.3134  1.0000</r>
       <r>  -1.2684  1.0000</r>
       <r>  -1.2684  1.0000</r>
       <r>  -1.2668  1.0000</r>
       <r>  -1.2668  1.0000</r>
       <r>  -1.2668  1.0000</r>
       <r>  -1.2668  1.0000</r>
       <r>  -1.2668  1.0000</r>
       <r>  -1.2668  1.0000</r>
       <r>  -1.2668  1.0000</r>
       <r>  -1.2667  1.0000</r>
       <r>  -1.2652  1.0000</r>
       <r>  -1.2652  1.0000</r>
       <r>  -1.0826  1.0000</r>
       <r>  -1.0825  1.0000</r>
       <r>  -1.0825  1.0000</r>
       <r>  -1.0825  1.0000</r>
       <r>  -1.0825  1.0000</r>
       <r>  -1.0825  1.0000</r>
       <r>  -1.0825  1.0000</r>
       <r>  -1.0825  1.0000</r>
       <r>  -1.0736  1.0000</r>
       <r>  -1.0736  1.0000</r>
       <r>  -1.0736  1.0000</r>
       <r>  -1.0663  1.0000</r>
       <r>  -1.0642  1.0000</r>
       <r>  -1.0640  1.0000</r>
       <r>  -1.0640  1.0000</r>
       <r>  -1.0638  1.0000</r>
       <r>  -1.0638  1.0000</r>
       <r>  -1.0638  1.0000</r>
       <r>  -1.0638  1.0000</r>
       <r>  -1.0637  1.0000</r>
       <r>  -1.0637  1.0000</r>
       <r>  -1.0635  1.0000</r>
       <r>  -1.0613  1.0000</r>
       <r>  -0.5864  1.0000</r>
       <r>  -0.5851  1.0000</r>
       <r>  -0.5851  1.0000</r>
       <r>  -0.5851  1.0000</r>
       <r>  -0.5851  1.0000</r>
       <r>  -0.5838  1.0000</r>
       <r>  -0.5237  1.0000</r>
       <r>  -0.5232  1.0000</r>
       <r>  -0.5225  1.0000</r>
       <r>  -0.5225  1.0000</r>
       <r>  -0.5222  1.0000</r>
       <r>  -0.5222  1.0000</r>
       <r>  -0.5222  1.0000</r>
       <r>  -0.5222  1.0000</r>
       <r>  -0.5218  1.0000</r>
       <r>  -0.5218  1.0000</r>
       <r>  -0.5210  1.0000</r>
       <r>  -0.5206  1.0000</r>
       <r>  -0.3521  1.0000</r>
       <r>  -0.3521  1.0000</r>
       <r>  -0.3506  1.0000</r>
       <r>  -0.3506  1.0000</r>
       <r>  -0.3504  1.0000</r>
       <r>  -0.3504  1.0000</r>
       <r>  -0.3504  1.0000</r>
       <r>  -0.3504  1.0000</r>
       <r>  -0.3503  1.0000</r>
       <r>  -0.3503  1.0000</r>
       <r>  -0.3488  1.0000</r>
       <r>  -0.3488  1.0000</r>
       <r>  -0.2533  1.0000</r>
       <r>  -0.2523  1.0000</r>
       <r>  -0.2523  1.0000</r>
       <r>  -0.2523  1.0000</r>
       <r>  -0.2523  1.0000</r>
       <r>  -0.2512  1.0000</r>
       <r>  -0.2261  1.0000</r>
       <r>  -0.2260  1.0000</r>
       <r>  -0.2074  1.0000</r>
       <r>  -0.2074  1.0000</r>
       <r>  -0.2058  1.0000</r>
       <r>  -0.2056  1.0000</r>
       <r>  -0.2055  1.0000</r>
       <r>  -0.2055  1.0000</r>
       <r>  -0.2055  1.0000</r>
       <r>  -0.2055  1.0000</r>
       <r>  -0.2054  1.0000</r>
       <r>  -0.2052  1.0000</r>
       <r>  -0.2036  1.0000</r>
       <r>  -0.2036  1.0000</r>
       <r>   0.0869  1.0000</r>
       <r>   0.0877  1.0000</r>
       <r>   0.0877  1.0000</r>
       <r>   0.0877  1.0000</r>
       <r>   0.0877  1.0000</r>
       <r>   0.0885  1.0000</r>
       <r>   0.4195  1.0000</r>
       <r>   0.4195  1.0000</r>
       <r>   0.4195  1.0000</r>
       <r>   0.4499  1.0000</r>
       <r>   0.4500  1.0000</r>
       <r>   0.4500  1.0000</r>
       <r>   0.4500  1.0000</r>
       <r>   0.4500  1.0000</r>
       <r>   0.4500  1.0000</r>
       <r>   0.4500  1.0000</r>
       <r>   0.4500  1.0000</r>
       <r>   0.6272  1.0000</r>
       <r>   0.6274  1.0000</r>
       <r>   0.6274  1.0000</r>
       <r>   0.6274  1.0000</r>
       <r>   0.6274  1.0000</r>
       <r>   0.6274  1.0000</r>
       <r>   0.6282  1.0000</r>
       <r>   0.6282  1.0000</r>
       <r>   0.6282  1.0000</r>
       <r>   0.6282  1.0000</r>
       <r>   0.6282  1.0000</r>
       <r>   0.6284  1.0000</r>
       <r>   1.7613  1.0000</r>
       <r>   1.7625  1.0000</r>
       <r>   1.7625  1.0000</r>
       <r>   1.7630  1.0000</r>
       <r>   1.7633  1.0000</r>
       <r>   1.7633  1.0000</r>
       <r>   1.7633  1.0000</r>
       <r>   1.7633  1.0000</r>
       <r>   1.7637  1.0000</r>
       <r>   1.7642  1.0000</r>
       <r>   1.7642  1.0000</r>
       <r>   1.7653  1.0000</r>
       <r>   2.6380  0.0000</r>
       <r>   2.6380  0.0000</r>
       <r>   2.6380  0.0000</r>
       <r>   2.6380  0.0000</r>
       <r>   3.9655  0.0000</r>
       <r>   3.9655  0.0000</r>
       <r>   3.9655  0.0000</r>
       <r>   3.9655  0.0000</r>
       <r>   4.1119  0.0000</r>
       <r>   4.1119  0.0000</r>
       <r>   4.1119  0.0000</r>
       <r>   5.5045  0.0000</r>
       <r>   5.5046  0.0000</r>
       <r>   5.5046  0.0000</r>
       <r>   5.5046  0.0000</r>
       <r>   5.5046  0.0000</r>
       <r>   5.5047  0.0000</r>
       <r>   5.9241  0.0000</r>
       <r>   5.9241  0.0000</r>
       <r>   5.9241  0.0000</r>
       <r>   7.7081  0.0000</r>
       <r>   7.7081  0.0000</r>
       <r>   7.7107  0.0000</r>
       <r>   7.7107  0.0000</r>
       <r>   7.7110  0.0000</r>
       <r>   7.7110  0.0000</r>
       <r>   7.7110  0.0000</r>
       <r>   7.7110  0.0000</r>
       <r>   7.7112  0.0000</r>
       <r>   7.7112  0.0000</r>
       <r>   7.7138  0.0000</r>
       <r>   7.7138  0.0000</r>
       <r>   9.2105  0.0000</r>
       <r>   9.2111  0.0000</r>
       <r>   9.2113  0.0000</r>
       <r>   9.2117  0.0000</r>
       <r>   9.2126  0.0000</r>
      </set>
      <set comment="kpoint 2">
       <r>  -4.6276  1.0000</r>
       <r>  -2.9954  1.0000</r>
       <r>  -2.7567  1.0000</r>
       <r>  -2.7567  1.0000</r>
       <r>  -2.7567  1.0000</r>
       <r>  -2.7567  1.0000</r>
       <r>  -2.6437  1.0000</r>
       <r>  -2.6437  1.0000</r>
       <r>  -2.6437  1.0000</r>
       <r>  -2.6437  1.0000</r>
       <r>  -2.5724  1.0000</r>
       <r>  -2.4086  1.0000</r>
       <r>  -2.4040  1.0000</r>
       <r>  -2.4040  1.0000</r>
       <r>  -2.2457  1.0000</r>
       <r>  -2.2432  1.0000</r>
       <r>  -2.2432  1.0000</r>
       <r>  -1.9065  1.0000</r>
       <r>  -1.9065  1.0000</r>
       <r>  -1.9065  1.0000</r>
       <r>  -1.9065  1.0000</r>
       <r>  -1.8779  1.0000</r>
       <r>  -1.8779  1.0000</r>
       <r>  -1.8779  1.0000</r>
       <r>  -1.8779  1.0000</r>
       <r>  -1.7820  1.0000</r>
       <r>  -1.7820  1.0000</r>
       <r>  -1.7820  1.0000</r>
       <r>  -1.7819  1.0000</r>
       <r>  -1.7712  1.0000</r>
       <r>  -1.7306  1.0000</r>
       <r>  -1.7305  1.0000</r>
       <r>  -1.7071  1.0000</r>
       <r>  -1.7071  1.0000</r>
       <r>  -1.7071  1.0000</r>
       <r>  -1.7070  1.0000</r>
       <r>  -1.6914  1.0000</r>
       <r>  -1.6914  1.0000</r>
       <r>  -1.6914  1.0000</r>
       <r>  -1.6914  1.0000</r>
       <r>  -1.6184  1.0000</r>
       <r>  -1.4207  1.0000</r>
       <r>  -1.4207  1.0000</r>
       <r>  -1.3486  1.0000</r>
       <r>  -1.3485  1.0000</r>
       <r>  -1.3485  1.0000</r>
       <r>  -1.3485  1.0000</r>
       <r>  -1.2921  1.0000</r>
       <r>  -1.2913  1.0000</r>
       <r>  -1.2913  1.0000</r>
       <r>  -1.2913  1.0000</r>
       <r>  -1.2898  1.0000</r>
       <r>  -1.2898  1.0000</r>
       <r>  -1.2898  1.0000</r>
       <r>  -1.2891  1.0000</r>
       <r>  -1.2733  1.0000</r>
       <r>  -1.2733  1.0000</r>
       <r>  -1.2733  1.0000</r>
       <r>  -1.2733  1.0000</r>
       <r>  -1.2662  1.0000</r>
       <r>  -1.2661  1.0000</r>
       <r>  -1.2661  1.0000</r>
       <r>  -1.2660  1.0000</r>
       <r>  -1.1018  1.0000</r>
       <r>  -1.1018  1.0000</r>
       <r>  -1.0942  1.0000</r>
       <r>  -1.0941  1.0000</r>
       <r>  -1.0940  1.0000</r>
       <r>  -1.0940  1.0000</r>
       <r>  -1.0848  1.0000</r>
       <r>  -1.0848  1.0000</r>
       <r>  -1.0847  1.0000</r>
       <r>  -1.0847  1.0000</r>
       <r>  -1.0792  1.0000</r>
       <r>  -1.0770  1.0000</r>
       <r>  -1.0769  1.0000</r>
       <r>  -1.0769  1.0000</r>
       <r>  -1.0769  1.0000</r>
       <r>  -1.0681  1.0000</r>
       <r>  -1.0681  1.0000</r>
       <r>  -1.0599  1.0000</r>
       <r>  -1.0598  1.0000</r>
       <r>  -1.0598  1.0000</r>
       <r>  -1.0598  1.0000</r>
       <r>  -1.0351  1.0000</r>
       <r>  -1.0351  1.0000</r>
       <r>  -1.0351  1.0000</r>
       <r>  -1.0350  1.0000</r>
       <r>  -0.6279  1.0000</r>
       <r>  -0.6279  1.0000</r>
       <r>  -0.6278  1.0000</r>
       <r>  -0.6278  1.0000</r>
       <r>  -0.6191  1.0000</r>
       <r>  -0.5489  1.0000</r>
       <r>  -0.5488  1.0000</r>
       <r>  -0.5488  1.0000</r>
       <r>  -0.5488  1.0000</r>
       <r>  -0.5207  1.0000</r>
       <r>  -0.5206  1.0000</r>
       <r>  -0.5206  1.0000</r>
       <r>  -0.5206  1.0000</r>
       <r>  -0.4897  1.0000</r>
       <r>  -0.4893  1.0000</r>
       <r>  -0.4893  1.0000</r>
       <r>  -0.4892  1.0000</r>
       <r>  -0.4876  1.0000</r>
       <r>  -0.4558  1.0000</r>
       <r>  -0.4558  1.0000</r>
       <r>  -0.3508  1.0000</r>
       <r>  -0.3508  1.0000</r>
       <r>  -0.3508  1.0000</r>
       <r>  -0.3508  1.0000</r>
       <r>  -0.3123  1.0000</r>
       <r>  -0.3123  1.0000</r>
       <r>  -0.3123  1.0000</r>
       <r>  -0.3123  1.0000</r>
       <r>  -0.2555  1.0000</r>
       <r>  -0.2555  1.0000</r>
       <r>  -0.2553  1.0000</r>
       <r>  -0.2553  1.0000</r>
       <r>  -0.2497  1.0000</r>
       <r>  -0.2497  1.0000</r>
       <r>  -0.2496  1.0000</r>
       <r>  -0.2496  1.0000</r>
       <r>  -0.2408  1.0000</r>
       <r>  -0.2408  1.0000</r>
       <r>  -0.2345  1.0000</r>
       <r>  -0.2345  1.0000</r>
       <r>  -0.2319  1.0000</r>
       <r>  -0.2234  1.0000</r>
       <r>  -0.1773  1.0000</r>
       <r>  -0.1773  1.0000</r>
       <r>  -0.1773  1.0000</r>
       <r>  -0.1772  1.0000</r>
       <r>  -0.1433  1.0000</r>
       <r>  -0.1433  1.0000</r>
       <r>  -0.1432  1.0000</r>
       <r>  -0.1432  1.0000</r>
       <r>   0.0458  1.0000</r>
       <r>   0.0961  1.0000</r>
       <r>   0.0961  1.0000</r>
       <r>   0.0961  1.0000</r>
       <r>   0.0961  1.0000</r>
       <r>   0.1299  1.0000</r>
       <r>   0.4114  1.0000</r>
       <r>   0.4115  1.0000</r>
       <r>   0.4166  1.0000</r>
       <r>   0.4279  1.0000</r>
       <r>   0.4279  1.0000</r>
       <r>   0.4279  1.0000</r>
       <r>   0.4279  1.0000</r>
       <r>   0.4428  1.0000</r>
       <r>   0.4428  1.0000</r>
       <r>   0.4428  1.0000</r>
       <r>   0.4428  1.0000</r>
       <r>   0.5973  1.0000</r>
       <r>   0.5973  1.0000</r>
       <r>   0.6171  1.0000</r>
       <r>   0.6171  1.0000</r>
       <r>   0.6171  1.0000</r>
       <r>   0.6172  1.0000</r>
       <r>   0.6173  1.0000</r>
       <r>   0.6173  1.0000</r>
       <r>   0.6272  1.0000</r>
       <r>   0.6274  1.0000</r>
       <r>   0.6282  1.0000</r>
       <r>   0.6284  1.0000</r>
       <r>   1.5294  1.0000</r>
       <r>   1.5294  1.0000</r>
       <r>   1.5294  1.0000</r>
       <r>   1.5294  1.0000</r>
       <r>   1.7674  1.0000</r>
       <r>   1.7674  1.0000</r>
       <r>   1.7674  1.0000</r>
       <r>   1.7674  1.0000</r>
       <r>   2.0206  1.0000</r>
       <r>   2.0206  1.0000</r>
       <r>   2.0206  1.0000</r>
       <r>   2.0206  1.0000</r>
       <r>   2.5751  0.0000</r>
       <r>   2.5751  0.0000</r>
       <r>   2.5751  0.0000</r>
       <r>   2.5751  0.0000</r>
       <r>   3.8771  0.0000</r>
       <r>   4.0728  0.0000</r>
       <r>   4.0728  0.0000</r>
       <r>   4.0728  0.0000</r>
       <r>   4.0728  0.0000</r>
       <r>   4.1546  0.0000</r>
       <r>   4.1546  0.0000</r>
       <r>   5.4251  0.0000</r>
       <r>   5.4251  0.0000</r>
       <r>   5.4251  0.0000</r>
       <r>   5.4251  0.0000</r>
       <r>   5.5117  0.0000</r>
       <r>   5.5117  0.0000</r>
       <r>   5.9170  0.0000</r>
       <r>   5.9170  0.0000</r>
       <r>   6.1863  0.0000</r>
       <r>   7.2914  0.0000</r>
       <r>   7.2914  0.0000</r>
       <r>   7.7106  0.0000</r>
       <r>   7.7106  0.0000</r>
       <r>   7.7107  0.0000</r>
       <r>   7.7107  0.0000</r>
       <r>   7.7360  0.0000</r>
       <r>   7.7360  0.0000</r>
       <r>   7.7360  0.0000</r>
       <r>   7.7360  0.0000</r>
       <r>   8.1328  0.0000</r>
       <r>   8.1328  0.0000</r>
       <r>   8.9299  0.0000</r>
       <r>   8.9308  0.0000</r>
       <r>   8.9317  0.0000</r>
       <r>   8.9365  0.0000</r>
       <r>   8.9397  0.0000</r>
      </set>
      <set comment="kpoint 3">
       <r>  -4.5818  1.0000</r>
       <r>  -3.2369  1.0000</r>
       <r>  -2.7245  1.0000</r>
       <r>  -2.7245  1.0000</r>
       <r>  -2.7245  1.0000</r>
       <r>  -2.7245  1.0000</r>
       <r>  -2.6210  1.0000</r>
       <r>  -2.6210  1.0000</r>
       <r>  -2.6210  1.0000</r>
       <r>  -2.6210  1.0000</r>
       <r>  -2.4272  1.0000</r>
       <r>  -2.3963  1.0000</r>
       <r>  -2.3779  1.0000</r>
       <r>  -2.3779  1.0000</r>
       <r>  -2.2322  1.0000</r>
       <r>  -2.2224  1.0000</r>
       <r>  -2.2224  1.0000</r>
       <r>  -1.9884  1.0000</r>
       <r>  -1.9884  1.0000</r>
       <r>  -1.9883  1.0000</r>
       <r>  -1.9883  1.0000</r>
       <r>  -1.9697  1.0000</r>
       <r>  -1.9697  1.0000</r>
       <r>  -1.9696  1.0000</r>
       <r>  -1.9696  1.0000</r>
       <r>  -1.8447  1.0000</r>
       <r>  -1.7808  1.0000</r>
       <r>  -1.7808  1.0000</r>
       <r>  -1.7326  1.0000</r>
       <r>  -1.7326  1.0000</r>
       <r>  -1.7326  1.0000</r>
       <r>  -1.7326  1.0000</r>
       <r>  -1.6912  1.0000</r>
       <r>  -1.6912  1.0000</r>
       <r>  -1.6912  1.0000</r>
       <r>  -1.6912  1.0000</r>
       <r>  -1.6795  1.0000</r>
       <r>  -1.6795  1.0000</r>
       <r>  -1.6795  1.0000</r>
       <r>  -1.6794  1.0000</r>
       <r>  -1.5625  1.0000</r>
       <r>  -1.5625  1.0000</r>
       <r>  -1.5416  1.0000</r>
       <r>  -1.3873  1.0000</r>
       <r>  -1.3873  1.0000</r>
       <r>  -1.3873  1.0000</r>
       <r>  -1.3872  1.0000</r>
       <r>  -1.2916  1.0000</r>
       <r>  -1.2916  1.0000</r>
       <r>  -1.2916  1.0000</r>
       <r>  -1.2916  1.0000</r>
       <r>  -1.2715  1.0000</r>
       <r>  -1.2712  1.0000</r>
       <r>  -1.2712  1.0000</r>
       <r>  -1.2711  1.0000</r>
       <r>  -1.2642  1.0000</r>
       <r>  -1.2642  1.0000</r>
       <r>  -1.2642  1.0000</r>
       <r>  -1.2639  1.0000</r>
       <r>  -1.2495  1.0000</r>
       <r>  -1.2494  1.0000</r>
       <r>  -1.2494  1.0000</r>
       <r>  -1.2493  1.0000</r>
       <r>  -1.1463  1.0000</r>
       <r>  -1.1463  1.0000</r>
       <r>  -1.1463  1.0000</r>
       <r>  -1.1463  1.0000</r>
       <r>  -1.0961  1.0000</r>
       <r>  -1.0915  1.0000</r>
       <r>  -1.0915  1.0000</r>
       <r>  -1.0915  1.0000</r>
       <r>  -1.0915  1.0000</r>
       <r>  -1.0713  1.0000</r>
       <r>  -1.0713  1.0000</r>
       <r>  -1.0713  1.0000</r>
       <r>  -1.0712  1.0000</r>
       <r>  -1.0604  1.0000</r>
       <r>  -1.0604  1.0000</r>
       <r>  -1.0604  1.0000</r>
       <r>  -1.0604  1.0000</r>
       <r>  -1.0517  1.0000</r>
       <r>  -1.0517  1.0000</r>
       <r>  -0.9441  1.0000</r>
       <r>  -0.9441  1.0000</r>
       <r>  -0.9441  1.0000</r>
       <r>  -0.9441  1.0000</r>
       <r>  -0.9264  1.0000</r>
       <r>  -0.9264  1.0000</r>
       <r>  -0.7118  1.0000</r>
       <r>  -0.7118  1.0000</r>
       <r>  -0.7118  1.0000</r>
       <r>  -0.7118  1.0000</r>
       <r>  -0.6106  1.0000</r>
       <r>  -0.6102  1.0000</r>
       <r>  -0.6102  1.0000</r>
       <r>  -0.6102  1.0000</r>
       <r>  -0.6102  1.0000</r>
       <r>  -0.5558  1.0000</r>
       <r>  -0.5558  1.0000</r>
       <r>  -0.4877  1.0000</r>
       <r>  -0.4876  1.0000</r>
       <r>  -0.4876  1.0000</r>
       <r>  -0.4876  1.0000</r>
       <r>  -0.4341  1.0000</r>
       <r>  -0.4341  1.0000</r>
       <r>  -0.4341  1.0000</r>
       <r>  -0.4341  1.0000</r>
       <r>  -0.3519  1.0000</r>
       <r>  -0.3519  1.0000</r>
       <r>  -0.3519  1.0000</r>
       <r>  -0.3519  1.0000</r>
       <r>  -0.3097  1.0000</r>
       <r>  -0.2930  1.0000</r>
       <r>  -0.2930  1.0000</r>
       <r>  -0.2929  1.0000</r>
       <r>  -0.2929  1.0000</r>
       <r>  -0.2493  1.0000</r>
       <r>  -0.2488  1.0000</r>
       <r>  -0.2487  1.0000</r>
       <r>  -0.2487  1.0000</r>
       <r>  -0.2486  1.0000</r>
       <r>  -0.2430  1.0000</r>
       <r>  -0.2429  1.0000</r>
       <r>  -0.2429  1.0000</r>
       <r>  -0.2429  1.0000</r>
       <r>  -0.2157  1.0000</r>
       <r>  -0.1849  1.0000</r>
       <r>  -0.1849  1.0000</r>
       <r>  -0.1289  1.0000</r>
       <r>  -0.1289  1.0000</r>
       <r>  -0.1112  1.0000</r>
       <r>  -0.1112  1.0000</r>
       <r>  -0.1112  1.0000</r>
       <r>  -0.1112  1.0000</r>
       <r>  -0.0693  1.0000</r>
       <r>  -0.0693  1.0000</r>
       <r>  -0.0693  1.0000</r>
       <r>  -0.0693  1.0000</r>
       <r>   0.0049  1.0000</r>
       <r>   0.1279  1.0000</r>
       <r>   0.1279  1.0000</r>
       <r>   0.1279  1.0000</r>
       <r>   0.1279  1.0000</r>
       <r>   0.1717  1.0000</r>
       <r>   0.3623  1.0000</r>
       <r>   0.3623  1.0000</r>
       <r>   0.3623  1.0000</r>
       <r>   0.3623  1.0000</r>
       <r>   0.3875  1.0000</r>
       <r>   0.3875  1.0000</r>
       <r>   0.4079  1.0000</r>
       <r>   0.4215  1.0000</r>
       <r>   0.4215  1.0000</r>
       <r>   0.4215  1.0000</r>
       <r>   0.4215  1.0000</r>
       <r>   0.5115  1.0000</r>
       <r>   0.5115  1.0000</r>
       <r>   0.5846  1.0000</r>
       <r>   0.5846  1.0000</r>
       <r>   0.5846  1.0000</r>
       <r>   0.5846  1.0000</r>
       <r>   0.5874  1.0000</r>
       <r>   0.5874  1.0000</r>
       <r>   0.6272  1.0000</r>
       <r>   0.6274  1.0000</r>
       <r>   0.6281  1.0000</r>
       <r>   0.6284  1.0000</r>
       <r>   1.3150  1.0000</r>
       <r>   1.3150  1.0000</r>
       <r>   1.3150  1.0000</r>
       <r>   1.3150  1.0000</r>
       <r>   1.7799  1.0000</r>
       <r>   1.7799  1.0000</r>
       <r>   1.7799  1.0000</r>
       <r>   1.7799  1.0000</r>
       <r>   2.3047  0.0254</r>
       <r>   2.3047  0.0252</r>
       <r>   2.3047  0.0252</r>
       <r>   2.3047  0.0251</r>
       <r>   2.4332  0.0000</r>
       <r>   2.4332  0.0000</r>
       <r>   2.4332  0.0000</r>
       <r>   2.4332  0.0000</r>
       <r>   3.3803  0.0000</r>
       <r>   4.2785  0.0000</r>
       <r>   4.2785  0.0000</r>
       <r>   4.3471  0.0000</r>
       <r>   4.3471  0.0000</r>
       <r>   4.3471  0.0000</r>
       <r>   4.3471  0.0000</r>
       <r>   5.2050  0.0000</r>
       <r>   5.2050  0.0000</r>
       <r>   5.2050  0.0000</r>
       <r>   5.2050  0.0000</r>
       <r>   5.5325  0.0000</r>
       <r>   5.5325  0.0000</r>
       <r>   5.8961  0.0000</r>
       <r>   5.8961  0.0000</r>
       <r>   6.7658  0.0000</r>
       <r>   6.8774  0.0000</r>
       <r>   6.8774  0.0000</r>
       <r>   7.7176  0.0000</r>
       <r>   7.7176  0.0000</r>
       <r>   7.7176  0.0000</r>
       <r>   7.7176  0.0000</r>
       <r>   7.8105  0.0000</r>
       <r>   7.8105  0.0000</r>
       <r>   7.8105  0.0000</r>
       <r>   7.8105  0.0000</r>
       <r>   8.4111  0.0000</r>
       <r>   8.4111  0.0000</r>
       <r>   8.4111  0.0000</r>
       <r>   8.4111  0.0000</r>
       <r>   8.5534  0.0000</r>
       <r>   8.5535  0.0000</r>
       <r>   8.6802  0.0000</r>
      </set>
      <set comment="kpoint 4">
       <r>  -4.5057  1.0000</r>
       <r>  -3.4771  1.0000</r>
       <r>  -2.6718  1.0000</r>
       <r>  -2.6717  1.0000</r>
       <r>  -2.6717  1.0000</r>
       <r>  -2.6717  1.0000</r>
       <r>  -2.5834  1.0000</r>
       <r>  -2.5833  1.0000</r>
       <r>  -2.5833  1.0000</r>
       <r>  -2.5833  1.0000</r>
       <r>  -2.3770  1.0000</r>
       <r>  -2.3379  1.0000</r>
       <r>  -2.3351  1.0000</r>
       <r>  -2.3350  1.0000</r>
       <r>  -2.2099  1.0000</r>
       <r>  -2.1877  1.0000</r>
       <r>  -2.1877  1.0000</r>
       <r>  -2.0845  1.0000</r>
       <r>  -2.0845  1.0000</r>
       <r>  -2.0844  1.0000</r>
       <r>  -2.0844  1.0000</r>
       <r>  -2.0791  1.0000</r>
       <r>  -2.0791  1.0000</r>
       <r>  -2.0790  1.0000</r>
       <r>  -2.0790  1.0000</r>
       <r>  -1.9147  1.0000</r>
       <r>  -1.8544  1.0000</r>
       <r>  -1.8544  1.0000</r>
       <r>  -1.6918  1.0000</r>
       <r>  -1.6918  1.0000</r>
       <r>  -1.6882  1.0000</r>
       <r>  -1.6882  1.0000</r>
       <r>  -1.6881  1.0000</r>
       <r>  -1.6881  1.0000</r>
       <r>  -1.6665  1.0000</r>
       <r>  -1.6665  1.0000</r>
       <r>  -1.6665  1.0000</r>
       <r>  -1.6664  1.0000</r>
       <r>  -1.6599  1.0000</r>
       <r>  -1.6599  1.0000</r>
       <r>  -1.6599  1.0000</r>
       <r>  -1.6599  1.0000</r>
       <r>  -1.4664  1.0000</r>
       <r>  -1.4301  1.0000</r>
       <r>  -1.4301  1.0000</r>
       <r>  -1.4301  1.0000</r>
       <r>  -1.4301  1.0000</r>
       <r>  -1.3180  1.0000</r>
       <r>  -1.3180  1.0000</r>
       <r>  -1.3180  1.0000</r>
       <r>  -1.3180  1.0000</r>
       <r>  -1.2620  1.0000</r>
       <r>  -1.2613  1.0000</r>
       <r>  -1.2613  1.0000</r>
       <r>  -1.2613  1.0000</r>
       <r>  -1.2591  1.0000</r>
       <r>  -1.2590  1.0000</r>
       <r>  -1.2590  1.0000</r>
       <r>  -1.2583  1.0000</r>
       <r>  -1.2178  1.0000</r>
       <r>  -1.2177  1.0000</r>
       <r>  -1.2177  1.0000</r>
       <r>  -1.2176  1.0000</r>
       <r>  -1.2096  1.0000</r>
       <r>  -1.2096  1.0000</r>
       <r>  -1.2096  1.0000</r>
       <r>  -1.2094  1.0000</r>
       <r>  -1.1237  1.0000</r>
       <r>  -1.1023  1.0000</r>
       <r>  -1.1023  1.0000</r>
       <r>  -1.1023  1.0000</r>
       <r>  -1.1023  1.0000</r>
       <r>  -1.0807  1.0000</r>
       <r>  -1.0806  1.0000</r>
       <r>  -1.0806  1.0000</r>
       <r>  -1.0806  1.0000</r>
       <r>  -1.0331  1.0000</r>
       <r>  -1.0331  1.0000</r>
       <r>  -1.0331  1.0000</r>
       <r>  -1.0331  1.0000</r>
       <r>  -1.0245  1.0000</r>
       <r>  -1.0245  1.0000</r>
       <r>  -0.8009  1.0000</r>
       <r>  -0.8008  1.0000</r>
       <r>  -0.8008  1.0000</r>
       <r>  -0.8006  1.0000</r>
       <r>  -0.7996  1.0000</r>
       <r>  -0.7995  1.0000</r>
       <r>  -0.7995  1.0000</r>
       <r>  -0.7993  1.0000</r>
       <r>  -0.7420  1.0000</r>
       <r>  -0.7420  1.0000</r>
       <r>  -0.6832  1.0000</r>
       <r>  -0.6832  1.0000</r>
       <r>  -0.6832  1.0000</r>
       <r>  -0.6832  1.0000</r>
       <r>  -0.6490  1.0000</r>
       <r>  -0.6490  1.0000</r>
       <r>  -0.5759  1.0000</r>
       <r>  -0.4361  1.0000</r>
       <r>  -0.4361  1.0000</r>
       <r>  -0.4361  1.0000</r>
       <r>  -0.4361  1.0000</r>
       <r>  -0.3730  1.0000</r>
       <r>  -0.3730  1.0000</r>
       <r>  -0.3730  1.0000</r>
       <r>  -0.3730  1.0000</r>
       <r>  -0.3534  1.0000</r>
       <r>  -0.3534  1.0000</r>
       <r>  -0.3534  1.0000</r>
       <r>  -0.3534  1.0000</r>
       <r>  -0.3197  1.0000</r>
       <r>  -0.3197  1.0000</r>
       <r>  -0.3197  1.0000</r>
       <r>  -0.3196  1.0000</r>
       <r>  -0.2776  1.0000</r>
       <r>  -0.2354  1.0000</r>
       <r>  -0.2353  1.0000</r>
       <r>  -0.2353  1.0000</r>
       <r>  -0.2353  1.0000</r>
       <r>  -0.2091  1.0000</r>
       <r>  -0.2091  1.0000</r>
       <r>  -0.2091  1.0000</r>
       <r>  -0.2091  1.0000</r>
       <r>  -0.2027  1.0000</r>
       <r>  -0.1125  1.0000</r>
       <r>  -0.1124  1.0000</r>
       <r>  -0.0428  1.0000</r>
       <r>  -0.0346  1.0000</r>
       <r>  -0.0307  1.0000</r>
       <r>  -0.0307  1.0000</r>
       <r>  -0.0307  1.0000</r>
       <r>  -0.0304  1.0000</r>
       <r>  -0.0164  1.0000</r>
       <r>  -0.0164  1.0000</r>
       <r>   0.0144  1.0000</r>
       <r>   0.0144  1.0000</r>
       <r>   0.0144  1.0000</r>
       <r>   0.0144  1.0000</r>
       <r>   0.1969  1.0000</r>
       <r>   0.1969  1.0000</r>
       <r>   0.1969  1.0000</r>
       <r>   0.1969  1.0000</r>
       <r>   0.2124  1.0000</r>
       <r>   0.2557  1.0000</r>
       <r>   0.2557  1.0000</r>
       <r>   0.2557  1.0000</r>
       <r>   0.2557  1.0000</r>
       <r>   0.3480  1.0000</r>
       <r>   0.3480  1.0000</r>
       <r>   0.3808  1.0000</r>
       <r>   0.3808  1.0000</r>
       <r>   0.3865  1.0000</r>
       <r>   0.3865  1.0000</r>
       <r>   0.3865  1.0000</r>
       <r>   0.3865  1.0000</r>
       <r>   0.3935  1.0000</r>
       <r>   0.5327  1.0000</r>
       <r>   0.5327  1.0000</r>
       <r>   0.5327  1.0000</r>
       <r>   0.5327  1.0000</r>
       <r>   0.5390  1.0000</r>
       <r>   0.5390  1.0000</r>
       <r>   0.6272  1.0000</r>
       <r>   0.6275  1.0000</r>
       <r>   0.6281  1.0000</r>
       <r>   0.6284  1.0000</r>
       <r>   1.1164  1.0000</r>
       <r>   1.1164  1.0000</r>
       <r>   1.1164  1.0000</r>
       <r>   1.1164  1.0000</r>
       <r>   1.8017  1.0000</r>
       <r>   1.8017  1.0000</r>
       <r>   1.8017  1.0000</r>
       <r>   1.8017  1.0000</r>
       <r>   2.2777  0.9682</r>
       <r>   2.2777  0.9681</r>
       <r>   2.2777  0.9681</r>
       <r>   2.2777  0.9680</r>
       <r>   2.6175  0.0000</r>
       <r>   2.6175  0.0000</r>
       <r>   2.6175  0.0000</r>
       <r>   2.6175  0.0000</r>
       <r>   2.8174  0.0000</r>
       <r>   4.4723  0.0000</r>
       <r>   4.4723  0.0000</r>
       <r>   4.7204  0.0000</r>
       <r>   4.7204  0.0000</r>
       <r>   4.7204  0.0000</r>
       <r>   4.7204  0.0000</r>
       <r>   4.8867  0.0000</r>
       <r>   4.8867  0.0000</r>
       <r>   4.8867  0.0000</r>
       <r>   4.8867  0.0000</r>
       <r>   5.5657  0.0000</r>
       <r>   5.5657  0.0000</r>
       <r>   5.8629  0.0000</r>
       <r>   5.8629  0.0000</r>
       <r>   6.4722  0.0000</r>
       <r>   6.4722  0.0000</r>
       <r>   7.4671  0.0000</r>
       <r>   7.7439  0.0000</r>
       <r>   7.7439  0.0000</r>
       <r>   7.7440  0.0000</r>
       <r>   7.7440  0.0000</r>
       <r>   7.8329  0.0000</r>
       <r>   7.8329  0.0000</r>
       <r>   7.8329  0.0000</r>
       <r>   7.8329  0.0000</r>
       <r>   7.9324  0.0000</r>
       <r>   7.9324  0.0000</r>
       <r>   7.9324  0.0000</r>
       <r>   7.9324  0.0000</r>
       <r>   8.4611  0.0000</r>
       <r>   8.4611  0.0000</r>
       <r>   8.4611  0.0000</r>
      </set>
      <set comment="kpoint 5">
       <r>  -4.3999  1.0000</r>
       <r>  -3.7056  1.0000</r>
       <r>  -2.6002  1.0000</r>
       <r>  -2.6002  1.0000</r>
       <r>  -2.6001  1.0000</r>
       <r>  -2.6001  1.0000</r>
       <r>  -2.5310  1.0000</r>
       <r>  -2.5310  1.0000</r>
       <r>  -2.5310  1.0000</r>
       <r>  -2.5310  1.0000</r>
       <r>  -2.3526  1.0000</r>
       <r>  -2.2967  1.0000</r>
       <r>  -2.2770  1.0000</r>
       <r>  -2.2770  1.0000</r>
       <r>  -2.1914  1.0000</r>
       <r>  -2.1914  1.0000</r>
       <r>  -2.1912  1.0000</r>
       <r>  -2.1911  1.0000</r>
       <r>  -2.1891  1.0000</r>
       <r>  -2.1890  1.0000</r>
       <r>  -2.1888  1.0000</r>
       <r>  -2.1888  1.0000</r>
       <r>  -2.1791  1.0000</r>
       <r>  -2.1391  1.0000</r>
       <r>  -2.1391  1.0000</r>
       <r>  -1.9801  1.0000</r>
       <r>  -1.9415  1.0000</r>
       <r>  -1.9415  1.0000</r>
       <r>  -1.8080  1.0000</r>
       <r>  -1.8080  1.0000</r>
       <r>  -1.6484  1.0000</r>
       <r>  -1.6483  1.0000</r>
       <r>  -1.6483  1.0000</r>
       <r>  -1.6483  1.0000</r>
       <r>  -1.6369  1.0000</r>
       <r>  -1.6369  1.0000</r>
       <r>  -1.6369  1.0000</r>
       <r>  -1.6368  1.0000</r>
       <r>  -1.6332  1.0000</r>
       <r>  -1.6332  1.0000</r>
       <r>  -1.6332  1.0000</r>
       <r>  -1.6332  1.0000</r>
       <r>  -1.4749  1.0000</r>
       <r>  -1.4749  1.0000</r>
       <r>  -1.4749  1.0000</r>
       <r>  -1.4749  1.0000</r>
       <r>  -1.3941  1.0000</r>
       <r>  -1.3462  1.0000</r>
       <r>  -1.3462  1.0000</r>
       <r>  -1.3462  1.0000</r>
       <r>  -1.3462  1.0000</r>
       <r>  -1.2738  1.0000</r>
       <r>  -1.2738  1.0000</r>
       <r>  -1.2738  1.0000</r>
       <r>  -1.2738  1.0000</r>
       <r>  -1.2581  1.0000</r>
       <r>  -1.2577  1.0000</r>
       <r>  -1.2577  1.0000</r>
       <r>  -1.2577  1.0000</r>
       <r>  -1.2527  1.0000</r>
       <r>  -1.2526  1.0000</r>
       <r>  -1.2526  1.0000</r>
       <r>  -1.2522  1.0000</r>
       <r>  -1.1935  1.0000</r>
       <r>  -1.1935  1.0000</r>
       <r>  -1.1935  1.0000</r>
       <r>  -1.1935  1.0000</r>
       <r>  -1.1615  1.0000</r>
       <r>  -1.1165  1.0000</r>
       <r>  -1.1165  1.0000</r>
       <r>  -1.1165  1.0000</r>
       <r>  -1.1165  1.0000</r>
       <r>  -1.0761  1.0000</r>
       <r>  -1.0761  1.0000</r>
       <r>  -1.0761  1.0000</r>
       <r>  -1.0761  1.0000</r>
       <r>  -0.9955  1.0000</r>
       <r>  -0.9955  1.0000</r>
       <r>  -0.9955  1.0000</r>
       <r>  -0.9955  1.0000</r>
       <r>  -0.9866  1.0000</r>
       <r>  -0.9866  1.0000</r>
       <r>  -0.8831  1.0000</r>
       <r>  -0.8831  1.0000</r>
       <r>  -0.8831  1.0000</r>
       <r>  -0.8831  1.0000</r>
       <r>  -0.7572  1.0000</r>
       <r>  -0.7572  1.0000</r>
       <r>  -0.7572  1.0000</r>
       <r>  -0.7572  1.0000</r>
       <r>  -0.7347  1.0000</r>
       <r>  -0.7347  1.0000</r>
       <r>  -0.6243  1.0000</r>
       <r>  -0.6243  1.0000</r>
       <r>  -0.6243  1.0000</r>
       <r>  -0.6243  1.0000</r>
       <r>  -0.5506  1.0000</r>
       <r>  -0.5506  1.0000</r>
       <r>  -0.5268  1.0000</r>
       <r>  -0.3777  1.0000</r>
       <r>  -0.3777  1.0000</r>
       <r>  -0.3777  1.0000</r>
       <r>  -0.3777  1.0000</r>
       <r>  -0.3547  1.0000</r>
       <r>  -0.3547  1.0000</r>
       <r>  -0.3547  1.0000</r>
       <r>  -0.3546  1.0000</r>
       <r>  -0.3373  1.0000</r>
       <r>  -0.3372  1.0000</r>
       <r>  -0.3372  1.0000</r>
       <r>  -0.3372  1.0000</r>
       <r>  -0.3180  1.0000</r>
       <r>  -0.3180  1.0000</r>
       <r>  -0.3180  1.0000</r>
       <r>  -0.3180  1.0000</r>
       <r>  -0.3158  1.0000</r>
       <r>  -0.2308  1.0000</r>
       <r>  -0.2307  1.0000</r>
       <r>  -0.2307  1.0000</r>
       <r>  -0.2307  1.0000</r>
       <r>  -0.2052  1.0000</r>
       <r>  -0.2052  1.0000</r>
       <r>  -0.2052  1.0000</r>
       <r>  -0.2052  1.0000</r>
       <r>  -0.1850  1.0000</r>
       <r>  -0.0713  1.0000</r>
       <r>  -0.0273  1.0000</r>
       <r>  -0.0273  1.0000</r>
       <r>   0.0531  1.0000</r>
       <r>   0.0531  1.0000</r>
       <r>   0.0531  1.0000</r>
       <r>   0.0531  1.0000</r>
       <r>   0.0946  1.0000</r>
       <r>   0.0946  1.0000</r>
       <r>   0.1052  1.0000</r>
       <r>   0.1052  1.0000</r>
       <r>   0.1052  1.0000</r>
       <r>   0.1052  1.0000</r>
       <r>   0.1136  1.0000</r>
       <r>   0.1136  1.0000</r>
       <r>   0.1136  1.0000</r>
       <r>   0.1136  1.0000</r>
       <r>   0.2184  1.0000</r>
       <r>   0.2184  1.0000</r>
       <r>   0.2512  1.0000</r>
       <r>   0.2937  1.0000</r>
       <r>   0.2938  1.0000</r>
       <r>   0.3046  1.0000</r>
       <r>   0.3046  1.0000</r>
       <r>   0.3046  1.0000</r>
       <r>   0.3047  1.0000</r>
       <r>   0.3059  1.0000</r>
       <r>   0.3389  1.0000</r>
       <r>   0.3389  1.0000</r>
       <r>   0.3389  1.0000</r>
       <r>   0.3389  1.0000</r>
       <r>   0.3739  1.0000</r>
       <r>   0.4643  1.0000</r>
       <r>   0.4643  1.0000</r>
       <r>   0.4643  1.0000</r>
       <r>   0.4643  1.0000</r>
       <r>   0.4738  1.0000</r>
       <r>   0.4738  1.0000</r>
       <r>   0.6273  1.0000</r>
       <r>   0.6276  1.0000</r>
       <r>   0.6280  1.0000</r>
       <r>   0.6283  1.0000</r>
       <r>   0.9306  1.0000</r>
       <r>   0.9306  1.0000</r>
       <r>   0.9306  1.0000</r>
       <r>   0.9306  1.0000</r>
       <r>   1.8344  1.0000</r>
       <r>   1.8345  1.0000</r>
       <r>   1.8345  1.0000</r>
       <r>   1.8345  1.0000</r>
       <r>   2.1401  1.0000</r>
       <r>   2.1402  1.0000</r>
       <r>   2.1402  1.0000</r>
       <r>   2.1402  1.0000</r>
       <r>   2.2518  1.0000</r>
       <r>   2.9589  0.0000</r>
       <r>   2.9589  0.0000</r>
       <r>   2.9589  0.0000</r>
       <r>   2.9589  0.0000</r>
       <r>   4.5126  0.0000</r>
       <r>   4.5126  0.0000</r>
       <r>   4.5126  0.0000</r>
       <r>   4.5126  0.0000</r>
       <r>   4.7227  0.0000</r>
       <r>   4.7227  0.0000</r>
       <r>   5.1554  0.0000</r>
       <r>   5.1554  0.0000</r>
       <r>   5.1554  0.0000</r>
       <r>   5.1554  0.0000</r>
       <r>   5.6090  0.0000</r>
       <r>   5.6090  0.0000</r>
       <r>   5.8194  0.0000</r>
       <r>   5.8194  0.0000</r>
       <r>   6.0792  0.0000</r>
       <r>   6.0792  0.0000</r>
       <r>   7.2540  0.0000</r>
       <r>   7.2540  0.0000</r>
       <r>   7.2540  0.0000</r>
       <r>   7.2540  0.0000</r>
       <r>   7.7956  0.0000</r>
       <r>   7.7956  0.0000</r>
       <r>   7.7956  0.0000</r>
       <r>   7.7956  0.0000</r>
       <r>   8.0986  0.0000</r>
       <r>   8.0986  0.0000</r>
       <r>   8.0986  0.0000</r>
       <r>   8.0986  0.0000</r>
       <r>   8.2289  0.0000</r>
       <r>   8.2718  0.0000</r>
       <r>   8.2718  0.0000</r>
       <r>   8.2718  0.0000</r>
      </set>
      <set comment="kpoint 6">
       <r>  -4.2654  1.0000</r>
       <r>  -3.9158  1.0000</r>
       <r>  -2.5122  1.0000</r>
       <r>  -2.5122  1.0000</r>
       <r>  -2.5122  1.0000</r>
       <r>  -2.5122  1.0000</r>
       <r>  -2.4645  1.0000</r>
       <r>  -2.4645  1.0000</r>
       <r>  -2.4645  1.0000</r>
       <r>  -2.4645  1.0000</r>
       <r>  -2.3264  1.0000</r>
       <r>  -2.3024  1.0000</r>
       <r>  -2.3024  1.0000</r>
       <r>  -2.3024  1.0000</r>
       <r>  -2.3024  1.0000</r>
       <r>  -2.2922  1.0000</r>
       <r>  -2.2920  1.0000</r>
       <r>  -2.2920  1.0000</r>
       <r>  -2.2920  1.0000</r>
       <r>  -2.2894  1.0000</r>
       <r>  -2.2053  1.0000</r>
       <r>  -2.2053  1.0000</r>
       <r>  -2.1402  1.0000</r>
       <r>  -2.0768  1.0000</r>
       <r>  -2.0768  1.0000</r>
       <r>  -2.0400  1.0000</r>
       <r>  -2.0332  1.0000</r>
       <r>  -2.0332  1.0000</r>
       <r>  -1.9111  1.0000</r>
       <r>  -1.9111  1.0000</r>
       <r>  -1.6168  1.0000</r>
       <r>  -1.6166  1.0000</r>
       <r>  -1.6166  1.0000</r>
       <r>  -1.6166  1.0000</r>
       <r>  -1.6107  1.0000</r>
       <r>  -1.6107  1.0000</r>
       <r>  -1.6107  1.0000</r>
       <r>  -1.6106  1.0000</r>
       <r>  -1.6002  1.0000</r>
       <r>  -1.6002  1.0000</r>
       <r>  -1.6002  1.0000</r>
       <r>  -1.6002  1.0000</r>
       <r>  -1.5195  1.0000</r>
       <r>  -1.5195  1.0000</r>
       <r>  -1.5195  1.0000</r>
       <r>  -1.5195  1.0000</r>
       <r>  -1.3660  1.0000</r>
       <r>  -1.3660  1.0000</r>
       <r>  -1.3660  1.0000</r>
       <r>  -1.3660  1.0000</r>
       <r>  -1.3289  1.0000</r>
       <r>  -1.3289  1.0000</r>
       <r>  -1.3289  1.0000</r>
       <r>  -1.3289  1.0000</r>
       <r>  -1.3261  1.0000</r>
       <r>  -1.2547  1.0000</r>
       <r>  -1.2542  1.0000</r>
       <r>  -1.2542  1.0000</r>
       <r>  -1.2542  1.0000</r>
       <r>  -1.2505  1.0000</r>
       <r>  -1.2505  1.0000</r>
       <r>  -1.2505  1.0000</r>
       <r>  -1.2500  1.0000</r>
       <r>  -1.2085  1.0000</r>
       <r>  -1.1722  1.0000</r>
       <r>  -1.1722  1.0000</r>
       <r>  -1.1722  1.0000</r>
       <r>  -1.1722  1.0000</r>
       <r>  -1.1334  1.0000</r>
       <r>  -1.1334  1.0000</r>
       <r>  -1.1334  1.0000</r>
       <r>  -1.1334  1.0000</r>
       <r>  -1.0533  1.0000</r>
       <r>  -1.0533  1.0000</r>
       <r>  -1.0533  1.0000</r>
       <r>  -1.0533  1.0000</r>
       <r>  -0.9549  1.0000</r>
       <r>  -0.9548  1.0000</r>
       <r>  -0.9548  1.0000</r>
       <r>  -0.9547  1.0000</r>
       <r>  -0.9481  1.0000</r>
       <r>  -0.9480  1.0000</r>
       <r>  -0.9480  1.0000</r>
       <r>  -0.9479  1.0000</r>
       <r>  -0.9383  1.0000</r>
       <r>  -0.9383  1.0000</r>
       <r>  -0.8276  1.0000</r>
       <r>  -0.8276  1.0000</r>
       <r>  -0.8276  1.0000</r>
       <r>  -0.8276  1.0000</r>
       <r>  -0.8118  1.0000</r>
       <r>  -0.8118  1.0000</r>
       <r>  -0.4714  1.0000</r>
       <r>  -0.4346  1.0000</r>
       <r>  -0.4346  1.0000</r>
       <r>  -0.4346  1.0000</r>
       <r>  -0.4346  1.0000</r>
       <r>  -0.3624  1.0000</r>
       <r>  -0.3552  1.0000</r>
       <r>  -0.3552  1.0000</r>
       <r>  -0.3549  1.0000</r>
       <r>  -0.3549  1.0000</r>
       <r>  -0.3543  1.0000</r>
       <r>  -0.3543  1.0000</r>
       <r>  -0.3478  1.0000</r>
       <r>  -0.3477  1.0000</r>
       <r>  -0.3477  1.0000</r>
       <r>  -0.3477  1.0000</r>
       <r>  -0.3200  1.0000</r>
       <r>  -0.3200  1.0000</r>
       <r>  -0.3200  1.0000</r>
       <r>  -0.3200  1.0000</r>
       <r>  -0.2755  1.0000</r>
       <r>  -0.2755  1.0000</r>
       <r>  -0.2755  1.0000</r>
       <r>  -0.2755  1.0000</r>
       <r>  -0.2337  1.0000</r>
       <r>  -0.2336  1.0000</r>
       <r>  -0.2336  1.0000</r>
       <r>  -0.2336  1.0000</r>
       <r>  -0.2283  1.0000</r>
       <r>  -0.2283  1.0000</r>
       <r>  -0.2282  1.0000</r>
       <r>  -0.2282  1.0000</r>
       <r>  -0.1626  1.0000</r>
       <r>  -0.1053  1.0000</r>
       <r>  -0.0555  1.0000</r>
       <r>  -0.0555  1.0000</r>
       <r>  -0.0555  1.0000</r>
       <r>  -0.0555  1.0000</r>
       <r>   0.0358  1.0000</r>
       <r>   0.0358  1.0000</r>
       <r>   0.0617  1.0000</r>
       <r>   0.0617  1.0000</r>
       <r>   0.1349  1.0000</r>
       <r>   0.1349  1.0000</r>
       <r>   0.1349  1.0000</r>
       <r>   0.1349  1.0000</r>
       <r>   0.1995  1.0000</r>
       <r>   0.1995  1.0000</r>
       <r>   0.1995  1.0000</r>
       <r>   0.1995  1.0000</r>
       <r>   0.2018  1.0000</r>
       <r>   0.2018  1.0000</r>
       <r>   0.2264  1.0000</r>
       <r>   0.2264  1.0000</r>
       <r>   0.2800  1.0000</r>
       <r>   0.2800  1.0000</r>
       <r>   0.2800  1.0000</r>
       <r>   0.2800  1.0000</r>
       <r>   0.2874  1.0000</r>
       <r>   0.3493  1.0000</r>
       <r>   0.3832  1.0000</r>
       <r>   0.3832  1.0000</r>
       <r>   0.3832  1.0000</r>
       <r>   0.3832  1.0000</r>
       <r>   0.3941  1.0000</r>
       <r>   0.3941  1.0000</r>
       <r>   0.4395  1.0000</r>
       <r>   0.4395  1.0000</r>
       <r>   0.4395  1.0000</r>
       <r>   0.4395  1.0000</r>
       <r>   0.6273  1.0000</r>
       <r>   0.6277  1.0000</r>
       <r>   0.6279  1.0000</r>
       <r>   0.6283  1.0000</r>
       <r>   0.7223  1.0000</r>
       <r>   0.7557  1.0000</r>
       <r>   0.7557  1.0000</r>
       <r>   0.7557  1.0000</r>
       <r>   0.7557  1.0000</r>
[...]
       <r>  -0.4665  1.0000</r>
       <r>  -0.4665  1.0000</r>
       <r>  -0.4663  1.0000</r>
       <r>  -0.4663  1.0000</r>
       <r>  -0.4663  1.0000</r>
       <r>  -0.4663  1.0000</r>
       <r>  -0.4660  1.0000</r>
       <r>  -0.4660  1.0000</r>
       <r>  -0.2617  1.0000</r>
       <r>  -0.2616  1.0000</r>
       <r>  -0.2616  1.0000</r>
       <r>  -0.2615  1.0000</r>
       <r>  -0.2200  1.0000</r>
       <r>  -0.2200  1.0000</r>
       <r>  -0.2200  1.0000</r>
       <r>  -0.2200  1.0000</r>
       <r>  -0.2143  1.0000</r>
       <r>  -0.2143  1.0000</r>
       <r>  -0.2139  1.0000</r>
       <r>  -0.2139  1.0000</r>
       <r>  -0.2139  1.0000</r>
       <r>  -0.2137  1.0000</r>
       <r>  -0.2135  1.0000</r>
       <r>  -0.2135  1.0000</r>
       <r>  -0.0765  1.0000</r>
       <r>  -0.0764  1.0000</r>
       <r>  -0.0764  1.0000</r>
       <r>  -0.0764  1.0000</r>
       <r>  -0.0696  1.0000</r>
       <r>  -0.0696  1.0000</r>
       <r>  -0.0696  1.0000</r>
       <r>  -0.0695  1.0000</r>
       <r>   0.0439  1.0000</r>
       <r>   0.0439  1.0000</r>
       <r>   0.0439  1.0000</r>
       <r>   0.0439  1.0000</r>
       <r>   0.4605  1.0000</r>
       <r>   0.4605  1.0000</r>
       <r>   0.4606  1.0000</r>
       <r>   0.4606  1.0000</r>
       <r>   0.4607  1.0000</r>
       <r>   0.4607  1.0000</r>
       <r>   0.4608  1.0000</r>
       <r>   0.4608  1.0000</r>
       <r>   0.4717  1.0000</r>
       <r>   0.4717  1.0000</r>
       <r>   0.4717  1.0000</r>
       <r>   0.4717  1.0000</r>
       <r>   0.4829  1.0000</r>
       <r>   0.4829  1.0000</r>
       <r>   0.4829  1.0000</r>
       <r>   0.4830  1.0000</r>
       <r>   0.4865  1.0000</r>
       <r>   0.4865  1.0000</r>
       <r>   0.4867  1.0000</r>
       <r>   0.4867  1.0000</r>
       <r>   0.4867  1.0000</r>
       <r>   0.4867  1.0000</r>
       <r>   0.4868  1.0000</r>
       <r>   0.4868  1.0000</r>
       <r>   2.0573  1.0000</r>
       <r>   2.0573  1.0000</r>
       <r>   2.0573  1.0000</r>
       <r>   2.0573  1.0000</r>
       <r>   2.6095  0.0000</r>
       <r>   2.6095  0.0000</r>
       <r>   2.6096  0.0000</r>
       <r>   2.6096  0.0000</r>
       <r>   2.6096  0.0000</r>
       <r>   2.6096  0.0000</r>
       <r>   2.6097  0.0000</r>
       <r>   2.6097  0.0000</r>
       <r>   3.3751  0.0000</r>
       <r>   3.3751  0.0000</r>
       <r>   3.3751  0.0000</r>
       <r>   3.3752  0.0000</r>
       <r>   3.3752  0.0000</r>
       <r>   3.3752  0.0000</r>
       <r>   3.3752  0.0000</r>
       <r>   3.3752  0.0000</r>
       <r>   3.9087  0.0000</r>
       <r>   3.9087  0.0000</r>
       <r>   3.9087  0.0000</r>
       <r>   3.9087  0.0000</r>
       <r>   5.9498  0.0000</r>
       <r>   5.9498  0.0000</r>
       <r>   5.9505  0.0000</r>
       <r>   5.9505  0.0000</r>
       <r>   5.9505  0.0000</r>
       <r>   5.9505  0.0000</r>
       <r>   5.9511  0.0000</r>
       <r>   5.9511  0.0000</r>
       <r>   6.3850  0.0000</r>
       <r>   6.3850  0.0000</r>
       <r>   6.3850  0.0000</r>
       <r>   6.3850  0.0000</r>
       <r>   7.3342  0.0000</r>
       <r>   7.3342  0.0000</r>
       <r>   7.3342  0.0000</r>
       <r>   7.3342  0.0000</r>
       <r>   7.6822  0.0000</r>
       <r>   7.6822  0.0000</r>
       <r>   7.6826  0.0000</r>
       <r>   7.6826  0.0000</r>
       <r>   7.6826  0.0000</r>
       <r>   7.6826  0.0000</r>
       <r>   7.6830  0.0000</r>
       <r>   7.6830  0.0000</r>
      </set>
      <set comment="kpoint 195">
       <r>  -3.3603  1.0000</r>
       <r>  -3.3602  1.0000</r>
       <r>  -3.3602  1.0000</r>
       <r>  -3.3602  1.0000</r>
       <r>  -3.1407  1.0000</r>
       <r>  -3.1407  1.0000</r>
       <r>  -3.1407  1.0000</r>
       <r>  -3.1407  1.0000</r>
       <r>  -2.0935  1.0000</r>
       <r>  -2.0935  1.0000</r>
       <r>  -2.0935  1.0000</r>
       <r>  -2.0935  1.0000</r>
       <r>  -2.0708  1.0000</r>
       <r>  -2.0708  1.0000</r>
       <r>  -2.0706  1.0000</r>
       <r>  -2.0706  1.0000</r>
       <r>  -2.0705  1.0000</r>
       <r>  -2.0705  1.0000</r>
       <r>  -2.0703  1.0000</r>
       <r>  -2.0703  1.0000</r>
       <r>  -2.0571  1.0000</r>
       <r>  -2.0570  1.0000</r>
       <r>  -2.0570  1.0000</r>
       <r>  -2.0565  1.0000</r>
       <r>  -2.0564  1.0000</r>
       <r>  -2.0564  1.0000</r>
       <r>  -2.0561  1.0000</r>
       <r>  -2.0561  1.0000</r>
       <r>  -2.0543  1.0000</r>
       <r>  -2.0542  1.0000</r>
       <r>  -2.0542  1.0000</r>
       <r>  -2.0538  1.0000</r>
       <r>  -1.5503  1.0000</r>
       <r>  -1.5503  1.0000</r>
       <r>  -1.5500  1.0000</r>
       <r>  -1.5499  1.0000</r>
       <r>  -1.5499  1.0000</r>
       <r>  -1.5499  1.0000</r>
       <r>  -1.5496  1.0000</r>
       <r>  -1.5496  1.0000</r>
       <r>  -1.5257  1.0000</r>
       <r>  -1.5256  1.0000</r>
       <r>  -1.5256  1.0000</r>
       <r>  -1.5256  1.0000</r>
       <r>  -1.4090  1.0000</r>
       <r>  -1.4089  1.0000</r>
       <r>  -1.4089  1.0000</r>
       <r>  -1.4088  1.0000</r>
       <r>  -1.4079  1.0000</r>
       <r>  -1.4079  1.0000</r>
       <r>  -1.4076  1.0000</r>
       <r>  -1.4076  1.0000</r>
       <r>  -1.4076  1.0000</r>
       <r>  -1.4075  1.0000</r>
       <r>  -1.4073  1.0000</r>
       <r>  -1.4073  1.0000</r>
       <r>  -1.1123  1.0000</r>
       <r>  -1.1122  1.0000</r>
       <r>  -1.1122  1.0000</r>
       <r>  -1.1122  1.0000</r>
       <r>  -1.0073  1.0000</r>
       <r>  -1.0073  1.0000</r>
       <r>  -1.0073  1.0000</r>
       <r>  -1.0073  1.0000</r>
       <r>  -0.9068  1.0000</r>
       <r>  -0.9068  1.0000</r>
       <r>  -0.9067  1.0000</r>
       <r>  -0.9066  1.0000</r>
       <r>  -0.9059  1.0000</r>
       <r>  -0.9059  1.0000</r>
       <r>  -0.9058  1.0000</r>
       <r>  -0.9058  1.0000</r>
       <r>  -0.8968  1.0000</r>
       <r>  -0.8968  1.0000</r>
       <r>  -0.8966  1.0000</r>
       <r>  -0.8966  1.0000</r>
       <r>  -0.8952  1.0000</r>
       <r>  -0.8951  1.0000</r>
       <r>  -0.8951  1.0000</r>
       <r>  -0.8951  1.0000</r>
       <r>  -0.8323  1.0000</r>
       <r>  -0.8323  1.0000</r>
       <r>  -0.8323  1.0000</r>
       <r>  -0.8322  1.0000</r>
       <r>  -0.7908  1.0000</r>
       <r>  -0.7908  1.0000</r>
       <r>  -0.7897  1.0000</r>
       <r>  -0.7897  1.0000</r>
       <r>  -0.7897  1.0000</r>
       <r>  -0.7897  1.0000</r>
       <r>  -0.7886  1.0000</r>
       <r>  -0.7886  1.0000</r>
       <r>  -0.7305  1.0000</r>
       <r>  -0.7305  1.0000</r>
       <r>  -0.7296  1.0000</r>
       <r>  -0.7296  1.0000</r>
       <r>  -0.7296  1.0000</r>
       <r>  -0.7296  1.0000</r>
       <r>  -0.7287  1.0000</r>
       <r>  -0.7287  1.0000</r>
       <r>  -0.6868  1.0000</r>
       <r>  -0.6867  1.0000</r>
       <r>  -0.6867  1.0000</r>
       <r>  -0.6867  1.0000</r>
       <r>  -0.4554  1.0000</r>
       <r>  -0.4554  1.0000</r>
       <r>  -0.4554  1.0000</r>
       <r>  -0.4554  1.0000</r>
       <r>  -0.4290  1.0000</r>
       <r>  -0.4290  1.0000</r>
       <r>  -0.4287  1.0000</r>
       <r>  -0.4286  1.0000</r>
       <r>  -0.4286  1.0000</r>
       <r>  -0.4286  1.0000</r>
       <r>  -0.4283  1.0000</r>
       <r>  -0.4283  1.0000</r>
       <r>  -0.3056  1.0000</r>
       <r>  -0.3056  1.0000</r>
       <r>  -0.3052  1.0000</r>
       <r>  -0.3052  1.0000</r>
       <r>  -0.3052  1.0000</r>
       <r>  -0.3052  1.0000</r>
       <r>  -0.3048  1.0000</r>
       <r>  -0.3048  1.0000</r>
       <r>  -0.2974  1.0000</r>
       <r>  -0.2974  1.0000</r>
       <r>  -0.2974  1.0000</r>
       <r>  -0.2974  1.0000</r>
       <r>  -0.1894  1.0000</r>
       <r>  -0.1894  1.0000</r>
       <r>  -0.1894  1.0000</r>
       <r>  -0.1894  1.0000</r>
       <r>  -0.1091  1.0000</r>
       <r>  -0.1090  1.0000</r>
       <r>  -0.1090  1.0000</r>
       <r>  -0.1090  1.0000</r>
       <r>  -0.0982  1.0000</r>
       <r>  -0.0982  1.0000</r>
       <r>  -0.0982  1.0000</r>
       <r>  -0.0981  1.0000</r>
       <r>  -0.0345  1.0000</r>
       <r>  -0.0345  1.0000</r>
       <r>  -0.0345  1.0000</r>
       <r>  -0.0345  1.0000</r>
       <r>   0.4836  1.0000</r>
       <r>   0.4836  1.0000</r>
       <r>   0.4837  1.0000</r>
       <r>   0.4837  1.0000</r>
       <r>   0.4837  1.0000</r>
       <r>   0.4837  1.0000</r>
       <r>   0.4837  1.0000</r>
       <r>   0.4837  1.0000</r>
       <r>   0.4895  1.0000</r>
       <r>   0.4895  1.0000</r>
       <r>   0.4895  1.0000</r>
       <r>   0.4895  1.0000</r>
       <r>   0.4961  1.0000</r>
       <r>   0.4961  1.0000</r>
       <r>   0.4961  1.0000</r>
       <r>   0.4961  1.0000</r>
       <r>   0.5001  1.0000</r>
       <r>   0.5001  1.0000</r>
       <r>   0.5001  1.0000</r>
       <r>   0.5001  1.0000</r>
       <r>   0.5001  1.0000</r>
       <r>   0.5001  1.0000</r>
       <r>   0.5002  1.0000</r>
       <r>   0.5002  1.0000</r>
       <r>   2.4942  0.0000</r>
       <r>   2.4942  0.0000</r>
       <r>   2.4942  0.0000</r>
       <r>   2.4942  0.0000</r>
       <r>   2.7705  0.0000</r>
       <r>   2.7705  0.0000</r>
       <r>   2.7706  0.0000</r>
       <r>   2.7706  0.0000</r>
       <r>   2.7706  0.0000</r>
       <r>   2.7706  0.0000</r>
       <r>   2.7707  0.0000</r>
       <r>   2.7707  0.0000</r>
       <r>   3.1571  0.0000</r>
       <r>   3.1571  0.0000</r>
       <r>   3.1572  0.0000</r>
       <r>   3.1572  0.0000</r>
       <r>   3.1572  0.0000</r>
       <r>   3.1572  0.0000</r>
       <r>   3.1573  0.0000</r>
       <r>   3.1573  0.0000</r>
       <r>   3.4305  0.0000</r>
       <r>   3.4305  0.0000</r>
       <r>   3.4305  0.0000</r>
       <r>   3.4305  0.0000</r>
       <r>   6.3535  0.0000</r>
       <r>   6.3535  0.0000</r>
       <r>   6.3541  0.0000</r>
       <r>   6.3541  0.0000</r>
       <r>   6.3541  0.0000</r>
       <r>   6.3541  0.0000</r>
       <r>   6.3547  0.0000</r>
       <r>   6.3547  0.0000</r>
       <r>   6.5595  0.0000</r>
       <r>   6.5595  0.0000</r>
       <r>   6.5595  0.0000</r>
       <r>   6.5595  0.0000</r>
       <r>   7.0418  0.0000</r>
       <r>   7.0418  0.0000</r>
       <r>   7.0418  0.0000</r>
       <r>   7.0418  0.0000</r>
       <r>   7.2267  0.0000</r>
       <r>   7.2267  0.0000</r>
       <r>   7.2271  0.0000</r>
       <r>   7.2271  0.0000</r>
       <r>   7.2271  0.0000</r>
       <r>   7.2271  0.0000</r>
       <r>   7.2276  0.0000</r>
       <r>   7.2276  0.0000</r>
      </set>
      <set comment="kpoint 196">
       <r>  -3.2599  1.0000</r>
       <r>  -3.2572  1.0000</r>
       <r>  -3.2572  1.0000</r>
       <r>  -3.2569  1.0000</r>
       <r>  -3.2567  1.0000</r>
       <r>  -3.2563  1.0000</r>
       <r>  -3.2563  1.0000</r>
       <r>  -3.2537  1.0000</r>
       <r>  -2.0691  1.0000</r>
       <r>  -2.0691  1.0000</r>
       <r>  -2.0691  1.0000</r>
       <r>  -2.0689  1.0000</r>
       <r>  -2.0687  1.0000</r>
       <r>  -2.0680  1.0000</r>
       <r>  -2.0676  1.0000</r>
       <r>  -2.0675  1.0000</r>
       <r>  -2.0675  1.0000</r>
       <r>  -2.0675  1.0000</r>
       <r>  -2.0675  1.0000</r>
       <r>  -2.0674  1.0000</r>
       <r>  -2.0674  1.0000</r>
       <r>  -2.0673  1.0000</r>
       <r>  -2.0673  1.0000</r>
       <r>  -2.0673  1.0000</r>
       <r>  -2.0673  1.0000</r>
       <r>  -2.0672  1.0000</r>
       <r>  -2.0668  1.0000</r>
       <r>  -2.0661  1.0000</r>
       <r>  -2.0659  1.0000</r>
       <r>  -2.0657  1.0000</r>
       <r>  -2.0657  1.0000</r>
       <r>  -2.0657  1.0000</r>
       <r>  -1.4752  1.0000</r>
       <r>  -1.4727  1.0000</r>
       <r>  -1.4727  1.0000</r>
       <r>  -1.4725  1.0000</r>
       <r>  -1.4725  1.0000</r>
       <r>  -1.4722  1.0000</r>
       <r>  -1.4719  1.0000</r>
       <r>  -1.4719  1.0000</r>
       <r>  -1.4717  1.0000</r>
       <r>  -1.4717  1.0000</r>
       <r>  -1.4717  1.0000</r>
       <r>  -1.4717  1.0000</r>
       <r>  -1.4716  1.0000</r>
       <r>  -1.4716  1.0000</r>
       <r>  -1.4716  1.0000</r>
       <r>  -1.4716  1.0000</r>
       <r>  -1.4714  1.0000</r>
       <r>  -1.4714  1.0000</r>
       <r>  -1.4711  1.0000</r>
       <r>  -1.4708  1.0000</r>
       <r>  -1.4708  1.0000</r>
       <r>  -1.4706  1.0000</r>
       <r>  -1.4706  1.0000</r>
       <r>  -1.4681  1.0000</r>
       <r>  -1.0541  1.0000</r>
       <r>  -1.0532  1.0000</r>
       <r>  -1.0528  1.0000</r>
       <r>  -1.0528  1.0000</r>
       <r>  -1.0525  1.0000</r>
       <r>  -1.0525  1.0000</r>
       <r>  -1.0520  1.0000</r>
       <r>  -1.0512  1.0000</r>
       <r>  -0.9065  1.0000</r>
       <r>  -0.9065  1.0000</r>
       <r>  -0.9063  1.0000</r>
       <r>  -0.9061  1.0000</r>
       <r>  -0.9057  1.0000</r>
       <r>  -0.9057  1.0000</r>
       <r>  -0.9056  1.0000</r>
       <r>  -0.9056  1.0000</r>
       <r>  -0.9054  1.0000</r>
       <r>  -0.9054  1.0000</r>
       <r>  -0.9054  1.0000</r>
       <r>  -0.9053  1.0000</r>
       <r>  -0.9049  1.0000</r>
       <r>  -0.9048  1.0000</r>
       <r>  -0.9046  1.0000</r>
       <r>  -0.9046  1.0000</r>
       <r>  -0.7639  1.0000</r>
       <r>  -0.7639  1.0000</r>
       <r>  -0.7634  1.0000</r>
       <r>  -0.7628  1.0000</r>
       <r>  -0.7617  1.0000</r>
       <r>  -0.7613  1.0000</r>
       <r>  -0.7613  1.0000</r>
       <r>  -0.7613  1.0000</r>
       <r>  -0.7612  1.0000</r>
       <r>  -0.7612  1.0000</r>
       <r>  -0.7612  1.0000</r>
       <r>  -0.7612  1.0000</r>
       <r>  -0.7611  1.0000</r>
       <r>  -0.7611  1.0000</r>
       <r>  -0.7611  1.0000</r>
       <r>  -0.7611  1.0000</r>
       <r>  -0.7611  1.0000</r>
       <r>  -0.7611  1.0000</r>
       <r>  -0.7610  1.0000</r>
       <r>  -0.7606  1.0000</r>
       <r>  -0.7595  1.0000</r>
       <r>  -0.7589  1.0000</r>
       <r>  -0.7583  1.0000</r>
       <r>  -0.7583  1.0000</r>
       <r>  -0.3796  1.0000</r>
       <r>  -0.3787  1.0000</r>
       <r>  -0.3787  1.0000</r>
       <r>  -0.3773  1.0000</r>
       <r>  -0.3772  1.0000</r>
       <r>  -0.3771  1.0000</r>
       <r>  -0.3771  1.0000</r>
       <r>  -0.3769  1.0000</r>
       <r>  -0.3768  1.0000</r>
       <r>  -0.3768  1.0000</r>
       <r>  -0.3768  1.0000</r>
       <r>  -0.3768  1.0000</r>
       <r>  -0.3767  1.0000</r>
       <r>  -0.3767  1.0000</r>
       <r>  -0.3767  1.0000</r>
       <r>  -0.3767  1.0000</r>
       <r>  -0.3766  1.0000</r>
       <r>  -0.3764  1.0000</r>
       <r>  -0.3764  1.0000</r>
       <r>  -0.3763  1.0000</r>
       <r>  -0.3762  1.0000</r>
       <r>  -0.3748  1.0000</r>
       <r>  -0.3748  1.0000</r>
       <r>  -0.3739  1.0000</r>
       <r>  -0.1150  1.0000</r>
       <r>  -0.1139  1.0000</r>
       <r>  -0.1139  1.0000</r>
       <r>  -0.1139  1.0000</r>
       <r>  -0.1132  1.0000</r>
       <r>  -0.1132  1.0000</r>
       <r>  -0.1131  1.0000</r>
       <r>  -0.1130  1.0000</r>
       <r>  -0.1129  1.0000</r>
       <r>  -0.1129  1.0000</r>
       <r>  -0.1127  1.0000</r>
       <r>  -0.1127  1.0000</r>
       <r>  -0.1120  1.0000</r>
       <r>  -0.1120  1.0000</r>
       <r>  -0.1120  1.0000</r>
       <r>  -0.1110  1.0000</r>
       <r>   0.4975  1.0000</r>
       <r>   0.4975  1.0000</r>
       <r>   0.4977  1.0000</r>
       <r>   0.4978  1.0000</r>
       <r>   0.4978  1.0000</r>
       <r>   0.4979  1.0000</r>
       <r>   0.4979  1.0000</r>
       <r>   0.4979  1.0000</r>
       <r>   0.4979  1.0000</r>
       <r>   0.4980  1.0000</r>
       <r>   0.4980  1.0000</r>
       <r>   0.4980  1.0000</r>
       <r>   0.4981  1.0000</r>
       <r>   0.4982  1.0000</r>
       <r>   0.4982  1.0000</r>
       <r>   0.4982  1.0000</r>
       <r>   0.4983  1.0000</r>
       <r>   0.4983  1.0000</r>
       <r>   0.4983  1.0000</r>
       <r>   0.4984  1.0000</r>
       <r>   0.4984  1.0000</r>
       <r>   0.4985  1.0000</r>
       <r>   0.4987  1.0000</r>
       <r>   0.4987  1.0000</r>
       <r>   2.9486  0.0000</r>
       <r>   2.9526  0.0000</r>
       <r>   2.9526  0.0000</r>
       <r>   2.9539  0.0000</r>
       <r>   2.9542  0.0000</r>
       <r>   2.9544  0.0000</r>
       <r>   2.9544  0.0000</r>
       <r>   2.9544  0.0000</r>
       <r>   2.9545  0.0000</r>
       <r>   2.9545  0.0000</r>
       <r>   2.9545  0.0000</r>
       <r>   2.9545  0.0000</r>
       <r>   2.9546  0.0000</r>
       <r>   2.9547  0.0000</r>
       <r>   2.9547  0.0000</r>
       <r>   2.9547  0.0000</r>
       <r>   2.9547  0.0000</r>
       <r>   2.9547  0.0000</r>
       <r>   2.9547  0.0000</r>
       <r>   2.9549  0.0000</r>
       <r>   2.9552  0.0000</r>
       <r>   2.9565  0.0000</r>
       <r>   2.9565  0.0000</r>
       <r>   2.9605  0.0000</r>
       <r>   6.7776  0.0000</r>
       <r>   6.7776  0.0000</r>
       <r>   6.7785  0.0000</r>
       <r>   6.7804  0.0000</r>
       <r>   6.7807  0.0000</r>
       <r>   6.7810  0.0000</r>
       <r>   6.7810  0.0000</r>
       <r>   6.7813  0.0000</r>
       <r>   6.7814  0.0000</r>
       <r>   6.7814  0.0000</r>
       <r>   6.7815  0.0000</r>
       <r>   6.7815  0.0000</r>
       <r>   6.7815  0.0000</r>
       <r>   6.7815  0.0000</r>
       <r>   6.7816  0.0000</r>
       <r>   6.7816  0.0000</r>
       <r>   6.7817  0.0000</r>
       <r>   6.7819  0.0000</r>
       <r>   6.7819  0.0000</r>
       <r>   6.7822  0.0000</r>
       <r>   6.7826  0.0000</r>
       <r>   6.7845  0.0000</r>
       <r>   6.7853  0.0000</r>
       <r>   6.7853  0.0000</r>
      </set>
     </set>
    </set>
   </array>
  </eigenvalues>
 </calculation>
 <structure name="finalpos" >
  <crystal>
   <varray name="basis" >
    <v>       9.09681715      0.00000000      0.00000000</v>
    <v>       0.00000000      9.09681715      0.00000000</v>
    <v>       0.00000000      0.00000000      9.09681715</v>
   </varray>
   <i name="volume">    752.78056037</i>
   <varray name="rec_basis" >
    <v>       0.10992856      0.00000000      0.00000000</v>
    <v>       0.00000000      0.10992856      0.00000000</v>
    <v>       0.00000000      0.00000000      0.10992856</v>
   </varray>
  </crystal>
  <varray name="positions" >
   <v>       0.00109929      0.00000000      0.00000000</v>
   <v>       0.50000000      0.00000000      0.00000000</v>
   <v>       0.00000000      0.50000000      0.00000000</v>
   <v>       0.50000000      0.50000000      0.00000000</v>
   <v>       0.00000000      0.00000000      0.50000000</v>
   <v>       0.50000000      0.00000000      0.50000000</v>
   <v>       0.00000000      0.50000000      0.50000000</v>
   <v>       0.50000000      0.50000000      0.50000000</v>
   <v>       0.25000000      0.25000000      0.00000000</v>
   <v>       0.75000000      0.25000000      0.00000000</v>
   <v>       0.25000000      0.75000000      0.00000000</v>
   <v>       0.75000000      0.75000000      0.00000000</v>
   <v>       0.25000000      0.25000000      0.50000000</v>
   <v>       0.75000000      0.25000000      0.50000000</v>
   <v>       0.25000000      0.75000000      0.50000000</v>
   <v>       0.75000000      0.75000000      0.50000000</v>
   <v>       0.25000000      0.00000000      0.25000000</v>
   <v>       0.75000000      0.00000000      0.25000000</v>
   <v>       0.25000000      0.50000000      0.25000000</v>
   <v>       0.75000000      0.50000000      0.25000000</v>
   <v>       0.25000000      0.00000000      0.75000000</v>
   <v>       0.75000000      0.00000000      0.75000000</v>
   <v>       0.25000000      0.50000000      0.75000000</v>
   <v>       0.75000000      0.50000000      0.75000000</v>
   <v>       0.00000000      0.25000000      0.25000000</v>
   <v>       0.50000000      0.25000000      0.25000000</v>
   <v>       0.00000000      0.75000000      0.25000000</v>
   <v>       0.50000000      0.75000000      0.25000000</v>
   <v>       0.00000000      0.25000000      0.75000000</v>
   <v>       0.50000000      0.25000000      0.75000000</v>
   <v>       0.00000000      0.75000000      0.75000000</v>
   <v>       0.50000000      0.75000000      0.75000000</v>
  </varray>
 </structure>
</modeling>
