32   
1    

1    
  0.0100000000000000   0.0000000000000000   0.0000000000000000
  -0.0936950900   -0.0000000000    0.0000000000
   0.0016896200    0.0000000000   -0.0000000000
  -0.0004326400    0.0000000000    0.0000000000
  -0.0003269900    0.0000000000   -0.0000000000
  -0.0004326400    0.0000000000    0.0000000000
  -0.0003269900   -0.0000000000    0.0000000000
  -0.0000301600   -0.0000000000   -0.0000000000
  -0.0002263000    0.0000000000    0.0000000000
   0.0126780100    0.0150930400    0.0000000000
   0.0123522000   -0.0146176700    0.0000000000
   0.0126780100   -0.0150930400    0.0000000000
   0.0123522000    0.0146176700    0.0000000000
   0.0001772400    0.0001686600    0.0000000000
   0.0001774600   -0.0001732300   -0.0000000000
   0.0001772400   -0.0001686600   -0.0000000000
   0.0001774600    0.0001732300   -0.0000000000
   0.0126780100   -0.0000000000    0.0150930400
   0.0123522000   -0.0000000000   -0.0146176700
   0.0001772400    0.0000000000    0.0001686600
   0.0001774600    0.0000000000   -0.0001732300
   0.0126780100    0.0000000000   -0.0150930400
   0.0123522000    0.0000000000    0.0146176700
   0.0001772400    0.0000000000   -0.0001686600
   0.0001774600    0.0000000000    0.0001732300
  -0.0024484600   -0.0000301200   -0.0000301200
   0.0005088500   -0.0000000200   -0.0000000200
  -0.0024484600    0.0000301200   -0.0000301200
   0.0005088500    0.0000000200   -0.0000000200
  -0.0024484600   -0.0000301200    0.0000301200
   0.0005088500   -0.0000000200    0.0000000200
  -0.0024484600    0.0000301200    0.0000301200
   0.0005088500    0.0000000200    0.0000000200
