mesh: [    48,    48,    48 ]
nqpoint: 2600   
reciprocal_lattice:
- [   0.25284044,   0.00000000,   0.00000000 ] # a*
- [   0.00000000,   0.25284044,   0.00000000 ] # b*
- [   0.00000000,   0.00000000,   0.25284044 ] # c*
natom:   4      
lattice:
- [     3.955063542535619,     0.000000000000000,     0.000000000000000 ] # a
- [     0.000000000000000,     3.955063542535619,     0.000000000000000 ] # b
- [     0.000000000000000,     0.000000000000000,     3.955063542535619 ] # c
points:
- symbol: Ag # 1
  coordinates: [  0.000000000000000,  0.000000000000000,  0.000000000000000 ]
  mass: 107.868200
- symbol: Ag # 2
  coordinates: [  0.500000000000000,  0.500000000000000,  0.000000000000000 ]
  mass: 107.868200
- symbol: Ag # 3
  coordinates: [  0.500000000000000,  0.000000000000000,  0.500000000000000 ]
  mass: 107.868200
- symbol: Ag # 4
  coordinates: [  0.000000000000000,  0.500000000000000,  0.500000000000000 ]
  mass: 107.868200
phonon:
- q-position: [    0.0104167,    0.0104167,    0.0104167 ]
  weight: 8    
  band:
  - # 1
    frequency:     0.0961688547
  - # 2
    frequency:     0.0961688547
  - # 3
    frequency:     0.2301821817
  - # 4
    frequency:     4.4131793222
  - # 5
    frequency:     4.4131793222
  - # 6
    frequency:     4.4131793222
  - # 7
    frequency:     4.4164796618
  - # 8
    frequency:     4.4164796618
  - # 9
    frequency:     4.4164796618
  - # 10
    frequency:     6.7812592779
  - # 11
    frequency:     6.7812592779
  - # 12
    frequency:     6.7812592779

- q-position: [    0.0312500,    0.0104167,    0.0104167 ]
  weight: 24   
  band:
  - # 1
    frequency:     0.1964561517
  - # 2
    frequency:     0.2230443279
  - # 3
    frequency:     0.4165869773
  - # 4
    frequency:     4.4083207444
  - # 5
    frequency:     4.4115539815
  - # 6
    frequency:     4.4115539815
  - # 7
    frequency:     4.4116095417
  - # 8
    frequency:     4.4232237345
  - # 9
    frequency:     4.4232237345
  - # 10
    frequency:     6.7748213002
  - # 11
    frequency:     6.7765883070
  - # 12
    frequency:     6.7765883070

- q-position: [    0.0520833,    0.0104167,    0.0104167 ]
  weight: 24   
  band:
  - # 1
    frequency:     0.3393319955
  - # 2
    frequency:     0.3613739415
  - # 3
    frequency:     0.6293174999
  - # 4
    frequency:     4.3986100717
  - # 5
    frequency:     4.4018758168
  - # 6
    frequency:     4.4101017217
  - # 7
    frequency:     4.4101017217
  - # 8
    frequency:     4.4348863093
  - # 9
    frequency:     4.4348863093
  - # 10
    frequency:     6.7619441248
  - # 11
    frequency:     6.7672630489
  - # 12
    frequency:     6.7672630489

- q-position: [    0.0729167,    0.0104167,    0.0104167 ]
  weight: 24   
  band:
  - # 1
    frequency:     0.4841041477
  - # 2
    frequency:     0.5014572164
  - # 3
    frequency:     0.8505798473
  - # 4
    frequency:     4.3840602516
  - # 5
    frequency:     4.3872914987
  - # 6
    frequency:     4.4083698936
  - # 7
    frequency:     4.4083698936
  - # 8
    frequency:     4.4518661789
  - # 9
    frequency:     4.4518661789
  - # 10
    frequency:     6.7426254001
  - # 11
    frequency:     6.7533168227
  - # 12
    frequency:     6.7533168227

- q-position: [    0.0937500,    0.0104167,    0.0104167 ]
  weight: 24   
  band:
  - # 1
    frequency:     0.6278268104
  - # 2
    frequency:     0.6417789430
  - # 3
    frequency:     1.0750161845
  - # 4
    frequency:     4.3646906577
  - # 5
    frequency:     4.3678760553
  - # 6
    frequency:     4.4062394809
  - # 7
    frequency:     4.4062394809
  - # 8
    frequency:     4.4742026539
  - # 9
    frequency:     4.4742026539
  - # 10
    frequency:     6.7168618189
  - # 11
    frequency:     6.7347994854
  - # 12
    frequency:     6.7347994854

- q-position: [    0.1145833,    0.0104167,    0.0104167 ]
  weight: 24   
  band:
  - # 1
    frequency:     0.7703234681
  - # 2
    frequency:     0.7818086532
  - # 3
    frequency:     1.3002773370
  - # 4
    frequency:     4.3405270343
  - # 5
    frequency:     4.3436553527
  - # 6
    frequency:     4.4036970348
  - # 7
    frequency:     4.4036970348
  - # 8
    frequency:     4.5018048531
  - # 9
    frequency:     4.5018048531
  - # 10
    frequency:     6.6846493794
  - # 11
    frequency:     6.7117772875
  - # 12
    frequency:     6.7117772875

- q-position: [    0.1354167,    0.0104167,    0.0104167 ]
  weight: 24   
  band:
  - # 1
    frequency:     0.9116222446
  - # 2
    frequency:     0.9212545677
  - # 3
    frequency:     1.5251017035
  - # 4
    frequency:     4.3116014217
  - # 5
    frequency:     4.3146615781
  - # 6
    frequency:     4.4007663044
  - # 7
    frequency:     4.4007663044
  - # 8
    frequency:     4.5345215981
  - # 9
    frequency:     4.5345215981
  - # 10
    frequency:     6.6459837277
  - # 11
    frequency:     6.6843326822
  - # 12
    frequency:     6.6843326822

- q-position: [    0.1562500,    0.0104167,    0.0104167 ]
  weight: 24   
  band:
  - # 1
    frequency:     1.0517164222
  - # 2
    frequency:     1.0599060707
  - # 3
    frequency:     1.7486884923
  - # 4
    frequency:     4.2779520647
  - # 5
    frequency:     4.2809331436
  - # 6
    frequency:     4.3974882607
  - # 7
    frequency:     4.3974882607
  - # 8
    frequency:     4.5721631332
  - # 9
    frequency:     4.5721631332
  - # 10
    frequency:     6.6008605774
  - # 11
    frequency:     6.6525640901
  - # 12
    frequency:     6.6525640901

- q-position: [    0.1770833,    0.0104167,    0.0104167 ]
  weight: 24   
  band:
  - # 1
    frequency:     1.1905562358
  - # 2
    frequency:     1.1975864032
  - # 3
    frequency:     1.9704575581
  - # 4
    frequency:     4.2396233033
  - # 5
    frequency:     4.2425145736
  - # 6
    frequency:     4.3939141011
  - # 7
    frequency:     4.3939141011
  - # 8
    frequency:     4.6145099989
  - # 9
    frequency:     4.6145099989
  - # 10
    frequency:     6.5492762004
  - # 11
    frequency:     6.6165856212
  - # 12
    frequency:     6.6165856212

- q-position: [    0.1979167,    0.0104167,    0.0104167 ]
  weight: 24   
  band:
  - # 1
    frequency:     1.3280622681
  - # 2
    frequency:     1.3341350729
  - # 3
    frequency:     2.1899463307
  - # 4
    frequency:     4.1966654478
  - # 5
    frequency:     4.1994563743
  - # 6
    frequency:     4.3901020780
  - # 7
    frequency:     4.3901020780
  - # 8
    frequency:     4.6613181277
  - # 9
    frequency:     4.6613181277
  - # 10
    frequency:     6.4912279834
  - # 11
    frequency:     6.5765267571
  - # 12
    frequency:     6.5765267571

- q-position: [    0.2187500,    0.0104167,    0.0104167 ]
  weight: 24   
  band:
  - # 1
    frequency:     1.4641362434
  - # 2
    frequency:     1.4694003026
  - # 3
    frequency:     2.4067614175
  - # 4
    frequency:     4.1491346385
  - # 5
    frequency:     4.1518148878
  - # 6
    frequency:     4.3861155758
  - # 7
    frequency:     4.3861155758
  - # 8
    frequency:     4.7123226623
  - # 9
    frequency:     4.7123226623
  - # 10
    frequency:     6.4267150422
  - # 11
    frequency:     6.5325319950
  - # 12
    frequency:     6.5325319950

- q-position: [    0.2395833,    0.0104167,    0.0104167 ]
  weight: 24   
  band:
  - # 1
    frequency:     1.5986679758
  - # 2
    frequency:     1.6032354417
  - # 3
    frequency:     2.6205542000
  - # 4
    frequency:     4.0970926903
  - # 5
    frequency:     4.0996521305
  - # 6
    frequency:     4.3820216208
  - # 7
    frequency:     4.3820216208
  - # 8
    frequency:     4.7672412423
  - # 9
    frequency:     4.7672412423
  - # 10
    frequency:     6.3557388854
  - # 11
    frequency:     6.4847604581
  - # 12
    frequency:     6.4847604581

- q-position: [    0.2604167,    0.0104167,    0.0104167 ]
  weight: 24   
  band:
  - # 1
    frequency:     1.7315396994
  - # 2
    frequency:     1.7354971374
  - # 3
    frequency:     2.8310078218
  - # 4
    frequency:     4.0406069247
  - # 5
    frequency:     4.0430356190
  - # 6
    frequency:     4.3778895431
  - # 7
    frequency:     4.3778895431
  - # 8
    frequency:     4.8257769903
  - # 9
    frequency:     4.8257769903
  - # 10
    frequency:     6.2783041214
  - # 11
    frequency:     6.4333854736
  - # 12
    frequency:     6.4333854736

- q-position: [    0.2812500,    0.0104167,    0.0104167 ]
  weight: 24   
  band:
  - # 1
    frequency:     1.8626288044
  - # 2
    frequency:     1.8660443610
  - # 3
    frequency:     3.0378299458
  - # 4
    frequency:     3.9797499889
  - # 5
    frequency:     3.9820381811
  - # 6
    frequency:     4.3737896902
  - # 7
    frequency:     4.3737896902
  - # 8
    frequency:     4.8876212601
  - # 9
    frequency:     4.8876212601
  - # 10
    frequency:     6.1944191967
  - # 11
    frequency:     6.3785941234
  - # 12
    frequency:     6.3785941234

- q-position: [    0.3020833,    0.0104167,    0.0104167 ]
  weight: 24   
  band:
  - # 1
    frequency:     1.9918096175
  - # 2
    frequency:     1.9947378841
  - # 3
    frequency:     3.2407485901
  - # 4
    frequency:     3.9145996640
  - # 5
    frequency:     3.9167377574
  - # 6
    frequency:     4.3697921610
  - # 7
    frequency:     4.3697921610
  - # 8
    frequency:     4.9524561620
  - # 9
    frequency:     4.9524561620
  - # 10
    frequency:     6.1040971593
  - # 11
    frequency:     6.3205867698
  - # 12
    frequency:     6.3205867698

- q-position: [    0.3229167,    0.0104167,    0.0104167 ]
  weight: 24   
  band:
  - # 1
    frequency:     2.1189546061
  - # 2
    frequency:     2.1214400064
  - # 3
    frequency:     3.4395096704
  - # 4
    frequency:     3.8452386638
  - # 5
    frequency:     3.8472171905
  - # 6
    frequency:     4.3659655578
  - # 7
    frequency:     4.3659655578
  - # 8
    frequency:     5.0199568620
  - # 9
    frequency:     5.0199568620
  - # 10
    frequency:     6.0073564367
  - # 11
    frequency:     6.2595765609
  - # 12
    frequency:     6.2595765609

- q-position: [    0.3437500,    0.0104167,    0.0104167 ]
  weight: 24   
  band:
  - # 1
    frequency:     2.2439352284
  - # 2
    frequency:     2.2460144348
  - # 3
    frequency:     3.6338755195
  - # 4
    frequency:     3.7717544248
  - # 5
    frequency:     3.7735640067
  - # 6
    frequency:     4.3623757648
  - # 7
    frequency:     4.3623757648
  - # 8
    frequency:     5.0897936577
  - # 9
    frequency:     5.0897936577
  - # 10
    frequency:     5.9042216191
  - # 11
    frequency:     6.1957889189
  - # 12
    frequency:     6.1957889189

- q-position: [    0.3645833,    0.0104167,    0.0104167 ]
  weight: 24   
  band:
  - # 1
    frequency:     2.3666225625
  - # 2
    frequency:     2.3683262572
  - # 3
    frequency:     3.6942388892
  - # 4
    frequency:     3.6958701889
  - # 5
    frequency:     3.8236239703
  - # 6
    frequency:     4.3590847708
  - # 7
    frequency:     4.3590847708
  - # 8
    frequency:     5.1616338318
  - # 9
    frequency:     5.1616338318
  - # 10
    frequency:     5.7947242403
  - # 11
    frequency:     6.1294610173
  - # 12
    frequency:     6.1294610173

- q-position: [    0.3854167,    0.0104167,    0.0104167 ]
  weight: 24   
  band:
  - # 1
    frequency:     2.4868877959
  - # 2
    frequency:     2.4882419801
  - # 3
    frequency:     3.6127882822
  - # 4
    frequency:     3.6142319427
  - # 5
    frequency:     4.0085477654
  - # 6
    frequency:     4.3561495549
  - # 7
    frequency:     4.3561495549
  - # 8
    frequency:     5.2351432902
  - # 9
    frequency:     5.2351432902
  - # 10
    frequency:     5.6789035455
  - # 11
    frequency:     6.0608412560
  - # 12
    frequency:     6.0608412560

- q-position: [    0.4062500,    0.0104167,    0.0104167 ]
  weight: 24   
  band:
  - # 1
    frequency:     2.6046026272
  - # 2
    frequency:     2.6056296108
  - # 3
    frequency:     3.5275028861
  - # 4
    frequency:     3.5287494583
  - # 5
    frequency:     4.1884541480
  - # 6
    frequency:     4.3536210551
  - # 7
    frequency:     4.3536210551
  - # 8
    frequency:     5.3099879803
  - # 9
    frequency:     5.3099879803
  - # 10
    frequency:     5.5568072393
  - # 11
    frequency:     5.9901887540
  - # 12
    frequency:     5.9901887540

- q-position: [    0.4270833,    0.0104167,    0.0104167 ]
  weight: 24   
  band:
  - # 1
    frequency:     2.7196396095
  - # 2
    frequency:     2.7203587729
  - # 3
    frequency:     3.4384868106
  - # 4
    frequency:     3.4395266666
  - # 5
    frequency:     4.3515432396
  - # 6
    frequency:     4.3515432396
  - # 7
    frequency:     4.3631645452
  - # 8
    frequency:     5.3858350490
  - # 9
    frequency:     5.3858350490
  - # 10
    frequency:     5.4284922061
  - # 11
    frequency:     5.9177729229
  - # 12
    frequency:     5.9177729229

- q-position: [    0.4479167,    0.0104167,    0.0104167 ]
  weight: 24   
  band:
  - # 1
    frequency:     2.8318724583
  - # 2
    frequency:     2.8323008469
  - # 3
    frequency:     3.3458477630
  - # 4
    frequency:     3.3466709932
  - # 5
    frequency:     4.3499523005
  - # 6
    frequency:     4.3499523005
  - # 7
    frequency:     4.5325142874
  - # 8
    frequency:     5.2940251948
  - # 9
    frequency:     5.4623534983
  - # 10
    frequency:     5.4623534983
  - # 11
    frequency:     5.8438733823
  - # 12
    frequency:     5.8438733823

- q-position: [    0.4687500,    0.0104167,    0.0104167 ]
  weight: 24   
  band:
  - # 1
    frequency:     2.9411763364
  - # 2
    frequency:     2.9413291314
  - # 3
    frequency:     3.2496968186
  - # 4
    frequency:     3.2502931096
  - # 5
    frequency:     4.3488759860
  - # 6
    frequency:     4.3488759860
  - # 7
    frequency:     4.6963523282
  - # 8
    frequency:     5.1534834627
  - # 9
    frequency:     5.5392127058
  - # 10
    frequency:     5.5392127058
  - # 11
    frequency:     5.7687818687
  - # 12
    frequency:     5.7687818687

- q-position: [    0.4895833,    0.0104167,    0.0104167 ]
  weight: 24   
  band:
  - # 1
    frequency:     3.0473190202
  - # 2
    frequency:     3.0474281245
  - # 3
    frequency:     3.1501481933
  - # 4
    frequency:     3.1505066830
  - # 5
    frequency:     4.3483330870
  - # 6
    frequency:     4.3483330870
  - # 7
    frequency:     4.8545409401
  - # 8
    frequency:     5.0069553725
  - # 9
    frequency:     5.6160507628
  - # 10
    frequency:     5.6160507628
  - # 11
    frequency:     5.6928342043
  - # 12
    frequency:     5.6928342043

- q-position: [    0.0312500,    0.0312500,    0.0104167 ]
  weight: 24   
  band:
  - # 1
    frequency:     0.2066052104
  - # 2
    frequency:     0.2954333534
  - # 3
    frequency:     0.5673765282
  - # 4
    frequency:     4.4051227215
  - # 5
    frequency:     4.4066837555
  - # 6
    frequency:     4.4066837555
  - # 7
    frequency:     4.4183415344
  - # 8
    frequency:     4.4183415344
  - # 9
    frequency:     4.4347067934
  - # 10
    frequency:     6.7702004216
  - # 11
    frequency:     6.7702004216
  - # 12
    frequency:     6.7719195539

- q-position: [    0.0520833,    0.0312500,    0.0104167 ]
  weight: 48   
  band:
  - # 1
    frequency:     0.3062827874
  - # 2
    frequency:     0.4098239593
  - # 3
    frequency:     0.7544411473
  - # 4
    frequency:     4.3969495388
  - # 5
    frequency:     4.3996314175
  - # 6
    frequency:     4.4051842436
  - # 7
    frequency:     4.4085839818
  - # 8
    frequency:     4.4300037799
  - # 9
    frequency:     4.4502756436
  - # 10
    frequency:     6.7574233693
  - # 11
    frequency:     6.7609753053
  - # 12
    frequency:     6.7625987042

- q-position: [    0.0729167,    0.0312500,    0.0104167 ]
  weight: 48   
  band:
  - # 1
    frequency:     0.4419398144
  - # 2
    frequency:     0.5374267010
  - # 3
    frequency:     0.9555611529
  - # 4
    frequency:     4.3823637806
  - # 5
    frequency:     4.3939647530
  - # 6
    frequency:     4.3949944873
  - # 7
    frequency:     4.4033724082
  - # 8
    frequency:     4.4469919789
  - # 9
    frequency:     4.4699641643
  - # 10
    frequency:     6.7382546787
  - # 11
    frequency:     6.7471791840
  - # 12
    frequency:     6.7486590218

- q-position: [    0.0937500,    0.0312500,    0.0104167 ]
  weight: 48   
  band:
  - # 1
    frequency:     0.5860411417
  - # 2
    frequency:     0.6703017241
  - # 3
    frequency:     1.1641521718
  - # 4
    frequency:     4.3629451007
  - # 5
    frequency:     4.3745043144
  - # 6
    frequency:     4.3908634322
  - # 7
    frequency:     4.4011316378
  - # 8
    frequency:     4.4693426896
  - # 9
    frequency:     4.4940442768
  - # 10
    frequency:     6.7126908718
  - # 11
    frequency:     6.7288617833
  - # 12
    frequency:     6.7301502826

- q-position: [    0.1145833,    0.0312500,    0.0104167 ]
  weight: 48   
  band:
  - # 1
    frequency:     0.7314763371
  - # 2
    frequency:     0.8054420745
  - # 3
    frequency:     1.3768809699
  - # 4
    frequency:     4.3387182262
  - # 5
    frequency:     4.3502298647
  - # 6
    frequency:     4.3869784493
  - # 7
    frequency:     4.3984495693
  - # 8
    frequency:     4.4969635123
  - # 9
    frequency:     4.5226754432
  - # 10
    frequency:     6.6807277343
  - # 11
    frequency:     6.7060891756
  - # 12
    frequency:     6.7071386305

- q-position: [    0.1354167,    0.0312500,    0.0104167 ]
  weight: 48   
  band:
  - # 1
    frequency:     0.8762228650
  - # 2
    frequency:     0.9414546048
  - # 3
    frequency:     1.5916703735
  - # 4
    frequency:     4.3097139088
  - # 5
    frequency:     4.3211752572
  - # 6
    frequency:     4.3831751570
  - # 7
    frequency:     4.3953504290
  - # 8
    frequency:     4.5297022982
  - # 9
    frequency:     4.5558993241
  - # 10
    frequency:     6.6423606723
  - # 11
    frequency:     6.6789435864
  - # 12
    frequency:     6.6797063886

- q-position: [    0.1562500,    0.0312500,    0.0104167 ]
  weight: 48   
  band:
  - # 1
    frequency:     1.0196345349
  - # 2
    frequency:     1.0775749849
  - # 3
    frequency:     1.8070959354
  - # 4
    frequency:     4.2759688263
  - # 5
    frequency:     4.2873809010
  - # 6
    frequency:     4.3793624712
  - # 7
    frequency:     4.3918754328
  - # 8
    frequency:     4.5673685221
  - # 9
    frequency:     4.5936634883
  - # 10
    frequency:     6.5975851475
  - # 11
    frequency:     6.6475231557
  - # 12
    frequency:     6.6479518258

- q-position: [    0.1770833,    0.0312500,    0.0104167 ]
  weight: 48   
  band:
  - # 1
    frequency:     1.1614788225
  - # 2
    frequency:     1.2133203986
  - # 3
    frequency:     2.0221188211
  - # 4
    frequency:     4.2375254684
  - # 5
    frequency:     4.2488936397
  - # 6
    frequency:     4.3755010440
  - # 7
    frequency:     4.3880759532
  - # 8
    frequency:     4.6097420241
  - # 9
    frequency:     4.6358446819
  - # 10
    frequency:     6.5463971885
  - # 11
    frequency:     6.6119416560
  - # 12
    frequency:     6.6119888821

- q-position: [    0.1979167,    0.0312500,    0.0104167 ]
  weight: 48   
  band:
  - # 1
    frequency:     1.3016493076
  - # 2
    frequency:     1.3483483428
  - # 3
    frequency:     2.2359429132
  - # 4
    frequency:     4.1944320133
  - # 5
    frequency:     4.2057666073
  - # 6
    frequency:     4.3715869629
  - # 7
    frequency:     4.3840104257
  - # 8
    frequency:     4.6565780612
  - # 9
    frequency:     4.6822668859
  - # 10
    frequency:     6.4887939693
  - # 11
    frequency:     6.5719468537
  - # 12
    frequency:     6.5723281697

- q-position: [    0.2187500,    0.0312500,    0.0104167 ]
  weight: 48   
  band:
  - # 1
    frequency:     1.4400723965
  - # 2
    frequency:     1.4823924037
  - # 3
    frequency:     2.4479316226
  - # 4
    frequency:     4.1467421958
  - # 5
    frequency:     4.1580590581
  - # 6
    frequency:     4.3676403226
  - # 7
    frequency:     4.3797424720
  - # 8
    frequency:     4.7076111121
  - # 9
    frequency:     4.7327144755
  - # 10
    frequency:     6.4247744486
  - # 11
    frequency:     6.5279700424
  - # 12
    frequency:     6.5288267287

- q-position: [    0.2395833,    0.0312500,    0.0104167 ]
  weight: 48   
  band:
  - # 1
    frequency:     1.5766765625
  - # 2
    frequency:     1.6152303450
  - # 3
    frequency:     2.6575573374
  - # 4
    frequency:     4.0945151731
  - # 5
    frequency:     4.1058361693
  - # 6
    frequency:     4.3636973397
  - # 7
    frequency:     4.3753394421
  - # 8
    frequency:     4.7625581633
  - # 9
    frequency:     4.7869417523
  - # 10
    frequency:     6.3543400630
  - # 11
    frequency:     6.4802173717
  - # 12
    frequency:     6.4815959190

- q-position: [    0.2604167,    0.0312500,    0.0104167 ]
  weight: 48   
  band:
  - # 1
    frequency:     1.7113830423
  - # 2
    frequency:     1.7466670974
  - # 3
    frequency:     2.8643698300
  - # 4
    frequency:     4.0378153904
  - # 5
    frequency:     4.0491688157
  - # 6
    frequency:     4.3598048225
  - # 7
    frequency:     4.3708711035
  - # 8
    frequency:     4.8211216965
  - # 9
    frequency:     4.8446799881
  - # 10
    frequency:     6.2774954646
  - # 11
    frequency:     6.4288619742
  - # 12
    frequency:     6.4308084547

- q-position: [    0.2812500,    0.0312500,    0.0104167 ]
  weight: 48   
  band:
  - # 1
    frequency:     1.8441040437
  - # 2
    frequency:     1.8765251645
  - # 3
    frequency:     3.0679760622
  - # 4
    frequency:     3.9767124482
  - # 5
    frequency:     3.9881333168
  - # 6
    frequency:     4.3560161555
  - # 7
    frequency:     4.3664083791
  - # 8
    frequency:     4.8829924363
  - # 9
    frequency:     4.9056427873
  - # 10
    frequency:     6.1942492944
  - # 11
    frequency:     6.3740907539
  - # 12
    frequency:     6.3766507252

- q-position: [    0.3020833,    0.0312500,    0.0104167 ]
  weight: 48   
  band:
  - # 1
    frequency:     1.9747434726
  - # 2
    frequency:     2.0046389629
  - # 3
    frequency:     3.2680270116
  - # 4
    frequency:     3.9112809721
  - # 5
    frequency:     3.9228111580
  - # 6
    frequency:     4.3523882505
  - # 7
    frequency:     4.3620221038
  - # 8
    frequency:     4.9478518686
  - # 9
    frequency:     4.9695302957
  - # 10
    frequency:     6.1046149843
  - # 11
    frequency:     6.3161039312
  - # 12
    frequency:     6.3193223219

- q-position: [    0.3229167,    0.0312500,    0.0104167 ]
  weight: 48   
  band:
  - # 1
    frequency:     2.1031983617
  - # 2
    frequency:     2.1308513638
  - # 3
    frequency:     3.4642089141
  - # 4
    frequency:     3.8416004803
  - # 5
    frequency:     3.8532886943
  - # 6
    frequency:     4.3489791261
  - # 7
    frequency:     4.3577817964
  - # 8
    frequency:     5.0153745220
  - # 9
    frequency:     5.0360325865
  - # 10
    frequency:     6.0086115775
  - # 11
    frequency:     6.2551145783
  - # 12
    frequency:     6.2590355523

- q-position: [    0.3437500,    0.0312500,    0.0104167 ]
  weight: 48   
  band:
  - # 1
    frequency:     2.2293603493
  - # 2
    frequency:     2.2550115229
  - # 3
    frequency:     3.6562373327
  - # 4
    frequency:     3.7677552428
  - # 5
    frequency:     3.7796568433
  - # 6
    frequency:     4.3458459082
  - # 7
    frequency:     4.3537544575
  - # 8
    frequency:     5.0852300042
  - # 9
    frequency:     5.1048324275
  - # 10
    frequency:     5.9062645595
  - # 11
    frequency:     6.1913481597
  - # 12
    frequency:     6.1960149540

- q-position: [    0.3645833,    0.0312500,    0.0104167 ]
  weight: 48   
  band:
  - # 1
    frequency:     2.3531170036
  - # 2
    frequency:     2.3769734972
  - # 3
    frequency:     3.6898341224
  - # 4
    frequency:     3.7020107820
  - # 5
    frequency:     3.8438530600
  - # 6
    frequency:     4.3430431330
  - # 7
    frequency:     4.3500034093
  - # 8
    frequency:     5.1570847751
  - # 9
    frequency:     5.1756075449
  - # 10
    frequency:     5.7976066922
  - # 11
    frequency:     6.1250421073
  - # 12
    frequency:     6.1304968358

- q-position: [    0.3854167,    0.0312500,    0.0104167 ]
  weight: 48   
  band:
  - # 1
    frequency:     2.4743529503
  - # 2
    frequency:     2.4965953553
  - # 3
    frequency:     3.6079303882
  - # 4
    frequency:     3.6204496570
  - # 5
    frequency:     4.0268192265
  - # 6
    frequency:     4.3406212828
  - # 7
    frequency:     4.3465871956
  - # 8
    frequency:     5.2306036126
  - # 9
    frequency:     5.2480324135
  - # 10
    frequency:     5.6826788428
  - # 11
    frequency:     6.0564454975
  - # 12
    frequency:     6.0627289023

- q-position: [    0.4062500,    0.0312500,    0.0104167 ]
  weight: 48   
  band:
  - # 1
    frequency:     2.5929508196
  - # 2
    frequency:     2.6137386109
  - # 3
    frequency:     3.5221414914
  - # 4
    frequency:     3.5350763236
  - # 5
    frequency:     4.2049192063
  - # 6
    frequency:     4.3386255186
  - # 7
    frequency:     4.3435585625
  - # 8
    frequency:     5.3054506317
  - # 9
    frequency:     5.3217794606
  - # 10
    frequency:     5.5615308023
  - # 11
    frequency:     5.9858190152
  - # 12
    frequency:     5.9929701213

- q-position: [    0.4270833,    0.0312500,    0.0104167 ]
  weight: 48   
  band:
  - # 1
    frequency:     2.7087920464
  - # 2
    frequency:     2.7282678692
  - # 3
    frequency:     3.4325687992
  - # 4
    frequency:     3.4459971172
  - # 5
    frequency:     4.3370945936
  - # 6
    frequency:     4.3409635401
  - # 7
    frequency:     4.3779550495
  - # 8
    frequency:     5.3812893723
  - # 9
    frequency:     5.3965191246
  - # 10
    frequency:     5.4342220870
  - # 11
    frequency:     5.9134358190
  - # 12
    frequency:     5.9214913362

- q-position: [    0.4479167,    0.0312500,    0.0104167 ]
  weight: 48   
  band:
  - # 1
    frequency:     2.8217575556
  - # 2
    frequency:     2.8400506177
  - # 3
    frequency:     3.3393172856
  - # 4
    frequency:     3.3533216633
  - # 5
    frequency:     4.3360599405
  - # 6
    frequency:     4.3388406439
  - # 7
    frequency:     4.5457462646
  - # 8
    frequency:     5.3008227196
  - # 9
    frequency:     5.4577799099
  - # 10
    frequency:     5.4719161775
  - # 11
    frequency:     5.8395859376
  - # 12
    frequency:     5.8485786911

- q-position: [    0.4687500,    0.0312500,    0.0104167 ]
  weight: 48   
  band:
  - # 1
    frequency:     2.9317283638
  - # 2
    frequency:     2.9489571167
  - # 3
    frequency:     3.2424951828
  - # 4
    frequency:     3.2571627213
  - # 5
    frequency:     4.3355449344
  - # 6
    frequency:     4.3372202131
  - # 7
    frequency:     4.7081288250
  - # 8
    frequency:     5.1614139888
  - # 9
    frequency:     5.5345604861
  - # 10
    frequency:     5.5476050011
  - # 11
    frequency:     5.7646015433
  - # 12
    frequency:     5.7745523903

- q-position: [    0.4895833,    0.0312500,    0.0104167 ]
  weight: 48   
  band:
  - # 1
    frequency:     3.0385861194
  - # 2
    frequency:     3.0548603561
  - # 3
    frequency:     3.1422136005
  - # 4
    frequency:     3.1576360598
  - # 5
    frequency:     4.3355643336
  - # 6
    frequency:     4.3361239015
  - # 7
    frequency:     4.8649543193
  - # 8
    frequency:     5.0160891854
  - # 9
    frequency:     5.6110300095
  - # 10
    frequency:     5.6228084215
  - # 11
    frequency:     5.6892385233
  - # 12
    frequency:     5.6999844591

- q-position: [    0.0520833,    0.0520833,    0.0104167 ]
  weight: 24   
  band:
  - # 1
    frequency:     0.3308600520
  - # 2
    frequency:     0.4986873765
  - # 3
    frequency:     0.9220648094
  - # 4
    frequency:     4.3890981289
  - # 5
    frequency:     4.3953552152
  - # 6
    frequency:     4.3953552152
  - # 7
    frequency:     4.4202460713
  - # 8
    frequency:     4.4202460713
  - # 9
    frequency:     4.4706230808
  - # 10
    frequency:     6.7483983890
  - # 11
    frequency:     6.7483983890
  - # 12
    frequency:     6.7532866161

- q-position: [    0.0729167,    0.0520833,    0.0104167 ]
  weight: 48   
  band:
  - # 1
    frequency:     0.4217004759
  - # 2
    frequency:     0.6080306806
  - # 3
    frequency:     1.1066395108
  - # 4
    frequency:     4.3797179676
  - # 5
    frequency:     4.3806264902
  - # 6
    frequency:     4.3933833261
  - # 7
    frequency:     4.4056278409
  - # 8
    frequency:     4.4372513268
  - # 9
    frequency:     4.4946650069
  - # 10
    frequency:     6.7295295403
  - # 11
    frequency:     6.7349021942
  - # 12
    frequency:     6.7393599400

- q-position: [    0.0937500,    0.0520833,    0.0104167 ]
  weight: 48   
  band:
  - # 1
    frequency:     0.5460329520
  - # 2
    frequency:     0.7282689288
  - # 3
    frequency:     1.3004397457
  - # 4
    frequency:     4.3610158438
  - # 5
    frequency:     4.3714469115
  - # 6
    frequency:     4.3861709671
  - # 7
    frequency:     4.3909221337
  - # 8
    frequency:     4.4596308175
  - # 9
    frequency:     4.5223749745
  - # 10
    frequency:     6.7043648654
  - # 11
    frequency:     6.7169841726
  - # 12
    frequency:     6.7208682902

- q-position: [    0.1145833,    0.0520833,    0.0104167 ]
  weight: 48   
  band:
  - # 1
    frequency:     0.6837435658
  - # 2
    frequency:     0.8544334455
  - # 3
    frequency:     1.4998772079
  - # 4
    frequency:     4.3365469663
  - # 5
    frequency:     4.3619044206
  - # 6
    frequency:     4.3641007245
  - # 7
    frequency:     4.3879615078
  - # 8
    frequency:     4.4872891550
  - # 9
    frequency:     4.5538446752
  - # 10
    frequency:     6.6728996274
  - # 11
    frequency:     6.6947099368
  - # 12
    frequency:     6.6978775993

- q-position: [    0.1354167,    0.0520833,    0.0104167 ]
  weight: 48   
  band:
  - # 1
    frequency:     0.8263546676