<?xml version="1.0" encoding="ISO-8859-1"?>
<modeling>
 <generator>
  <i name="program" type="string">vasp</i>
  <i name="version" type="string">4.6.28 </i>
  <i name="subversion" type="string">25Jul05 complex  parallel</i>
  <i name="platform" type="string">LinuxIFC</i>
  <i name="date" type="string">2017 01 10</i>
  <i name="time" type="string">08:49:28</i>
 </generator>
 <incar>
  <i type="string" name="PREC">accurate</i>
  <i type="int" name="IALGO">    38</i>
  <i type="logical" name="ADDGRID"> T  </i>
  <i name="EDIFF">      0.00000001</i>
  <i type="int" name="IBRION">    -1</i>
  <i name="ENCUT">    750.00000000</i>
  <i type="logical" name="LREAL"> F  </i>
  <i type="int" name="ISMEAR">     0</i>
  <i name="SIGMA">      0.01000000</i>
  <i type="logical" name="LWAVE"> F  </i>
  <i type="logical" name="LCHARG"> F  </i>
 </incar>
 <kpoints>
  <generation param="Gamma">
   <v type="int" name="divisions">      12      12      12</v>
   <v name="usershift">      0.00000000      0.00000000      0.00000000</v>
   <v name="genvec1">      0.08333333      0.00000000      0.00000000</v>
   <v name="genvec2">      0.00000000      0.08333333      0.00000000</v>
   <v name="genvec3">      0.00000000      0.00000000      0.08333333</v>
   <v name="shift">      0.00000000      0.00000000      0.00000000</v>
  </generation>
  <varray name="kpointlist" >
   <v>       0.00000000      0.00000000      0.00000000</v>
   <v>       0.08333333      0.00000000      0.00000000</v>
   <v>       0.16666667      0.00000000      0.00000000</v>
   <v>       0.25000000      0.00000000      0.00000000</v>
   <v>       0.33333333      0.00000000      0.00000000</v>
   <v>       0.41666667      0.00000000      0.00000000</v>
   <v>       0.50000000      0.00000000      0.00000000</v>
   <v>       0.00000000      0.08333333      0.00000000</v>
   <v>       0.08333333      0.08333333      0.00000000</v>
   <v>       0.16666667      0.08333333      0.00000000</v>
   <v>       0.25000000      0.08333333      0.00000000</v>
   <v>       0.33333333      0.08333333      0.00000000</v>
   <v>       0.41666667      0.08333333      0.00000000</v>
   <v>       0.50000000      0.08333333      0.00000000</v>
   <v>       0.00000000      0.16666667      0.00000000</v>
   <v>       0.08333333      0.16666667      0.00000000</v>
   <v>       0.16666667      0.16666667      0.00000000</v>
   <v>       0.25000000      0.16666667      0.00000000</v>
   <v>       0.33333333      0.16666667      0.00000000</v>
   <v>       0.41666667      0.16666667      0.00000000</v>
   <v>       0.50000000      0.16666667      0.00000000</v>
   <v>       0.00000000      0.25000000      0.00000000</v>
   <v>       0.08333333      0.25000000      0.00000000</v>
   <v>       0.16666667      0.25000000      0.00000000</v>
   <v>       0.25000000      0.25000000      0.00000000</v>
   <v>       0.33333333      0.25000000      0.00000000</v>
   <v>       0.41666667      0.25000000      0.00000000</v>
   <v>       0.50000000      0.25000000      0.00000000</v>
   <v>       0.00000000      0.33333333      0.00000000</v>
   <v>       0.08333333      0.33333333      0.00000000</v>
   <v>       0.16666667      0.33333333      0.00000000</v>
   <v>       0.25000000      0.33333333      0.00000000</v>
   <v>       0.33333333      0.33333333      0.00000000</v>
   <v>       0.41666667      0.33333333      0.00000000</v>
   <v>       0.50000000      0.33333333      0.00000000</v>
   <v>       0.00000000      0.41666667      0.00000000</v>
   <v>       0.08333333      0.41666667      0.00000000</v>
   <v>       0.16666667      0.41666667      0.00000000</v>
   <v>       0.25000000      0.41666667      0.00000000</v>
   <v>       0.33333333      0.41666667      0.00000000</v>
   <v>       0.41666667      0.41666667      0.00000000</v>
   <v>       0.50000000      0.41666667      0.00000000</v>
   <v>       0.00000000      0.50000000      0.00000000</v>
   <v>       0.08333333      0.50000000      0.00000000</v>
   <v>       0.16666667      0.50000000      0.00000000</v>
   <v>       0.25000000      0.50000000      0.00000000</v>
   <v>       0.33333333      0.50000000      0.00000000</v>
   <v>       0.41666667      0.50000000      0.00000000</v>
   <v>       0.50000000      0.50000000      0.00000000</v>
   <v>       0.00000000      0.08333333      0.08333333</v>
   <v>       0.08333333      0.08333333      0.08333333</v>
   <v>       0.16666667      0.08333333      0.08333333</v>
   <v>       0.25000000      0.08333333      0.08333333</v>
   <v>       0.33333333      0.08333333      0.08333333</v>
   <v>       0.41666667      0.08333333      0.08333333</v>
   <v>       0.50000000      0.08333333      0.08333333</v>
   <v>       0.00000000      0.16666667      0.08333333</v>
   <v>       0.08333333      0.16666667      0.08333333</v>
   <v>       0.16666667      0.16666667      0.08333333</v>
   <v>       0.25000000      0.16666667      0.08333333</v>
   <v>       0.33333333      0.16666667      0.08333333</v>
   <v>       0.41666667      0.16666667      0.08333333</v>
   <v>       0.50000000      0.16666667      0.08333333</v>
   <v>       0.00000000      0.25000000      0.08333333</v>
   <v>       0.08333333      0.25000000      0.08333333</v>
   <v>       0.16666667      0.25000000      0.08333333</v>
   <v>       0.25000000      0.25000000      0.08333333</v>
   <v>       0.33333333      0.25000000      0.08333333</v>
   <v>       0.41666667      0.25000000      0.08333333</v>
   <v>       0.50000000      0.25000000      0.08333333</v>
   <v>       0.00000000      0.33333333      0.08333333</v>
   <v>       0.08333333      0.33333333      0.08333333</v>
   <v>       0.16666667      0.33333333      0.08333333</v>
   <v>       0.25000000      0.33333333      0.08333333</v>
   <v>       0.33333333      0.33333333      0.08333333</v>
   <v>       0.41666667      0.33333333      0.08333333</v>
   <v>       0.50000000      0.33333333      0.08333333</v>
   <v>       0.00000000      0.41666667      0.08333333</v>
   <v>       0.08333333      0.41666667      0.08333333</v>
   <v>       0.16666667      0.41666667      0.08333333</v>
   <v>       0.25000000      0.41666667      0.08333333</v>
   <v>       0.33333333      0.41666667      0.08333333</v>
   <v>       0.41666667      0.41666667      0.08333333</v>
   <v>       0.50000000      0.41666667      0.08333333</v>
   <v>       0.00000000      0.50000000      0.08333333</v>
   <v>       0.08333333      0.50000000      0.08333333</v>
   <v>       0.16666667      0.50000000      0.08333333</v>
   <v>       0.25000000      0.50000000      0.08333333</v>
   <v>       0.33333333      0.50000000      0.08333333</v>
   <v>       0.41666667      0.50000000      0.08333333</v>
   <v>       0.50000000      0.50000000      0.08333333</v>
   <v>       0.00000000      0.16666667      0.16666667</v>
   <v>       0.08333333      0.16666667      0.16666667</v>
   <v>       0.16666667      0.16666667      0.16666667</v>
   <v>       0.25000000      0.16666667      0.16666667</v>
   <v>       0.33333333      0.16666667      0.16666667</v>
   <v>       0.41666667      0.16666667      0.16666667</v>
   <v>       0.50000000      0.16666667      0.16666667</v>
   <v>       0.00000000      0.25000000      0.16666667</v>
   <v>       0.08333333      0.25000000      0.16666667</v>
   <v>       0.16666667      0.25000000      0.16666667</v>
   <v>       0.25000000      0.25000000      0.16666667</v>
   <v>       0.33333333      0.25000000      0.16666667</v>
   <v>       0.41666667      0.25000000      0.16666667</v>
   <v>       0.50000000      0.25000000      0.16666667</v>
   <v>       0.00000000      0.33333333      0.16666667</v>
   <v>       0.08333333      0.33333333      0.16666667</v>
   <v>       0.16666667      0.33333333      0.16666667</v>
   <v>       0.25000000      0.33333333      0.16666667</v>
   <v>       0.33333333      0.33333333      0.16666667</v>
   <v>       0.41666667      0.33333333      0.16666667</v>
   <v>       0.50000000      0.33333333      0.16666667</v>
   <v>       0.00000000      0.41666667      0.16666667</v>
   <v>       0.08333333      0.41666667      0.16666667</v>
   <v>       0.16666667      0.41666667      0.16666667</v>
   <v>       0.25000000      0.41666667      0.16666667</v>
   <v>       0.33333333      0.41666667      0.16666667</v>
   <v>       0.41666667      0.41666667      0.16666667</v>
   <v>       0.50000000      0.41666667      0.16666667</v>
   <v>       0.00000000      0.50000000      0.16666667</v>
   <v>       0.08333333      0.50000000      0.16666667</v>
   <v>       0.16666667      0.50000000      0.16666667</v>
   <v>       0.25000000      0.50000000      0.16666667</v>
   <v>       0.33333333      0.50000000      0.16666667</v>
   <v>       0.41666667      0.50000000      0.16666667</v>
   <v>       0.50000000      0.50000000      0.16666667</v>
   <v>       0.00000000      0.25000000      0.25000000</v>
   <v>       0.08333333      0.25000000      0.25000000</v>
   <v>       0.16666667      0.25000000      0.25000000</v>
   <v>       0.25000000      0.25000000      0.25000000</v>
   <v>       0.33333333      0.25000000      0.25000000</v>
   <v>       0.41666667      0.25000000      0.25000000</v>
   <v>       0.50000000      0.25000000      0.25000000</v>
   <v>       0.00000000      0.33333333      0.25000000</v>
   <v>       0.08333333      0.33333333      0.25000000</v>
   <v>       0.16666667      0.33333333      0.25000000</v>
   <v>       0.25000000      0.33333333      0.25000000</v>
   <v>       0.33333333      0.33333333      0.25000000</v>
   <v>       0.41666667      0.33333333      0.25000000</v>
   <v>       0.50000000      0.33333333      0.25000000</v>
   <v>       0.00000000      0.41666667      0.25000000</v>
   <v>       0.08333333      0.41666667      0.25000000</v>
   <v>       0.16666667      0.41666667      0.25000000</v>
   <v>       0.25000000      0.41666667      0.25000000</v>
   <v>       0.33333333      0.41666667      0.25000000</v>
   <v>       0.41666667      0.41666667      0.25000000</v>
   <v>       0.50000000      0.41666667      0.25000000</v>
   <v>       0.00000000      0.50000000      0.25000000</v>
   <v>       0.08333333      0.50000000      0.25000000</v>
   <v>       0.16666667      0.50000000      0.25000000</v>
   <v>       0.25000000      0.50000000      0.25000000</v>
   <v>       0.33333333      0.50000000      0.25000000</v>
   <v>       0.41666667      0.50000000      0.25000000</v>
   <v>       0.50000000      0.50000000      0.25000000</v>
   <v>       0.00000000      0.33333333      0.33333333</v>
   <v>       0.08333333      0.33333333      0.33333333</v>
   <v>       0.16666667      0.33333333      0.33333333</v>
   <v>       0.25000000      0.33333333      0.33333333</v>
   <v>       0.33333333      0.33333333      0.33333333</v>
   <v>       0.41666667      0.33333333      0.33333333</v>
   <v>       0.50000000      0.33333333      0.33333333</v>
   <v>       0.00000000      0.41666667      0.33333333</v>
   <v>       0.08333333      0.41666667      0.33333333</v>
   <v>       0.16666667      0.41666667      0.33333333</v>
   <v>       0.25000000      0.41666667      0.33333333</v>
   <v>       0.33333333      0.41666667      0.33333333</v>
   <v>       0.41666667      0.41666667      0.33333333</v>
   <v>       0.50000000      0.41666667      0.33333333</v>
   <v>       0.00000000      0.50000000      0.33333333</v>
   <v>       0.08333333      0.50000000      0.33333333</v>
   <v>       0.16666667      0.50000000      0.33333333</v>
   <v>       0.25000000      0.50000000      0.33333333</v>
   <v>       0.33333333      0.50000000      0.33333333</v>
   <v>       0.41666667      0.50000000      0.33333333</v>
   <v>       0.50000000      0.50000000      0.33333333</v>
   <v>       0.00000000      0.41666667      0.41666667</v>
   <v>       0.08333333      0.41666667      0.41666667</v>
   <v>       0.16666667      0.41666667      0.41666667</v>
   <v>       0.25000000      0.41666667      0.41666667</v>
   <v>       0.33333333      0.41666667      0.41666667</v>
   <v>       0.41666667      0.41666667      0.41666667</v>
   <v>       0.50000000      0.41666667      0.41666667</v>
   <v>       0.00000000      0.50000000      0.41666667</v>
   <v>       0.08333333      0.50000000      0.41666667</v>
   <v>       0.16666667      0.50000000      0.41666667</v>
   <v>       0.25000000      0.50000000      0.41666667</v>
   <v>       0.33333333      0.50000000      0.41666667</v>
   <v>       0.41666667      0.50000000      0.41666667</v>
   <v>       0.50000000      0.50000000      0.41666667</v>
   <v>       0.00000000      0.50000000      0.50000000</v>
   <v>       0.08333333      0.50000000      0.50000000</v>
   <v>       0.16666667      0.50000000      0.50000000</v>
   <v>       0.25000000      0.50000000      0.50000000</v>
   <v>       0.33333333      0.50000000      0.50000000</v>
   <v>       0.41666667      0.50000000      0.50000000</v>
   <v>       0.50000000      0.50000000      0.50000000</v>
  </varray>
  <varray name="weights" >
   <v>       0.00057870</v>
   <v>       0.00115741</v>
   <v>       0.00115741</v>
   <v>       0.00115741</v>
   <v>       0.00115741</v>
   <v>       0.00115741</v>
   <v>       0.00057870</v>
   <v>       0.00231481</v>
   <v>       0.00462963</v>
   <v>       0.00462963</v>
   <v>       0.00462963</v>
   <v>       0.00462963</v>
   <v>       0.00462963</v>
   <v>       0.00231481</v>
   <v>       0.00231481</v>
   <v>       0.00462963</v>
   <v>       0.00462963</v>
   <v>       0.00462963</v>
   <v>       0.00462963</v>
   <v>       0.00462963</v>
   <v>       0.00231481</v>
   <v>       0.00231481</v>
   <v>       0.00462963</v>
   <v>       0.00462963</v>
   <v>       0.00462963</v>
   <v>       0.00462963</v>
   <v>       0.00462963</v>
   <v>       0.00231481</v>
   <v>       0.00231481</v>
   <v>       0.00462963</v>
   <v>       0.00462963</v>
   <v>       0.00462963</v>
   <v>       0.00462963</v>
   <v>       0.00462963</v>
   <v>       0.00231481</v>
   <v>       0.00231481</v>
   <v>       0.00462963</v>
   <v>       0.00462963</v>
   <v>       0.00462963</v>
   <v>       0.00462963</v>
   <v>       0.00462963</v>
   <v>       0.00231481</v>
   <v>       0.00115741</v>
   <v>       0.00231481</v>
   <v>       0.00231481</v>
   <v>       0.00231481</v>
   <v>       0.00231481</v>
   <v>       0.00231481</v>
   <v>       0.00115741</v>
   <v>       0.00231481</v>
   <v>       0.00462963</v>
   <v>       0.00462963</v>
   <v>       0.00462963</v>
   <v>       0.00462963</v>
   <v>       0.00462963</v>
   <v>       0.00231481</v>
   <v>       0.00462963</v>
   <v>       0.00925926</v>
   <v>       0.00925926</v>
   <v>       0.00925926</v>
   <v>       0.00925926</v>
   <v>       0.00925926</v>
   <v>       0.00462963</v>
   <v>       0.00462963</v>
   <v>       0.00925926</v>
   <v>       0.00925926</v>
   <v>       0.00925926</v>
   <v>       0.00925926</v>
   <v>       0.00925926</v>
   <v>       0.00462963</v>
   <v>       0.00462963</v>
   <v>       0.00925926</v>
   <v>       0.00925926</v>
   <v>       0.00925926</v>
   <v>       0.00925926</v>
   <v>       0.00925926</v>
   <v>       0.00462963</v>
   <v>       0.00462963</v>
   <v>       0.00925926</v>
   <v>       0.00925926</v>
   <v>       0.00925926</v>
   <v>       0.00925926</v>
   <v>       0.00925926</v>
   <v>       0.00462963</v>
   <v>       0.00231481</v>
   <v>       0.00462963</v>
   <v>       0.00462963</v>
   <v>       0.00462963</v>
   <v>       0.00462963</v>
   <v>       0.00462963</v>
   <v>       0.00231481</v>
   <v>       0.00231481</v>
   <v>       0.00462963</v>
   <v>       0.00462963</v>
   <v>       0.00462963</v>
   <v>       0.00462963</v>
   <v>       0.00462963</v>
   <v>       0.00231481</v>
   <v>       0.00462963</v>
   <v>       0.00925926</v>
   <v>       0.00925926</v>
   <v>       0.00925926</v>
   <v>       0.00925926</v>
   <v>       0.00925926</v>
   <v>       0.00462963</v>
   <v>       0.00462963</v>
   <v>       0.00925926</v>
   <v>       0.00925926</v>
   <v>       0.00925926</v>
   <v>       0.00925926</v>
   <v>       0.00925926</v>
   <v>       0.00462963</v>
   <v>       0.00462963</v>
   <v>       0.00925926</v>
   <v>       0.00925926</v>
   <v>       0.00925926</v>
   <v>       0.00925926</v>
   <v>       0.00925926</v>
   <v>       0.00462963</v>
   <v>       0.00231481</v>
   <v>       0.00462963</v>
   <v>       0.00462963</v>
   <v>       0.00462963</v>
   <v>       0.00462963</v>
   <v>       0.00462963</v>
   <v>       0.00231481</v>
   <v>       0.00231481</v>
   <v>       0.00462963</v>
   <v>       0.00462963</v>
   <v>       0.00462963</v>
   <v>       0.00462963</v>
   <v>       0.00462963</v>
   <v>       0.00231481</v>
   <v>       0.00462963</v>
   <v>       0.00925926</v>
   <v>       0.00925926</v>
   <v>       0.00925926</v>
   <v>       0.00925926</v>
   <v>       0.00925926</v>
   <v>       0.00462963</v>
   <v>       0.00462963</v>
   <v>       0.00925926</v>
   <v>       0.00925926</v>
   <v>       0.00925926</v>
   <v>       0.00925926</v>
   <v>       0.00925926</v>
   <v>       0.00462963</v>
   <v>       0.00231481</v>
   <v>       0.00462963</v>
   <v>       0.00462963</v>
   <v>       0.00462963</v>
   <v>       0.00462963</v>
   <v>       0.00462963</v>
   <v>       0.00231481</v>
   <v>       0.00231481</v>
   <v>       0.00462963</v>
   <v>       0.00462963</v>
   <v>       0.00462963</v>
   <v>       0.00462963</v>
   <v>       0.00462963</v>
   <v>       0.00231481</v>
   <v>       0.00462963</v>
   <v>       0.00925926</v>
   <v>       0.00925926</v>
   <v>       0.00925926</v>
   <v>       0.00925926</v>
   <v>       0.00925926</v>
   <v>       0.00462963</v>
   <v>       0.00231481</v>
   <v>       0.00462963</v>
   <v>       0.00462963</v>
   <v>       0.00462963</v>
   <v>       0.00462963</v>
   <v>       0.00462963</v>
   <v>       0.00231481</v>
   <v>       0.00231481</v>
   <v>       0.00462963</v>
   <v>       0.00462963</v>
   <v>       0.00462963</v>
   <v>       0.00462963</v>
   <v>       0.00462963</v>
   <v>       0.00231481</v>
   <v>       0.00231481</v>
   <v>       0.00462963</v>
   <v>       0.00462963</v>
   <v>       0.00462963</v>
   <v>       0.00462963</v>
   <v>       0.00462963</v>
   <v>       0.00231481</v>
   <v>       0.00057870</v>
   <v>       0.00115741</v>
   <v>       0.00115741</v>
   <v>       0.00115741</v>
   <v>       0.00115741</v>
   <v>       0.00115741</v>
   <v>       0.00057870</v>
  </varray>
 </kpoints>
 <parameters>
  <separator name="general" >
   <i type="string" name="SYSTEM">unknown system</i>
   <i type="logical" name="LCOMPAT"> F  </i>
  </separator>
  <separator name="electronic" >
   <i type="string" name="PREC">accura</i>
   <i name="ENMAX">    750.00000000</i>
   <i name="ENAUG">    412.49600000</i>
   <i name="EDIFF">      0.00000001</i>
   <i type="int" name="IALGO">    38</i>
   <i type="int" name="IWAVPR">    10</i>
   <i type="int" name="NBANDS">   211</i>
   <i name="NELECT">    352.00000000</i>
   <separator name="electronic smearing" >
    <i type="int" name="ISMEAR">     0</i>
    <i name="SIGMA">      0.01000000</i>
   </separator>
   <separator name="electronic projectors" >
    <i type="logical" name="LREAL"> F  </i>
    <v name="ROPT">      0.00000000</v>
    <i type="int" name="LMAXPAW">  -100</i>
    <i type="int" name="LMAXMIX">     2</i>
   </separator>
   <separator name="electronic startup" >
    <i type="int" name="ISTART">     0</i>
    <i type="int" name="ICHARG">     2</i>
    <i type="int" name="INIWAV">     1</i>
   </separator>
   <separator name="electronic spin" >
    <i type="int" name="ISPIN">     1</i>
    <i type="logical" name="LNONCOLLINEAR"> F  </i>
    <v name="MAGMOM">      1.00000000      1.00000000      1.00000000      1.00000000      1.00000000      1.00000000      1.00000000      1.00000000      1.00000000      1.00000000      1.00000000      1.00000000      1.00000000      1.00000000      1.00000000      1.00000000      1.00000000      1.00000000      1.00000000      1.00000000
      1.00000000      1.00000000      1.00000000      1.00000000      1.00000000      1.00000000      1.00000000      1.00000000      1.00000000      1.00000000      1.00000000      1.00000000</v>
    <i name="NUPDOWN">     -1.00000000</i>
    <i type="logical" name="LSORBIT"> F  </i>
    <v name="SAXIS">      0.00000000      0.00000000      1.00000000</v>
    <i type="logical" name="LSPIRAL"> F  </i>
    <v name="QSPIRAL">      0.00000000      0.00000000      0.00000000</v>
    <i type="logical" name="LZEROZ"> F  </i>
   </separator>
   <separator name="electronic exchange-correlation" >
    <i type="string" name="GGA">--</i>
    <i type="int" name="VOSKOWN">     0</i>
    <i type="logical" name="LASPH"> F  </i>
    <i type="logical" name="LMETAGGA"> F  </i>
    <i type="string" name="GGA2">--</i>
   </separator>
   <separator name="electronic convergence" >
    <i type="int" name="NELM">    60</i>
    <i type="int" name="NELMDL">    -5</i>
    <i type="int" name="NELMIN">     2</i>
    <i name="ENINI">    750.00000000</i>
    <separator name="electronic convergence detail" >
     <i type="logical" name="LDIAG"> T  </i>
     <i name="WEIMIN">      0.00000000</i>
     <i name="EBREAK">      0.00000000</i>
     <i name="DEPER">      0.30000000</i>
     <i type="int" name="NRMM">     4</i>
     <i name="TIME">      0.10000000</i>
    </separator>
   </separator>
   <separator name="electronic mixer" >
    <i name="AMIX">      0.40000000</i>
    <i name="BMIX">      1.00000000</i>
    <i name="AMIN">      0.10000000</i>
    <i name="AMIX_MAG">      1.60000000</i>
    <i name="BMIX_MAG">      1.00000000</i>
    <separator name="electronic mixer details" >
     <i type="int" name="IMIX">     4</i>
     <i type="int" name="MAXMIX">   -45</i>
     <i name="WC">    100.00000000</i>
     <i type="int" name="INIMIX">     1</i>
     <i type="int" name="MIXPRE">     1</i>
     <i type="int" name="MREMOVE">     5</i>
    </separator>
   </separator>
   <separator name="electronic dipolcorrection" >
    <i type="int" name="IDIPOL">     0</i>
    <i type="logical" name="LDIPOL"> F  </i>
    <v name="DIPOL">   -100.00000000</v>
    <i name="EFIELD">      0.00000000</i>
   </separator>
  </separator>
  <separator name="grids" >
   <i type="int" name="NGX">    72</i>
   <i type="int" name="NGY">    72</i>
   <i type="int" name="NGZ">    72</i>
   <i type="int" name="NGXF">   144</i>
   <i type="int" name="NGYF">   144</i>
   <i type="int" name="NGZF">   144</i>
   <i type="logical" name="ADDGRID"> T  </i>
  </separator>
  <separator name="ionic" >
   <i type="int" name="NSW">     0</i>
   <i type="int" name="IBRION">    -1</i>
   <i type="int" name="ISIF">     2</i>
   <i name="PSTRESS">      0.00000000</i>
   <i name="EDIFFG">      0.00000010</i>
   <i type="int" name="NFREE">     0</i>
   <i name="POTIM">      0.50000000</i>
   <i name="SMASS">     -3.00000000</i>
  </separator>
  <separator name="ionic md" >
   <i name="TEBEG">      0.00010000</i>
   <i name="TEEND">      0.00010000</i>
   <i type="int" name="NBLOCK">     1</i>
   <i type="int" name="KBLOCK">     1</i>
   <i type="int" name="NPACO">   256</i>
   <i name="APACO">     16.00000000</i>
  </separator>
  <separator name="symmetry" >
   <i type="int" name="ISYM">     2</i>
   <i name="SYMPREC">      0.00001000</i>
  </separator>
  <separator name="dos" >
   <i type="logical" name="LORBIT"> F  </i>
   <v name="RWIGS">     -1.00000000</v>
   <i type="int" name="NEDOS">   301</i>
   <i name="EMIN">     10.00000000</i>
   <i name="EMAX">    -10.00000000</i>
  </separator>
  <separator name="writing" >
   <i type="int" name="NWRITE">     2</i>
   <i type="logical" name="LWAVE"> F  </i>
   <i type="logical" name="LCHARG"> F  </i>
   <i type="logical" name="LPARD"> F  </i>
   <i type="logical" name="LVTOT"> F  </i>
   <i type="logical" name="LELF"> F  </i>
   <i type="logical" name="LOPTICS"> F  </i>
   <i name="STM">      0.00000000</i>
  </separator>
  <separator name="performance" >
   <i type="int" name="NPAR">     4</i>
   <i type="int" name="NSIM">     4</i>
   <i type="int" name="NBLK">   256</i>
   <i type="logical" name="LPLANE"> T  </i>
   <i type="logical" name="LCRITICAL_MEM"> F  </i>
   <i type="logical" name="LSCALAPACK"> F  </i>
   <i type="logical" name="LSCALU"> F  </i>
   <i type="logical" name="LASYNC"> F  </i>
  </separator>
  <separator name="miscellaneous" >
   <i type="int" name="IDIOT">     3</i>
   <i type="logical" name="LMUSIC"> F  </i>
   <v name="POMASS">    107.86800000</v>
   <i type="logical" name="LCORR"> T  </i>
  </separator>
  <i type="logical" name="LREAL_COMPAT"> F  </i>
  <i type="logical" name="GGA_COMPAT"> T  </i>
  <i type="logical" name="LBERRY"> F  </i>
  <i type="int" name="ICORELEVEL">     0</i>
  <i type="logical" name="LDAU"> F  </i>
  <i type="int" name="I_CONSTRAINED_M">     0</i>
 </parameters>
 <atominfo>
  <atoms>      32</atoms>
  <types>       1</types>
  <array name="atoms" >
   <dimension dim="1">ion</dimension>
   <field type="string">element</field>
   <field type="int">atomtype</field>
   <set>
    <rc><c>Ag</c><c>   1</c></rc>
    <rc><c>Ag</c><c>   1</c></rc>
    <rc><c>Ag</c><c>   1</c></rc>
    <rc><c>Ag</c><c>   1</c></rc>
    <rc><c>Ag</c><c>   1</c></rc>
    <rc><c>Ag</c><c>   1</c></rc>
    <rc><c>Ag</c><c>   1</c></rc>
    <rc><c>Ag</c><c>   1</c></rc>
    <rc><c>Ag</c><c>   1</c></rc>
    <rc><c>Ag</c><c>   1</c></rc>
    <rc><c>Ag</c><c>   1</c></rc>
    <rc><c>Ag</c><c>   1</c></rc>
    <rc><c>Ag</c><c>   1</c></rc>
    <rc><c>Ag</c><c>   1</c></rc>
    <rc><c>Ag</c><c>   1</c></rc>
    <rc><c>Ag</c><c>   1</c></rc>
    <rc><c>Ag</c><c>   1</c></rc>
    <rc><c>Ag</c><c>   1</c></rc>
    <rc><c>Ag</c><c>   1</c></rc>
    <rc><c>Ag</c><c>   1</c></rc>
    <rc><c>Ag</c><c>   1</c></rc>
    <rc><c>Ag</c><c>   1</c></rc>
    <rc><c>Ag</c><c>   1</c></rc>
    <rc><c>Ag</c><c>   1</c></rc>
    <rc><c>Ag</c><c>   1</c></rc>
    <rc><c>Ag</c><c>   1</c></rc>
    <rc><c>Ag</c><c>   1</c></rc>
    <rc><c>Ag</c><c>   1</c></rc>
    <rc><c>Ag</c><c>   1</c></rc>
    <rc><c>Ag</c><c>   1</c></rc>
    <rc><c>Ag</c><c>   1</c></rc>
    <rc><c>Ag</c><c>   1</c></rc>
   </set>
  </array>
  <array name="atomtypes" >
   <dimension dim="1">type</dimension>
   <field type="int">atomspertype</field>
   <field type="string">element</field>
   <field>mass</field>
   <field>valence</field>
   <field type="string">pseudopotential</field>
   <set>
    <rc><c>  32</c><c>Ag</c><c>    107.86800000</c><c>     11.00000000</c><c> PAW_PBE Ag 06Sep2000                   </c></rc>
   </set>
  </array>
 </atominfo>
 <structure name="initialpos" >
  <crystal>
   <varray name="basis" >
    <v>       7.91012709      0.00000000      0.00000000</v>
    <v>       0.00000000      7.91012709      0.00000000</v>
    <v>       0.00000000      0.00000000      7.91012709</v>
   </varray>
   <i name="volume">    494.93752580</i>
   <varray name="rec_basis" >
    <v>       0.12642022      0.00000000      0.00000000</v>
    <v>       0.00000000      0.12642022      0.00000000</v>
    <v>       0.00000000      0.00000000      0.12642022</v>
   </varray>
  </crystal>
  <varray name="positions" >
   <v>       0.00126420      0.00000000      0.00000000</v>
   <v>       0.50000000      0.00000000      0.00000000</v>
   <v>       0.00000000      0.50000000      0.00000000</v>
   <v>       0.50000000      0.50000000      0.00000000</v>
   <v>       0.00000000      0.00000000      0.50000000</v>
   <v>       0.50000000      0.00000000      0.50000000</v>
   <v>       0.00000000      0.50000000      0.50000000</v>
   <v>       0.50000000      0.50000000      0.50000000</v>
   <v>       0.25000000      0.25000000      0.00000000</v>
   <v>       0.75000000      0.25000000      0.00000000</v>
   <v>       0.25000000      0.75000000      0.00000000</v>
   <v>       0.75000000      0.75000000      0.00000000</v>
   <v>       0.25000000      0.25000000      0.50000000</v>
   <v>       0.75000000      0.25000000      0.50000000</v>
   <v>       0.25000000      0.75000000      0.50000000</v>
   <v>       0.75000000      0.75000000      0.50000000</v>
   <v>       0.25000000      0.00000000      0.25000000</v>
   <v>       0.75000000      0.00000000      0.25000000</v>
   <v>       0.25000000      0.50000000      0.25000000</v>
   <v>       0.75000000      0.50000000      0.25000000</v>
   <v>       0.25000000      0.00000000      0.75000000</v>
   <v>       0.75000000      0.00000000      0.75000000</v>
   <v>       0.25000000      0.50000000      0.75000000</v>
   <v>       0.75000000      0.50000000      0.75000000</v>
   <v>       0.00000000      0.25000000      0.25000000</v>
   <v>       0.50000000      0.25000000      0.25000000</v>
   <v>       0.00000000      0.75000000      0.25000000</v>
   <v>       0.50000000      0.75000000      0.25000000</v>
   <v>       0.00000000      0.25000000      0.75000000</v>
   <v>       0.50000000      0.25000000      0.75000000</v>
   <v>       0.00000000      0.75000000      0.75000000</v>
   <v>       0.50000000      0.75000000      0.75000000</v>
  </varray>
 </structure>
 <calculation>
  <scstep>
   <time name="dav"> 1933.98 1999.35</time>
   <time name="total"> 1937.22 2003.85</time>
   <energy>
    <i name="alphaZ">   3673.99042332</i>
    <i name="ewald"> -32317.21892492</i>
    <i name="hartreedc">  -6004.23655008</i>
    <i name="XCdc">   -333.04175355</i>
    <i name="pawpsdc">  27861.41421209</i>
    <i name="pawaedc"> -26376.63839568</i>
    <i name="eentropy">     -0.00053340</i>
    <i name="bandstr">   4831.23729295</i>
    <i name="atom">  33197.19690173</i>
    <i name="e_fr_energy">   4532.70267246</i>
    <i name="e_wo_entrp">   4532.70320586</i>
    <i name="e_0_energy">   4532.70293916</i>
   </energy>
  </scstep>
  <scstep>
   <time name="dav"> 4494.12 8217.95</time>
   <time name="total"> 4495.08 8239.28</time>
   <energy>
    <i name="e_fr_energy">    153.20929019</i>
    <i name="e_wo_entrp">    153.20979925</i>
    <i name="e_0_energy">    153.20954472</i>
   </energy>
  </scstep>
  <scstep>
   <time name="dav"> 2130.05 2925.59</time>
   <time name="total"> 2130.29 2926.04</time>
   <energy>
    <i name="e_fr_energy">    -89.17947066</i>
    <i name="e_wo_entrp">    -89.17893103</i>
    <i name="e_0_energy">    -89.17920085</i>
   </energy>
  </scstep>
  <scstep>
   <time name="dav"> 2069.79 2431.98</time>
   <time name="total"> 2071.59 2434.67</time>
   <energy>
    <i name="e_fr_energy">    -94.17750239</i>
    <i name="e_wo_entrp">    -94.17697347</i>
    <i name="e_0_energy">    -94.17723793</i>
   </energy>
  </scstep>
  <scstep>
   <time name="dav"> 2081.29 2612.26</time>
   <time name="total"> 2245.26 6806.34</time>
   <energy>
    <i name="e_fr_energy">    -94.20358734</i>
    <i name="e_wo_entrp">    -94.20305910</i>
    <i name="e_0_energy">    -94.20332322</i>
   </energy>
  </scstep>
  <scstep>
   <time name="dav"> 4608.78 8902.53</time>
   <time name="total"> 4666.92 9059.74</time>
   <energy>
    <i name="e_fr_energy">    -86.33775518</i>
    <i name="e_wo_entrp">    -86.33677289</i>
    <i name="e_0_energy">    -86.33726403</i>
   </energy>
  </scstep>
  <scstep>
   <time name="dav"> 1982.39 2792.73</time>
   <time name="total"> 2058.93 2869.25</time>
   <energy>
    <i name="e_fr_energy">    -85.96212611</i>
    <i name="e_wo_entrp">    -85.96113555</i>
    <i name="e_0_energy">    -85.96163083</i>
   </energy>
  </scstep>
  <scstep>
   <time name="dav"> 1849.34 1859.19</time>
   <time name="total"> 1945.90 1958.04</time>
   <energy>
    <i name="e_fr_energy">    -85.82287779</i>
    <i name="e_wo_entrp">    -85.82189621</i>
    <i name="e_0_energy">    -85.82238700</i>
   </energy>
  </scstep>
  <scstep>
   <time name="dav"> 2543.51 2564.72</time>
   <time name="total"> 2655.93 2677.13</time>
   <energy>
    <i name="e_fr_energy">    -85.82356648</i>
    <i name="e_wo_entrp">    -85.82260046</i>
    <i name="e_0_energy">    -85.82308347</i>
   </energy>
  </scstep>
  <scstep>
   <time name="dav"> 2604.29 2607.97</time>
   <time name="total"> 2705.86 2712.04</time>
   <energy>
    <i name="e_fr_energy">    -85.82340721</i>
    <i name="e_wo_entrp">    -85.82243858</i>
    <i name="e_0_energy">    -85.82292290</i>
   </energy>
  </scstep>
  <scstep>
   <time name="dav"> 2461.48 2579.24</time>
   <time name="total"> 2574.33 2701.37</time>
   <energy>
    <i name="e_fr_energy">    -85.82339990</i>
    <i name="e_wo_entrp">    -85.82243094</i>
    <i name="e_0_energy">    -85.82291542</i>
   </energy>
  </scstep>
  <scstep>
   <time name="dav"> 2462.94 2594.32</time>
   <time name="total"> 2573.74 2710.12</time>
   <energy>
    <i name="e_fr_energy">    -85.82339742</i>
    <i name="e_wo_entrp">    -85.82242830</i>
    <i name="e_0_energy">    -85.82291286</i>
   </energy>
  </scstep>
  <scstep>
   <time name="dav"> 2343.12 2545.30</time>
   <time name="total"> 2455.67 2665.58</time>
   <energy>
    <i name="e_fr_energy">    -85.82339490</i>
    <i name="e_wo_entrp">    -85.82242570</i>
    <i name="e_0_energy">    -85.82291030</i>
   </energy>
  </scstep>
  <scstep>
   <time name="dav"> 1549.99 1715.06</time>
   <time name="total"> 1670.97 1839.96</time>
   <energy>
    <i name="e_fr_energy">    -85.82339445</i>
    <i name="e_wo_entrp">    -85.82242525</i>
    <i name="e_0_energy">    -85.82290985</i>
   </energy>
  </scstep>
  <scstep>
   <time name="dav"> 1486.78 1643.46</time>
   <time name="total"> 1582.47 1761.50</time>
   <energy>
    <i name="e_fr_energy">    -85.82339430</i>
    <i name="e_wo_entrp">    -85.82242509</i>
    <i name="e_0_energy">    -85.82290969</i>
   </energy>
  </scstep>
  <scstep>
   <time name="dav"> 1624.17 2214.27</time>
   <time name="total"> 2099.73 3692.23</time>
   <energy>
    <i name="e_fr_energy">    -85.82339425</i>
    <i name="e_wo_entrp">    -85.82242505</i>
    <i name="e_0_energy">    -85.82290965</i>
   </energy>
  </scstep>
  <scstep>
   <time name="dav"> 1750.49 2460.47</time>
   <time name="total"> 1858.88 3586.07</time>
   <energy>
    <i name="e_fr_energy">    -85.82339421</i>
    <i name="e_wo_entrp">    -85.82242501</i>
    <i name="e_0_energy">    -85.82290961</i>
   </energy>
  </scstep>
  <scstep>
   <time name="dav"> 2024.76 3591.49</time>
   <time name="total"> 2034.90 3621.26</time>
   <energy>
    <i name="alphaZ">   3673.99042332</i>
    <i name="ewald"> -32317.21892492</i>
    <i name="hartreedc">  -5598.46610030</i>
    <i name="XCdc">   -347.56738611</i>
    <i name="pawpsdc">  28176.75877444</i>
    <i name="pawaedc"> -26787.45004847</i>
    <i name="eentropy">     -0.00096920</i>
    <i name="bandstr">    -83.06606469</i>
    <i name="atom">  33197.19690173</i>
    <i name="e_fr_energy">    -85.82339420</i>
    <i name="e_wo_entrp">    -85.82242500</i>
    <i name="e_0_energy">    -85.82290960</i>
   </energy>
  </scstep>
  <structure>
   <crystal>
    <varray name="basis" >
     <v>       7.91012709      0.00000000      0.00000000</v>
     <v>       0.00000000      7.91012709      0.00000000</v>
     <v>       0.00000000      0.00000000      7.91012709</v>
    </varray>
    <i name="volume">    494.93752580</i>
    <varray name="rec_basis" >
     <v>       0.12642022      0.00000000      0.00000000</v>
     <v>       0.00000000      0.12642022      0.00000000</v>
     <v>       0.00000000      0.00000000      0.12642022</v>
    </varray>
   </crystal>
   <varray name="positions" >
    <v>       0.00126420      0.00000000      0.00000000</v>
    <v>       0.50000000      0.00000000      0.00000000</v>
    <v>       0.00000000      0.50000000      0.00000000</v>
    <v>       0.50000000      0.50000000      0.00000000</v>
    <v>       0.00000000      0.00000000      0.50000000</v>
    <v>       0.50000000      0.00000000      0.50000000</v>
    <v>       0.00000000      0.50000000      0.50000000</v>
    <v>       0.50000000      0.50000000      0.50000000</v>
    <v>       0.25000000      0.25000000      0.00000000</v>
    <v>       0.75000000      0.25000000      0.00000000</v>
    <v>       0.25000000      0.75000000      0.00000000</v>
    <v>       0.75000000      0.75000000      0.00000000</v>
    <v>       0.25000000      0.25000000      0.50000000</v>
    <v>       0.75000000      0.25000000      0.50000000</v>
    <v>       0.25000000      0.75000000      0.50000000</v>
    <v>       0.75000000      0.75000000      0.50000000</v>
    <v>       0.25000000      0.00000000      0.25000000</v>
    <v>       0.75000000      0.00000000      0.25000000</v>
    <v>       0.25000000      0.50000000      0.25000000</v>
    <v>       0.75000000      0.50000000      0.25000000</v>
    <v>       0.25000000      0.00000000      0.75000000</v>
    <v>       0.75000000      0.00000000      0.75000000</v>
    <v>       0.25000000      0.50000000      0.75000000</v>
    <v>       0.75000000      0.50000000      0.75000000</v>
    <v>       0.00000000      0.25000000      0.25000000</v>
    <v>       0.50000000      0.25000000      0.25000000</v>
    <v>       0.00000000      0.75000000      0.25000000</v>
    <v>       0.50000000      0.75000000      0.25000000</v>
    <v>       0.00000000      0.25000000      0.75000000</v>
    <v>       0.50000000      0.25000000      0.75000000</v>
    <v>       0.00000000      0.75000000      0.75000000</v>
    <v>       0.50000000      0.75000000      0.75000000</v>
   </varray>
  </structure>
  <varray name="forces" >
   <v>      -0.09369509     -0.00000000      0.00000000</v>
   <v>       0.00168962      0.00000000     -0.00000000</v>
   <v>      -0.00043264      0.00000000      0.00000000</v>
   <v>      -0.00032699      0.00000000     -0.00000000</v>
   <v>      -0.00043264      0.00000000      0.00000000</v>
   <v>      -0.00032699     -0.00000000      0.00000000</v>
   <v>      -0.00003016     -0.00000000     -0.00000000</v>
   <v>      -0.00022630      0.00000000      0.00000000</v>
   <v>       0.01267801      0.01509304      0.00000000</v>
   <v>       0.01235220     -0.01461767      0.00000000</v>
   <v>       0.01267801     -0.01509304      0.00000000</v>
   <v>       0.01235220      0.01461767      0.00000000</v>
   <v>       0.00017724      0.00016866      0.00000000</v>
   <v>       0.00017746     -0.00017323     -0.00000000</v>
   <v>       0.00017724     -0.00016866     -0.00000000</v>
   <v>       0.00017746      0.00017323     -0.00000000</v>
   <v>       0.01267801     -0.00000000      0.01509304</v>
   <v>       0.01235220     -0.00000000     -0.01461767</v>
   <v>       0.00017724      0.00000000      0.00016866</v>
   <v>       0.00017746      0.00000000     -0.00017323</v>
   <v>       0.01267801      0.00000000     -0.01509304</v>
   <v>       0.01235220      0.00000000      0.01461767</v>
   <v>       0.00017724      0.00000000     -0.00016866</v>
   <v>       0.00017746      0.00000000      0.00017323</v>
   <v>      -0.00244846     -0.00003012     -0.00003012</v>
   <v>       0.00050885     -0.00000002     -0.00000002</v>
   <v>      -0.00244846      0.00003012     -0.00003012</v>
   <v>       0.00050885      0.00000002     -0.00000002</v>
   <v>      -0.00244846     -0.00003012      0.00003012</v>
   <v>       0.00050885     -0.00000002      0.00000002</v>
   <v>      -0.00244846      0.00003012      0.00003012</v>
   <v>       0.00050885      0.00000002      0.00000002</v>
  </varray>
  <varray name="stress" >
   <v>     214.85108700      0.00000000      0.00000000</v>
   <v>       0.00000000    214.85253527      0.00000000</v>
   <v>      -0.00000000      0.00000000    214.85253527</v>
  </varray>
  <energy>
   <i name="e_fr_energy">    -85.82339420</i>
   <i name="e_wo_entrp">    -85.82290960</i>
   <i name="e_0_energy">     -0.00096920</i>
  </energy>
  <eigenvalues>
   <array>
    <dimension dim="1">band</dimension>
    <dimension dim="2">kpoint</dimension>
    <dimension dim="3">spin</dimension>
    <field>eigene</field>
    <field>occ</field>
    <set>
     <set comment="spin 1">
      <set comment="kpoint 1">
       <r>  -4.0653  1.0000</r>
       <r>  -2.7129  1.0000</r>
       <r>  -2.7129  1.0000</r>
       <r>  -2.7129  1.0000</r>
       <r>  -2.6281  1.0000</r>
       <r>  -2.6281  1.0000</r>
       <r>  -2.6281  1.0000</r>
       <r>  -2.6281  1.0000</r>
       <r>  -2.5376  1.0000</r>
       <r>  -2.5376  1.0000</r>
       <r>  -2.5376  1.0000</r>
       <r>  -2.1571  1.0000</r>
       <r>  -2.1549  1.0000</r>
       <r>  -2.1549  1.0000</r>
       <r>  -2.1549  1.0000</r>
       <r>  -2.1549  1.0000</r>
       <r>  -2.1528  1.0000</r>
       <r>  -1.8452  1.0000</r>
       <r>  -1.8430  1.0000</r>
       <r>  -1.8430  1.0000</r>
       <r>  -1.8430  1.0000</r>
       <r>  -1.8430  1.0000</r>
       <r>  -1.8409  1.0000</r>
       <r>  -1.7119  1.0000</r>
       <r>  -1.7096  1.0000</r>
       <r>  -1.7096  1.0000</r>
       <r>  -1.7096  1.0000</r>
       <r>  -1.7096  1.0000</r>
       <r>  -1.7074  1.0000</r>
       <r>  -1.4306  1.0000</r>
       <r>  -1.4306  1.0000</r>
       <r>  -1.4300  1.0000</r>
       <r>  -1.4291  1.0000</r>
       <r>  -1.4287  1.0000</r>
       <r>  -1.4287  1.0000</r>
       <r>  -1.4287  1.0000</r>
       <r>  -1.4287  1.0000</r>
       <r>  -1.4283  1.0000</r>
       <r>  -1.4273  1.0000</r>
       <r>  -1.4268  1.0000</r>
       <r>  -1.4268  1.0000</r>
       <r>  -1.1774  1.0000</r>
       <r>  -1.1746  1.0000</r>
       <r>  -1.1746  1.0000</r>
       <r>  -1.1734  1.0000</r>
       <r>  -1.1734  1.0000</r>
       <r>  -1.1734  1.0000</r>
       <r>  -1.1734  1.0000</r>
       <r>  -1.1734  1.0000</r>
       <r>  -1.1734  1.0000</r>
       <r>  -1.1723  1.0000</r>
       <r>  -1.1723  1.0000</r>
       <r>  -1.1696  1.0000</r>
       <r>  -1.1095  1.0000</r>
       <r>  -1.1095  1.0000</r>
       <r>  -1.1072  1.0000</r>
       <r>  -1.1072  1.0000</r>
       <r>  -1.1072  1.0000</r>
       <r>  -1.1071  1.0000</r>
       <r>  -1.1071  1.0000</r>
       <r>  -1.1071  1.0000</r>
       <r>  -1.1071  1.0000</r>
       <r>  -1.1069  1.0000</r>
       <r>  -1.1047  1.0000</r>
       <r>  -1.1047  1.0000</r>
       <r>  -0.7972  1.0000</r>
       <r>  -0.7972  1.0000</r>
       <r>  -0.7971  1.0000</r>
       <r>  -0.7971  1.0000</r>
       <r>  -0.7971  1.0000</r>
       <r>  -0.7971  1.0000</r>
       <r>  -0.7971  1.0000</r>
       <r>  -0.7971  1.0000</r>
       <r>  -0.7664  1.0000</r>
       <r>  -0.7664  1.0000</r>
       <r>  -0.7663  1.0000</r>
       <r>  -0.7432  1.0000</r>
       <r>  -0.7403  1.0000</r>
       <r>  -0.7399  1.0000</r>
       <r>  -0.7399  1.0000</r>
       <r>  -0.7397  1.0000</r>
       <r>  -0.7397  1.0000</r>
       <r>  -0.7397  1.0000</r>
       <r>  -0.7397  1.0000</r>
       <r>  -0.7395  1.0000</r>
       <r>  -0.7395  1.0000</r>
       <r>  -0.7392  1.0000</r>
       <r>  -0.7362  1.0000</r>
       <r>  -0.0004  1.0000</r>
       <r>   0.0004  1.0000</r>
       <r>   0.0016  1.0000</r>
       <r>   0.0016  1.0000</r>
       <r>   0.0022  1.0000</r>
       <r>   0.0022  1.0000</r>
       <r>   0.0022  1.0000</r>
       <r>   0.0022  1.0000</r>
       <r>   0.0028  1.0000</r>
       <r>   0.0028  1.0000</r>
       <r>   0.0040  1.0000</r>
       <r>   0.0047  1.0000</r>
       <r>   0.2603  1.0000</r>
       <r>   0.2603  1.0000</r>
       <r>   0.2628  1.0000</r>
       <r>   0.2628  1.0000</r>
       <r>   0.2631  1.0000</r>
       <r>   0.2631  1.0000</r>
       <r>   0.2631  1.0000</r>
       <r>   0.2631  1.0000</r>
       <r>   0.2633  1.0000</r>
       <r>   0.2633  1.0000</r>
       <r>   0.2658  1.0000</r>
       <r>   0.2658  1.0000</r>
       <r>   0.3467  1.0000</r>
       <r>   0.3488  1.0000</r>
       <r>   0.3489  1.0000</r>
       <r>   0.3489  1.0000</r>
       <r>   0.3489  1.0000</r>
       <r>   0.3509  1.0000</r>
       <r>   0.4598  1.0000</r>
       <r>   0.4613  1.0000</r>
       <r>   0.4613  1.0000</r>
       <r>   0.4617  1.0000</r>
       <r>   0.4618  1.0000</r>
       <r>   0.4629  1.0000</r>
       <r>   0.4646  1.0000</r>
       <r>   0.4647  1.0000</r>
       <r>   0.4689  1.0000</r>
       <r>   0.4689  1.0000</r>
       <r>   0.4710  1.0000</r>
       <r>   0.4715  1.0000</r>
       <r>   0.4715  1.0000</r>
       <r>   0.4715  1.0000</r>
       <r>   0.4715  1.0000</r>
       <r>   0.4716  1.0000</r>
       <r>   0.4720  1.0000</r>
       <r>   0.4725  1.0000</r>
       <r>   0.4748  1.0000</r>
       <r>   0.4748  1.0000</r>
       <r>   0.9037  1.0000</r>
       <r>   0.9049  1.0000</r>
       <r>   0.9049  1.0000</r>
       <r>   0.9049  1.0000</r>
       <r>   0.9049  1.0000</r>
       <r>   0.9062  1.0000</r>
       <r>   1.3711  1.0000</r>
       <r>   1.3711  1.0000</r>
       <r>   1.3711  1.0000</r>
       <r>   1.4064  1.0000</r>
       <r>   1.4065  1.0000</r>
       <r>   1.4065  1.0000</r>
       <r>   1.4065  1.0000</r>
       <r>   1.4065  1.0000</r>
       <r>   1.4065  1.0000</r>
       <r>   1.4065  1.0000</r>
       <r>   1.4065  1.0000</r>
       <r>   1.6531  1.0000</r>
       <r>   1.6534  1.0000</r>
       <r>   1.6534  1.0000</r>
       <r>   1.6534  1.0000</r>
       <r>   1.6535  1.0000</r>
       <r>   1.6535  1.0000</r>
       <r>   1.6547  1.0000</r>
       <r>   1.6548  1.0000</r>
       <r>   1.6548  1.0000</r>
       <r>   1.6548  1.0000</r>
       <r>   1.6548  1.0000</r>
       <r>   1.6551  1.0000</r>
       <r>   3.7715  1.0000</r>
       <r>   3.7715  1.0000</r>
       <r>   3.7715  1.0000</r>
       <r>   3.7715  1.0000</r>
       <r>   3.9818  1.0000</r>
       <r>   3.9821  1.0000</r>
       <r>   3.9821  1.0000</r>
       <r>   3.9834  1.0000</r>
       <r>   3.9837  1.0000</r>
       <r>   3.9837  1.0000</r>
       <r>   3.9837  1.0000</r>
       <r>   3.9837  1.0000</r>
       <r>   3.9841  1.0000</r>
       <r>   3.9853  1.0000</r>
       <r>   3.9853  1.0000</r>
       <r>   3.9856  1.0000</r>
       <r>   5.9851  0.0000</r>
       <r>   5.9851  0.0000</r>
       <r>   5.9851  0.0000</r>
       <r>   8.6431  0.0000</r>
       <r>   8.6431  0.0000</r>
       <r>   8.6431  0.0000</r>
       <r>   8.6432  0.0000</r>
       <r>  10.8312  0.0000</r>
       <r>  10.8312  0.0000</r>
       <r>  10.8340  0.0000</r>
       <r>  10.8340  0.0000</r>
       <r>  10.8345  0.0000</r>
       <r>  10.8345  0.0000</r>
       <r>  10.8345  0.0000</r>
       <r>  10.8346  0.0000</r>
       <r>  10.8350  0.0000</r>
       <r>  10.8350  0.0000</r>
       <r>  10.8378  0.0000</r>
       <r>  10.8378  0.0000</r>
       <r>  12.0021  0.0000</r>
       <r>  12.0022  0.0000</r>
       <r>  12.0022  0.0000</r>
       <r>  12.3077  0.0000</r>
       <r>  12.3077  0.0000</r>
       <r>  12.3078  0.0000</r>
       <r>  12.3078  0.0000</r>
       <r>  12.3078  0.0000</r>
       <r>  12.3079  0.0000</r>
       <r>  13.2175  0.0000</r>
      </set>
      <set comment="kpoint 2">
       <r>  -4.0455  1.0000</r>
       <r>  -2.7040  1.0000</r>
       <r>  -2.7015  1.0000</r>
       <r>  -2.7015  1.0000</r>
       <r>  -2.6178  1.0000</r>
       <r>  -2.6177  1.0000</r>
       <r>  -2.6177  1.0000</r>
       <r>  -2.6177  1.0000</r>
       <r>  -2.5309  1.0000</r>
       <r>  -2.5274  1.0000</r>
       <r>  -2.5274  1.0000</r>
       <r>  -2.2697  1.0000</r>
       <r>  -2.1413  1.0000</r>
       <r>  -2.1413  1.0000</r>
       <r>  -2.1413  1.0000</r>
       <r>  -2.1413  1.0000</r>
       <r>  -2.1106  1.0000</r>
       <r>  -1.8641  1.0000</r>
       <r>  -1.8639  1.0000</r>
       <r>  -1.8341  1.0000</r>
       <r>  -1.8341  1.0000</r>
       <r>  -1.8341  1.0000</r>
       <r>  -1.8339  1.0000</r>
       <r>  -1.8235  1.0000</r>
       <r>  -1.7039  1.0000</r>
       <r>  -1.7039  1.0000</r>
       <r>  -1.7039  1.0000</r>
       <r>  -1.7039  1.0000</r>
       <r>  -1.5938  1.0000</r>
       <r>  -1.5142  1.0000</r>
       <r>  -1.5142  1.0000</r>
       <r>  -1.5142  1.0000</r>
       <r>  -1.5142  1.0000</r>
       <r>  -1.4461  1.0000</r>
       <r>  -1.4461  1.0000</r>
       <r>  -1.4461  1.0000</r>
       <r>  -1.4461  1.0000</r>
       <r>  -1.4121  1.0000</r>
       <r>  -1.4121  1.0000</r>
       <r>  -1.4121  1.0000</r>
       <r>  -1.4121  1.0000</r>
       <r>  -1.3297  1.0000</r>
       <r>  -1.3297  1.0000</r>
       <r>  -1.2195  1.0000</r>
       <r>  -1.2194  1.0000</r>
       <r>  -1.2194  1.0000</r>
       <r>  -1.2194  1.0000</r>
       <r>  -1.1377  1.0000</r>
       <r>  -1.1372  1.0000</r>
       <r>  -1.1372  1.0000</r>
       <r>  -1.1372  1.0000</r>
       <r>  -1.1235  1.0000</r>
       <r>  -1.1234  1.0000</r>
       <r>  -1.1234  1.0000</r>
       <r>  -1.1232  1.0000</r>
       <r>  -1.1113  1.0000</r>
       <r>  -1.1113  1.0000</r>
       <r>  -1.1113  1.0000</r>
       <r>  -1.1112  1.0000</r>
       <r>  -1.1061  1.0000</r>
       <r>  -1.1061  1.0000</r>
       <r>  -1.1061  1.0000</r>
       <r>  -1.1057  1.0000</r>
       <r>  -0.8685  1.0000</r>
       <r>  -0.8685  1.0000</r>
       <r>  -0.8013  1.0000</r>
       <r>  -0.8011  1.0000</r>
       <r>  -0.8011  1.0000</r>
       <r>  -0.8011  1.0000</r>
       <r>  -0.7917  1.0000</r>
       <r>  -0.7917  1.0000</r>
       <r>  -0.7917  1.0000</r>
       <r>  -0.7915  1.0000</r>
       <r>  -0.7892  1.0000</r>
       <r>  -0.7892  1.0000</r>
       <r>  -0.7891  1.0000</r>
       <r>  -0.7891  1.0000</r>
       <r>  -0.7750  1.0000</r>
       <r>  -0.7586  1.0000</r>
       <r>  -0.7586  1.0000</r>
       <r>  -0.7423  1.0000</r>
       <r>  -0.7423  1.0000</r>
       <r>  -0.7423  1.0000</r>
       <r>  -0.7423  1.0000</r>
       <r>  -0.6870  1.0000</r>
       <r>  -0.6870  1.0000</r>
       <r>  -0.6870  1.0000</r>
       <r>  -0.6868  1.0000</r>
       <r>  -0.0352  1.0000</r>
       <r>  -0.0350  1.0000</r>
       <r>  -0.0350  1.0000</r>
       <r>  -0.0350  1.0000</r>
       <r>   0.0093  1.0000</r>
       <r>   0.0093  1.0000</r>
       <r>   0.0093  1.0000</r>
       <r>   0.0093  1.0000</r>
       <r>   0.0502  1.0000</r>
       <r>   0.0502  1.0000</r>
       <r>   0.0502  1.0000</r>
       <r>   0.0503  1.0000</r>
       <r>   0.1058  1.0000</r>
       <r>   0.1058  1.0000</r>
       <r>   0.1058  1.0000</r>
       <r>   0.1059  1.0000</r>
       <r>   0.1132  1.0000</r>
       <r>   0.1132  1.0000</r>
       <r>   0.1516  1.0000</r>
       <r>   0.2625  1.0000</r>
       <r>   0.2625  1.0000</r>
       <r>   0.2625  1.0000</r>
       <r>   0.2625  1.0000</r>
       <r>   0.4003  1.0000</r>
       <r>   0.4003  1.0000</r>
       <r>   0.4005  1.0000</r>
       <r>   0.4005  1.0000</r>
       <r>   0.4189  1.0000</r>
       <r>   0.4189  1.0000</r>
       <r>   0.4559  1.0000</r>
       <r>   0.4616  1.0000</r>
       <r>   0.4618  1.0000</r>
       <r>   0.4618  1.0000</r>
       <r>   0.4618  1.0000</r>
       <r>   0.4682  1.0000</r>
       <r>   0.4835  1.0000</r>
       <r>   0.4836  1.0000</r>
       <r>   0.4972  1.0000</r>
       <r>   0.4973  1.0000</r>
       <r>   0.4973  1.0000</r>
       <r>   0.4973  1.0000</r>
       <r>   0.5111  1.0000</r>
       <r>   0.5111  1.0000</r>
       <r>   0.5111  1.0000</r>
       <r>   0.5113  1.0000</r>
       <r>   0.5601  1.0000</r>
       <r>   0.5601  1.0000</r>
       <r>   0.5602  1.0000</r>
       <r>   0.5602  1.0000</r>
       <r>   0.6523  1.0000</r>
       <r>   0.8461  1.0000</r>
       <r>   0.9180  1.0000</r>
       <r>   0.9180  1.0000</r>
       <r>   0.9180  1.0000</r>
       <r>   0.9180  1.0000</r>
       <r>   0.9642  1.0000</r>
       <r>   1.3593  1.0000</r>
       <r>   1.3593  1.0000</r>
       <r>   1.3670  1.0000</r>
       <r>   1.3679  1.0000</r>
       <r>   1.3680  1.0000</r>
       <r>   1.3680  1.0000</r>
       <r>   1.3680  1.0000</r>
       <r>   1.3962  1.0000</r>
       <r>   1.3962  1.0000</r>
       <r>   1.3962  1.0000</r>
       <r>   1.3962  1.0000</r>
       <r>   1.6079  1.0000</r>
       <r>   1.6079  1.0000</r>
       <r>   1.6390  1.0000</r>
       <r>   1.6390  1.0000</r>
       <r>   1.6390  1.0000</r>
       <r>   1.6390  1.0000</r>
       <r>   1.6391  1.0000</r>
       <r>   1.6391  1.0000</r>
       <r>   1.6531  1.0000</r>
       <r>   1.6535  1.0000</r>
       <r>   1.6547  1.0000</r>
       <r>   1.6551  1.0000</r>
       <r>   3.5793  1.0000</r>
       <r>   3.5793  1.0000</r>
       <r>   3.5793  1.0000</r>
       <r>   3.5793  1.0000</r>
       <r>   3.7815  1.0000</r>
       <r>   3.7815  1.0000</r>
       <r>   3.7815  1.0000</r>
       <r>   3.7815  1.0000</r>
       <r>   3.9829  1.0000</r>
       <r>   3.9829  1.0000</r>
       <r>   3.9829  1.0000</r>
       <r>   3.9829  1.0000</r>
       <r>   4.4206  1.0000</r>
       <r>   4.4206  1.0000</r>
       <r>   4.4206  1.0000</r>
       <r>   4.4206  1.0000</r>
       <r>   5.8587  0.0000</r>
       <r>   6.0460  0.0000</r>
       <r>   6.0460  0.0000</r>
       <r>   8.6980  0.0000</r>
       <r>   8.6980  0.0000</r>
       <r>   8.6980  0.0000</r>
       <r>   8.6980  0.0000</r>
       <r>  10.2797  0.0000</r>
       <r>  10.2797  0.0000</r>
       <r>  10.5203  0.0000</r>
       <r>  10.5203  0.0000</r>
       <r>  10.5203  0.0000</r>
       <r>  10.5203  0.0000</r>
       <r>  10.8670  0.0000</r>
       <r>  10.8670  0.0000</r>
       <r>  10.8670  0.0000</r>
       <r>  10.8670  0.0000</r>
       <r>  11.3925  0.0000</r>
       <r>  11.3925  0.0000</r>
       <r>  12.0039  0.0000</r>
       <r>  12.0039  0.0000</r>
       <r>  12.1567  0.0000</r>
       <r>  12.2920  0.0000</r>
       <r>  12.2920  0.0000</r>
       <r>  12.4693  0.0000</r>
       <r>  12.4693  0.0000</r>
       <r>  12.4693  0.0000</r>
       <r>  12.4693  0.0000</r>
       <r>  13.2626  0.0000</r>
      </set>
      <set comment="kpoint 3">
       <r>  -3.9863  1.0000</r>
       <r>  -2.6776  1.0000</r>
       <r>  -2.6679  1.0000</r>
       <r>  -2.6679  1.0000</r>
       <r>  -2.5867  1.0000</r>
       <r>  -2.5867  1.0000</r>
       <r>  -2.5867  1.0000</r>
       <r>  -2.5866  1.0000</r>
       <r>  -2.5109  1.0000</r>
       <r>  -2.4969  1.0000</r>
       <r>  -2.4969  1.0000</r>
       <r>  -2.4499  1.0000</r>
       <r>  -2.1246  1.0000</r>
       <r>  -2.1007  1.0000</r>
       <r>  -2.1007  1.0000</r>
       <r>  -2.1007  1.0000</r>
       <r>  -2.1007  1.0000</r>
       <r>  -1.9336  1.0000</r>
       <r>  -1.9231  1.0000</r>
       <r>  -1.9230  1.0000</r>
       <r>  -1.8076  1.0000</r>
       <r>  -1.8076  1.0000</r>
       <r>  -1.8076  1.0000</r>
       <r>  -1.8076  1.0000</r>
       <r>  -1.6871  1.0000</r>
       <r>  -1.6870  1.0000</r>
       <r>  -1.6870  1.0000</r>
       <r>  -1.6869  1.0000</r>
       <r>  -1.6707  1.0000</r>
       <r>  -1.6706  1.0000</r>
       <r>  -1.6706  1.0000</r>
       <r>  -1.6706  1.0000</r>
       <r>  -1.5353  1.0000</r>
       <r>  -1.5353  1.0000</r>
       <r>  -1.4780  1.0000</r>
       <r>  -1.4615  1.0000</r>
       <r>  -1.4615  1.0000</r>
       <r>  -1.4615  1.0000</r>
       <r>  -1.4615  1.0000</r>
       <r>  -1.4062  1.0000</r>
       <r>  -1.4062  1.0000</r>
       <r>  -1.4062  1.0000</r>
       <r>  -1.4062  1.0000</r>
       <r>  -1.2737  1.0000</r>
       <r>  -1.2737  1.0000</r>
       <r>  -1.2737  1.0000</r>
       <r>  -1.2737  1.0000</r>
       <r>  -1.1230  1.0000</r>
       <r>  -1.1230  1.0000</r>
       <r>  -1.1230  1.0000</r>
       <r>  -1.1229  1.0000</r>
       <r>  -1.1119  1.0000</r>
       <r>  -1.1111  1.0000</r>
       <r>  -1.1111  1.0000</r>
       <r>  -1.1111  1.0000</r>
       <r>  -1.1033  1.0000</r>
       <r>  -1.1032  1.0000</r>
       <r>  -1.1032  1.0000</r>
       <r>  -1.1025  1.0000</r>
       <r>  -1.0619  1.0000</r>
       <r>  -1.0619  1.0000</r>
       <r>  -1.0619  1.0000</r>
       <r>  -1.0618  1.0000</r>
       <r>  -0.8787  1.0000</r>
       <r>  -0.8787  1.0000</r>
       <r>  -0.8787  1.0000</r>
       <r>  -0.8787  1.0000</r>
       <r>  -0.8128  1.0000</r>
       <r>  -0.8128  1.0000</r>
       <r>  -0.8128  1.0000</r>
       <r>  -0.8128  1.0000</r>
       <r>  -0.8008  1.0000</r>
       <r>  -0.7859  1.0000</r>
       <r>  -0.7858  1.0000</r>
       <r>  -0.7858  1.0000</r>
       <r>  -0.7858  1.0000</r>
       <r>  -0.7655  1.0000</r>
       <r>  -0.7655  1.0000</r>
       <r>  -0.7654  1.0000</r>
       <r>  -0.7654  1.0000</r>
       <r>  -0.7352  1.0000</r>
       <r>  -0.7352  1.0000</r>
       <r>  -0.6153  1.0000</r>
       <r>  -0.6153  1.0000</r>
       <r>  -0.5409  1.0000</r>
       <r>  -0.5409  1.0000</r>
       <r>  -0.5409  1.0000</r>
       <r>  -0.5409  1.0000</r>
       <r>  -0.1217  1.0000</r>
       <r>  -0.1216  1.0000</r>
       <r>  -0.1216  1.0000</r>
       <r>  -0.1216  1.0000</r>
       <r>  -0.0810  1.0000</r>
       <r>  -0.0810  1.0000</r>
       <r>  -0.0810  1.0000</r>
       <r>  -0.0810  1.0000</r>
       <r>  -0.0290  1.0000</r>
       <r>  -0.0290  1.0000</r>
       <r>   0.0541  1.0000</r>
       <r>   0.0711  1.0000</r>
       <r>   0.0711  1.0000</r>
       <r>   0.0711  1.0000</r>
       <r>   0.0711  1.0000</r>
       <r>   0.1285  1.0000</r>
       <r>   0.1285  1.0000</r>
       <r>   0.1286  1.0000</r>
       <r>   0.1286  1.0000</r>
       <r>   0.2610  1.0000</r>
       <r>   0.2610  1.0000</r>
       <r>   0.2610  1.0000</r>
       <r>   0.2610  1.0000</r>
       <r>   0.3466  1.0000</r>
       <r>   0.3466  1.0000</r>
       <r>   0.3466  1.0000</r>
       <r>   0.3467  1.0000</r>
       <r>   0.4298  1.0000</r>
       <r>   0.4613  1.0000</r>
       <r>   0.4613  1.0000</r>
       <r>   0.4613  1.0000</r>
       <r>   0.4613  1.0000</r>
       <r>   0.4793  1.0000</r>
       <r>   0.5452  1.0000</r>
       <r>   0.5453  1.0000</r>
       <r>   0.5779  1.0000</r>
       <r>   0.5779  1.0000</r>
       <r>   0.6043  1.0000</r>
       <r>   0.6043  1.0000</r>
       <r>   0.6043  1.0000</r>
       <r>   0.6044  1.0000</r>
       <r>   0.6267  1.0000</r>
       <r>   0.6267  1.0000</r>
       <r>   0.6268  1.0000</r>
       <r>   0.6268  1.0000</r>
       <r>   0.6651  1.0000</r>
       <r>   0.6651  1.0000</r>
       <r>   0.6651  1.0000</r>
       <r>   0.6651  1.0000</r>
       <r>   0.7887  1.0000</r>
       <r>   0.9882  1.0000</r>
       <r>   0.9882  1.0000</r>
       <r>   0.9882  1.0000</r>
       <r>   0.9882  1.0000</r>
       <r>   1.0230  1.0000</r>
       <r>   1.0503  1.0000</r>
       <r>   1.2581  1.0000</r>
       <r>   1.2581  1.0000</r>
       <r>   1.2581  1.0000</r>
       <r>   1.2581  1.0000</r>
       <r>   1.3242  1.0000</r>
       <r>   1.3243  1.0000</r>
       <r>   1.3547  1.0000</r>
       <r>   1.3656  1.0000</r>
       <r>   1.3656  1.0000</r>
       <r>   1.3656  1.0000</r>
       <r>   1.3656  1.0000</r>
       <r>   1.4788  1.0000</r>
       <r>   1.4788  1.0000</r>
       <r>   1.5928  1.0000</r>
       <r>   1.5928  1.0000</r>
       <r>   1.5928  1.0000</r>
       <r>   1.5928  1.0000</r>
       <r>   1.5966  1.0000</r>
       <r>   1.5966  1.0000</r>
       <r>   1.6531  1.0000</r>
       <r>   1.6535  1.0000</r>
       <r>   1.6547  1.0000</r>
       <r>   1.6551  1.0000</r>
       <r>   3.2038  1.0000</r>
       <r>   3.2038  1.0000</r>
       <r>   3.2038  1.0000</r>
       <r>   3.2038  1.0000</r>
       <r>   3.8079  1.0000</r>
       <r>   3.8079  1.0000</r>
       <r>   3.8079  1.0000</r>
       <r>   3.8079  1.0000</r>
       <r>   3.9802  1.0000</r>
       <r>   3.9802  1.0000</r>
       <r>   3.9802  1.0000</r>
       <r>   3.9802  1.0000</r>
       <r>   4.8927  0.0000</r>
       <r>   4.8927  0.0000</r>
       <r>   4.8927  0.0000</r>
       <r>   4.8927  0.0000</r>
       <r>   5.5140  0.0000</r>
       <r>   6.2211  0.0000</r>
       <r>   6.2211  0.0000</r>
       <r>   8.8604  0.0000</r>
       <r>   8.8604  0.0000</r>
       <r>   8.8604  0.0000</r>
       <r>   8.8604  0.0000</r>
       <r>   9.7317  0.0000</r>
       <r>   9.7317  0.0000</r>
       <r>   9.8914  0.0000</r>
       <r>   9.8914  0.0000</r>
       <r>   9.8914  0.0000</r>
       <r>   9.8914  0.0000</r>
       <r>  10.9636  0.0000</r>
       <r>  10.9636  0.0000</r>
       <r>  10.9636  0.0000</r>
       <r>  10.9636  0.0000</r>
       <r>  11.9498  0.0000</r>
       <r>  11.9498  0.0000</r>
       <r>  12.0093  0.0000</r>
       <r>  12.0093  0.0000</r>
       <r>  12.2525  0.0000</r>
       <r>  12.2525  0.0000</r>
       <r>  12.5858  0.0000</r>
       <r>  12.6491  0.0000</r>
       <r>  12.6492  0.0000</r>
       <r>  12.6492  0.0000</r>
       <r>  12.6492  0.0000</r>
       <r>  13.0160  0.0000</r>
      </set>
      <set comment="kpoint 4">
       <r>  -3.8886  1.0000</r>
       <r>  -2.6743  1.0000</r>
       <r>  -2.6346  1.0000</r>
       <r>  -2.6129  1.0000</r>
       <r>  -2.6129  1.0000</r>
       <r>  -2.5351  1.0000</r>
       <r>  -2.5351  1.0000</r>
       <r>  -2.5351  1.0000</r>
       <r>  -2.5351  1.0000</r>
       <r>  -2.4779  1.0000</r>
       <r>  -2.4460  1.0000</r>
       <r>  -2.4460  1.0000</r>
       <r>  -2.1777  1.0000</r>
       <r>  -2.0382  1.0000</r>
       <r>  -2.0349  1.0000</r>
       <r>  -2.0348  1.0000</r>
       <r>  -2.0348  1.0000</r>
       <r>  -2.0348  1.0000</r>
       <r>  -2.0112  1.0000</r>
       <r>  -2.0111  1.0000</r>
       <r>  -1.8348  1.0000</r>
       <r>  -1.8348  1.0000</r>
       <r>  -1.8348  1.0000</r>
       <r>  -1.8348  1.0000</r>
       <r>  -1.7653  1.0000</r>
       <r>  -1.7653  1.0000</r>
       <r>  -1.7653  1.0000</r>
       <r>  -1.7653  1.0000</r>
       <r>  -1.7229  1.0000</r>
       <r>  -1.7229  1.0000</r>
       <r>  -1.6591  1.0000</r>
       <r>  -1.6590  1.0000</r>
       <r>  -1.6590  1.0000</r>
       <r>  -1.6590  1.0000</r>
       <r>  -1.4765  1.0000</r>
       <r>  -1.4765  1.0000</r>
       <r>  -1.4765  1.0000</r>
       <r>  -1.4764  1.0000</r>
       <r>  -1.4291  1.0000</r>
       <r>  -1.4291  1.0000</r>
       <r>  -1.4291  1.0000</r>
       <r>  -1.4291  1.0000</r>
       <r>  -1.3643  1.0000</r>
       <r>  -1.3339  1.0000</r>
       <r>  -1.3339  1.0000</r>
       <r>  -1.3339  1.0000</r>
       <r>  -1.3339  1.0000</r>
       <r>  -1.1393  1.0000</r>
       <r>  -1.1392  1.0000</r>
       <r>  -1.1392  1.0000</r>
       <r>  -1.1392  1.0000</r>
       <r>  -1.1001  1.0000</r>
       <r>  -1.0990  1.0000</r>
       <r>  -1.0990  1.0000</r>
       <r>  -1.0989  1.0000</r>
       <r>  -1.0944  1.0000</r>
       <r>  -1.0943  1.0000</r>
       <r>  -1.0943  1.0000</r>
       <r>  -1.0932  1.0000</r>
       <r>  -1.0189  1.0000</r>
       <r>  -1.0189  1.0000</r>
       <r>  -1.0189  1.0000</r>
       <r>  -1.0188  1.0000</r>
       <r>  -0.9761  1.0000</r>
       <r>  -0.9761  1.0000</r>
       <r>  -0.9761  1.0000</r>
       <r>  -0.9761  1.0000</r>
       <r>  -0.8431  1.0000</r>
       <r>  -0.8318  1.0000</r>
       <r>  -0.8315  1.0000</r>
       <r>  -0.8315  1.0000</r>
       <r>  -0.8314  1.0000</r>
       <r>  -0.8264  1.0000</r>
       <r>  -0.8263  1.0000</r>
       <r>  -0.8263  1.0000</r>
       <r>  -0.8260  1.0000</r>
       <r>  -0.7263  1.0000</r>
       <r>  -0.7263  1.0000</r>
       <r>  -0.7263  1.0000</r>
       <r>  -0.7263  1.0000</r>
       <r>  -0.6963  1.0000</r>
       <r>  -0.6963  1.0000</r>
       <r>  -0.3493  1.0000</r>
       <r>  -0.3493  1.0000</r>
       <r>  -0.3363  1.0000</r>
       <r>  -0.3363  1.0000</r>
       <r>  -0.3363  1.0000</r>
       <r>  -0.3363  1.0000</r>
       <r>  -0.2572  1.0000</r>
       <r>  -0.2572  1.0000</r>
       <r>  -0.2572  1.0000</r>
       <r>  -0.2572  1.0000</r>
       <r>  -0.2254  1.0000</r>
       <r>  -0.2254  1.0000</r>
       <r>  -0.2254  1.0000</r>
       <r>  -0.2254  1.0000</r>
       <r>  -0.1617  1.0000</r>
       <r>  -0.1617  1.0000</r>
       <r>   0.0342  1.0000</r>
       <r>   0.1650  1.0000</r>
       <r>   0.1650  1.0000</r>
       <r>   0.1650  1.0000</r>
       <r>   0.1650  1.0000</r>
       <r>   0.2129  1.0000</r>
       <r>   0.2129  1.0000</r>
       <r>   0.2130  1.0000</r>
       <r>   0.2130  1.0000</r>
       <r>   0.2589  1.0000</r>
       <r>   0.2589  1.0000</r>
       <r>   0.2589  1.0000</r>
       <r>   0.2589  1.0000</r>
       <r>   0.3082  1.0000</r>
       <r>   0.3082  1.0000</r>
       <r>   0.3082  1.0000</r>
       <r>   0.3082  1.0000</r>
       <r>   0.3877  1.0000</r>
       <r>   0.4580  1.0000</r>
       <r>   0.4580  1.0000</r>
       <r>   0.4580  1.0000</r>
       <r>   0.4580  1.0000</r>
       <r>   0.4974  1.0000</r>
       <r>   0.6373  1.0000</r>
       <r>   0.6373  1.0000</r>
       <r>   0.6571  1.0000</r>
       <r>   0.6571  1.0000</r>
       <r>   0.6571  1.0000</r>
       <r>   0.6571  1.0000</r>
       <r>   0.7186  1.0000</r>
       <r>   0.7188  1.0000</r>
       <r>   0.7188  1.0000</r>
       <r>   0.7188  1.0000</r>
       <r>   0.7338  1.0000</r>
       <r>   0.7379  1.0000</r>
       <r>   0.7379  1.0000</r>
       <r>   0.7838  1.0000</r>
       <r>   0.7838  1.0000</r>
       <r>   0.7838  1.0000</r>
       <r>   0.7838  1.0000</r>
       <r>   1.0801  1.0000</r>
       <r>   1.0905  1.0000</r>
       <r>   1.0906  1.0000</r>
       <r>   1.0906  1.0000</r>
       <r>   1.0906  1.0000</r>
       <r>   1.1569  1.0000</r>
       <r>   1.1569  1.0000</r>
       <r>   1.1569  1.0000</r>
       <r>   1.1569  1.0000</r>
       <r>   1.2669  1.0000</r>
       <r>   1.2670  1.0000</r>
       <r>   1.2841  1.0000</r>
       <r>   1.2841  1.0000</r>
       <r>   1.3155  1.0000</r>
       <r>   1.3155  1.0000</r>
       <r>   1.3155  1.0000</r>
       <r>   1.3156  1.0000</r>
       <r>   1.3346  1.0000</r>
       <r>   1.5189  1.0000</r>
       <r>   1.5189  1.0000</r>
       <r>   1.5189  1.0000</r>
       <r>   1.5189  1.0000</r>
       <r>   1.5238  1.0000</r>
       <r>   1.5276  1.0000</r>
       <r>   1.5276  1.0000</r>
       <r>   1.6532  1.0000</r>
       <r>   1.6536  1.0000</r>
       <r>   1.6546  1.0000</r>
       <r>   1.6550  1.0000</r>
       <r>   2.8535  1.0000</r>
       <r>   2.8535  1.0000</r>
       <r>   2.8535  1.0000</r>
       <r>   2.8535  1.0000</r>
       <r>   3.8429  1.0000</r>
       <r>   3.8429  1.0000</r>
       <r>   3.8429  1.0000</r>
       <r>   3.8429  1.0000</r>
       <r>   3.9751  1.0000</r>
       <r>   3.9751  1.0000</r>
       <r>   3.9751  1.0000</r>
       <r>   3.9751  1.0000</r>
       <r>   5.0229  0.0000</r>
       <r>   5.4022  0.0000</r>
       <r>   5.4022  0.0000</r>
       <r>   5.4022  0.0000</r>
       <r>   5.4022  0.0000</r>
       <r>   6.4922  0.0000</r>
       <r>   6.4922  0.0000</r>
       <r>   9.1243  0.0000</r>
       <r>   9.1243  0.0000</r>
       <r>   9.1243  0.0000</r>
       <r>   9.1244  0.0000</r>
       <r>   9.1934  0.0000</r>
       <r>   9.1934  0.0000</r>
       <r>   9.1938  0.0000</r>
       <r>   9.1938  0.0000</r>
       <r>   9.1945  0.0000</r>
       <r>   9.1945  0.0000</r>
       <r>  11.1213  0.0000</r>
       <r>  11.1213  0.0000</r>
       <r>  11.1213  0.0000</r>
       <r>  11.1213  0.0000</r>
       <r>  12.0188  0.0000</r>
       <r>  12.0188  0.0000</r>
       <r>  12.2037  0.0000</r>
       <r>  12.2038  0.0000</r>
       <r>  12.3036  0.0000</r>
       <r>  12.3036  0.0000</r>
       <r>  12.3036  0.0000</r>
       <r>  12.3037  0.0000</r>
       <r>  12.5025  0.0000</r>
       <r>  12.5025  0.0000</r>
       <r>  12.7651  0.0000</r>
       <r>  12.7651  0.0000</r>
      </set>
      <set comment="kpoint 5">
       <r>  -3.7538  1.0000</r>
       <r>  -2.9175  1.0000</r>
       <r>  -2.5765  1.0000</r>
       <r>  -2.5385  1.0000</r>
       <r>  -2.5384  1.0000</r>
       <r>  -2.4634  1.0000</r>
       <r>  -2.4634  1.0000</r>
       <r>  -2.4634  1.0000</r>
       <r>  -2.4634  1.0000</r>
       <r>  -2.4322  1.0000</r>
       <r>  -2.3750  1.0000</r>
       <r>  -2.3750  1.0000</r>
       <r>  -2.2532  1.0000</r>
       <r>  -2.1359  1.0000</r>
       <r>  -2.1173  1.0000</r>
       <r>  -2.1172  1.0000</r>
       <r>  -1.9914  1.0000</r>
       <r>  -1.9914  1.0000</r>
       <r>  -1.9914  1.0000</r>
       <r>  -1.9914  1.0000</r>
       <r>  -1.9461  1.0000</r>
       <r>  -1.9461  1.0000</r>
       <r>  -1.9461  1.0000</r>
       <r>  -1.9460  1.0000</r>
       <r>  -1.8920  1.0000</r>
       <r>  -1.8920  1.0000</r>
       <r>  -1.7099  1.0000</r>
       <r>  -1.7098  1.0000</r>
       <r>  -1.7098  1.0000</r>
       <r>  -1.7098  1.0000</r>
       <r>  -1.6211  1.0000</r>
       <r>  -1.6211  1.0000</r>
       <r>  -1.6211  1.0000</r>
       <r>  -1.6211  1.0000</r>
       <r>  -1.4975  1.0000</r>
       <r>  -1.4971  1.0000</r>
       <r>  -1.4971  1.0000</r>
       <r>  -1.4971  1.0000</r>
       <r>  -1.4959  1.0000</r>
       <r>  -1.4959  1.0000</r>
       <r>  -1.4958  1.0000</r>
       <r>  -1.4955  1.0000</r>
       <r>  -1.3970  1.0000</r>
       <r>  -1.3970  1.0000</r>
       <r>  -1.3970  1.0000</r>
       <r>  -1.3969  1.0000</r>
       <r>  -1.2548  1.0000</r>
       <r>  -1.1558  1.0000</r>
       <r>  -1.1558  1.0000</r>
       <r>  -1.1558  1.0000</r>
       <r>  -1.1558  1.0000</r>
       <r>  -1.0944  1.0000</r>
       <r>  -1.0937  1.0000</r>
       <r>  -1.0937  1.0000</r>
       <r>  -1.0937  1.0000</r>
       <r>  -1.0855  1.0000</r>
       <r>  -1.0855  1.0000</r>
       <r>  -1.0855  1.0000</r>
       <r>  -1.0848  1.0000</r>
       <r>  -1.0644  1.0000</r>
       <r>  -1.0644  1.0000</r>
       <r>  -1.0644  1.0000</r>
       <r>  -1.0644  1.0000</r>
       <r>  -0.9833  1.0000</r>
       <r>  -0.9833  1.0000</r>
       <r>  -0.9833  1.0000</r>
       <r>  -0.9833  1.0000</r>
       <r>  -0.9008  1.0000</r>
       <r>  -0.8560  1.0000</r>
       <r>  -0.8560  1.0000</r>
       <r>  -0.8560  1.0000</r>
       <r>  -0.8559  1.0000</r>
       <r>  -0.8249  1.0000</r>
       <r>  -0.8249  1.0000</r>
       <r>  -0.8249  1.0000</r>
       <r>  -0.8248  1.0000</r>
       <r>  -0.6723  1.0000</r>
       <r>  -0.6723  1.0000</r>
       <r>  -0.6723  1.0000</r>
       <r>  -0.6723  1.0000</r>
       <r>  -0.6423  1.0000</r>
       <r>  -0.6423  1.0000</r>
       <r>  -0.4184  1.0000</r>
       <r>  -0.4184  1.0000</r>
       <r>  -0.4184  1.0000</r>
       <r>  -0.4184  1.0000</r>
       <r>  -0.3311  1.0000</r>
       <r>  -0.3311  1.0000</r>
       <r>  -0.3311  1.0000</r>
       <r>  -0.3310  1.0000</r>
       <r>  -0.2835  1.0000</r>
       <r>  -0.2835  1.0000</r>
       <r>  -0.1023  1.0000</r>
       <r>  -0.1023  1.0000</r>
       <r>  -0.1023  1.0000</r>
       <r>  -0.1023  1.0000</r>
       <r>  -0.0728  1.0000</r>
       <r>  -0.0728  1.0000</r>
       <r>   0.0644  1.0000</r>
       <r>   0.2571  1.0000</r>
       <r>   0.2571  1.0000</r>
       <r>   0.2571  1.0000</r>
       <r>   0.2571  1.0000</r>
       <r>   0.2708  1.0000</r>
       <r>   0.2709  1.0000</r>
       <r>   0.2710  1.0000</r>
       <r>   0.2710  1.0000</r>
       <r>   0.2828  1.0000</r>
       <r>   0.2828  1.0000</r>
       <r>   0.2828  1.0000</r>
       <r>   0.2828  1.0000</r>
       <r>   0.2896  1.0000</r>
       <r>   0.2896  1.0000</r>
       <r>   0.2896  1.0000</r>
       <r>   0.2897  1.0000</r>
       <r>   0.3317  1.0000</r>
       <r>   0.4488  1.0000</r>
       <r>   0.4488  1.0000</r>
       <r>   0.4488  1.0000</r>
       <r>   0.4488  1.0000</r>
       <r>   0.5223  1.0000</r>
       <r>   0.6233  1.0000</r>
       <r>   0.6233  1.0000</r>
       <r>   0.6233  1.0000</r>
       <r>   0.6233  1.0000</r>
       <r>   0.6818  1.0000</r>
       <r>   0.7483  1.0000</r>
       <r>   0.7483  1.0000</r>
       <r>   0.8383  1.0000</r>
       <r>   0.8383  1.0000</r>
       <r>   0.8383  1.0000</r>
       <r>   0.8384  1.0000</r>
       <r>   0.8819  1.0000</r>
       <r>   0.8819  1.0000</r>
       <r>   0.8819  1.0000</r>
       <r>   0.8819  1.0000</r>
       <r>   0.8958  1.0000</r>
       <r>   0.8958  1.0000</r>
       <r>   0.9124  1.0000</r>
       <r>   0.9124  1.0000</r>
       <r>   0.9124  1.0000</r>
       <r>   0.9124  1.0000</r>
       <r>   1.0444  1.0000</r>
       <r>   1.0444  1.0000</r>
       <r>   1.1345  1.0000</r>
       <r>   1.1892  1.0000</r>
       <r>   1.1892  1.0000</r>
       <r>   1.2474  1.0000</r>
       <r>   1.2474  1.0000</r>
       <r>   1.2474  1.0000</r>
       <r>   1.2474  1.0000</r>
       <r>   1.3070  1.0000</r>
       <r>   1.3867  1.0000</r>
       <r>   1.3867  1.0000</r>
       <r>   1.3867  1.0000</r>
       <r>   1.3868  1.0000</r>
       <r>   1.4218  1.0000</r>
       <r>   1.4218  1.0000</r>
       <r>   1.4218  1.0000</r>
       <r>   1.4218  1.0000</r>
       <r>   1.4348  1.0000</r>
       <r>   1.4348  1.0000</r>
       <r>   1.6533  1.0000</r>
       <r>   1.6538  1.0000</r>
       <r>   1.6544  1.0000</r>
       <r>   1.6549  1.0000</r>
       <r>   2.0546  1.0000</r>
       <r>   2.5248  1.0000</r>
       <r>   2.5248  1.0000</r>
       <r>   2.5248  1.0000</r>
       <r>   2.5248  1.0000</r>
       <r>   3.8786  1.0000</r>
       <r>   3.8786  1.0000</r>
       <r>   3.8786  1.0000</r>
       <r>   3.8786  1.0000</r>
       <r>   3.9666  1.0000</r>
       <r>   3.9666  1.0000</r>
       <r>   3.9666  1.0000</r>
       <r>   3.9666  1.0000</r>
       <r>   4.4510  1.0000</r>
       <r>   5.9497  0.0000</r>
       <r>   5.9497  0.0000</r>
       <r>   5.9497  0.0000</r>
       <r>   5.9497  0.0000</r>
       <r>   6.8385  0.0000</r>
       <r>   6.8385  0.0000</r>
       <r>   8.4931  0.0000</r>
       <r>   8.4931  0.0000</r>
       <r>   8.4931  0.0000</r>
       <r>   8.4931  0.0000</r>
       <r>   8.6708  0.0000</r>
       <r>   8.6708  0.0000</r>
       <r>   9.4809  0.0000</r>
       <r>   9.4809  0.0000</r>
       <r>   9.4809  0.0000</r>
       <r>   9.4809  0.0000</r>
       <r>  11.3360  0.0000</r>
       <r>  11.3360  0.0000</r>
       <r>  11.3360  0.0000</r>
       <r>  11.3360  0.0000</r>
       <r>  11.6307  0.0000</r>
       <r>  11.6307  0.0000</r>
       <r>  11.6307  0.0000</r>
       <r>  11.6307  0.0000</r>
       <r>  12.0331  0.0000</r>
       <r>  12.0331  0.0000</r>
       <r>  12.1560  0.0000</r>
       <r>  12.1560  0.0000</r>
       <r>  12.6554  0.0000</r>
       <r>  12.6554  0.0000</r>
       <r>  12.6555  0.0000</r>
       <r>  12.6563  0.0000</r>
      </set>
      <set comment="kpoint 6">
       <r>  -3.5844  1.0000</r>
       <r>  -3.1587  1.0000</r>
       <r>  -2.5054  1.0000</r>
       <r>  -2.4473  1.0000</r>
       <r>  -2.4472  1.0000</r>
       <r>  -2.3743  1.0000</r>
       <r>  -2.3722  1.0000</r>
       <r>  -2.3722  1.0000</r>
       <r>  -2.3722  1.0000</r>
       <r>  -2.3722  1.0000</r>
       <r>  -2.3384  1.0000</r>
       <r>  -2.2839  1.0000</r>
       <r>  -2.2839  1.0000</r>
       <r>  -2.2307  1.0000</r>
       <r>  -2.2307  1.0000</r>
       <r>  -2.2252  1.0000</r>
       <r>  -2.1348  1.0000</r>
       <r>  -2.1348  1.0000</r>
       <r>  -2.1348  1.0000</r>
       <r>  -2.1348  1.0000</r>
       <r>  -2.0421  1.0000</r>
       <r>  -2.0421  1.0000</r>
       <r>  -1.8388  1.0000</r>
       <r>  -1.8388  1.0000</r>
       <r>  -1.8388  1.0000</r>
       <r>  -1.8388  1.0000</r>
       <r>  -1.6465  1.0000</r>
       <r>  -1.6464  1.0000</r>
       <r>  -1.6464  1.0000</r>
       <r>  -1.6464  1.0000</r>
       <r>  -1.5997  1.0000</r>
       <r>  -1.5997  1.0000</r>
       <r>  -1.5997  1.0000</r>
       <r>  -1.5996  1.0000</r>
       <r>  -1.5742  1.0000</r>
       <r>  -1.5742  1.0000</r>
       <r>  -1.5742  1.0000</r>
       <r>  -1.5741  1.0000</r>
       <r>  -1.5314  1.0000</r>
       <r>  -1.5314  1.0000</r>
       <r>  -1.5314  1.0000</r>
       <r>  -1.5313  1.0000</r>
       <r>  -1.4599  1.0000</r>
       <r>  -1.4599  1.0000</r>
       <r>  -1.4599  1.0000</r>
       <r>  -1.4599  1.0000</r>
       <r>  -1.1660  1.0000</r>
       <r>  -1.1659  1.0000</r>
       <r>  -1.1659  1.0000</r>
       <r>  -1.1659  1.0000</r>
       <r>  -1.1517  1.0000</r>
       <r>  -1.1282  1.0000</r>
       <r>  -1.1282  1.0000</r>
       <r>  -1.1282  1.0000</r>
       <r>  -1.1281  1.0000</r>
       <r>  -1.0895  1.0000</r>
       <r>  -1.0885  1.0000</r>
       <r>  -1.0885  1.0000</r>
       <r>  -1.0884  1.0000</r>
       <r>  -1.0828  1.0000</r>
       <r>  -1.0827  1.0000</r>
       <r>  -1.0827  1.0000</r>
       <r>  -1.0817  1.0000</r>
       <r>  -0.9727  1.0000</r>
       <r>  -0.9496  1.0000</r>
       <r>  -0.9496  1.0000</r>
       <r>  -0.9496  1.0000</r>
       <r>  -0.9496  1.0000</r>
       <r>  -0.8849  1.0000</r>
       <r>  -0.8849  1.0000</r>
       <r>  -0.8848  1.0000</r>
       <r>  -0.8848  1.0000</r>
       <r>  -0.7731  1.0000</r>
       <r>  -0.7731  1.0000</r>
       <r>  -0.7731  1.0000</r>
       <r>  -0.7730  1.0000</r>
       <r>  -0.6045  1.0000</r>
       <r>  -0.6044  1.0000</r>
       <r>  -0.6044  1.0000</r>
       <r>  -0.6043  1.0000</r>
       <r>  -0.5736  1.0000</r>
       <r>  -0.5736  1.0000</r>
       <r>  -0.5612  1.0000</r>
       <r>  -0.5612  1.0000</r>
       <r>  -0.5611  1.0000</r>
       <r>  -0.5611  1.0000</r>
       <r>  -0.4317  1.0000</r>
       <r>  -0.4317  1.0000</r>
       <r>  -0.4317  1.0000</r>
       <r>  -0.4317  1.0000</r>
       <r>  -0.3934  1.0000</r>
       <r>  -0.3934  1.0000</r>
       <r>   0.1226  1.0000</r>
       <r>   0.1458  1.0000</r>
       <r>   0.1458  1.0000</r>
       <r>   0.1458  1.0000</r>
       <r>   0.1458  1.0000</r>
       <r>   0.2105  1.0000</r>
       <r>   0.2105  1.0000</r>
       <r>   0.2568  1.0000</r>
       <r>   0.2568  1.0000</r>
       <r>   0.2568  1.0000</r>
       <r>   0.2569  1.0000</r>
       <r>   0.2652  1.0000</r>
       <r>   0.2675  1.0000</r>
       <r>   0.2675  1.0000</r>
       <r>   0.2675  1.0000</r>
       <r>   0.2675  1.0000</r>
       <r>   0.3520  1.0000</r>
       <r>   0.3521  1.0000</r>
       <r>   0.3521  1.0000</r>
       <r>   0.3521  1.0000</r>
       <r>   0.3765  1.0000</r>
       <r>   0.3765  1.0000</r>
       <r>   0.3765  1.0000</r>
       <r>   0.3766  1.0000</r>
       <r>   0.4301  1.0000</r>
       <r>   0.4301  1.0000</r>
       <r>   0.4301  1.0000</r>
       <r>   0.4301  1.0000</r>
       <r>   0.5536  1.0000</r>
       <r>   0.5584  1.0000</r>
       <r>   0.5584  1.0000</r>
       <r>   0.5584  1.0000</r>
       <r>   0.5584  1.0000</r>
       <r>   0.6341  1.0000</r>
       <r>   0.6472  1.0000</r>
       <r>   0.6472  1.0000</r>
       <r>   0.6472  1.0000</r>
       <r>   0.6472  1.0000</r>
       <r>   0.7772  1.0000</r>
       <r>   0.7772  1.0000</r>
       <r>   0.8671  1.0000</r>
       <r>   0.8671  1.0000</r>
       <r>   0.9552  1.0000</r>
       <r>   0.9552  1.0000</r>
       <r>   0.9552  1.0000</r>
       <r>   0.9553  1.0000</r>
       <r>   1.0460  1.0000</r>
       <r>   1.0460  1.0000</r>
       <r>   1.0461  1.0000</r>
       <r>   1.0461  1.0000</r>
       <r>   1.0481  1.0000</r>
       <r>   1.0481  1.0000</r>
       <r>   1.0938  1.0000</r>
       <r>   1.0938  1.0000</r>
       <r>   1.1630  1.0000</r>
       <r>   1.1630  1.0000</r>
       <r>   1.1630  1.0000</r>
       <r>   1.1630  1.0000</r>
       <r>   1.1854  1.0000</r>
       <r>   1.2725  1.0000</r>
       <r>   1.3066  1.0000</r>
       <r>   1.3066  1.0000</r>
       <r>   1.3067  1.0000</r>
       <r>   1.3067  1.0000</r>
       <r>   1.3215  1.0000</r>
       <r>   1.3215  1.0000</r>
       <r>   1.6449  1.0000</r>
       <r>   1.6449  1.0000</r>
       <r>   1.6449  1.0000</r>
       <r>   1.6449  1.0000</r>
       <r>   1.6533  1.0000</r>
       <r>   1.6539  1.0000</r>
       <r>   1.6543  1.0000</r>
       <r>   1.6549  1.0000</r>
       <r>   2.2148  1.0000</r>
       <r>   2.2148  1.0000</r>
       <r>   2.2148  1.0000</r>
       <r>   2.2148  1.0000</r>
       <r>   2.6277  1.0000</r>
       <r>   3.8432  1.0000</r>
       <r>   3.9101  1.0000</r>
       <r>   3.9101  1.0000</r>
[...]
       <r>  -0.1249  1.0000</r>
       <r>  -0.1248  1.0000</r>
       <r>  -0.1240  1.0000</r>
       <r>  -0.1240  1.0000</r>
       <r>  -0.0891  1.0000</r>
       <r>  -0.0891  1.0000</r>
       <r>  -0.0890  1.0000</r>
       <r>  -0.0890  1.0000</r>
       <r>  -0.0018  1.0000</r>
       <r>  -0.0018  1.0000</r>
       <r>  -0.0018  1.0000</r>
       <r>  -0.0018  1.0000</r>
       <r>   0.0883  1.0000</r>
       <r>   0.0883  1.0000</r>
       <r>   0.0886  1.0000</r>
       <r>   0.0886  1.0000</r>
       <r>   0.0887  1.0000</r>
       <r>   0.0887  1.0000</r>
       <r>   0.0890  1.0000</r>
       <r>   0.0890  1.0000</r>
       <r>   0.3953  1.0000</r>
       <r>   0.3955  1.0000</r>
       <r>   0.3955  1.0000</r>
       <r>   0.3956  1.0000</r>
       <r>   0.4423  1.0000</r>
       <r>   0.4423  1.0000</r>
       <r>   0.4423  1.0000</r>
       <r>   0.4423  1.0000</r>
       <r>   0.4572  1.0000</r>
       <r>   0.4572  1.0000</r>
       <r>   0.4578  1.0000</r>
       <r>   0.4578  1.0000</r>
       <r>   0.4578  1.0000</r>
       <r>   0.4580  1.0000</r>
       <r>   0.4584  1.0000</r>
       <r>   0.4584  1.0000</r>
       <r>   0.6798  1.0000</r>
       <r>   0.6798  1.0000</r>
       <r>   0.6798  1.0000</r>
       <r>   0.6798  1.0000</r>
       <r>   0.7263  1.0000</r>
       <r>   0.7263  1.0000</r>
       <r>   0.7263  1.0000</r>
       <r>   0.7263  1.0000</r>
       <r>   0.8326  1.0000</r>
       <r>   0.8326  1.0000</r>
       <r>   0.8326  1.0000</r>
       <r>   0.8326  1.0000</r>
       <r>   1.4211  1.0000</r>
       <r>   1.4211  1.0000</r>
       <r>   1.4213  1.0000</r>
       <r>   1.4214  1.0000</r>
       <r>   1.4214  1.0000</r>
       <r>   1.4214  1.0000</r>
       <r>   1.4216  1.0000</r>
       <r>   1.4216  1.0000</r>
       <r>   1.4359  1.0000</r>
       <r>   1.4359  1.0000</r>
       <r>   1.4359  1.0000</r>
       <r>   1.4359  1.0000</r>
       <r>   1.4550  1.0000</r>
       <r>   1.4550  1.0000</r>
       <r>   1.4550  1.0000</r>
       <r>   1.4551  1.0000</r>
       <r>   1.4582  1.0000</r>
       <r>   1.4582  1.0000</r>
       <r>   1.4583  1.0000</r>
       <r>   1.4583  1.0000</r>
       <r>   1.4584  1.0000</r>
       <r>   1.4584  1.0000</r>
       <r>   1.4586  1.0000</r>
       <r>   1.4586  1.0000</r>
       <r>   4.2822  1.0000</r>
       <r>   4.2822  1.0000</r>
       <r>   4.2822  1.0000</r>
       <r>   4.2822  1.0000</r>
       <r>   5.1422  0.0000</r>
       <r>   5.1422  0.0000</r>
       <r>   5.1427  0.0000</r>
       <r>   5.1427  0.0000</r>
       <r>   5.1427  0.0000</r>
       <r>   5.1427  0.0000</r>
       <r>   5.1431  0.0000</r>
       <r>   5.1431  0.0000</r>
       <r>   6.1029  0.0000</r>
       <r>   6.1029  0.0000</r>
       <r>   6.1040  0.0000</r>
       <r>   6.1040  0.0000</r>
       <r>   6.1040  0.0000</r>
       <r>   6.1040  0.0000</r>
       <r>   6.1051  0.0000</r>
       <r>   6.1051  0.0000</r>
       <r>   6.9664  0.0000</r>
       <r>   6.9664  0.0000</r>
       <r>   6.9664  0.0000</r>
       <r>   6.9665  0.0000</r>
       <r>  10.0904  0.0000</r>
       <r>  10.0904  0.0000</r>
       <r>  10.0913  0.0000</r>
       <r>  10.0914  0.0000</r>
       <r>  10.0914  0.0000</r>
       <r>  10.0914  0.0000</r>
       <r>  10.0923  0.0000</r>
       <r>  10.0923  0.0000</r>
       <r>  10.6216  0.0000</r>
       <r>  10.6217  0.0000</r>
       <r>  10.6217  0.0000</r>
       <r>  10.6217  0.0000</r>
       <r>  11.7799  0.0000</r>
       <r>  11.7799  0.0000</r>
       <r>  11.7799  0.0000</r>
       <r>  11.7799  0.0000</r>
       <r>  12.3315  0.0000</r>
       <r>  12.3317  0.0000</r>
       <r>  12.3318  0.0000</r>
       <r>  12.3322  0.0000</r>
      </set>
      <set comment="kpoint 195">
       <r>  -2.6502  1.0000</r>
       <r>  -2.6502  1.0000</r>
       <r>  -2.6502  1.0000</r>
       <r>  -2.6502  1.0000</r>
       <r>  -2.5273  1.0000</r>
       <r>  -2.5273  1.0000</r>
       <r>  -2.5273  1.0000</r>
       <r>  -2.5273  1.0000</r>
       <r>  -2.1207  1.0000</r>
       <r>  -2.1205  1.0000</r>
       <r>  -2.1205  1.0000</r>
       <r>  -2.1203  1.0000</r>
       <r>  -2.1201  1.0000</r>
       <r>  -2.1200  1.0000</r>
       <r>  -2.1200  1.0000</r>
       <r>  -2.1200  1.0000</r>
       <r>  -2.1172  1.0000</r>
       <r>  -2.1170  1.0000</r>
       <r>  -2.1170  1.0000</r>
       <r>  -2.1169  1.0000</r>
       <r>  -2.0880  1.0000</r>
       <r>  -2.0880  1.0000</r>
       <r>  -2.0879  1.0000</r>
       <r>  -2.0879  1.0000</r>
       <r>  -2.0660  1.0000</r>
       <r>  -2.0660  1.0000</r>
       <r>  -2.0656  1.0000</r>
       <r>  -2.0656  1.0000</r>
       <r>  -2.0655  1.0000</r>
       <r>  -2.0655  1.0000</r>
       <r>  -2.0651  1.0000</r>
       <r>  -2.0651  1.0000</r>
       <r>  -1.5574  1.0000</r>
       <r>  -1.5574  1.0000</r>
       <r>  -1.5569  1.0000</r>
       <r>  -1.5569  1.0000</r>
       <r>  -1.5568  1.0000</r>
       <r>  -1.5568  1.0000</r>
       <r>  -1.5562  1.0000</r>
       <r>  -1.5562  1.0000</r>
       <r>  -1.5359  1.0000</r>
       <r>  -1.5358  1.0000</r>
       <r>  -1.5358  1.0000</r>
       <r>  -1.5358  1.0000</r>
       <r>  -1.3648  1.0000</r>
       <r>  -1.3648  1.0000</r>
       <r>  -1.3643  1.0000</r>
       <r>  -1.3642  1.0000</r>
       <r>  -1.3642  1.0000</r>
       <r>  -1.3642  1.0000</r>
       <r>  -1.3637  1.0000</r>
       <r>  -1.3637  1.0000</r>
       <r>  -1.3569  1.0000</r>
       <r>  -1.3569  1.0000</r>
       <r>  -1.3568  1.0000</r>
       <r>  -1.3568  1.0000</r>
       <r>  -0.6883  1.0000</r>
       <r>  -0.6883  1.0000</r>
       <r>  -0.6883  1.0000</r>
       <r>  -0.6883  1.0000</r>
       <r>  -0.5576  1.0000</r>
       <r>  -0.5576  1.0000</r>
       <r>  -0.5575  1.0000</r>
       <r>  -0.5575  1.0000</r>
       <r>  -0.5334  1.0000</r>
       <r>  -0.5333  1.0000</r>
       <r>  -0.5333  1.0000</r>
       <r>  -0.5332  1.0000</r>
       <r>  -0.5175  1.0000</r>
       <r>  -0.5175  1.0000</r>
       <r>  -0.5174  1.0000</r>
       <r>  -0.5173  1.0000</r>
       <r>  -0.5077  1.0000</r>
       <r>  -0.5077  1.0000</r>
       <r>  -0.5076  1.0000</r>
       <r>  -0.5076  1.0000</r>
       <r>  -0.3957  1.0000</r>
       <r>  -0.3956  1.0000</r>
       <r>  -0.3956  1.0000</r>
       <r>  -0.3956  1.0000</r>
       <r>  -0.2964  1.0000</r>
       <r>  -0.2964  1.0000</r>
       <r>  -0.2954  1.0000</r>
       <r>  -0.2953  1.0000</r>
       <r>  -0.2948  1.0000</r>
       <r>  -0.2948  1.0000</r>
       <r>  -0.2941  1.0000</r>
       <r>  -0.2941  1.0000</r>
       <r>  -0.2941  1.0000</r>
       <r>  -0.2940  1.0000</r>
       <r>  -0.2925  1.0000</r>
       <r>  -0.2925  1.0000</r>
       <r>  -0.1676  1.0000</r>
       <r>  -0.1676  1.0000</r>
       <r>  -0.1665  1.0000</r>
       <r>  -0.1664  1.0000</r>
       <r>  -0.1664  1.0000</r>
       <r>  -0.1663  1.0000</r>
       <r>  -0.1653  1.0000</r>
       <r>  -0.1653  1.0000</r>
       <r>  -0.1557  1.0000</r>
       <r>  -0.1556  1.0000</r>
       <r>  -0.1555  1.0000</r>
       <r>  -0.1555  1.0000</r>
       <r>   0.1063  1.0000</r>
       <r>   0.1064  1.0000</r>
       <r>   0.1064  1.0000</r>
       <r>   0.1064  1.0000</r>
       <r>   0.1433  1.0000</r>
       <r>   0.1433  1.0000</r>
       <r>   0.1438  1.0000</r>
       <r>   0.1439  1.0000</r>
       <r>   0.1439  1.0000</r>
       <r>   0.1439  1.0000</r>
       <r>   0.1444  1.0000</r>
       <r>   0.1444  1.0000</r>
       <r>   0.3225  1.0000</r>
       <r>   0.3225  1.0000</r>
       <r>   0.3230  1.0000</r>
       <r>   0.3232  1.0000</r>
       <r>   0.3232  1.0000</r>
       <r>   0.3232  1.0000</r>
       <r>   0.3238  1.0000</r>
       <r>   0.3238  1.0000</r>
       <r>   0.3317  1.0000</r>
       <r>   0.3318  1.0000</r>
       <r>   0.3318  1.0000</r>
       <r>   0.3319  1.0000</r>
       <r>   0.4989  1.0000</r>
       <r>   0.4989  1.0000</r>
       <r>   0.4989  1.0000</r>
       <r>   0.4990  1.0000</r>
       <r>   0.6236  1.0000</r>
       <r>   0.6238  1.0000</r>
       <r>   0.6238  1.0000</r>
       <r>   0.6238  1.0000</r>
       <r>   0.6369  1.0000</r>
       <r>   0.6369  1.0000</r>
       <r>   0.6369  1.0000</r>
       <r>   0.6371  1.0000</r>
       <r>   0.7205  1.0000</r>
       <r>   0.7205  1.0000</r>
       <r>   0.7205  1.0000</r>
       <r>   0.7206  1.0000</r>
       <r>   1.4540  1.0000</r>
       <r>   1.4540  1.0000</r>
       <r>   1.4541  1.0000</r>
       <r>   1.4541  1.0000</r>
       <r>   1.4541  1.0000</r>
       <r>   1.4541  1.0000</r>
       <r>   1.4542  1.0000</r>
       <r>   1.4542  1.0000</r>
       <r>   1.4620  1.0000</r>
       <r>   1.4620  1.0000</r>
       <r>   1.4620  1.0000</r>
       <r>   1.4620  1.0000</r>
       <r>   1.4730  1.0000</r>
       <r>   1.4730  1.0000</r>
       <r>   1.4730  1.0000</r>
       <r>   1.4730  1.0000</r>
       <r>   1.4779  1.0000</r>
       <r>   1.4779  1.0000</r>
       <r>   1.4780  1.0000</r>
       <r>   1.4780  1.0000</r>
       <r>   1.4780  1.0000</r>
       <r>   1.4780  1.0000</r>
       <r>   1.4782  1.0000</r>
       <r>   1.4782  1.0000</r>
       <r>   4.9199  0.0000</r>
       <r>   4.9199  0.0000</r>
       <r>   4.9199  0.0000</r>
       <r>   4.9199  0.0000</r>
       <r>   5.3489  0.0000</r>
       <r>   5.3489  0.0000</r>
       <r>   5.3495  0.0000</r>
       <r>   5.3495  0.0000</r>
       <r>   5.3495  0.0000</r>
       <r>   5.3495  0.0000</r>
       <r>   5.3501  0.0000</r>
       <r>   5.3501  0.0000</r>
       <r>   5.8383  0.0000</r>
       <r>   5.8383  0.0000</r>
       <r>   5.8392  0.0000</r>
       <r>   5.8392  0.0000</r>
       <r>   5.8392  0.0000</r>
       <r>   5.8392  0.0000</r>
       <r>   5.8401  0.0000</r>
       <r>   5.8401  0.0000</r>
       <r>   6.2698  0.0000</r>
       <r>   6.2698  0.0000</r>
       <r>   6.2698  0.0000</r>
       <r>   6.2699  0.0000</r>
       <r>  10.5845  0.0000</r>
       <r>  10.5845  0.0000</r>
       <r>  10.5853  0.0000</r>
       <r>  10.5853  0.0000</r>
       <r>  10.5853  0.0000</r>
       <r>  10.5853  0.0000</r>
       <r>  10.5861  0.0000</r>
       <r>  10.5861  0.0000</r>
       <r>  10.8538  0.0000</r>
       <r>  10.8538  0.0000</r>
       <r>  10.8538  0.0000</r>
       <r>  10.8538  0.0000</r>
       <r>  11.4371  0.0000</r>
       <r>  11.4371  0.0000</r>
       <r>  11.4371  0.0000</r>
       <r>  11.4371  0.0000</r>
       <r>  11.7100  0.0000</r>
       <r>  11.7104  0.0000</r>
       <r>  11.7106  0.0000</r>
       <r>  11.7108  0.0000</r>
      </set>
      <set comment="kpoint 196">
       <r>  -2.5938  1.0000</r>
       <r>  -2.5920  1.0000</r>
       <r>  -2.5919  1.0000</r>
       <r>  -2.5919  1.0000</r>
       <r>  -2.5908  1.0000</r>
       <r>  -2.5908  1.0000</r>
       <r>  -2.5907  1.0000</r>
       <r>  -2.5889  1.0000</r>
       <r>  -2.1022  1.0000</r>
       <r>  -2.1015  1.0000</r>
       <r>  -2.1015  1.0000</r>
       <r>  -2.1015  1.0000</r>
       <r>  -2.0999  1.0000</r>
       <r>  -2.0995  1.0000</r>
       <r>  -2.0992  1.0000</r>
       <r>  -2.0992  1.0000</r>
       <r>  -2.0992  1.0000</r>
       <r>  -2.0991  1.0000</r>
       <r>  -2.0991  1.0000</r>
       <r>  -2.0990  1.0000</r>
       <r>  -2.0988  1.0000</r>
       <r>  -2.0988  1.0000</r>
       <r>  -2.0988  1.0000</r>
       <r>  -2.0987  1.0000</r>
       <r>  -2.0987  1.0000</r>
       <r>  -2.0986  1.0000</r>
       <r>  -2.0984  1.0000</r>
       <r>  -2.0980  1.0000</r>
       <r>  -2.0965  1.0000</r>
       <r>  -2.0965  1.0000</r>
       <r>  -2.0964  1.0000</r>
       <r>  -2.0958  1.0000</r>
       <r>  -1.4598  1.0000</r>
       <r>  -1.4557  1.0000</r>
       <r>  -1.4555  1.0000</r>
       <r>  -1.4553  1.0000</r>
       <r>  -1.4553  1.0000</r>
       <r>  -1.4545  1.0000</r>
       <r>  -1.4542  1.0000</r>
       <r>  -1.4542  1.0000</r>
       <r>  -1.4541  1.0000</r>
       <r>  -1.4540  1.0000</r>
       <r>  -1.4540  1.0000</r>
       <r>  -1.4539  1.0000</r>
       <r>  -1.4539  1.0000</r>
       <r>  -1.4539  1.0000</r>
       <r>  -1.4539  1.0000</r>
       <r>  -1.4538  1.0000</r>
       <r>  -1.4536  1.0000</r>
       <r>  -1.4536  1.0000</r>
       <r>  -1.4533  1.0000</r>
       <r>  -1.4525  1.0000</r>
       <r>  -1.4525  1.0000</r>
       <r>  -1.4524  1.0000</r>
       <r>  -1.4521  1.0000</r>
       <r>  -1.4480  1.0000</r>
       <r>  -0.5377  1.0000</r>
       <r>  -0.5367  1.0000</r>
       <r>  -0.5356  1.0000</r>
       <r>  -0.5356  1.0000</r>
       <r>  -0.5352  1.0000</r>
       <r>  -0.5352  1.0000</r>
       <r>  -0.5340  1.0000</r>
       <r>  -0.5340  1.0000</r>
       <r>  -0.5323  1.0000</r>
       <r>  -0.5323  1.0000</r>
       <r>  -0.5321  1.0000</r>
       <r>  -0.5318  1.0000</r>
       <r>  -0.5312  1.0000</r>
       <r>  -0.5311  1.0000</r>
       <r>  -0.5311  1.0000</r>
       <r>  -0.5310  1.0000</r>
       <r>  -0.5307  1.0000</r>
       <r>  -0.5307  1.0000</r>
       <r>  -0.5306  1.0000</r>
       <r>  -0.5298  1.0000</r>
       <r>  -0.5298  1.0000</r>
       <r>  -0.5296  1.0000</r>
       <r>  -0.5292  1.0000</r>
       <r>  -0.5292  1.0000</r>
       <r>  -0.2302  1.0000</r>
       <r>  -0.2302  1.0000</r>
       <r>  -0.2288  1.0000</r>
       <r>  -0.2281  1.0000</r>
       <r>  -0.2268  1.0000</r>
       <r>  -0.2265  1.0000</r>
       <r>  -0.2264  1.0000</r>
       <r>  -0.2264  1.0000</r>
       <r>  -0.2264  1.0000</r>
       <r>  -0.2264  1.0000</r>
       <r>  -0.2263  1.0000</r>
       <r>  -0.2263  1.0000</r>
       <r>  -0.2262  1.0000</r>
       <r>  -0.2262  1.0000</r>
       <r>  -0.2261  1.0000</r>
       <r>  -0.2261  1.0000</r>
       <r>  -0.2260  1.0000</r>
       <r>  -0.2260  1.0000</r>
       <r>  -0.2260  1.0000</r>
       <r>  -0.2256  1.0000</r>
       <r>  -0.2244  1.0000</r>
       <r>  -0.2236  1.0000</r>
       <r>  -0.2223  1.0000</r>
       <r>  -0.2223  1.0000</r>
       <r>   0.2139  1.0000</r>
       <r>   0.2154  1.0000</r>
       <r>   0.2154  1.0000</r>
       <r>   0.2178  1.0000</r>
       <r>   0.2179  1.0000</r>
       <r>   0.2180  1.0000</r>
       <r>   0.2180  1.0000</r>
       <r>   0.2183  1.0000</r>
       <r>   0.2184  1.0000</r>
       <r>   0.2185  1.0000</r>
       <r>   0.2185  1.0000</r>
       <r>   0.2185  1.0000</r>
       <r>   0.2186  1.0000</r>
       <r>   0.2186  1.0000</r>
       <r>   0.2186  1.0000</r>
       <r>   0.2186  1.0000</r>
       <r>   0.2188  1.0000</r>
       <r>   0.2191  1.0000</r>
       <r>   0.2191  1.0000</r>
       <r>   0.2192  1.0000</r>
       <r>   0.2194  1.0000</r>
       <r>   0.2217  1.0000</r>
       <r>   0.2217  1.0000</r>
       <r>   0.2231  1.0000</r>
       <r>   0.6052  1.0000</r>
       <r>   0.6068  1.0000</r>
       <r>   0.6068  1.0000</r>
       <r>   0.6068  1.0000</r>
       <r>   0.6080  1.0000</r>
       <r>   0.6080  1.0000</r>
       <r>   0.6082  1.0000</r>
       <r>   0.6083  1.0000</r>
       <r>   0.6084  1.0000</r>
       <r>   0.6085  1.0000</r>
       <r>   0.6088  1.0000</r>
       <r>   0.6088  1.0000</r>
       <r>   0.6099  1.0000</r>
       <r>   0.6099  1.0000</r>
       <r>   0.6100  1.0000</r>
       <r>   0.6115  1.0000</r>
       <r>   1.4741  1.0000</r>
       <r>   1.4741  1.0000</r>
       <r>   1.4744  1.0000</r>
       <r>   1.4746  1.0000</r>
       <r>   1.4746  1.0000</r>
       <r>   1.4746  1.0000</r>
       <r>   1.4746  1.0000</r>
       <r>   1.4747  1.0000</r>
       <r>   1.4748  1.0000</r>
       <r>   1.4749  1.0000</r>
       <r>   1.4749  1.0000</r>
       <r>   1.4749  1.0000</r>
       <r>   1.4751  1.0000</r>
       <r>   1.4752  1.0000</r>
       <r>   1.4752  1.0000</r>
       <r>   1.4753  1.0000</r>
       <r>   1.4753  1.0000</r>
       <r>   1.4754  1.0000</r>
       <r>   1.4754  1.0000</r>
       <r>   1.4754  1.0000</r>
       <r>   1.4755  1.0000</r>
       <r>   1.4757  1.0000</r>
       <r>   1.4759  1.0000</r>
       <r>   1.4759  1.0000</r>
       <r>   5.5789  0.0000</r>
       <r>   5.5808  0.0000</r>
       <r>   5.5808  0.0000</r>
       <r>   5.5834  0.0000</r>
       <r>   5.5840  0.0000</r>
       <r>   5.5840  0.0000</r>
       <r>   5.5841  0.0000</r>
       <r>   5.5841  0.0000</r>
       <r>   5.5843  0.0000</r>
       <r>   5.5843  0.0000</r>
       <r>   5.5843  0.0000</r>
       <r>   5.5843  0.0000</r>
       <r>   5.5846  0.0000</r>
       <r>   5.5846  0.0000</r>
       <r>   5.5846  0.0000</r>
       <r>   5.5846  0.0000</r>
       <r>   5.5848  0.0000</r>
       <r>   5.5848  0.0000</r>
       <r>   5.5849  0.0000</r>
       <r>   5.5849  0.0000</r>
       <r>   5.5855  0.0000</r>
       <r>   5.5881  0.0000</r>
       <r>   5.5881  0.0000</r>
       <r>   5.5900  0.0000</r>
       <r>  11.1211  0.0000</r>
       <r>  11.1213  0.0000</r>
       <r>  11.1219  0.0000</r>
       <r>  11.1254  0.0000</r>
       <r>  11.1257  0.0000</r>
       <r>  11.1264  0.0000</r>
       <r>  11.1264  0.0000</r>
       <r>  11.1268  0.0000</r>
       <r>  11.1269  0.0000</r>
       <r>  11.1269  0.0000</r>
       <r>  11.1270  0.0000</r>
       <r>  11.1271  0.0000</r>
       <r>  11.1271  0.0000</r>
       <r>  11.1272  0.0000</r>
       <r>  11.1272  0.0000</r>
       <r>  11.1274  0.0000</r>
       <r>  11.1277  0.0000</r>
       <r>  11.1277  0.0000</r>
       <r>  11.1284  0.0000</r>
       <r>  11.1286  0.0000</r>
      </set>
     </set>
    </set>
   </array>
  </eigenvalues>
 </calculation>
 <structure name="finalpos" >
  <crystal>
   <varray name="basis" >
    <v>       7.91012709      0.00000000      0.00000000</v>
    <v>       0.00000000      7.91012709      0.00000000</v>
    <v>       0.00000000      0.00000000      7.91012709</v>
   </varray>
   <i name="volume">    494.93752580</i>
   <varray name="rec_basis" >
    <v>       0.12642022      0.00000000      0.00000000</v>
    <v>       0.00000000      0.12642022      0.00000000</v>
    <v>       0.00000000      0.00000000      0.12642022</v>
   </varray>
  </crystal>
  <varray name="positions" >
   <v>       0.00126420      0.00000000      0.00000000</v>
   <v>       0.50000000      0.00000000      0.00000000</v>
   <v>       0.00000000      0.50000000      0.00000000</v>
   <v>       0.50000000      0.50000000      0.00000000</v>
   <v>       0.00000000      0.00000000      0.50000000</v>
   <v>       0.50000000      0.00000000      0.50000000</v>
   <v>       0.00000000      0.50000000      0.50000000</v>
   <v>       0.50000000      0.50000000      0.50000000</v>
   <v>       0.25000000      0.25000000      0.00000000</v>
   <v>       0.75000000      0.25000000      0.00000000</v>
   <v>       0.25000000      0.75000000      0.00000000</v>
   <v>       0.75000000      0.75000000      0.00000000</v>
   <v>       0.25000000      0.25000000      0.50000000</v>
   <v>       0.75000000      0.25000000      0.50000000</v>
   <v>       0.25000000      0.75000000      0.50000000</v>
   <v>       0.75000000      0.75000000      0.50000000</v>
   <v>       0.25000000      0.00000000      0.25000000</v>
   <v>       0.75000000      0.00000000      0.25000000</v>
   <v>       0.25000000      0.50000000      0.25000000</v>
   <v>       0.75000000      0.50000000      0.25000000</v>
   <v>       0.25000000      0.00000000      0.75000000</v>
   <v>       0.75000000      0.00000000      0.75000000</v>
   <v>       0.25000000      0.50000000      0.75000000</v>
   <v>       0.75000000      0.50000000      0.75000000</v>
   <v>       0.00000000      0.25000000      0.25000000</v>
   <v>       0.50000000      0.25000000      0.25000000</v>
   <v>       0.00000000      0.75000000      0.25000000</v>
   <v>       0.50000000      0.75000000      0.25000000</v>
   <v>       0.00000000      0.25000000      0.75000000</v>
   <v>       0.50000000      0.25000000      0.75000000</v>
   <v>       0.00000000      0.75000000      0.75000000</v>
   <v>       0.50000000      0.75000000      0.75000000</v>
  </varray>
 </structure>
</modeling>
