  32  32   0   0
  0.1797597E+02  0.8316632E-09  0.8316632E-09  0.8316632E-09  0.5000000E-15
  1.000000000000000E-004
  CAR 
 unknown system                          
     11.57376855     -4.13516798  301      7.16210850      1.00000000
     -4.135  0.0000E+00  0.0000E+00
     -4.083  0.0000E+00  0.0000E+00
     -4.030  0.0000E+00  0.0000E+00
     -3.978  0.0000E+00  0.0000E+00
     -3.926  0.0000E+00  0.0000E+00
     -3.873  0.0000E+00  0.0000E+00
     -3.821  0.0000E+00  0.0000E+00
     -3.769  0.0000E+00  0.0000E+00
     -3.716  0.0000E+00  0.0000E+00
     -3.664  0.0000E+00  0.0000E+00
     -3.612  0.0000E+00  0.0000E+00
     -3.559  0.0000E+00  0.0000E+00
     -3.507  0.0000E+00  0.0000E+00
     -3.454  0.2164E-06  0.1133E-07
     -3.402  0.1762E+00  0.9226E-02
     -3.350  0.1014E+01  0.6230E-01
     -3.297  0.1652E+01  0.1488E+00
     -3.245  0.1057E+01  0.2041E+00
     -3.193  0.9794E+00  0.2554E+00
     -3.140  0.1005E+01  0.3080E+00
     -3.088  0.4199E+01  0.5279E+00
     -3.036  0.4242E+01  0.7500E+00
     -2.983  0.1789E-06  0.7500E+00
     -2.931  0.2090E+01  0.8595E+00
     -2.878  0.4722E+01  0.1107E+01
     -2.826  0.3107E+01  0.1269E+01
     -2.774  0.2724E+01  0.1412E+01
     -2.721  0.3333E+01  0.1587E+01
     -2.669  0.1369E+01  0.1658E+01
     -2.617  0.4228E+01  0.1880E+01
     -2.564  0.8486E+01  0.2324E+01
     -2.512  0.6989E-03  0.2324E+01
     -2.460  0.1027E+01  0.2378E+01
     -2.407  0.6978E+01  0.2743E+01
     -2.355  0.4631E+01  0.2986E+01
     -2.302  0.3995E+01  0.3195E+01
     -2.250  0.3646E+01  0.3386E+01
     -2.198  0.4143E+01  0.3603E+01
     -2.145  0.8469E+01  0.4046E+01
     -2.093  0.4243E+01  0.4268E+01
     -2.041  0.7965E-03  0.4269E+01
     -1.988  0.4066E+01  0.4481E+01
     -1.936  0.4394E+01  0.4712E+01
     -1.884  0.6986E+01  0.5077E+01
     -1.831  0.7747E+01  0.5483E+01
     -1.779  0.4745E+01  0.5731E+01
     -1.726  0.3347E-01  0.5733E+01
     -1.674  0.1270E+02  0.6398E+01
     -1.622  0.8486E+01  0.6843E+01
     -1.569  0.1204E-02  0.6843E+01
     -1.517  0.2054E+01  0.6950E+01
     -1.465  0.7095E+01  0.7322E+01
     -1.412  0.5908E+01  0.7631E+01
     -1.360  0.5796E+01  0.7935E+01
     -1.308  0.6974E+01  0.8300E+01
     -1.255  0.5085E+01  0.8566E+01
     -1.203  0.4225E+01  0.8787E+01
     -1.150  0.1273E+02  0.9454E+01
     -1.098  0.3565E-03  0.9454E+01
     -1.046  0.4168E+01  0.9672E+01
     -0.993  0.1529E+02  0.1047E+02
     -0.941  0.7331E+01  0.1086E+02
     -0.889  0.4307E+01  0.1108E+02
     -0.836  0.3256E+01  0.1125E+02
     -0.784  0.4049E+01  0.1146E+02
     -0.732  0.1253E+02  0.1212E+02
     -0.679  0.8475E+01  0.1256E+02
     -0.627  0.1491E-05  0.1256E+02
     -0.574  0.1409E+01  0.1264E+02
     -0.522  0.9198E+01  0.1312E+02
     -0.470  0.1272E+02  0.1379E+02
     -0.417  0.7172E+01  0.1416E+02
     -0.365  0.4829E+01  0.1441E+02
     -0.313  0.4047E+01  0.1463E+02
     -0.260  0.1208E+02  0.1526E+02
     -0.208  0.1680E+02  0.1614E+02
     -0.156  0.3085E-03  0.1614E+02
     -0.103  0.8483E+01  0.1658E+02
     -0.051  0.8445E+01  0.1703E+02
      0.002  0.4118E+01  0.1724E+02
      0.054  0.1053E+02  0.1779E+02
      0.106  0.2378E+01  0.1792E+02
      0.159  0.2991E+01  0.1807E+02
      0.211  0.1086E+02  0.1864E+02
      0.263  0.1585E+02  0.1947E+02
      0.316  0.1602E-02  0.1947E+02
      0.368  0.1061E+01  0.1953E+02
      0.420  0.1697E+02  0.2042E+02
      0.473  0.1692E+02  0.2130E+02
      0.525  0.4178E+01  0.2152E+02
      0.578  0.7538E+01  0.2192E+02
      0.630  0.1217E+02  0.2255E+02
      0.682  0.8495E+01  0.2300E+02
      0.735  0.5882E+01  0.2331E+02
      0.787  0.1995E+00  0.2332E+02
      0.839  0.6196E+01  0.2364E+02
      0.892  0.8464E+01  0.2408E+02
      0.944  0.2121E+02  0.2519E+02
      0.996  0.9888E+01  0.2571E+02
      1.049  0.4201E+01  0.2593E+02
      1.101  0.1601E+02  0.2677E+02
      1.154  0.7614E+01  0.2717E+02
      1.206  0.1898E+01  0.2727E+02
      1.258  0.1208E+01  0.2733E+02
      1.311  0.4647E+01  0.2758E+02
      1.363  0.1675E+02  0.2845E+02
      1.415  0.8222E+01  0.2888E+02
      1.468  0.1267E+02  0.2955E+02
      1.520  0.8485E+01  0.2999E+02
      1.572  0.8478E+01  0.3043E+02
      1.625  0.2098E+02  0.3153E+02
      1.677  0.2444E+00  0.3155E+02
      1.730  0.3121E+01  0.3171E+02
      1.782  0.1569E+02  0.3253E+02
      1.834  0.1734E+02  0.3344E+02
      1.887  0.1676E+02  0.3432E+02
      1.939  0.6500E+01  0.3466E+02
      1.991  0.2972E-01  0.3466E+02
      2.044  0.8481E+01  0.3510E+02
      2.096  0.1695E+02  0.3599E+02
      2.148  0.9131E-03  0.3599E+02
      2.201  0.4220E+01  0.3621E+02
      2.253  0.8209E+01  0.3664E+02
      2.305  0.1758E+02  0.3756E+02
      2.358  0.1040E+02  0.3811E+02
      2.410  0.6912E+01  0.3847E+02
      2.463  0.1182E+02  0.3909E+02
      2.515  0.2345E+02  0.4032E+02
      2.567  0.5469E+01  0.4060E+02
      2.620  0.8207E+00  0.4064E+02
      2.672  0.1243E+02  0.4130E+02
      2.724  0.1645E+02  0.4216E+02
      2.777  0.1273E+02  0.4282E+02
      2.829  0.1265E+02  0.4349E+02
      2.881  0.5485E+01  0.4377E+02
      2.934  0.1157E+02  0.4438E+02
      2.986  0.2126E+02  0.4549E+02
      3.039  0.5620E+01  0.4579E+02
      3.091  0.8564E-10  0.4579E+02
      3.143  0.7093E+01  0.4616E+02
      3.196  0.1011E+02  0.4669E+02
      3.248  0.1684E+02  0.4757E+02
      3.300  0.8835E+01  0.4803E+02
      3.353  0.1252E+02  0.4869E+02
      3.405  0.2101E+02  0.4979E+02
      3.457  0.1270E+02  0.5045E+02
      3.510  0.8555E-02  0.5045E+02
      3.562  0.9462E+01  0.5095E+02
      3.615  0.1351E+02  0.5166E+02
      3.667  0.1480E+02  0.5243E+02
      3.719  0.1065E+02  0.5299E+02
      3.772  0.4390E+01  0.5322E+02
      3.824  0.1305E+02  0.5390E+02
      3.876  0.2720E+02  0.5533E+02
      3.929  0.9835E+01  0.5584E+02
      3.981  0.2195E-01  0.5584E+02
      4.033  0.6611E+01  0.5619E+02
      4.086  0.2519E+02  0.5751E+02
      4.138  0.1274E+02  0.5818E+02
      4.191  0.1316E+02  0.5886E+02
      4.243  0.4260E+01  0.5909E+02
      4.295  0.1923E+02  0.6009E+02
      4.348  0.1150E+02  0.6070E+02
      4.400  0.1127E+02  0.6129E+02
      4.452  0.6704E+01  0.6164E+02
      4.505  0.1790E+02  0.6258E+02
      4.557  0.1473E+02  0.6335E+02
      4.609  0.1219E+02  0.6399E+02
      4.662  0.1491E+02  0.6477E+02
      4.714  0.1701E+02  0.6566E+02
      4.767  0.8330E+01  0.6609E+02
      4.819  0.8478E+01  0.6654E+02
      4.871  0.2085E+01  0.6665E+02
      4.924  0.6069E+01  0.6696E+02
      4.976  0.2952E+02  0.6851E+02
      5.028  0.1744E+02  0.6942E+02
      5.081  0.8905E+01  0.6989E+02
      5.133  0.3493E+01  0.7007E+02
      5.185  0.1725E+02  0.7097E+02
      5.238  0.1760E+02  0.7190E+02
      5.290  0.9779E+01  0.7241E+02
      5.343  0.5082E+01  0.7267E+02
      5.395  0.1511E+02  0.7347E+02
      5.447  0.1772E+02  0.7439E+02
      5.500  0.1692E+02  0.7528E+02
      5.552  0.1322E+02  0.7597E+02
      5.604  0.1012E+02  0.7650E+02
      5.657  0.2558E+01  0.7664E+02
      5.709  0.1279E+02  0.7731E+02
      5.761  0.3672E+00  0.7732E+02
      5.814  0.1659E+02  0.7819E+02
      5.866  0.2969E+02  0.7975E+02
      5.919  0.6716E+01  0.8010E+02
      5.971  0.6460E+01  0.8044E+02
      6.023  0.1211E+02  0.8107E+02
      6.076  0.1976E+02  0.8211E+02
      6.128  0.1666E+02  0.8298E+02
      6.180  0.1407E+02  0.8372E+02
      6.233  0.1718E+01  0.8381E+02
      6.285  0.1240E+02  0.8446E+02
      6.337  0.7811E+01  0.8486E+02
      6.390  0.2148E+02  0.8599E+02
      6.442  0.6397E+01  0.8632E+02
      6.495  0.1885E+02  0.8731E+02
      6.547  0.2226E+02  0.8848E+02
      6.599  0.1421E+02  0.8922E+02
      6.652  0.9054E+01  0.8969E+02
      6.704  0.5245E+01  0.8997E+02
      6.756  0.7768E+01  0.9038E+02
      6.809  0.2077E+02  0.9146E+02
      6.861  0.4515E+01  0.9170E+02
      6.913  0.1298E+02  0.9238E+02
      6.966  0.1107E+02  0.9296E+02
      7.018  0.3620E+02  0.9485E+02
      7.071  0.1062E+02  0.9541E+02
      7.123  0.5236E+01  0.9568E+02
      7.175  0.1564E+02  0.9650E+02
      7.228  0.3310E+02  0.9824E+02
      7.280  0.1068E+02  0.9880E+02
      7.332  0.8362E+01  0.9923E+02
      7.385  0.1149E+02  0.9984E+02
      7.437  0.1431E+02  0.1006E+03
      7.489  0.1574E+02  0.1014E+03
      7.542  0.1042E+02  0.1020E+03
      7.594  0.4659E+01  0.1022E+03
      7.647  0.2030E+02  0.1033E+03
      7.699  0.1400E+02  0.1040E+03
      7.751  0.9472E+01  0.1045E+03
      7.804  0.5299E+01  0.1048E+03
      7.856  0.9642E+01  0.1053E+03
      7.908  0.1178E+02  0.1059E+03
      7.961  0.1944E+02  0.1069E+03
      8.013  0.1990E+02  0.1080E+03
      8.065  0.2283E+02  0.1091E+03
      8.118  0.1213E+02  0.1098E+03
      8.170  0.2379E+02  0.1110E+03
      8.223  0.8861E+01  0.1115E+03
      8.275  0.1143E+02  0.1121E+03
      8.327  0.1804E+02  0.1130E+03
      8.380  0.1187E+02  0.1137E+03
      8.432  0.1128E+02  0.1142E+03
      8.484  0.2225E+02  0.1154E+03
      8.537  0.2227E+02  0.1166E+03
      8.589  0.2801E+02  0.1180E+03
      8.641  0.1049E+01  0.1181E+03
      8.694  0.3826E+01  0.1183E+03
      8.746  0.1780E+02  0.1192E+03
      8.799  0.1136E+02  0.1198E+03
      8.851  0.2047E+02  0.1209E+03
      8.903  0.7032E+01  0.1213E+03
      8.956  0.1710E+02  0.1222E+03
      9.008  0.1726E+02  0.1231E+03
      9.060  0.1662E+02  0.1239E+03
      9.113  0.1747E+02  0.1248E+03
      9.165  0.1313E+02  0.1255E+03
      9.217  0.8691E+01  0.1260E+03
      9.270  0.1147E+02  0.1266E+03
      9.322  0.1128E+02  0.1272E+03
      9.375  0.3301E+02  0.1289E+03
      9.427  0.1936E+02  0.1299E+03
      9.479  0.1745E+02  0.1308E+03
      9.532  0.7802E+00  0.1309E+03
      9.584  0.1860E+02  0.1319E+03
      9.636  0.1662E+02  0.1327E+03
      9.689  0.1616E+02  0.1336E+03
      9.741  0.6822E+01  0.1339E+03
      9.793  0.1851E+02  0.1349E+03
      9.846  0.7886E+01  0.1353E+03
      9.898  0.2098E+02  0.1364E+03
      9.951  0.6363E+01  0.1367E+03
     10.003  0.1725E+02  0.1376E+03
     10.055  0.2240E+02  0.1388E+03
     10.108  0.1448E+02  0.1396E+03
     10.160  0.2952E+02  0.1411E+03
     10.212  0.1652E+00  0.1411E+03
     10.265  0.8248E+01  0.1416E+03
     10.317  0.1707E+02  0.1425E+03
     10.369  0.1456E+00  0.1425E+03
     10.422  0.2456E+01  0.1426E+03
     10.474  0.1169E+02  0.1432E+03
     10.527  0.8486E+01  0.1436E+03
     10.579  0.1360E+01  0.1437E+03
     10.631  0.5519E-01  0.1437E+03
     10.684  0.3282E-07  0.1437E+03
     10.736  0.3369E+01  0.1439E+03
     10.788  0.8747E+00  0.1439E+03
     10.841  0.5953E-02  0.1439E+03
     10.893  0.1055E+01  0.1440E+03
     10.945  0.0000E+00  0.1440E+03
     10.998  0.0000E+00  0.1440E+03
     11.050  0.0000E+00  0.1440E+03
     11.103  0.0000E+00  0.1440E+03
     11.155  0.0000E+00  0.1440E+03
     11.207  0.0000E+00  0.1440E+03
     11.260  0.0000E+00  0.1440E+03
     11.312  0.0000E+00  0.1440E+03
     11.364  0.0000E+00  0.1440E+03
     11.417  0.0000E+00  0.1440E+03
     11.469  0.0000E+00  0.1440E+03
     11.521  0.0000E+00  0.1440E+03
     11.574  0.0000E+00  0.1440E+03
