   32   32    1    1
  0.1797597E+02  0.8316632E-09  0.8316632E-09  0.8316632E-09  0.5000000E-15
  1.000000000000000E-004
  CAR 
 unknown system                          
   96   40   72
 
  0.0000000E+00  0.0000000E+00  0.0000000E+00  0.4629630E-02
   1       -3.4211
   2       -1.2988
   3       -1.2953
   4       -1.2953
   5       -1.2953
   6       -1.2953
   7       -1.2919
   8        0.7956
   9        0.8000
  10        0.8000
  11        0.8015
  12        0.8016
  13        0.8016
  14        0.8016
  15        0.8016
  16        0.8018
  17        0.8033
  18        0.8033
  19        0.8076
  20        2.8650
  21        2.8653
  22        2.8653
  23        2.8655
  24        2.8785
  25        2.8787
  26        2.8787
  27        2.8790
  28        4.4176
  29        4.4176
  30        4.4176
  31        5.5348
  32        5.5348
  33        5.5349
  34        6.3930
  35        6.3930
  36        6.3971
  37        6.3971
  38        6.3972
  39        6.3972
  40        6.3972
  41        6.3972
  42        6.3972
  43        6.3972
  44        6.4013
  45        6.4013
  46        7.4455
  47        7.4494
  48        7.4494
  49        7.4494
  50        7.4494
  51        7.4532
  52        7.7814
  53        7.7822
  54        7.7822
  55        7.7822
  56        7.7823
  57        7.7831
  58        8.3756
  59        8.3756
  60        8.3773
  61        8.3794
  62        8.3795
  63        8.3795
  64        8.3795
  65        8.3796
  66        8.3796
  67        8.3817
  68        8.3834
  69        8.3834
  70        9.6261
  71        9.6281
  72        9.6292
 
  0.1666667E+00  0.0000000E+00  0.0000000E+00  0.9259259E-02
   1       -3.3617
   2       -1.9417
   3       -1.2367
   4       -1.2367
   5       -1.2367
   6       -1.2367
   7       -0.5351
   8        0.1639
   9        0.1639
  10        0.1639
  11        0.1639
  12        0.8595
  13        0.8595
  14        0.8595
  15        0.8595
  16        1.5517
  17        1.5517
  18        1.5517
  19        1.5517
  20        2.2421
  21        2.2421
  22        2.2421
  23        2.2421
  24        3.5522
  25        3.6130
  26        3.6130
  27        3.6130
  28        3.6130
  29        4.4725
  30        4.4725
  31        5.5727
  32        5.5730
  33        5.5730
  34        5.5730
  35        5.5933
  36        5.5935
  37        5.7917
  38        5.7917
  39        6.4522
  40        6.4522
  41        6.4522
  42        6.4522
  43        6.5045
  44        6.9692
  45        6.9692
  46        7.1133
  47        7.1133
  48        7.5820
  49        7.5820
  50        7.5820
  51        7.5820
  52        7.6523
  53        7.6523
  54        7.6523
  55        7.6524
  56        7.7736
  57        7.7736
  58        7.7736
  59        7.7736
  60        8.3658
  61        8.3658
  62        8.5619
  63        8.5619
  64        8.5619
  65        8.5619
  66        9.0201
  67        9.0201
  68        9.0202
  69        9.0203
  70        9.0958
  71        9.0958
  72        9.0958
 
  0.3333333E+00  0.0000000E+00  0.0000000E+00  0.9259259E-02
   1       -3.1835
   2       -2.4727
   3       -1.0610
   4       -1.0610
   5       -1.0610
   6       -1.0609
   7       -0.3599
   8       -0.3599
   9       -0.3599
  10       -0.3599
  11        0.3367
  12        1.0329
  13        1.0329
  14        1.0329
  15        1.0329
  16        1.7250
  17        1.7250
  18        1.7250
  19        1.7250
  20        2.3975
  21        2.4119
  22        2.4119
  23        2.4119
  24        2.4120
  25        4.4425
  26        4.4425
  27        4.4425
  28        4.4426
  29        4.4628
  30        4.4628
  31        4.4628
  32        4.4628
  33        4.6373
  34        4.6373
  35        5.2967
  36        5.2967
  37        5.7681
  38        5.7681
  39        6.4605
  40        6.4610
  41        6.4685
  42        6.4685
  43        6.4685
  44        6.4690
  45        6.6173
  46        6.6173
  47        6.6173
  48        6.6173
  49        7.2779
  50        7.2779
  51        7.2779
  52        7.2779
  53        7.8361
  54        7.8361
  55        7.8361
  56        7.8361
  57        7.9403
  58        7.9403
  59        7.9715
  60        8.5168
  61        8.5168
  62        8.5168
  63        8.5168
  64        9.1807
  65        9.1807
  66        9.9220
  67        9.9223
  68        9.9227
  69        9.9240
  70        9.9277
  71        9.9291
  72        9.9816
 
  0.5000000E+00  0.0000000E+00  0.0000000E+00  0.4629630E-02
   1       -2.8883
   2       -2.8855
   3       -0.7723
   4       -0.7693
   5       -0.7693
   6       -0.7685
   7       -0.7685
   8       -0.7677
   9       -0.7677
  10       -0.7647
  11        1.3141
  12        1.3167
  13        1.3203
  14        1.3204
  15        1.3204
  16        1.3212
  17        1.3220
  18        1.3228
  19        1.3228
  20        1.3253
  21        3.3771
  22        3.3775
  23        3.3775
  24        3.3781
  25        3.3784
  26        3.3790
  27        3.3790
  28        3.3795
  29        4.9105
  30        4.9105
  31        4.9134
  32        4.9134
  33        5.4164
  34        5.4164
  35        5.4171
  36        5.4172
  37        5.4178
  38        5.4180
  39        5.4186
  40        5.4186
  41        6.0565
  42        6.0574
  43        6.0592
  44        6.0600
  45        6.8903
  46        6.8903
  47        6.8912
  48        6.8924
  49        6.8926
  50        6.8938
  51        6.8948
  52        6.8948
  53        8.1195
  54        8.1207
  55        8.1207
  56        8.1208
  57        8.1226
  58        8.1228
  59        8.1228
  60        8.1240
  61        8.8771
  62        8.8771
  63        8.8793
  64        8.8793
  65        9.5713
  66        9.5728
  67       10.0805
  68       10.0811
  69       10.0823
  70       10.0829
  71       10.8582
  72       10.8595
 
  0.0000000E+00  0.1666667E+00  0.0000000E+00  0.1851852E-01
   1       -3.3617
   2       -1.9417
   3       -1.2394
   4       -1.2367
   5       -1.2367
   6       -1.2340
   7       -0.5351
   8        0.1612
   9        0.1639
  10        0.1639
  11        0.1666
  12        0.8573
  13        0.8584
  14        0.8605
  15        0.8616
  16        1.5490
  17        1.5517
  18        1.5517
  19        1.5544
  20        2.2400
  21        2.2410
  22        2.2432
  23        2.2443
  24        3.5522
  25        3.6108
  26        3.6119
  27        3.6141
  28        3.6152
  29        4.4725
  30        4.4725
  31        5.5701
  32        5.5730
  33        5.5730
  34        5.5758
  35        5.5933
  36        5.5933
  37        5.7917
  38        5.7918
  39        6.4496
  40        6.4522
  41        6.4522
  42        6.4548
  43        6.5045
  44        6.9692
  45        6.9692
  46        7.1133
  47        7.1133
  48        7.5796
  49        7.5810
  50        7.5831
  51        7.5845
  52        7.6502
  53        7.6523
  54        7.6523
  55        7.6544
  56        7.7710
  57        7.7735
  58        7.7736
  59        7.7762
  60        8.3658
  61        8.3658
  62        8.5596
  63        8.5619
  64        8.5619
  65        8.5641
  66        9.0182
  67        9.0202
  68        9.0202
  69        9.0222
  70        9.0934
  71        9.0958
  72        9.0974
 
  0.1666667E+00  0.1666667E+00  0.0000000E+00  0.3703704E-01
   1       -3.3023
   2       -1.8839
   3       -1.8818
   4       -1.1781
   5       -1.1781
   6       -0.4784
   7       -0.4767
   8       -0.4750
   9        0.2204
  10        0.2213
  11        0.2226
  12        0.2235
  13        0.9165
  14        0.9175
  15        1.6071
  16        1.6084
  17        1.6095
  18        1.6096
  19        1.6107
  20        1.6119
  21        2.2983
  22        2.9826
  23        2.9826
  24        2.9891
  25        2.9891
  26        3.6081
  27        3.6091
  28        4.3508
  29        4.3508
  30        4.5274
  31        4.9568
  32        4.9590
  33        5.5948
  34        5.5948
  35        5.6515
  36        5.6657
  37        5.6658
  38        5.8455
  39        5.8479
  40        6.2926
  41        6.2940
  42        6.5608
  43        6.5618
  44        6.9690
  45        6.9699
  46        6.9712
  47        6.9722
  48        7.0452
  49        7.0468
  50        7.1660
  51        7.1681
  52        7.1703
  53        7.8834
  54        7.8851
  55        8.3012
  56        8.3023
  57        8.3024
  58        8.3034
  59        8.4066
  60        8.4428
  61        8.4439
  62        8.4732
  63        8.4733
  64        8.4890
  65        8.4909
  66        8.7189
  67        8.7189
  68        9.2649
  69        9.2669
  70        9.7347
  71        9.7349
  72        9.8117
 
  0.3333333E+00  0.1666667E+00  0.0000000E+00  0.3703704E-01
   1       -3.1241
   2       -2.4136
   3       -1.7064
   4       -1.0038
   5       -1.0024
   6       -1.0011
   7       -0.3031
   8       -0.3016
   9       -0.3004
  10        0.3933
  11        0.3957
  12        0.3961
  13        0.3974
  14        1.0908
  15        1.0908
  16        1.7804
  17        1.7820
  18        1.7822
  19        2.4545
  20        2.4683
  21        2.4688
  22        2.4713
  23        2.4720
  24        3.1543
  25        3.7777
  26        3.8204
  27        3.8388
  28        3.8388
  29        4.4530
  30        4.4988
  31        4.4989
  32        4.6922
  33        5.1740
  34        5.1969
  35        5.1970
  36        5.3517
  37        5.7994
  38        5.7995
  39        5.8262
  40        5.8522
  41        5.8523
  42        6.0117
  43        6.4692
  44        6.4692
  45        6.5126
  46        6.6721
  47        6.7315
  48        7.1466
  49        7.1940
  50        7.1940
  51        7.2165
  52        7.3335
  53        7.4058
  54        7.8993
  55        7.9932
  56        7.9965
  57        8.0274
  58        8.5493
  59        8.7528
  60        8.7528
  61        9.1148
  62        9.1297
  63        9.1298
  64        9.2356
  65        9.2388
  66        9.3168
  67        9.3912
  68        9.4259
  69        9.4259
  70        9.9822
  71       10.0393
  72       10.0484
 
  0.5000000E+00  0.1666667E+00  0.0000000E+00  0.1851852E-01
   1       -2.8290
   2       -2.8263
   3       -1.4140
   4       -1.4113
   5       -0.7120
   6       -0.7109
   7       -0.7093
   8       -0.7081
   9       -0.0122
  10       -0.0095
  11        0.6839
  12        0.6851
  13        0.6867
  14        0.6878
  15        1.3735
  16        1.3749
  17        2.0675
  18        2.0686
  19        2.0702
  20        2.0713
  21        2.7504
  22        2.7518
  23        3.4344
  24        3.4345
  25        3.4359
  26        3.4360
  27        4.0580
  28        4.0608
  29        4.1152
  30        4.1166
  31        4.7963
  32        4.7964
  33        4.7978
  34        4.7978
  35        4.9655
  36        4.9684
  37        6.0765
  38        6.0777
  39        6.0793
  40        6.0805
  41        6.1141
  42        6.1168
  43        6.1468
  44        6.1470
  45        6.1484
  46        6.1484
  47        6.2854
  48        6.2883
  49        7.0126
  50        7.0154
  51        7.5005
  52        7.5031
  53        7.6074
  54        7.6103
  55        8.0778
  56        8.0795
  57        8.8416
  58        8.8443
  59        8.9321
  60        8.9344
  61        9.0345
  62        9.0353
  63        9.0373
  64        9.0381
  65        9.6260
  66        9.6276
  67       10.0600
  68       10.0603
  69       10.0619
  70       10.0621
  71       10.1367
  72       10.1373
 
  0.0000000E+00  0.3333333E+00  0.0000000E+00  0.1851852E-01
   1       -3.1835
   2       -2.4727
   3       -1.0637
   4       -1.0610
   5       -1.0610
   6       -1.0583
   7       -0.3626
   8       -0.3599
   9       -0.3599
  10       -0.3572
  11        0.3367
  12        1.0308
  13        1.0318
  14        1.0340
  15        1.0351
  16        1.7228
  17        1.7239
  18        1.7260
  19        1.7271
  20        2.3975
  21        2.4091
  22        2.4119
  23        2.4119
  24        2.4146
  25        4.4398
  26        4.4426
  27        4.4426
  28        4.4453
  29        4.4606
  30        4.4617
  31        4.4639
  32        4.4650
  33        4.6373
  34        4.6373
  35        5.2967
  36        5.2967
  37        5.7681
  38        5.7681
  39        6.4606
  40        6.4610
  41        6.4666
  42        6.4675
  43        6.4696
  44        6.4710
  45        6.6147
  46        6.6173
  47        6.6173
  48        6.6199
  49        7.2753
  50        7.2779
  51        7.2779
  52        7.2805
  53        7.8341
  54        7.8361
  55        7.8361
  56        7.8381
  57        7.9402
  58        7.9403
  59        7.9716
  60        8.5148
  61        8.5168
  62        8.5168
  63        8.5188
  64        9.1807
  65        9.1807
  66        9.9208
  67        9.9224
  68        9.9233
  69        9.9250
  70        9.9274
  71        9.9279
  72        9.9827
 
  0.1666667E+00  0.3333333E+00  0.0000000E+00  0.3703704E-01
   1       -3.1241
   2       -2.4136
   3       -1.7064
   4       -1.0038
   5       -1.0024
   6       -1.0011
   7       -0.3031
   8       -0.3016
   9       -0.3004
  10        0.3934
  11        0.3953
  12        0.3961
  13        0.3977
  14        1.0908
  15        1.0908
  16        1.7798
  17        1.7820
  18        1.7829
  19        2.4546
  20        2.4689
  21        2.4691
  22        2.4710
  23        2.4713
  24        3.1543
  25        3.7777
  26        3.8204
  27        3.8388
  28        3.8388
  29        4.4529
  30        4.4988
  31        4.4989
  32        4.6922
  33        5.1740
  34        5.1969
  35        5.1969
  36        5.3517
  37        5.7994
  38        5.7995
  39        5.8263
  40        5.8522
  41        5.8522
  42        6.0117
  43        6.4691
  44        6.4691
  45        6.5126
  46        6.6721
  47        6.7315
  48        7.1466
  49        7.1940
  50        7.1940
  51        7.2165
  52        7.3335
  53        7.4058
  54        7.8993
  55        7.9939
  56        7.9958
  57        8.0273
  58        8.5493
  59        8.7528
  60        8.7528
  61        9.1149
  62        9.1297
  63        9.1297
  64        9.2359
  65        9.2385
  66        9.3168
  67        9.3912
  68        9.4259
  69        9.4259
  70        9.9823
  71       10.0393
  72       10.0399
 
  0.3333333E+00  0.3333333E+00  0.0000000E+00  0.3703704E-01
   1       -2.9462
   2       -2.2376
   3       -2.2354
   4       -1.5301
   5       -0.8270
   6       -0.8270
   7       -0.1285
   8       -0.1276
   9       -0.1263
  10       -0.1254
  11        0.5670
  12        0.5690
  13        0.5700
  14        0.5711
  15        1.2617
  16        1.2628
  17        2.6253
  18        2.6264
  19        2.6395
  20        2.6403
  21        2.6416
  22        2.6426
  23        3.3083
  24        3.3105
  25        3.3205
  26        3.3206
  27        3.3324
  28        3.3325
  29        4.0055
  30        4.6372
  31        4.6372
  32        4.7017
  33        4.7017
  34        4.8570
  35        5.3448
  36        5.3457
  37        5.3470
  38        5.3479
  39        5.5154
  40        5.5178
  41        5.9995
  42        6.0069
  43        6.0082
  44        6.0390
  45        6.0391
  46        6.1767
  47        6.7083
  48        6.7098
  49        7.3890
  50        8.0095
  51        8.0254
  52        8.0264
  53        8.0265
  54        8.0275
  55        8.1593
  56        8.1618
  57        8.1938
  58        8.1949
  59        8.8204
  60        8.8223
  61        8.8372
  62        8.8389
  63        9.4246
  64        9.4258
  65        9.9928
  66        9.9928
  67       10.0476
  68       10.0478
  69       10.0927
  70       10.0927
  71       10.1463
  72       10.1483
 
  0.5000000E+00  0.3333333E+00  0.0000000E+00  0.1851852E-01
   1       -2.6515
   2       -2.6487
   3       -1.9431
   4       -1.9404
   5       -0.5369
   6       -0.5357
   7       -0.5341
   8       -0.5330
   9        0.1619
  10        0.1630
  11        0.1646
  12        0.1657
  13        0.8566
  14        0.8593
  15        1.5462
  16        1.5477
  17        2.2354
  18        2.2368
  19        2.9097
  20        2.9125
  21        2.9249
  22        2.9260
  23        2.9277
  24        2.9288
  25        3.6051
  26        3.6052
  27        3.6065
  28        3.6066
  29        4.2870
  30        4.2871
  31        4.2885
  32        4.2886
  33        4.9503
  34        4.9514
  35        4.9531
  36        4.9542
  37        4.9604
  38        4.9619
  39        5.1303
  40        5.1332
  41        5.7901
  42        5.7930
  43        6.2811
  44        6.2837
  45        6.9747
  46        6.9763
  47        6.9843
  48        6.9844
  49        6.9858
  50        6.9859
  51        6.9886
  52        6.9912
  53        8.4344
  54        8.4374
  55        8.4690
  56        8.4717
  57        8.9613
  58        8.9613
  59        8.9629
  60        8.9630
  61        9.0973
  62        9.0996
  63        9.6486
  64        9.6515
  65        9.7579
  66        9.7602
  67        9.7890
  68        9.7905
  69       10.3030
  70       10.3036
  71       10.4248
  72       10.4273
 
  0.0000000E+00  0.5000000E+00  0.0000000E+00  0.9259259E-02
   1       -2.8869
   2       -2.8869
   3       -0.7735
   4       -0.7689
   5       -0.7685
   6       -0.7685
   7       -0.7685
   8       -0.7685
   9       -0.7680
  10       -0.7635
  11        1.3149
  12        1.3164
  13        1.3191
  14        1.3197
  15        1.3212
  16        1.3214
  17        1.3218
  18        1.3223
  19        1.3235
  20        1.3258
  21        3.3753
  22        3.3757
  23        3.3783
  24        3.3783
  25        3.3783
  26        3.3783
  27        3.3808
  28        3.3812
  29        4.9120
  30        4.9120
  31        4.9120
  32        4.9120
  33        5.4147
  34        5.4159
  35        5.4163
  36        5.4166
  37        5.4185
  38        5.4188
  39        5.4192
  40        5.4203
  41        6.0582
  42        6.0583
  43        6.0583
  44        6.0583
  45        6.8878
  46        6.8921
  47        6.8925
  48        6.8925
  49        6.8925
  50        6.8926
  51        6.8929
  52        6.8973
  53        8.1180
  54        8.1213
  55        8.1217
  56        8.1217
  57        8.1217
  58        8.1217
  59        8.1222
  60        8.1254
  61        8.8782
  62        8.8782
  63        8.8782
  64        8.8782
  65        9.5721
  66        9.5721
  67       10.0817
  68       10.0817
  69       10.0817
  70       10.0817
  71       10.8577
  72       10.8597
 
  0.1666667E+00  0.5000000E+00  0.0000000E+00  0.1851852E-01
   1       -2.8277
   2       -2.8277
   3       -1.4127
   4       -1.4127
   5       -0.7101
   6       -0.7101
   7       -0.7101
   8       -0.7101
   9       -0.0109
  10       -0.0109
  11        0.6859
  12        0.6859
  13        0.6859
  14        0.6859
  15        1.3742
  16        1.3742
  17        2.0694
  18        2.0694
  19        2.0694
  20        2.0694
  21        2.7511
  22        2.7511
  23        3.4352
  24        3.4352
  25        3.4352
  26        3.4352
  27        4.0594
  28        4.0594
  29        4.1159
  30        4.1159
  31        4.7971
  32        4.7971
  33        4.7971
  34        4.7971
  35        4.9669
  36        4.9669
  37        6.0784
  38        6.0785
  39        6.0785
  40        6.0785
  41        6.1155
  42        6.1156
  43        6.1476
  44        6.1476
  45        6.1477
  46        6.1477
  47        6.2868
  48        6.2869
  49        7.0140
  50        7.0140
  51        7.5018
  52        7.5018
  53        7.6088
  54        7.6088
  55        8.0786
  56        8.0786
  57        8.8430
  58        8.8430
  59        8.9333
  60        8.9333
  61        9.0363
  62        9.0363
  63        9.0363
  64        9.0363
  65        9.6268
  66        9.6268
  67       10.0610
  68       10.0611
  69       10.0611
  70       10.0611
  71       10.1370
  72       10.1371
 
  0.3333333E+00  0.5000000E+00  0.0000000E+00  0.1851852E-01
   1       -2.6501
   2       -2.6501
   3       -1.9418
   4       -1.9418
   5       -0.5350
   6       -0.5349
   7       -0.5349
   8       -0.5349
   9        0.1638
  10        0.1638
  11        0.1638
  12        0.1638
  13        0.8579
  14        0.8580
  15        1.5469
  16        1.5469
  17        2.2361
  18        2.2361
  19        2.9110
  20        2.9111
  21        2.9268
  22        2.9268
  23        2.9269
  24        2.9269
  25        3.6058
  26        3.6058
  27        3.6058
  28        3.6058
  29        4.2878
  30        4.2878
  31        4.2878
  32        4.2878
  33        4.9522
  34        4.9522
  35        4.9523
  36        4.9523
  37        4.9611
  38        4.9612
  39        5.1318
  40        5.1318
  41        5.7916
  42        5.7916
  43        6.2824
  44        6.2824
  45        6.9754
  46        6.9756
  47        6.9850
  48        6.9851
  49        6.9851
  50        6.9851
  51        6.9900
  52        6.9900
  53        8.4359
  54        8.4359
  55        8.4703
  56        8.4704
  57        8.9621
  58        8.9621
  59        8.9621
  60        8.9621
  61        9.0985
  62        9.0985
  63        9.6500
  64        9.6500
  65        9.7590
  66        9.7590
  67        9.7898
  68        9.7898
  69       10.3033
  70       10.3036
  71       10.4248
  72       10.4376
 
  0.5000000E+00  0.5000000E+00  0.0000000E+00  0.9259259E-02
   1       -2.3570
   2       -2.3549
   3       -2.3543
   4       -2.3521
   5       -0.2469
   6       -0.2449
   7       -0.2438
   8       -0.2436
   9       -0.2432
  10       -0.2430
  11       -0.2420
  12       -0.2400
  13        1.8306
  14        1.8326
  15        1.8341
  16        1.8344
  17        1.8345
  18        1.8347
  19        1.8363
  20        1.8383
  21        3.8687
  22        3.8701
  23        3.8710
  24        3.8713
  25        3.8715
  26        3.8719
  27        3.8726
  28        3.8739
  29        3.9079
  30        3.9079
  31        3.9089
  32        3.9096
  33        3.9097
  34        3.9106
  35        3.9115
  36        3.9117
  37        5.4040
  38        5.4064
  39        5.4069
  40        5.4093
  41        5.9036
  42        5.9049
  43        5.9049
  44        5.9062
  45        6.5929
  46        6.5945
  47        6.5954
  48        6.5969
  49        7.9243
  50        7.9253
  51        7.9254
  52        7.9259
  53        7.9264
  54        7.9269
  55        7.9270
  56        7.9280
  57        9.3684
  58        9.3722
  59        9.3735
  60        9.3737
  61        9.3738
  62        9.3740
  63        9.3753
  64        9.3792
  65       10.0433
  66       10.0444
  67       10.0456
  68       10.0460
  69       10.0463
  70       10.0467
  71       10.0479
  72       10.0490
 
  0.0000000E+00  0.1666667E+00  0.1666667E+00  0.1851852E-01
   1       -3.3023
   2       -1.8829
   3       -1.8828
   4       -1.1797
   5       -1.1765
   6       -0.4768
   7       -0.4768
   8       -0.4765
   9        0.2194
  10        0.2213
  11        0.2226
  12        0.2246
  13        0.9170
  14        0.9170
  15        1.6066
  16        1.6085
  17        1.6087
  18        1.6099
  19        1.6112
  20        1.6123
  21        2.2983
  22        2.9822
  23        2.9822
  24        2.9895
  25        2.9895
  26        3.6086
  27        3.6086
  28        4.3491
  29        4.3524
  30        4.5275
  31        4.9579
  32        4.9579
  33        5.5948
  34        5.5948
  35        5.6516
  36        5.6657
  37        5.6657
  38        5.8467
  39        5.8468
  40        6.2933
  41        6.2933
  42        6.5613
  43        6.5613
  44        6.9678
  45        6.9699
  46        6.9713
  47        6.9733
  48        7.0459
  49        7.0460
  50        7.1677
  51        7.1684
  52        7.1684
  53        7.8842
  54        7.8842
  55        8.3002
  56        8.3010
  57        8.3037
  58        8.3045
  59        8.4066
  60        8.4433
  61        8.4434
  62        8.4732
  63        8.4733
  64        8.4900
  65        8.4901
  66        8.7189
  67        8.7189
  68        9.2659
  69        9.2659
  70        9.7348
  71        9.7348
  72        9.8119
 
  0.1666667E+00  0.1666667E+00  0.1666667E+00  0.3703704E-01
   1       -3.2429
   2       -1.8255
   3       -1.8240
   4       -1.8225
   5       -0.4216
   6       -0.4187
   7       -0.4186
   8       -0.4180
   9       -0.4179
  10       -0.4150
  11        0.9716
  12        0.9738
  13        0.9745
  14        0.9748
  15        0.9754
  16        0.9758
  17        0.9781
  18        2.3534
  19        2.3551
  20        2.3558
  21        2.3566
  22        2.3570
  23        2.3584
  24        3.6643
  25        3.6650
  26        3.6657
  27        3.7256
  28        3.7263
  29        3.7271
  30        5.0111
  31        5.0125
  32        5.0137
  33        5.0137
  34        5.0150
  35        5.0164
  36        5.0855
  37        6.3536
  38        6.3536
  39        6.3553
  40        6.3555
  41        6.3562
  42        6.3566
  43        6.3571
  44        6.3586
  45        6.3600
  46        6.6174
  47        6.6181
  48        6.6188
  49        7.6907
  50        7.6915
  51        7.6926
  52        7.6926
  53        7.6936
  54        7.6944
  55        7.9705
  56        7.9709
  57        7.9721
  58        7.9721
  59        7.9732
  60        7.9736
  61        9.0198
  62        9.0206
  63        9.0214
  64        9.3165
  65        9.3170
  66        9.3179
  67        9.3221
  68        9.3237
  69        9.3243
  70        9.3243
  71        9.3252
  72        9.3267
 
  0.3333333E+00  0.1666667E+00  0.1666667E+00  0.3703704E-01
   1       -3.0648
   2       -2.3545
   3       -1.6476
   4       -1.6476
   5       -0.9439
   6       -0.9439
   7       -0.2437
   8       -0.2437
   9       -0.2433
  10        0.4511
  11        0.4537
  12        0.4540
  13        0.4553
  14        1.1481
  15        1.1481
  16        1.8371
  17        1.8378
  18        1.8400
  19        1.8407
  20        2.5117
  21        2.5276
  22        3.2093
  23        3.2114
  24        3.2117
  25        3.2165
  26        3.8340
  27        3.8341
  28        3.8771
  29        3.8771
  30        4.5091
  31        4.5091
  32        4.5755
  33        4.5755
  34        5.1644
  35        5.1644
  36        5.2340
  37        5.2505
  38        5.2506
  39        5.8553
  40        5.8553
  41        5.9282
  42        6.5237
  43        6.5237
  44        6.5798
  45        6.5799
  46        6.7879
  47        6.7879
  48        7.1743
  49        7.1744
  50        7.1925
  51        7.1926
  52        7.4854
  53        7.4855
  54        7.9169
  55        8.0829
  56        8.1455
  57        8.1455
  58        8.5220
  59        8.5220
  60        8.8178
  61        8.8178
  62        9.1704
  63        9.1704
  64        9.3364
  65        9.3365
  66        9.5684
  67        9.5684
  68        9.8454
  69        9.8454
  70       10.1311
  71       10.1319
  72       10.1362
 
  0.5000000E+00  0.1666667E+00  0.1666667E+00  0.1851852E-01
   1       -2.7698
   2       -2.7671
   3       -1.3563
   4       -1.3544
   5       -1.3536
   6       -1.3517
   7        0.0447
   8        0.0465
   9        0.0469
  10        0.0477
  11        0.0486
  12        0.0500
  13        1.4302
  14        1.4321
  15        1.4354
  16        1.4358
  17        1.4378
  18        1.4388
  19        2.8071
  20        2.8078
  21        2.8087
  22        2.8091
  23        2.8125
  24        2.8152
  25        4.1140
  26        4.1143
  27        4.1169
  28        4.1171
  29        4.1714
  30        4.1720
  31        4.1729
  32        4.1734
  33        4.1740
  34        4.1754
  35        5.4618
  36        5.4636
  37        5.4646
  38        5.4664
  39        5.5285
  40        5.5292
  41        5.5299
  42        5.5307
  43        6.8009
  44        6.8015
  45        6.8038
  46        6.8044
  47        6.8741
  48        6.8757
  49        7.0669
  50        7.0674
  51        7.0696
  52        7.0702
  53        8.1347
  54        8.1352
  55        8.1365
  56        8.1370
  57        8.4250
  58        8.4257
  59        8.4278
  60        8.4284
  61        9.4544
  62        9.4552
  63        9.4562
  64        9.4570
  65        9.6797
  66        9.6812
  67        9.7435
  68        9.7455
  69        9.7463
  70        9.7483
  71       10.7245
  72       10.7474
 
  0.0000000E+00  0.3333333E+00  0.1666667E+00  0.3703704E-01
   1       -3.1241
   2       -2.4136
   3       -1.7064
   4       -1.0045
   5       -1.0024
   6       -1.0003
   7       -0.3038
   8       -0.3018
   9       -0.2996
  10        0.3934
  11        0.3952
  12        0.3958
  13        0.3981
  14        1.0892
  15        1.0924
  16        1.7800
  17        1.7809
  18        1.7837
  19        2.4546
  20        2.4675
  21        2.4695
  22        2.4707
  23        2.4727
  24        3.1543
  25        3.7777
  26        3.8204
  27        3.8372
  28        3.8404
  29        4.4530
  30        4.4972
  31        4.5005
  32        4.6922
  33        5.1740
  34        5.1953
  35        5.1986
  36        5.3517
  37        5.7977
  38        5.8012
  39        5.8262
  40        5.8505
  41        5.8539
  42        6.0118
  43        6.4674
  44        6.4709
  45        6.5126
  46        6.6721
  47        6.7315
  48        7.1466
  49        7.1923
  50        7.1957
  51        7.2165
  52        7.3335
  53        7.4058
  54        7.8993
  55        7.9943
  56        7.9953
  57        8.0274
  58        8.5493
  59        8.7514