 vasp.4.6.28 25Jul05 complex 
 executed on             LinuxIFC date 2016.10.19  12:24:34
 running on    8 nodes
 distr:  one band on    1 nodes,    8 groups


--------------------------------------------------------------------------------------------------------


 INCAR:
 POTCAR:   PAW_PBE Al 04Jan2001                   
 POTCAR:   PAW_PBE Al 04Jan2001                   
   VRHFIN =Al: s2p1                                                             
   LEXCH  = PE                                                                  
   EATOM  =    53.5387 eV,    3.9350 Ry                                         
                                                                                
   TITEL  = PAW_PBE Al 04Jan2001                                                
   LULTRA =        F    use ultrasoft PP ?                                      
   IUNSCR =        1    unscreen: 0-lin 1-nonlin 2-no                           
   RPACOR =    1.500    partial core radius                                     
   POMASS =   26.982; ZVAL   =    3.000    mass and valenz                      
   RCORE  =    1.900    outmost cutoff radius                                   
   RWIGS  =    2.650; RWIGS  =    1.402    wigner-seitz radius (au A)           
   ENMAX  =  240.300; ENMIN  =  180.225 eV                                      
   ICORE  =        2    local potential                                         
   LCOR   =        T    correct aug charges                                     
   LPAW   =        T    paw PP                                                  
   EAUG   =  291.052                                                            
   DEXC   =    -.041                                                            
   RMAX   =    2.974    core radius for proj-oper                               
   RAUG   =    1.300    factor for augmentation sphere                          
   RDEP   =    1.966    radius for radial grids                                 
   QCUT   =   -4.203; QGAM   =    8.405    optimization parameters              
                                                                                
   Description                                                                  
     l     E      TYP  RCUT    TYP  RCUT                                        
     0   .000     23  1.900                                                     
     0   .000     23  1.900                                                     
     1   .000     23  1.900                                                     
     1  1.000     23  1.900                                                     
     2   .000      7  1.900                                                     
  local pseudopotential read in
  partial core-charges read in
  atomic valenz-charges read in
  non local Contribution for L=           0  read in
    real space projection operators read in
  non local Contribution for L=           0  read in
    real space projection operators read in
  non local Contribution for L=           1  read in
    real space projection operators read in
  non local Contribution for L=           1  read in
    real space projection operators read in
    PAW grid and wavefunctions read in
 
   number of l-projection  operators is LMAX  =           4
   number of lm-projection operators is LMMAX =           8
 

 ----------------------------------------------------------------------------- 
|                                                                             |
|  ADVICE TO THIS USER RUNNING 'VASP/VAMP'   (HEAR YOUR MASTER'S VOICE ...):  |
|                                                                             |
|      You have a (more or less) 'large supercell' and for larger cells       |
|      it might be more efficient to use real space projection operators      |
|      So try LREAL= Auto  in the INCAR   file.                               |
|      Mind: If you want to do an extremely accurate calculations keep the    |
|      reciprocal projection scheme          (i.e. LREAL=.FALSE.)             |
|                                                                             |
 ----------------------------------------------------------------------------- 

 PAW_PBE Al 04Jan2001                   :
 energy of atom  1       EATOM=  -53.5387
 kinetic energy error for atom=    0.0003 (will be added to EATOM!!)
 
 EXHCAR: internal setup
 exchange correlation table for  LEXCH =        8
   RHO(1)=    0.500       N(1)  =     2000
   RHO(2)=  100.500       N(2)  =     4000
 
 POSCAR: Al                                      
  positions in direct lattice
  No initial velocities read in
 


--------------------------------------------------------------------------------------------------------


 ion  position               nearest neighbor table
   1  0.251  0.250  0.000-  18 2.93  22 2.93  26 2.93  28 2.93   9 2.94  11 2.94  13 2.94  15 2.94
                            25 2.95  21 2.95  27 2.95  17 2.95
   2  0.750  0.250  0.000-  10 2.94  12 2.94  14 2.94  16 2.94  17 2.94  18 2.94  21 2.94  22 2.94
                            25 2.94  26 2.94  27 2.94  28 2.94
   3  0.250  0.750  0.000-   9 2.94  11 2.94  13 2.94  15 2.94  19 2.94  20 2.94  23 2.94  24 2.94
                            25 2.94  26 2.94  27 2.94  28 2.94
   4  0.750  0.750  0.000-  10 2.94  12 2.94  14 2.94  16 2.94  19 2.94  20 2.94  23 2.94  24 2.94
                            25 2.94  26 2.94  27 2.94  28 2.94
   5  0.250  0.250  0.500-   9 2.94  11 2.94  13 2.94  15 2.94  17 2.94  18 2.94  21 2.94  22 2.94
                            29 2.94  30 2.94  31 2.94  32 2.94
   6  0.750  0.250  0.500-  10 2.94  12 2.94  14 2.94  16 2.94  17 2.94  18 2.94  21 2.94  22 2.94
                            29 2.94  30 2.94  31 2.94  32 2.94
   7  0.250  0.750  0.500-   9 2.94  11 2.94  13 2.94  15 2.94  19 2.94  20 2.94  23 2.94  24 2.94
                            29 2.94  30 2.94  31 2.94  32 2.94
   8  0.750  0.750  0.500-  10 2.94  12 2.94  14 2.94  16 2.94  19 2.94  20 2.94  23 2.94  24 2.94
                            29 2.94  30 2.94  31 2.94  32 2.94
   9  0.250  0.000  0.250-   3 2.94   5 2.94   7 2.94  17 2.94  18 2.94  19 2.94  20 2.94  25 2.94
                            26 2.94  29 2.94  30 2.94   1 2.94
  10  0.750  0.000  0.250-   2 2.94   4 2.94   6 2.94   8 2.94  17 2.94  18 2.94  19 2.94  20 2.94
                            25 2.94  26 2.94  29 2.94  30 2.94
  11  0.250  0.500  0.250-   3 2.94   5 2.94   7 2.94  17 2.94  18 2.94  19 2.94  20 2.94  27 2.94
                            28 2.94  31 2.94  32 2.94   1 2.94
  12  0.750  0.500  0.250-   2 2.94   4 2.94   6 2.94   8 2.94  17 2.94  18 2.94  19 2.94  20 2.94
                            27 2.94  28 2.94  31 2.94  32 2.94
  13  0.250  0.000  0.750-   3 2.94   5 2.94   7 2.94  21 2.94  22 2.94  23 2.94  24 2.94  25 2.94
                            26 2.94  29 2.94  30 2.94   1 2.94
  14  0.750  0.000  0.750-   2 2.94   4 2.94   6 2.94   8 2.94  21 2.94  22 2.94  23 2.94  24 2.94
                            25 2.94  26 2.94  29 2.94  30 2.94
  15  0.250  0.500  0.750-   3 2.94   5 2.94   7 2.94  21 2.94  22 2.94  23 2.94  24 2.94  27 2.94
                            28 2.94  31 2.94  32 2.94   1 2.94
  16  0.750  0.500  0.750-   2 2.94   4 2.94   6 2.94   8 2.94  21 2.94  22 2.94  23 2.94  24 2.94
                            27 2.94  28 2.94  31 2.94  32 2.94
  17  0.000  0.250  0.250-   2 2.94   5 2.94   6 2.94   9 2.94  10 2.94  11 2.94  12 2.94  25 2.94
                            27 2.94  29 2.94  31 2.94   1 2.95
  18  0.500  0.250  0.250-   1 2.93   2 2.94   5 2.94   6 2.94   9 2.94  10 2.94  11 2.94  12 2.94
                            26 2.94  28 2.94  30 2.94  32 2.94
  19  0.000  0.750  0.250-   3 2.94   4 2.94   7 2.94   8 2.94   9 2.94  10 2.94  11 2.94  12 2.94
                            25 2.94  27 2.94  29 2.94  31 2.94
  20  0.500  0.750  0.250-   3 2.94   4 2.94   7 2.94   8 2.94   9 2.94  10 2.94  11 2.94  12 2.94
                            26 2.94  28 2.94  30 2.94  32 2.94
  21  0.000  0.250  0.750-   2 2.94   5 2.94   6 2.94  13 2.94  14 2.94  15 2.94  16 2.94  25 2.94
                            27 2.94  29 2.94  31 2.94   1 2.95
  22  0.500  0.250  0.750-   1 2.93   2 2.94   5 2.94   6 2.94  13 2.94  14 2.94  15 2.94  16 2.94
                            26 2.94  28 2.94  30 2.94  32 2.94
  23  0.000  0.750  0.750-   3 2.94   4 2.94   7 2.94   8 2.94  13 2.94  14 2.94  15 2.94  16 2.94
                            25 2.94  27 2.94  29 2.94  31 2.94
  24  0.500  0.750  0.750-   3 2.94   4 2.94   7 2.94   8 2.94  13 2.94  14 2.94  15 2.94  16 2.94
                            26 2.94  28 2.94  30 2.94  32 2.94
  25  0.000  0.000  0.000-   2 2.94   3 2.94   4 2.94   9 2.94  10 2.94  13 2.94  14 2.94  17 2.94
                            19 2.94  21 2.94  23 2.94   1 2.95
  26  0.500  0.000  0.000-   1 2.93   2 2.94   3 2.94   4 2.94   9 2.94  10 2.94  13 2.94  14 2.94
                            18 2.94  20 2.94  22 2.94  24 2.94
  27  0.000  0.500  0.000-   2 2.94   3 2.94   4 2.94  11 2.94  12 2.94  15 2.94  16 2.94  17 2.94
                            19 2.94  21 2.94  23 2.94   1 2.95
  28  0.500  0.500  0.000-   1 2.93   2 2.94   3 2.94   4 2.94  11 2.94  12 2.94  15 2.94  16 2.94
                            18 2.94  20 2.94  22 2.94  24 2.94
  29  0.000  0.000  0.500-   5 2.94   6 2.94   7 2.94   8 2.94   9 2.94  10 2.94  13 2.94  14 2.94
                            17 2.94  19 2.94  21 2.94  23 2.94
  30  0.500  0.000  0.500-   5 2.94   6 2.94   7 2.94   8 2.94   9 2.94  10 2.94  13 2.94  14 2.94
                            18 2.94  20 2.94  22 2.94  24 2.94
  31  0.000  0.500  0.500-   5 2.94   6 2.94   7 2.94   8 2.94  11 2.94  12 2.94  15 2.94  16 2.94
                            17 2.94  19 2.94  21 2.94  23 2.94
  32  0.500  0.500  0.500-   5 2.94   6 2.94   7 2.94   8 2.94  11 2.94  12 2.94  15 2.94  16 2.94
                            18 2.94  20 2.94  22 2.94  24 2.94
 
  LATTYP: Found a simple cubic cell.
 ALAT       =     8.3166317940
  
  Lattice vectors:
  
 A1 = (   8.3166317940,   0.0000000000,   0.0000000000)
 A2 = (   0.0000000000,   8.3166317940,   0.0000000000)
 A3 = (   0.0000000000,   0.0000000000,   8.3166317940)
 Subroutine PRICEL returns:
 Original cell was already a primitive cell.
 

Analysis of symmetry for initial positions (statically):

 Routine SETGRP: Setting up the symmetry group for a 
 simple cubic supercell.


 Subroutine GETGRP returns: Found  8 space group operations
 (whereof  2 operations were pure point group operations)
 out of a pool of 48 trial point group operations.


The static configuration has the point symmetry C_1h.
 The point group associated with its full space group is C_4v.

Analysis of symmetry for dynamics (positions and initial velocities):

 Subroutine DYNSYM returns: Found  8 space group operations
 (whereof  2 operations were pure point group operations)
 out of a pool of  8 trial space group operations
 (whereof  2 operations were pure point group operations)
 and found also     1 'primitive' translations


The dynamic configuration has the point symmetry C_1h.
 The point group associated with its full space group is C_4v.
 
 
 KPOINTS: Automatic mesh                          

Automatic generation of k-mesh.
 generate k-points for:   6   6   6
 
 Subroutine IBZKPT returns following result:
 ===========================================
 
 Found     40 irreducible k-points:
 
 Following reciprocal coordinates:
            Coordinates               Weight
  0.000000  0.000000  0.000000      1.000000
  0.166667  0.000000  0.000000      2.000000
  0.333333  0.000000  0.000000      2.000000
  0.500000  0.000000  0.000000      1.000000
  0.000000  0.166667  0.000000      4.000000
  0.166667  0.166667  0.000000      8.000000
  0.333333  0.166667  0.000000      8.000000
  0.500000  0.166667  0.000000      4.000000
  0.000000  0.333333  0.000000      4.000000
  0.166667  0.333333  0.000000      8.000000
  0.333333  0.333333  0.000000      8.000000
  0.500000  0.333333  0.000000      4.000000
  0.000000  0.500000  0.000000      2.000000
  0.166667  0.500000  0.000000      4.000000
  0.333333  0.500000  0.000000      4.000000
  0.500000  0.500000  0.000000      2.000000
  0.000000  0.166667  0.166667      4.000000
  0.166667  0.166667  0.166667      8.000000
  0.333333  0.166667  0.166667      8.000000
  0.500000  0.166667  0.166667      4.000000
  0.000000  0.333333  0.166667      8.000000
  0.166667  0.333333  0.166667     16.000000
  0.333333  0.333333  0.166667     16.000000
  0.500000  0.333333  0.166667      8.000000
  0.000000  0.500000  0.166667      4.000000
  0.166667  0.500000  0.166667      8.000000
  0.333333  0.500000  0.166667      8.000000
  0.500000  0.500000  0.166667      4.000000
  0.000000  0.333333  0.333333      4.000000
  0.166667  0.333333  0.333333      8.000000
  0.333333  0.333333  0.333333      8.000000
  0.500000  0.333333  0.333333      4.000000
  0.000000  0.500000  0.333333      4.000000
  0.166667  0.500000  0.333333      8.000000
  0.333333  0.500000  0.333333      8.000000
  0.500000  0.500000  0.333333      4.000000
  0.000000  0.500000  0.500000      1.000000
  0.166667  0.500000  0.500000      2.000000
  0.333333  0.500000  0.500000      2.000000
  0.500000  0.500000  0.500000      1.000000
 
 Following cartesian coordinates:
            Coordinates               Weight
  0.000000  0.000000  0.000000      1.000000
  0.020040  0.000000  0.000000      2.000000
  0.040080  0.000000  0.000000      2.000000
  0.060120  0.000000  0.000000      1.000000
  0.000000  0.020040  0.000000      4.000000
  0.020040  0.020040  0.000000      8.000000
  0.040080  0.020040  0.000000      8.000000
  0.060120  0.020040  0.000000      4.000000
  0.000000  0.040080  0.000000      4.000000
  0.020040  0.040080  0.000000      8.000000
  0.040080  0.040080  0.000000      8.000000
  0.060120  0.040080  0.000000      4.000000
  0.000000  0.060120  0.000000      2.000000
  0.020040  0.060120  0.000000      4.000000
  0.040080  0.060120  0.000000      4.000000
  0.060120  0.060120  0.000000      2.000000
  0.000000  0.020040  0.020040      4.000000
  0.020040  0.020040  0.020040      8.000000
  0.040080  0.020040  0.020040      8.000000
  0.060120  0.020040  0.020040      4.000000
  0.000000  0.040080  0.020040      8.000000
  0.020040  0.040080  0.020040     16.000000
  0.040080  0.040080  0.020040     16.000000
  0.060120  0.040080  0.020040      8.000000
  0.000000  0.060120  0.020040      4.000000
  0.020040  0.060120  0.020040      8.000000
  0.040080  0.060120  0.020040      8.000000
  0.060120  0.060120  0.020040      4.000000
  0.000000  0.040080  0.040080      4.000000
  0.020040  0.040080  0.040080      8.000000
  0.040080  0.040080  0.040080      8.000000
  0.060120  0.040080  0.040080      4.000000
  0.000000  0.060120  0.040080      4.000000
  0.020040  0.060120  0.040080      8.000000
  0.040080  0.060120  0.040080      8.000000
  0.060120  0.060120  0.040080      4.000000
  0.000000  0.060120  0.060120      1.000000
  0.020040  0.060120  0.060120      2.000000
  0.040080  0.060120  0.060120      2.000000
  0.060120  0.060120  0.060120      1.000000
 


--------------------------------------------------------------------------------------------------------




 Dimension of arrays:
   k-Points           NKPTS =     40   number of bands    NBANDS=     72
   number of dos      NEDOS =    301   number of ions     NIONS =     32
   non local maximal  LDIM  =      4   non local SUM 2l+1 LMDIM =      8
   total plane-waves  NPLWV = 262144
   max r-space proj   IRMAX =      1   max aug-charges    IRDMAX=  17934
   dimension x,y,z NGX =    64 NGY =   64 NGZ =   64
   dimension x,y,z NGXF=   128 NGYF=  128 NGZF=  128
   support grid    NGXF=   128 NGYF=  128 NGZF=  128
   ions per type =              32
 NGX,Y,Z   is equivalent  to a cutoff of  12.79, 12.79, 12.79 a.u.
 NGXF,Y,Z  is equivalent  to a cutoff of  25.59, 25.59, 25.59 a.u.


 I would recommend the setting:
   dimension x,y,z NGX =    61 NGY =   61 NGZ =   61
 SYSTEM =  unknown system                          
 POSCAR =  Al                                      

 Startparameter for this run:
   NWRITE =      2    write-flag & timer
   PREC   = accura    medium, high low
   ISTART =      0    job   : 0-new  1-cont  2-samecut
   ICHARG =      2    charge: 1-file 2-atom 10-const
   ISPIN  =      1    spin polarized calculation?
   LNONCOLLINEAR =      F non collinear calculations
   LSORBIT =      F    spin-orbit coupling
   INIWAV =      1    electr: 0-lowe 1-rand  2-diag
   LASPH  =      F    aspherical Exc in radial PAW
   METAGGA=      F    non-selfconsistent MetaGGA calc.

 Electronic Relaxation 1
   ENCUT  =  500.0 eV  36.75 Ry    6.06 a.u.  15.16 15.16 15.16*2*pi/ulx,y,z
   ENINI  =  500.0     initial cutoff
   ENAUG  =  291.1 eV  augmentation charge cutoff
   NELM   =     60;   NELMIN=  2; NELMDL=  0     # of ELM steps 
   EDIFF  = 0.1E-07   stopping-criterion for ELM
   LREAL  =      F    real-space projection
   LCOMPAT=      F    compatible to vasp.4.4
   LREAL_COMPAT= F    compatible to vasp.4.5.1-3
   GGA_COMPAT  = T    GGA compatible to vasp.4.4-vasp.4.6
   LMAXPAW     = -100 max onsite density
   LMAXMIX     =    2 max onsite mixed and CHGCAR
   VOSKOWN=      0    Vosko Wilk Nusair interpolation
   ROPT   =    0.00000
 Ionic relaxation
   EDIFFG = 0.1E-06   stopping-criterion for IOM
   NSW    =      0    number of steps for IOM
   NBLOCK =      1;   KBLOCK =      1    inner block; outer block 
   IBRION =     -1    ionic relax: 0-MD 1-quasi-New 2-CG
   NFREE  =      0    steps in history (QN), initial steepest desc. (CG)
   ISIF   =      2    stress and relaxation
   IWAVPR =     10    prediction:  0-non 1-charg 2-wave 3-comb
   ISYM   =      2    0-nonsym 1-usesym 2-fastsym
   LCORR  =      T    Harris-Foulkes like correction to forces

   POTIM  =   0.50    time-step for ionic-motion
   TEIN   =    0.0    initial temperature
   TEBEG  =    0.0;   TEEND  =   0.0 temperature during run
   SMASS  =  -3.00    Nose mass-parameter (am)
   estimated Nose-frequenzy (Omega)   =  0.10E-29 period in steps =****** mass=  -0.158E-26a.u.
   NPACO  =    256;   APACO  = 16.0  distance and # of slots for P.C.
   PSTRESS=    0.0 pullay stress

  Mass of Ions in am
   POMASS =  26.98
  Ionic Valenz
   ZVAL   =   3.00
  Atomic Wigner-Seitz radii
   RWIGS  =  -1.00
   NELECT =      96.0000    total number of electrons
   NUPDOWN=      -1.0000    fix difference up-down

 DOS related values:
   EMIN   =  10.00;   EMAX   =-10.00  energy-range for DOS
   ISMEAR =     0;   SIGMA  =   0.01  broadening in eV -4-tet -1-fermi 0-gaus

 Electronic relaxation 2 (details)
   IALGO  =     38    algorithm
   LDIAG  =      T    sub-space diagonalisation
   IMIX   =      4    mixing-type and parameters
     AMIX     =   0.40;   BMIX     =  1.00
     AMIX_MAG =   1.60;   BMIX_MAG =  1.00
     AMIN     =   0.10
     WC   =   100.;   INIMIX=   1;  MIXPRE=   1

 Intra band minimization:
   WEIMIN = 0.0000     energy-eigenvalue tresh-hold
   EBREAK =  0.38E-10  absolut break condition
   DEPER  =   0.30     relativ break condition  

   TIME   =   0.10     timestep for ELM

  volume/ion in A,a.u.               =      17.98       121.31
  Fermi-wavevector in a.u.,eV,Ry     =   0.901331 11.053346  0.812398

 Second variation
   LSECVAR=     F    do a second variation
 
 Write flags
   LWAVE  =      F    write WAVECAR
   LCHARG =      F    write CHGCAR
   LVTOT  =      F    write LOCPOT, local potential
   LELF   =      F    write electronic localiz. function (ELF)
   LORBIT =      0    0 simple, 1 ext, 2 COOP (PROOUT)


 Dipole corrections
   IDIPOL =      0    1-x, 2-y, 3-z
   LDIPOL =      F    correct potential



--------------------------------------------------------------------------------------------------------


 Static calculation
 charge density will be updated during run
 non-spin polarized calculation
 Variant of blocked Davidson
 Davidson routine will perform the subspace rotation
 performe sub-space diagonalisation
    after iterative eigenvector-optimisation
 modified Broyden-mixing scheme, WC =      100.0
 initial mixing is a Kerker type mixing with AMIX =  0.4000 and BMIX =      1.0000
 Hartree-type preconditioning will be used
 using additional bands           24
 reciprocal scheme for non local part
 use partial core corrections
 calculate Harris-corrections to forces 
   (improved forces if not selfconsistent)
 use gradient corrections 
 use of overlap-Matrix (Vanderbilt PP)
 Gauss-broadening in eV      SIGMA  =   0.01


--------------------------------------------------------------------------------------------------------


  energy-cutoff  :      500.00
  volume of cell :      575.23
      direct lattice vectors                 reciprocal lattice vectors
     8.316631794  0.000000000  0.000000000     0.120240985  0.000000000  0.000000000
     0.000000000  8.316631794  0.000000000     0.000000000  0.120240985  0.000000000
     0.000000000  0.000000000  8.316631794     0.000000000  0.000000000  0.120240985

  length of vectors
     8.316631794  8.316631794  8.316631794     0.120240985  0.120240985  0.120240985


 
 k-points in units of 2pi/SCALE and weight: Automatic mesh                          
   0.00000000  0.00000000  0.00000000       0.005
   0.02004016  0.00000000  0.00000000       0.009
   0.04008033  0.00000000  0.00000000       0.009
   0.06012049  0.00000000  0.00000000       0.005
   0.00000000  0.02004016  0.00000000       0.019
   0.02004016  0.02004016  0.00000000       0.037
   0.04008033  0.02004016  0.00000000       0.037
   0.06012049  0.02004016  0.00000000       0.019
   0.00000000  0.04008033  0.00000000       0.019
   0.02004016  0.04008033  0.00000000       0.037
   0.04008033  0.04008033  0.00000000       0.037
   0.06012049  0.04008033  0.00000000       0.019
   0.00000000  0.06012049  0.00000000       0.009
   0.02004016  0.06012049  0.00000000       0.019
   0.04008033  0.06012049  0.00000000       0.019
   0.06012049  0.06012049  0.00000000       0.009
   0.00000000  0.02004016  0.02004016       0.019
   0.02004016  0.02004016  0.02004016       0.037
   0.04008033  0.02004016  0.02004016       0.037
   0.06012049  0.02004016  0.02004016       0.019
   0.00000000  0.04008033  0.02004016       0.037
   0.02004016  0.04008033  0.02004016       0.074
   0.04008033  0.04008033  0.02004016       0.074
   0.06012049  0.04008033  0.02004016       0.037
   0.00000000  0.06012049  0.02004016       0.019
   0.02004016  0.06012049  0.02004016       0.037
   0.04008033  0.06012049  0.02004016       0.037
   0.06012049  0.06012049  0.02004016       0.019
   0.00000000  0.04008033  0.04008033       0.019
   0.02004016  0.04008033  0.04008033       0.037
   0.04008033  0.04008033  0.04008033       0.037
   0.06012049  0.04008033  0.04008033       0.019
   0.00000000  0.06012049  0.04008033       0.019
   0.02004016  0.06012049  0.04008033       0.037
   0.04008033  0.06012049  0.04008033       0.037
   0.06012049  0.06012049  0.04008033       0.019
   0.00000000  0.06012049  0.06012049       0.005
   0.02004016  0.06012049  0.06012049       0.009
   0.04008033  0.06012049  0.06012049       0.009
   0.06012049  0.06012049  0.06012049       0.005
 
 k-points in reciprocal lattice and weights: Automatic mesh                          
   0.00000000  0.00000000  0.00000000       0.005
   0.16666667  0.00000000  0.00000000       0.009
   0.33333333  0.00000000  0.00000000       0.009
   0.50000000  0.00000000  0.00000000       0.005
   0.00000000  0.16666667  0.00000000       0.019
   0.16666667  0.16666667  0.00000000       0.037
   0.33333333  0.16666667  0.00000000       0.037
   0.50000000  0.16666667  0.00000000       0.019
   0.00000000  0.33333333  0.00000000       0.019
   0.16666667  0.33333333  0.00000000       0.037
   0.33333333  0.33333333  0.00000000       0.037
   0.50000000  0.33333333  0.00000000       0.019
   0.00000000  0.50000000  0.00000000       0.009
   0.16666667  0.50000000  0.00000000       0.019
   0.33333333  0.50000000  0.00000000       0.019
   0.50000000  0.50000000  0.00000000       0.009
   0.00000000  0.16666667  0.16666667       0.019
   0.16666667  0.16666667  0.16666667       0.037
   0.33333333  0.16666667  0.16666667       0.037
   0.50000000  0.16666667  0.16666667       0.019
   0.00000000  0.33333333  0.16666667       0.037
   0.16666667  0.33333333  0.16666667       0.074
   0.33333333  0.33333333  0.16666667       0.074
   0.50000000  0.33333333  0.16666667       0.037
   0.00000000  0.50000000  0.16666667       0.019
   0.16666667  0.50000000  0.16666667       0.037
   0.33333333  0.50000000  0.16666667       0.037
   0.50000000  0.50000000  0.16666667       0.019
   0.00000000  0.33333333  0.33333333       0.019
   0.16666667  0.33333333  0.33333333       0.037
   0.33333333  0.33333333  0.33333333       0.037
   0.50000000  0.33333333  0.33333333       0.019
   0.00000000  0.50000000  0.33333333       0.019
   0.16666667  0.50000000  0.33333333       0.037
   0.33333333  0.50000000  0.33333333       0.037
   0.50000000  0.50000000  0.33333333       0.019
   0.00000000  0.50000000  0.50000000       0.005
   0.16666667  0.50000000  0.50000000       0.009
   0.33333333  0.50000000  0.50000000       0.009
   0.50000000  0.50000000  0.50000000       0.005
 
 position of ions in fractional coordinates (direct lattice) 
   0.25120241  0.25000000  0.00000000
   0.75000000  0.25000000  0.00000000
   0.25000000  0.75000000  0.00000000
   0.75000000  0.75000000  0.00000000
   0.25000000  0.25000000  0.50000000
   0.75000000  0.25000000  0.50000000
   0.25000000  0.75000000  0.50000000
   0.75000000  0.75000000  0.50000000
   0.25000000  0.00000000  0.25000000
   0.75000000  0.00000000  0.25000000
   0.25000000  0.50000000  0.25000000
   0.75000000  0.50000000  0.25000000
   0.25000000  0.00000000  0.75000000
   0.75000000  0.00000000  0.75000000
   0.25000000  0.50000000  0.75000000
   0.75000000  0.50000000  0.75000000
   0.00000000  0.25000000  0.25000000
   0.50000000  0.25000000  0.25000000
   0.00000000  0.75000000  0.25000000
   0.50000000  0.75000000  0.25000000
   0.00000000  0.25000000  0.75000000
   0.50000000  0.25000000  0.75000000
   0.00000000  0.75000000  0.75000000
   0.50000000  0.75000000  0.75000000
   0.00000000  0.00000000  0.00000000
   0.50000000  0.00000000  0.00000000
   0.00000000  0.50000000  0.00000000
   0.50000000  0.50000000  0.00000000
   0.00000000  0.00000000  0.50000000
   0.50000000  0.00000000  0.50000000
   0.00000000  0.50000000  0.50000000
   0.50000000  0.50000000  0.50000000
 
 position of ions in cartesian coordinates  (Angst):
   2.08915795  2.07915795  0.00000000
   6.23747385  2.07915795  0.00000000
   2.07915795  6.23747385  0.00000000
   6.23747385  6.23747385  0.00000000
   2.07915795  2.07915795  4.15831590
   6.23747385  2.07915795  4.15831590
   2.07915795  6.23747385  4.15831590
   6.23747385  6.23747385  4.15831590
   2.07915795  0.00000000  2.07915795
   6.23747385  0.00000000  2.07915795
   2.07915795  4.15831590  2.07915795
   6.23747385  4.15831590  2.07915795
   2.07915795  0.00000000  6.23747385
   6.23747385  0.00000000  6.23747385
   2.07915795  4.15831590  6.23747385
   6.23747385  4.15831590  6.23747385
   0.00000000  2.07915795  2.07915795
   4.15831590  2.07915795  2.07915795
   0.00000000  6.23747385  2.07915795
   4.15831590  6.23747385  2.07915795
   0.00000000  2.07915795  6.23747385
   4.15831590  2.07915795  6.23747385
   0.00000000  6.23747385  6.23747385
   4.15831590  6.23747385  6.23747385
   0.00000000  0.00000000  0.00000000
   4.15831590  0.00000000  0.00000000
   0.00000000  4.15831590  0.00000000
   4.15831590  4.15831590  0.00000000
   0.00000000  0.00000000  4.15831590
   4.15831590  0.00000000  4.15831590
   0.00000000  4.15831590  4.15831590
   4.15831590  4.15831590  4.15831590
 


--------------------------------------------------------------------------------------------------------


 k-point  1 :  0.00000.00000.0000  plane waves:  14531
 k-point  2 :  0.16670.00000.0000  plane waves:  14598
 k-point  3 :  0.33330.00000.0000  plane waves:  14610
 k-point  4 :  0.50000.00000.0000  plane waves:  14582
 k-point  5 :  0.00000.16670.0000  plane waves:  14598
 k-point  6 :  0.16670.16670.0000  plane waves:  14601
 k-point  7 :  0.33330.16670.0000  plane waves:  14611
 k-point  8 :  0.50000.16670.0000  plane waves:  14572
 k-point  9 :  0.00000.33330.0000  plane waves:  14610
 k-point 10 :  0.16670.33330.0000  plane waves:  14611
 k-point 11 :  0.33330.33330.0000  plane waves:  14618
 k-point 12 :  0.50000.33330.0000  plane waves:  14592
 k-point 13 :  0.00000.50000.0000  plane waves:  14582
 k-point 14 :  0.16670.50000.0000  plane waves:  14572
 k-point 15 :  0.33330.50000.0000  plane waves:  14592
 k-point 16 :  0.50000.50000.0000  plane waves:  14604
 k-point 17 :  0.00000.16670.1667  plane waves:  14601
 k-point 18 :  0.16670.16670.1667  plane waves:  14612
 k-point 19 :  0.33330.16670.1667  plane waves:  14598
 k-point 20 :  0.50000.16670.1667  plane waves:  14574
 k-point 21 :  0.00000.33330.1667  plane waves:  14611
 k-point 22 :  0.16670.33330.1667  plane waves:  14598
 k-point 23 :  0.33330.33330.1667  plane waves:  14607
 k-point 24 :  0.50000.33330.1667  plane waves:  14604
 k-point 25 :  0.00000.50000.1667  plane waves:  14572
 k-point 26 :  0.16670.50000.1667  plane waves:  14574
 k-point 27 :  0.33330.50000.1667  plane waves:  14604
 k-point 28 :  0.50000.50000.1667  plane waves:  14648
 k-point 29 :  0.00000.33330.3333  plane waves:  14618
 k-point 30 :  0.16670.33330.3333  plane waves:  14607
 k-point 31 :  0.33330.33330.3333  plane waves:  14613
 k-point 32 :  0.50000.33330.3333  plane waves:  14638
 k-point 33 :  0.00000.50000.3333  plane waves:  14592
 k-point 34 :  0.16670.50000.3333  plane waves:  14604
 k-point 35 :  0.33330.50000.3333  plane waves:  14638
 k-point 36 :  0.50000.50000.3333  plane waves:  14632
 k-point 37 :  0.00000.50000.5000  plane waves:  14604
 k-point 38 :  0.16670.50000.5000  plane waves:  14648
 k-point 39 :  0.33330.50000.5000  plane waves:  14632
 k-point 40 :  0.50000.50000.5000  plane waves:  14592

 maximum and minimum number of plane-waves per node :  14648 14531

 maximum number of plane-waves:  14648
 maximal index in each direction: 
   IXMAX= 15   IYMAX= 15   IZMAX= 15
   IXMIN=-15   IYMIN=-15   IZMIN=-15

 NGX is ok and might be reduce to  62
 NGY is ok and might be reduce to  62
 NGZ is ok and might be reduce to  62

 parallel 3dFFT wavefunction:
    minimum data exchange during FFTs selected (reduces bandwidth)
 parallel 3dFFT charge:
    minimum data exchange during FFTs selected (reduces bandwidth)

 For storing wavefunctions  672.89 MBYTES are necessary
 For predicting wavefunctions   37.43 MBYTES are necessary
Broyden mixing: mesh for mixing (old mesh)
   NGX = 31   NGY = 31   NGZ = 31
  (NGX  =128   NGY  =128   NGZ  =128)
 gives a total of  29791 points
 initial charge density was supplied:
 charge density of overlapping atoms calculated
 number of electron   96.0000000 magnetization 
 keeping initial charge density in first step


--------------------------------------------------------------------------------------------------------


 Maximum index for augmentation-charges         2020 (set IRDMAX)


--------------------------------------------------------------------------------------------------------


 First call to EWALD:  gamma=   0.213
 Maximum number of real-space cells 3x 3x 3
 Maximum number of reciprocal cells 3x 3x 3

    FEWALD:  VPU time    0.00: CPU time    0.00


----------------------------------------- Iteration    1(   1)  ---------------------------------------


    POTLOK:  VPU time    0.18: CPU time    0.18
    SETDIJ:  VPU time    0.01: CPU time    0.01
    EDDAV :  VPU time   18.28: CPU time   18.29
    DOS   :  VPU time    0.00: CPU time   -0.00
    ------------------------------------------
      LOOP:  VPU time   18.48: CPU time   18.48

 eigenvalue-minimisations  :  5760
 total energy-change (2. order) : 0.1116900E+03  (-0.3216613E+04)
 number of electron   96.0000000 magnetization 
 augmentation part    96.0000000 magnetization 

 Free energy of the ion-electron system (eV)
  ---------------------------------------------------
  alpha Z        PSCENC =        -5.97920206
  Ewald energy   TEWEN  =     -2286.26798810
  -1/2 Hartree   DENC   =        -4.52674707
  -V(xc)+E(xc)   XCENC  =      -844.52353508
  PAW double counting   =      1137.73615723     -115.16745734
  entropy T*S    EENTRO =        -0.00057485
  eigenvalues    EBANDS =       517.19024728
  atomic energy  EATOM  =      1713.22913220
  ---------------------------------------------------
  free energy    TOTEN  =       111.69003221 eV

  energy without entropy =      111.69060706  energy(sigma->0) =      111.69031964


--------------------------------------------------------------------------------------------------------




----------------------------------------- Iteration    1(   2)  ---------------------------------------


    EDDAV :  VPU time   20.55: CPU time   20.55
    DOS   :  VPU time    0.00: CPU time   -0.00
    ------------------------------------------
      LOOP:  VPU time   20.56: CPU time   20.55

 eigenvalue-minimisations  :  6792
 total energy-change (2. order) :-0.2184292E+03  (-0.2037743E+03)
 number of electron   96.0000000 magnetization 
 augmentation part    96.0000000 magnetization 

 Free energy of the ion-electron system (eV)
  ---------------------------------------------------
  alpha Z        PSCENC =        -5.97920206
  Ewald energy   TEWEN  =     -2286.26798810
  -1/2 Hartree   DENC   =        -4.52674707
  -V(xc)+E(xc)   XCENC  =      -844.52353508
  PAW double counting   =      1137.73615723     -115.16745734
  entropy T*S    EENTRO =        -0.00043611
  eigenvalues    EBANDS =       298.76093784
  atomic energy  EATOM  =      1713.22913220
  ---------------------------------------------------
  free energy    TOTEN  =      -106.73913849 eV

  energy without entropy =     -106.73870238  energy(sigma->0) =     -106.73892043


--------------------------------------------------------------------------------------------------------




----------------------------------------- Iteration    1(   3)  ---------------------------------------


    EDDAV :  VPU time   21.71: CPU time   21.71
    DOS   :  VPU time    0.00: CPU time   -0.00
    ------------------------------------------
      LOOP:  VPU time   21.72: CPU time   21.71

 eigenvalue-minimisations  :  7232
 total energy-change (2. order) :-0.1258210E+02  (-0.1193458E+02)
 number of electron   96.0000000 magnetization 
 augmentation part    96.0000000 magnetization 

 Free energy of the ion-electron system (eV)
  ---------------------------------------------------
  alpha Z        PSCENC =        -5.97920206
  Ewald energy   TEWEN  =     -2286.26798810
  -1/2 Hartree   DENC   =        -4.52674707
  -V(xc)+E(xc)   XCENC  =      -844.52353508
  PAW double counting   =      1137.73615723     -115.16745734
  entropy T*S    EENTRO =        -0.00153144
  eigenvalues    EBANDS =       286.17993755
  atomic energy  EATOM  =      1713.22913220
  ---------------------------------------------------
  free energy    TOTEN  =      -119.32123411 eV

  energy without entropy =     -119.31970267  energy(sigma->0) =     -119.32046839


--------------------------------------------------------------------------------------------------------




----------------------------------------- Iteration    1(   4)  ---------------------------------------


    EDDAV :  VPU time   21.69: CPU time   21.68
    DOS   :  VPU time    0.00: CPU time   -0.00
    ------------------------------------------
      LOOP:  VPU time   21.69: CPU time   21.69

 eigenvalue-minimisations  :  6728
 total energy-change (2. order) :-0.2441070E+00  (-0.2417136E+00)
 number of electron   96.0000000 magnetization 
 augmentation part    96.0000000 magnetization 

 Free energy of the ion-electron system (eV)
  ---------------------------------------------------
  alpha Z        PSCENC =        -5.97920206
  Ewald energy   TEWEN  =     -2286.26798810
  -1/2 Hartree   DENC   =        -4.52674707
  -V(xc)+E(xc)   XCENC  =      -844.52353508
  PAW double counting   =      1137.73615723     -115.16745734
  entropy T*S    EENTRO =        -0.00198167
  eigenvalues    EBANDS =       285.93628079
  atomic energy  EATOM  =      1713.22913220
  ---------------------------------------------------
  free energy    TOTEN  =      -119.56534110 eV

  energy without entropy =     -119.56335943  energy(sigma->0) =     -119.56435027


--------------------------------------------------------------------------------------------------------




----------------------------------------- Iteration    1(   5)  ---------------------------------------


    EDDAV :  VPU time   25.12: CPU time   25.11
    DOS   :  VPU time    0.00: CPU time   -0.00
    CHARGE:  VPU time    1.32: CPU time    1.32
    MIXING:  VPU time    0.00: CPU time    0.00
    ------------------------------------------
      LOOP:  VPU time   26.45: CPU time   26.45

 eigenvalue-minimisations  :  6696
 total energy-change (2. order) :-0.3007720E-02  (-0.3006295E-02)
 number of electron   96.0000001 magnetization 
 augmentation part    -1.2524201 magnetization 

 Broyden mixing:
  rms(total) = 0.50641E+00    rms(broyden)= 0.50641E+00
  rms(prec ) = 0.73780E+00
  weight for this iteration     100.00

 Free energy of the ion-electron system (eV)
  ---------------------------------------------------
  alpha Z        PSCENC =        -5.97920206
  Ewald energy   TEWEN  =     -2286.26798810
  -1/2 Hartree   DENC   =        -4.52674707
  -V(xc)+E(xc)   XCENC  =      -844.52353508
  PAW double counting   =      1137.73615723     -115.16745734
  entropy T*S    EENTRO =        -0.00198839
  eigenvalues    EBANDS =       285.93327979
  atomic energy  EATOM  =      1713.22913220
  ---------------------------------------------------
  free energy    TOTEN  =      -119.56834882 eV

  energy without entropy =     -119.56636043  energy(sigma->0) =     -119.56735463


--------------------------------------------------------------------------------------------------------




----------------------------------------- Iteration    1(   6)  ---------------------------------------


    POTLOK:  VPU time    0.18: CPU time    0.18
    SETDIJ:  VPU time    0.01: CPU time    0.01
    EDDAV :  VPU time   24.93: CPU time   24.92
    DOS   :  VPU time    0.00: CPU time   -0.00
    CHARGE:  VPU time    1.28: CPU time    1.28
    MIXING:  VPU time    0.00: CPU time    0.00
    ------------------------------------------
      LOOP:  VPU time   26.41: CPU time   26.41

 eigenvalue-minimisations  :  6568
 total energy-change (2. order) : 0.3993537E+00  (-0.6361635E-02)
 number of electron   96.0000001 magnetization 
 augmentation part    -1.2721961 magnetization 

 Broyden mixing:
  rms(total) = 0.31394E+00    rms(broyden)= 0.31394E+00
  rms(prec ) = 0.45898E+00
  weight for this iteration     100.00

 eigenvalues of (default mixing * dielectric matrix)
  average eigenvalue GAMMA=   2.6212
  2.6212

 Free energy of the ion-electron system (eV)
  ---------------------------------------------------
  alpha Z        PSCENC =        -5.97920206
  Ewald energy   TEWEN  =     -2286.26798810
  -1/2 Hartree   DENC   =        -3.44805817
  -V(xc)+E(xc)   XCENC  =      -843.62274516
  PAW double counting   =      1135.67081932     -113.04757339
  entropy T*S    EENTRO =        -0.00152351
  eigenvalues    EBANDS =       284.29814371
  atomic energy  EATOM  =      1713.22913220
  ---------------------------------------------------
  free energy    TOTEN  =      -119.16899516 eV

  energy without entropy =     -119.16747165  energy(sigma->0) =     -119.16823340


--------------------------------------------------------------------------------------------------------




----------------------------------------- Iteration    1(   7)  ---------------------------------------


    POTLOK:  VPU time    0.18: CPU time    0.18
    SETDIJ:  VPU time    0.01: CPU time    0.01
    EDDAV :  VPU time   24.08: CPU time   24.07
    DOS   :  VPU time    0.00: CPU time   -0.00
    CHARGE:  VPU time    1.28: CPU time    1.27
    MIXING:  VPU time    0.01: CPU time    0.01
    ------------------------------------------
      LOOP:  VPU time   25.56: CPU time   25.55

 eigenvalue-minimisations  :  6336
 total energy-change (2. order) : 0.2883755E+00  (-0.1858411E-01)
 number of electron   96.0000001 magnetization 
 augmentation part    -1.3084162 magnetization 

 Broyden mixing:
  rms(total) = 0.13630E-01    rms(broyden)= 0.13630E-01
  rms(prec ) = 0.16448E-01
  weight for this iteration     100.00

 eigenvalues of (default mixing * dielectric matrix)
  average eigenvalue GAMMA=   2.4834
  2.4834  2.4834

 Free energy of the ion-electron system (eV)
  ---------------------------------------------------
  alpha Z        PSCENC =        -5.97920206
  Ewald energy   TEWEN  =     -2286.26798810
  -1/2 Hartree   DENC   =        -3.05008902
  -V(xc)+E(xc)   XCENC  =      -841.72475649
  PAW double counting   =      1132.63070110     -109.97756789
  entropy T*S    EENTRO =        -0.00099643
  eigenvalues    EBANDS =       282.26014703
  atomic energy  EATOM  =      1713.22913220
  ---------------------------------------------------
  free energy    TOTEN  =      -118.88061966 eV

  energy without entropy =     -118.87962324  energy(sigma->0) =     -118.88012145


--------------------------------------------------------------------------------------------------------




----------------------------------------- Iteration    1(   8)  ---------------------------------------


    POTLOK:  VPU time    0.18: CPU time    0.18
    SETDIJ:  VPU time    0.01: CPU time    0.01
    EDDAV :  VPU time   25.37: CPU time   25.36
    DOS   :  VPU time    0.00: CPU time   -0.00
    CHARGE:  VPU time    1.32: CPU time    1.32
    MIXING:  VPU time    0.01: CPU time    0.01
    ------------------------------------------
      LOOP:  VPU time   26.88: CPU time   26.88

 eigenvalue-minimisations  :  6816
 total energy-change (2. order) : 0.7040385E-04  (-0.1390457E-03)
 number of electron   96.0000001 magnetization 
 augmentation part    -1.3104001 magnetization 

 Broyden mixing:
  rms(total) = 0.41944E-02    rms(broyden)= 0.41943E-02
  rms(prec ) = 0.55643E-02
  weight for this iteration     100.00

 eigenvalues of (default mixing * dielectric matrix)
  average eigenvalue GAMMA=   2.0688
  0.9758  2.6794  2.5511

 Free energy of the ion-electron system (eV)
  ---------------------------------------------------
  alpha Z        PSCENC =        -5.97920206
  Ewald energy   TEWEN  =     -2286.26798810
  -1/2 Hartree   DENC   =        -3.10551771
  -V(xc)+E(xc)   XCENC  =      -841.67984879
  PAW double counting   =      1133.84608301     -111.27018870
  entropy T*S    EENTRO =        -0.00099917
  eigenvalues    EBANDS =       282.34798006
  atomic energy  EATOM  =      1713.22913220
  ---------------------------------------------------
  free energy    TOTEN  =      -118.88054926 eV

  energy without entropy =     -118.87955009  energy(sigma->0) =     -118.88004967


--------------------------------------------------------------------------------------------------------




----------------------------------------- Iteration    1(   9)  ---------------------------------------


    POTLOK:  VPU time    0.18: CPU time    0.18
    SETDIJ:  VPU time    0.01: CPU time    0.01
    EDDAV :  VPU time   25.29: CPU time   25.28
    DOS   :  VPU time    0.00: CPU time   -0.00
    CHARGE:  VPU time    1.24: CPU time    1.24
    MIXING:  VPU time    0.00: CPU time    0.01
    ------------------------------------------
      LOOP:  VPU time   26.73: CPU time   26.72

 eigenvalue-minimisations  :  6808
 total energy-change (2. order) :-0.2519932E-04  (-0.4560313E-05)
 number of electron   96.0000001 magnetization 
 augmentation part    -1.3112690 magnetization 

 Broyden mixing:
  rms(total) = 0.33273E-03    rms(broyden)= 0.33271E-03
  rms(prec ) = 0.48806E-03
  weight for this iteration     100.00

 eigenvalues of (default mixing * dielectric matrix)
  average eigenvalue GAMMA=   1.9403
  1.0041  2.6633  2.5678  1.5259

 Free energy of the ion-electron system (eV)
  ---------------------------------------------------
  alpha Z        PSCENC =        -5.97920206
  Ewald energy   TEWEN  =     -2286.26798810
  -1/2 Hartree   DENC   =        -3.13384663
  -V(xc)+E(xc)   XCENC  =      -841.64272817
  PAW double counting   =      1134.24552558     -111.69976407
  entropy T*S    EENTRO =        -0.00099886
  eigenvalues    EBANDS =       282.36929565
  atomic energy  EATOM  =      1713.22913220
  ---------------------------------------------------
  free energy    TOTEN  =      -118.88057446 eV

  energy without entropy =     -118.87957560  energy(sigma->0) =     -118.88007503


--------------------------------------------------------------------------------------------------------




----------------------------------------- Iteration    1(  10)  ---------------------------------------


    POTLOK:  VPU time    0.19: CPU time    0.20
    SETDIJ:  VPU time    0.01: CPU time    0.01
    EDDAV :  VPU time   25.13: CPU time   25.13
    DOS   :  VPU time    0.00: CPU time   -0.00
    CHARGE:  VPU time    1.31: CPU time    1.31
    MIXING:  VPU time    0.00: CPU time    0.00
    ------------------------------------------
      LOOP:  VPU time   26.65: CPU time   26.65

 eigenvalue-minimisations  :  6784
 total energy-change (2. order) : 0.9151004E-06  (-0.1765306E-06)
 number of electron   96.0000001 magnetization 
 augmentation part    -1.3113450 magnetization 

 Broyden mixing:
  rms(total) = 0.19196E-03    rms(broyden)= 0.19196E-03
  rms(prec ) = 0.25435E-03
  weight for this iteration     100.00

 eigenvalues of (default mixing * dielectric matrix)
  average eigenvalue GAMMA=   1.8992
  2.6388  2.6388  2.3382  1.0333  0.8468

 Free energy of the ion-electron system (eV)
  ---------------------------------------------------
  alpha Z        PSCENC =        -5.97920206
  Ewald energy   TEWEN  =     -2286.26798810
  -1/2 Hartree   DENC   =        -3.13507802
  -V(xc)+E(xc)   XCENC  =      -841.64147421
  PAW double counting   =      1134.20292174     -111.65629010
  entropy T*S    EENTRO =        -0.00099895
  eigenvalues    EBANDS =       282.36840396
  atomic energy  EATOM  =      1713.22913220
  ---------------------------------------------------
  free energy    TOTEN  =      -118.88057354 eV

  energy without entropy =     -118.87957459  energy(sigma->0) =     -118.88007407


--------------------------------------------------------------------------------------------------------




----------------------------------------- Iteration    1(  11)  ---------------------------------------


    POTLOK:  VPU time    0.18: CPU time    0.18
    SETDIJ:  VPU time    0.01: CPU time    0.01
    EDDAV :  VPU time   25.33: CPU time   25.32
    DOS   :  VPU time    0.00: CPU time   -0.00
    CHARGE:  VPU time    1.20: CPU time    1.20
    MIXING:  VPU time    0.00: CPU time    0.01
    ------------------------------------------
      LOOP:  VPU time   26.72: CPU time   26.72

 eigenvalue-minimisations  :  6816
 total energy-change (2. order) : 0.3808101E-05  (-0.1561707E-07)
 number of electron   96.0000001 magnetization 
 augmentation part    -1.3113600 magnetization 

 Broyden mixing:
  rms(total) = 0.61800E-04    rms(broyden)= 0.61800E-04
  rms(prec ) = 0.83404E-04
  weight for this iteration     100.00

 eigenvalues of (default mixing * dielectric matrix)
  average eigenvalue GAMMA=   1.8280
  2.7087  2.7087  2.4883  0.9952  1.2501  0.8168

 Free energy of the ion-electron system (eV)
  ---------------------------------------------------
  alpha Z        PSCENC =        -5.97920206
  Ewald energy   TEWEN  =     -2286.26798810
  -1/2 Hartree   DENC   =        -3.13535868
  -V(xc)+E(xc)   XCENC  =      -841.64187571
  PAW double counting   =      1134.14136034     -111.59270889
  entropy T*S    EENTRO =        -0.00099907
  eigenvalues    EBANDS =       282.36707022
  atomic energy  EATOM  =      1713.22913220
  ---------------------------------------------------
  free energy    TOTEN  =      -118.88056974 eV

  energy without entropy =     -118.87957067  energy(sigma->0) =     -118.88007020


--------------------------------------------------------------------------------------------------------




----------------------------------------- Iteration    1(  12)  ---------------------------------------


    POTLOK:  VPU time    0.19: CPU time    0.19
    SETDIJ:  VPU time    0.01: CPU time    0.01
    EDDAV :  VPU time   18.80: CPU time   18.79
    DOS   :  VPU time    0.00: CPU time   -0.00
    CHARGE:  VPU time    1.47: CPU time    1.47
    MIXING:  VPU time    0.02: CPU time    0.02
    ------------------------------------------
      LOOP:  VPU time   20.49: CPU time   20.49

 eigenvalue-minimisations  :  4352
 total energy-change (2. order) : 0.9057096E-06  (-0.1951261E-08)
 number of electron   96.0000001 magnetization 
 augmentation part    -1.3113671 magnetization 

 Broyden mixing:
  rms(total) = 0.10968E-04    rms(broyden)= 0.10968E-04
  rms(prec ) = 0.17915E-04
  weight for this iteration     100.00

 eigenvalues of (default mixing * dielectric matrix)
  average eigenvalue GAMMA=   1.7655
  2.6915  2.6915  2.4687  1.5956  1.0278  1.0819  0.8013

 Free energy of the ion-electron system (eV)
  ---------------------------------------------------
  alpha Z        PSCENC =        -5.97920206
  Ewald energy   TEWEN  =     -2286.26798810
  -1/2 Hartree   DENC   =        -3.13562936
  -V(xc)+E(xc)   XCENC  =      -841.64165323
  PAW double counting   =      1134.12340034     -111.57425534
  entropy T*S    EENTRO =        -0.00099903
  eigenvalues    EBANDS =       282.36662574
  atomic energy  EATOM  =      1713.22913220
  ---------------------------------------------------
  free energy    TOTEN  =      -118.88056883 eV

  energy without entropy =     -118.87956980  energy(sigma->0) =     -118.88006931


--------------------------------------------------------------------------------------------------------




----------------------------------------- Iteration    1(  13)  ---------------------------------------


    POTLOK:  VPU time    0.27: CPU time    0.27
    SETDIJ:  VPU time    0.02: CPU time    0.02
    EDDAV :  VPU time   25.62: CPU time   25.61
    DOS   :  VPU time    0.00: CPU time   -0.00
    CHARGE:  VPU time    1.57: CPU time    1.57
    MIXING:  VPU time    0.01: CPU time    0.01
    ------------------------------------------
      LOOP:  VPU time   27.49: CPU time   27.48

 eigenvalue-minimisations  :  3728
 total energy-change (2. order) : 0.1427929E-06  (-0.3087749E-09)
 number of electron   96.0000001 magnetization 
 augmentation part    -1.3113669 magnetization 

 Broyden mixing:
  rms(total) = 0.29334E-05    rms(broyden)= 0.29334E-05
  rms(prec ) = 0.45913E-05
  weight for this iteration     100.00

 eigenvalues of (default mixing * dielectric matrix)
  average eigenvalue GAMMA=   1.7169
  2.7109  2.7109  2.4956  1.6268  1.3945  1.0486  0.9455  0.8025

 Free energy of the ion-electron system (eV)
  ---------------------------------------------------
  alpha Z        PSCENC =        -5.97920206
  Ewald energy   TEWEN  =     -2286.26798810
  -1/2 Hartree   DENC   =        -3.13561942
  -V(xc)+E(xc)   XCENC  =      -841.64172321
  PAW double counting   =      1134.12202090     -111.57281956
  entropy T*S    EENTRO =        -0.00099903
  eigenvalues    EBANDS =       282.36662959
  atomic energy  EATOM  =      1713.22913220
  ---------------------------------------------------
  free energy    TOTEN  =      -118.88056869 eV

  energy without entropy =     -118.87956966  energy(sigma->0) =     -118.88006917


--------------------------------------------------------------------------------------------------------




----------------------------------------- Iteration    1(  14)  ---------------------------------------


    POTLOK:  VPU time    0.24: CPU time    0.25
    SETDIJ:  VPU time    0.01: CPU time    0.01
    EDDAV :  VPU time   27.22: CPU time   27.21
    DOS   :  VPU time    0.00: CPU time   -0.00
    ------------------------------------------
      LOOP:  VPU time   27.48: CPU time   27.47

 eigenvalue-minimisations  :  3712
 total energy-change (2. order) :-0.4342382E-08  (-0.4637332E-10)
 number of electron   96.0000001 magnetization 
 augmentation part    -1.3113669 magnetization 

 Free energy of the ion-electron system (eV)
  ---------------------------------------------------
  alpha Z        PSCENC =        -5.97920206
  Ewald energy   TEWEN  =     -2286.26798810
  -1/2 Hartree   DENC   =        -3.13562957
  -V(xc)+E(xc)   XCENC  =      -841.64171551
  PAW double counting   =      1134.12213702     -111.57294372
  entropy T*S    EENTRO =        -0.00099903
  eigenvalues    EBANDS =       282.36664007
  atomic energy  EATOM  =      1713.22913220
  ---------------------------------------------------
  free energy    TOTEN  =      -118.88056869 eV

  energy without entropy =     -118.87956966  energy(sigma->0) =     -118.88006918


--------------------------------------------------------------------------------------------------------




 average (electrostatic) potential at core
  the test charge radii are     1.0406
  (the norm of the test charge is              1.0000)
       1 -73.6100       2 -73.6102       3 -73.6101       4 -73.6101       5 -73.6101
       6 -73.6101       7 -73.6101       8 -73.6101       9 -73.6101      10 -73.6101
      11 -73.6101      12 -73.6101      13 -73.6101      14 -73.6101      15 -73.6101
      16 -73.6101      17 -73.6108      18 -73.6094      19 -73.6100      20 -73.6103
      21 -73.6108      22 -73.6094      23 -73.6100      24 -73.6103      25 -73.6108
      26 -73.6094      27 -73.6108      28 -73.6094      29 -73.6100      30 -73.6103
      31 -73.6100      32 -73.6103
 
 
 
 E-fermi :   7.1621     XC(G=0):  -9.8907     alpha+bet :-13.6549
   add alpha+bet to get absolut eigen values

 k-point   1 :       0.0000    0.0000    0.0000
  band No.  band energies     occupation 
      1      -3.4211      2.00000
      2      -1.2988      2.00000
      3      -1.2953      2.00000
      4      -1.2953      2.00000
      5      -1.2953      2.00000
      6      -1.2953      2.00000
      7      -1.2919      2.00000
      8       0.7956      2.00000
      9       0.8000      2.00000
     10       0.8000      2.00000
     11       0.8015      2.00000
     12       0.8016      2.00000
     13       0.8016      2.00000
     14       0.8016      2.00000
     15       0.8016      2.00000
     16       0.8018      2.00000
     17       0.8033      2.00000
     18       0.8033      2.00000
     19       0.8076      2.00000
     20       2.8650      2.00000
     21       2.8653      2.00000
     22       2.8653      2.00000
     23       2.8655      2.00000
     24       2.8785      2.00000
     25       2.8787      2.00000
     26       2.8787      2.00000
     27       2.8790      2.00000
     28       4.4176      2.00000
     29       4.4176      2.00000
     30       4.4176      2.00000
     31       5.5348      2.00000
     32       5.5348      2.00000
     33       5.5349      2.00000
     34       6.3930      2.00000
     35       6.3930      2.00000
     36       6.3971      2.00000
     37       6.3971      2.00000
     38       6.3972      2.00000
     39       6.3972      2.00000
     40       6.3972      2.00000
     41       6.3972      2.00000
     42       6.3972      2.00000
     43       6.3972      2.00000
     44       6.4013      2.00000
     45       6.4013      2.00000
     46       7.4455      0.00000
     47       7.4494      0.00000
     48       7.4494      0.00000
     49       7.4494      0.00000
     50       7.4494      0.00000
     51       7.4532      0.00000
     52       7.7814      0.00000
     53       7.7822      0.00000
     54       7.7822      0.00000
     55       7.7822      0.00000
     56       7.7823      0.00000
     57       7.7831      0.00000
     58       8.3756      0.00000
     59       8.3756      0.00000
     60       8.3773      0.00000
     61       8.3794      0.00000
     62       8.3795      0.00000
     63       8.3795      0.00000
     64       8.3795      0.00000
     65       8.3796      0.00000
     66       8.3796      0.00000
     67       8.3817      0.00000
     68       8.3834      0.00000
     69       8.3834      0.00000
     70       9.6261      0.00000
     71       9.6281      0.00000
     72       9.6292      0.00000

 k-point   2 :       0.1667    0.0000    0.0000
  band No.  band energies     occupation 
      1      -3.3617      2.00000
      2      -1.9417      2.00000
      3      -1.2367      2.00000
      4      -1.2367      2.00000
      5      -1.2367      2.00000
      6      -1.2367      2.00000
      7      -0.5351      2.00000
      8       0.1639      2.00000
      9       0.1639      2.00000
     10       0.1639      2.00000
     11       0.1639      2.00000
     12       0.8595      2.00000
     13       0.8595      2.00000
     14       0.8595      2.00000
     15       0.8595      2.00000
     16       1.5517      2.00000
     17       1.5517      2.00000
     18       1.5517      2.00000
     19       1.5517      2.00000
     20       2.2421      2.00000
     21       2.2421      2.00000
     22       2.2421      2.00000
     23       2.2421      2.00000
     24       3.5522      2.00000
     25       3.6130      2.00000
     26       3.6130      2.00000
     27       3.6130      2.00000
     28       3.6130      2.00000
     29       4.4725      2.00000
     30       4.4725      2.00000
     31       5.5727      2.00000
     32       5.5730      2.00000
     33       5.5730      2.00000
     34       5.5730      2.00000
     35       5.5933      2.00000
     36       5.5935      2.00000
     37       5.7917      2.00000
     38       5.7917      2.00000
     39       6.4522      2.00000
     40       6.4522      2.00000
     41       6.4522      2.00000
     42       6.4522      2.00000
     43       6.5045      2.00000
     44       6.9692      2.00000
     45       6.9692      2.00000
     46       7.1133      2.00000
     47       7.1133      2.00000
     48       7.5820      0.00000
     49       7.5820      0.00000
     50       7.5820      0.00000
     51       7.5820      0.00000
     52       7.6523      0.00000
     53       7.6523      0.00000
     54       7.6523      0.00000
     55       7.6524      0.00000
     56       7.7736      0.00000
     57       7.7736      0.00000
     58       7.7736      0.00000
     59       7.7736      0.00000
     60       8.3658      0.00000
     61       8.3658      0.00000
     62       8.5619      0.00000
     63       8.5619      0.00000
     64       8.5619      0.00000
     65       8.5619      0.00000
     66       9.0201      0.00000
     67       9.0201      0.00000
     68       9.0202      0.00000
     69       9.0203      0.00000
     70       9.0958      0.00000
     71       9.0958      0.00000
     72       9.0958      0.00000

 k-point   3 :       0.3333    0.0000    0.0000
  band No.  band energies     occupation 
      1      -3.1835      2.00000
      2      -2.4727      2.00000
      3      -1.0610      2.00000
      4      -1.0610      2.00000
      5      -1.0610      2.00000
      6      -1.0609      2.00000
      7      -0.3599      2.00000
      8      -0.3599      2.00000
      9      -0.3599      2.00000
     10      -0.3599      2.00000
     11       0.3367      2.00000
     12       1.0329      2.00000
     13       1.0329      2.00000
     14       1.0329      2.00000
     15       1.0329      2.00000
     16       1.7250      2.00000
     17       1.7250      2.00000
     18       1.7250      2.00000
     19       1.7250      2.00000
     20       2.3975      2.00000
     21       2.4119      2.00000
     22       2.4119      2.00000
     23       2.4119      2.00000
     24       2.4120      2.00000
     25       4.4425      2.00000
     26       4.4425      2.00000
     27       4.4425      2.00000
     28       4.4426      2.00000
     29       4.4628      2.00000
     30       4.4628      2.00000
     31       4.4628      2.00000
     32       4.4628      2.00000
     33       4.6373      2.00000
     34       4.6373      2.00000
     35       5.2967      2.00000
     36       5.2967      2.00000
     37       5.7681      2.00000
     38       5.7681      2.00000
     39       6.4605      2.00000
     40       6.4610      2.00000
     41       6.4685      2.00000
     42       6.4685      2.00000
     43       6.4685      2.00000
     44       6.4690      2.00000
     45       6.6173      2.00000
     46       6.6173      2.00000
     47       6.6173      2.00000
     48       6.6173      2.00000
     49       7.2779      0.00000
     50       7.2779      0.00000
     51       7.2779      0.00000
     52       7.2779      0.00000
     53       7.8361      0.00000
     54       7.8361      0.00000
     55       7.8361      0.00000
     56       7.8361      0.00000
     57       7.9403      0.00000
     58       7.9403      0.00000
     59       7.9715      0.00000
     60       8.5168      0.00000
     61       8.5168      0.00000
     62       8.5168      0.00000
     63       8.5168      0.00000
     64       9.1807      0.00000
     65       9.1807      0.00000
     66       9.9220      0.00000
     67       9.9223      0.00000
     68       9.9227      0.00000
     69       9.9240      0.00000
     70       9.9277      0.00000
     71       9.9291      0.00000
     72       9.9816      0.00000

 k-point   4 :       0.5000    0.0000    0.0000
  band No.  band energies     occupation 
      1      -2.8883      2.00000
      2      -2.8855      2.00000
      3      -0.7723      2.00000
      4      -0.7693      2.00000
      5      -0.7693      2.00000
      6      -0.7685      2.00000
      7      -0.7685      2.00000
      8      -0.7677      2.00000
      9      -0.7677      2.00000
     10      -0.7647      2.00000
     11       1.3141      2.00000
     12       1.3167      2.00000
     13       1.3203      2.00000
     14       1.3204      2.00000
     15       1.3204      2.00000
     16       1.3212      2.00000
     17       1.3220      2.00000
     18       1.3228      2.00000
     19       1.3228      2.00000
     20       1.3253      2.00000
     21       3.3771      2.00000
     22       3.3775      2.00000
     23       3.3775      2.00000
     24       3.3781      2.00000
     25       3.3784      2.00000
     26       3.3790      2.00000
     27       3.3790      2.00000
     28       3.3795      2.00000
     29       4.9105      2.00000
     30       4.9105      2.00000
     31       4.9134      2.00000
     32       4.9134      2.00000
     33       5.4164      2.00000
     34       5.4164      2.00000
     35       5.4171      2.00000
     36       5.4172      2.00000
     37       5.4178      2.00000
     38       5.4180      2.00000
     39       5.4186      2.00000
     40       5.4186      2.00000
     41       6.0565      2.00000
     42       6.0574      2.00000
     43       6.0592      2.00000
     44       6.0600      2.00000
     45       6.8903      2.00000
     46       6.8903      2.00000
     47       6.8912      2.00000
     48       6.8924      2.00000
     49       6.8926      2.00000
     50       6.8938      2.00000
     51       6.8948      2.00000
     52       6.8948      2.00000
     53       8.1195      0.00000
     54       8.1207      0.00000
     55       8.1207      0.00000
     56       8.1208      0.00000
     57       8.1226      0.00000
     58       8.1228      0.00000
     59       8.1228      0.00000
     60       8.1240      0.00000
     61       8.8771      0.00000
     62       8.8771      0.00000
     63       8.8793      0.00000
     64       8.8793      0.00000
     65       9.5713      0.00000
     66       9.5728      0.00000
     67      10.0805      0.00000
     68      10.0811      0.00000
     69      10.0823      0.00000
     70      10.0829      0.00000
     71      10.8582      0.00000
     72      10.8595      0.00000

 k-point   5 :       0.0000    0.1667    0.0000
  band No.  band energies     occupation 
      1      -3.3617      2.00000
      2      -1.9417      2.00000
      3      -1.2394      2.00000
      4      -1.2367      2.00000
      5      -1.2367      2.00000
      6      -1.2340      2.00000
      7      -0.5351      2.00000
      8       0.1612      2.00000
      9       0.1639      2.00000
     10       0.1639      2.00000
     11       0.1666      2.00000
     12       0.8573      2.00000
     13       0.8584      2.00000
     14       0.8605      2.00000
     15       0.8616      2.00000
     16       1.5490      2.00000
     17       1.5517      2.00000
     18       1.5517      2.00000
     19       1.5544      2.00000
     20       2.2400      2.00000
     21       2.2410      2.00000
     22       2.2432      2.00000
     23       2.2443      2.00000
     24       3.5522      2.00000
     25       3.6108      2.00000
     26       3.6119      2.00000
     27       3.6141      2.00000
     28       3.6152      2.00000
     29       4.4725      2.00000
     30       4.4725      2.00000
     31       5.5701      2.00000
     32       5.5730      2.00000
     33       5.5730      2.00000
     34       5.5758      2.00000
     35       5.5933      2.00000
     36       5.5933      2.00000
     37       5.7917      2.00000
     38       5.7918      2.00000
     39       6.4496      2.00000
     40       6.4522      2.00000
     41       6.4522      2.00000
     42       6.4548      2.00000
     43       6.5045      2.00000
     44       6.9692      2.00000
     45       6.9692      2.00000
     46       7.1133      2.00000
     47       7.1133      2.00000
     48       7.5796      0.00000
     49       7.5810      0.00000
     50       7.5831      0.00000
     51       7.5845      0.00000
     52       7.6502      0.00000
     53       7.6523      0.00000
     54       7.6523      0.00000
     55       7.6544      0.00000
     56       7.7710      0.00000
     57       7.7735      0.00000
     58       7.7736      0.00000
     59       7.7762      0.00000
     60       8.3658      0.00000
     61       8.3658      0.00000
     62       8.5596      0.00000
     63       8.5619      0.00000
     64       8.5619      0.00000
     65       8.5641      0.00000
     66       9.0182      0.00000
     67       9.0202      0.00000
     68       9.0202      0.00000
     69       9.0222      0.00000
     70       9.0934      0.00000
     71       9.0958      0.00000
     72       9.0974      0.00000

 k-point   6 :       0.1667    0.1667    0.0000
  band No.  band energies     occupation 
      1      -3.3023      2.00000
      2      -1.8839      2.00000
      3      -1.8818      2.00000
      4      -1.1781      2.00000
      5      -1.1781      2.00000
      6      -0.4784      2.00000
      7      -0.4767      2.00000
      8      -0.4750      2.00000
      9       0.2204      2.00000
     10       0.2213      2.00000
     11       0.2226      2.00000
     12       0.2235      2.00000
     13       0.9165      2.00000
     14       0.9175      2.00000
     15       1.6071      2.00000
     16       1.6084      2.00000
     17       1.6095      2.00000
     18       1.6096      2.00000
     19       1.6107      2.00000
     20       1.6119      2.00000
     21       2.2983      2.00000
     22       2.9826      2.00000
     23       2.9826      2.00000
     24       2.9891      2.00000
     25       2.9891      2.00000
     26       3.6081      2.00000
     27       3.6091      2.00000
     28       4.3508      2.00000
     29       4.3508      2.00000
     30       4.5274      2.00000
     31       4.9568      2.00000
     32       4.9590      2.00000
     33       5.5948      2.00000
     34       5.5948      2.00000
     35       5.6515      2.00000
     36       5.6657      2.00000
     37       5.6658      2.00000
     38       5.8455      2.00000
     39       5.8479      2.00000
     40       6.2926      2.00000
     41       6.2940      2.00000
     42       6.5608      2.00000
     43       6.5618      2.00000
     44       6.9690      2.00000
     45       6.9699      2.00000
     46       6.9712      2.00000
     47       6.9722      2.00000
     48       7.0452      2.00000
     49       7.0468      2.00000
     50       7.1660      0.58538
     51       7.1681      0.39544
     52       7.1703      0.24803
     53       7.8834      0.00000
     54       7.8851      0.00000
     55       8.3012      0.00000
     56       8.3023      0.00000
     57       8.3024      0.00000
     58       8.3034      0.00000
     59       8.4066      0.00000
     60       8.4428      0.00000
     61       8.4439      0.00000
     62       8.4732      0.00000
     63       8.4733      0.00000
     64       8.4890      0.00000
     65       8.4909      0.00000
     66       8.7189      0.00000
     67       8.7189      0.00000
     68       9.2649      0.00000
     69       9.2669      0.00000
     70       9.7347      0.00000
     71       9.7349      0.00000
     72       9.8117      0.00000

 k-point   7 :       0.3333    0.1667    0.0000
  band No.  band energies     occupation 
      1      -3.1241      2.00000
      2      -2.4136      2.00000
      3      -1.7064      2.00000
      4      -1.0038      2.00000
      5      -1.0024      2.00000
      6      -1.0011      2.00000
      7      -0.3031      2.00000
      8      -0.3016      2.00000
      9      -0.3004      2.00000
     10       0.3933      2.00000
     11       0.3957      2.00000
     12       0.3961      2.00000
     13       0.3974      2.00000
     14       1.0908      2.00000
     15       1.0908      2.00000
     16       1.7804      2.00000
     17       1.7820      2.00000
     18       1.7822      2.00000
     19       2.4545      2.00000
     20       2.4683      2.00000
     21       2.4688      2.00000
     22       2.4713      2.00000
     23       2.4720      2.00000
     24       3.1543      2.00000
     25       3.7777      2.00000
     26       3.8204      2.00000
     27       3.8388      2.00000
     28       3.8388      2.00000
     29       4.4530      2.00000
     30       4.4988      2.00000
     31       4.4989      2.00000
     32       4.6922      2.00000
     33       5.1740      2.00000
     34       5.1969      2.00000
     35       5.1970      2.00000
     36       5.3517      2.00000
     37       5.7994      2.00000
     38       5.7995      2.00000
     39       5.8262      2.00000
     40       5.8522      2.00000
     41       5.8523      2.00000
     42       6.0117      2.00000
     43       6.4692      2.00000
     44       6.4692      2.00000
     45       6.5126      2.00000
     46       6.6721      2.00000
     47       6.7315      2.00000
     48       7.1466      1.97211
     49       7.1940      0.00001
     50       7.1940      0.00001
     51       7.2165      0.00000
     52       7.3335      0.00000
     53       7.4058      0.00000
     54       7.8993      0.00000
     55       7.9932      0.00000
     56       7.9965      0.00000
     57       8.0274      0.00000
     58       8.5493      0.00000
     59       8.7528      0.00000
     60       8.7528      0.00000
     61       9.1148      0.00000
     62       9.1297      0.00000
     63       9.1298      0.00000
     64       9.2356      0.00000
     65       9.2388      0.00000
     66       9.3168      0.00000
     67       9.3912      0.00000
     68       9.4259      0.00000
     69       9.4259      0.00000
     70       9.9822      0.00000
     71      10.0393      0.00000
     72      10.0484      0.00000

 k-point   8 :       0.5000    0.1667    0.0000
  band No.  band energies     occupation 
      1      -2.8290      2.00000
      2      -2.8263      2.00000
      3      -1.4140      2.00000
      4      -1.4113      2.00000
      5      -0.7120      2.00000
      6      -0.7109      2.00000
      7      -0.7093      2.00000
      8      -0.7081      2.00000
      9      -0.0122      2.00000
     10      -0.0095      2.00000
     11       0.6839      2.00000
     12       0.6851      2.00000
     13       0.6867      2.00000
     14       0.6878      2.00000
     15       1.3735      2.00000
     16       1.3749      2.00000
     17       2.0675      2.00000
     18       2.0686      2.00000
     19       2.0702      2.00000
     20       2.0713      2.00000
     21       2.7504      2.00000
     22       2.7518      2.00000
     23       3.4344      2.00000
     24       3.4345      2.00000
     25       3.4359      2.00000
     26       3.4360      2.00000
     27       4.0580      2.00000
     28       4.0608      2.00000
     29       4.1152      2.00000
     30       4.1166      2.00000
     31       4.7963      2.00000
     32       4.7964      2.00000
     33       4.7978      2.00000
     34       4.7978      2.00000
     35       4.9655      2.00000
     36       4.9684      2.00000
     37       6.0765      2.00000
     38       6.0777      2.00000
     39       6.0793      2.00000
     40       6.0805      2.00000
     41       6.1141      2.00000
     42       6.1168      2.00000
     43       6.1468      2.00000
     44       6.1470      2.00000
     45       6.1484      2.00000
     46       6.1484      2.00000
     47       6.2854      2.00000
     48       6.2883      2.00000
     49       7.0126      2.00000
     50       7.0154      2.00000
     51       7.5005      0.00000
     52       7.5031      0.00000
     53       7.6074      0.00000
     54       7.6103      0.00000
     55       8.0778      0.00000
     56       8.0795      0.00000
     57       8.8416      0.00000
     58       8.8443      0.00000
     59       8.9321      0.00000
     60       8.9344      0.00000
     61       9.0345      0.00000
     62       9.0353      0.00000
     63       9.0373      0.00000
     64       9.0381      0.00000
     65       9.6260      0.00000
     66       9.6276      0.00000
     67      10.0600      0.00000
     68      10.0603      0.00000
     69      10.0619      0.00000
     70      10.0621      0.00000
     71      10.1367      0.00000
     72      10.1373      0.00000

 k-point   9 :       0.0000    0.3333    0.0000
  band No.  band energies     occupation 
      1      -3.1835      2.00000
      2      -2.4727      2.00000
      3      -1.0637      2.00000
      4      -1.0610      2.00000
      5      -1.0610      2.00000
      6      -1.0583      2.00000
      7      -0.3626      2.00000
      8      -0.3599      2.00000
      9      -0.3599      2.00000
     10      -0.3572      2.00000
     11       0.3367      2.00000
     12       1.0308      2.00000
     13       1.0318      2.00000
     14       1.0340      2.00000
     15       1.0351      2.00000
     16       1.7228      2.00000
     17       1.7239      2.00000
     18       1.7260      2.00000
     19       1.7271      2.00000
     20       2.3975      2.00000
     21       2.4091      2.00000
     22       2.4119      2.00000
     23       2.4119      2.00000
     24       2.4146      2.00000
     25       4.4398      2.00000
     26       4.4426      2.00000
     27       4.4426      2.00000
     28       4.4453      2.00000
     29       4.4606      2.00000
     30       4.4617      2.00000
     31       4.4639      2.00000
     32       4.4650      2.00000
     33       4.6373      2.00000
     34       4.6373      2.00000
     35       5.2967      2.00000
     36       5.2967      2.00000
     37       5.7681      2.00000
     38       5.7681      2.00000
     39       6.4606      2.00000
     40       6.4610      2.00000
     41       6.4666      2.00000
     42       6.4675      2.00000
     43       6.4696      2.00000
     44       6.4710      2.00000
     45       6.6147      2.00000
     46       6.6173      2.00000
     47       6.6173      2.00000
     48       6.6199      2.00000
     49       7.2753      0.00000
     50       7.2779      0.00000
     51       7.2779      0.00000
     52       7.2805      0.00000
     53       7.8341      0.00000
     54       7.8361      0.00000
     55       7.8361      0.00000
     56       7.8381      0.00000
     57       7.9402      0.00000
     58       7.9403      0.00000
     59       7.9716      0.00000
     60       8.5148      0.00000
     61       8.5168      0.00000
     62       8.5168      0.00000
     63       8.5188      0.00000
     64       9.1807      0.00000
     65       9.1807      0.00000
     66       9.9208      0.00000
     67       9.9224      0.00000
     68       9.9233      0.00000
     69       9.9250      0.00000
     70       9.9274      0.00000
     71       9.9279      0.00000
     72       9.9827      0.00000

 k-point  10 :       0.1667    0.3333    0.0000
  band No.  band energies     occupation 
      1      -3.1241      2.00000
      2      -2.4136      2.00000
      3      -1.7064      2.00000
      4      -1.0038      2.00000
      5      -1.0024      2.00000
      6      -1.0011      2.00000
      7      -0.3031      2.00000
      8      -0.3016      2.00000
      9      -0.3004      2.00000
     10       0.3934      2.00000
     11       0.3953      2.00000
     12       0.3961      2.00000
     13       0.3977      2.00000
     14       1.0908      2.00000
     15       1.0908      2.00000
     16       1.7798      2.00000
     17       1.7820      2.00000
     18       1.7829      2.00000
     19       2.4546      2.00000
     20       2.4689      2.00000
     21       2.4691      2.00000
     22       2.4710      2.00000
     23       2.4713      2.00000
     24       3.1543      2.00000
     25       3.7777      2.00000
     26       3.8204      2.00000
     27       3.8388      2.00000
     28       3.8388      2.00000
     29       4.4529      2.00000
     30       4.4988      2.00000
     31       4.4989      2.00000
     32       4.6922      2.00000
     33       5.1740      2.00000
     34       5.1969      2.00000
     35       5.1969      2.00000
     36       5.3517      2.00000
     37       5.7994      2.00000
     38       5.7995      2.00000
     39       5.8263      2.00000
     40       5.8522      2.00000
     41       5.8522      2.00000
     42       6.0117      2.00000
     43       6.4691      2.00000
     44       6.4691      2.00000
     45       6.5126      2.00000
     46       6.6721      2.00000
     47       6.7315      2.00000
     48       7.1466      1.97218
     49       7.1940      0.00001
     50       7.1940      0.00001
     51       7.2165      0.00000
     52       7.3335      0.00000
     53       7.4058      0.00000
     54       7.8993      0.00000
     55       7.9939      0.00000
     56       7.9958      0.00000
     57       8.0273      0.00000
     58       8.5493      0.00000
     59       8.7528      0.00000
     60       8.7528      0.00000
     61       9.1149      0.00000
     62       9.1297      0.00000
     63       9.1297      0.00000
     64       9.2359      0.00000
     65       9.2385      0.00000
     66       9.3168      0.00000
     67       9.3912      0.00000
     68       9.4259      0.00000
     69       9.4259      0.00000
     70       9.9823      0.00000
     71      10.0393      0.00000
     72      10.0399      0.00000

 k-point  11 :       0.3333    0.3333    0.0000
  band No.  band energies     occupation 
      1      -2.9462      2.00000
[...]
      6      -0.8854      2.00000
      7      -0.8854      2.00000
      8      -0.8854      2.00000
      9       0.5117      2.00000
     10       0.5117      2.00000
     11       0.5117      2.00000
     12       0.5117      2.00000
     13       1.8919      2.00000
     14       1.8919      2.00000
     15       1.8919      2.00000
     16       1.8919      2.00000
     17       1.8919      2.00000
     18       1.8919      2.00000
     19       1.8919      2.00000
     20       1.8919      2.00000
     21       3.2647      2.00000
     22       3.2647      2.00000
     23       3.2647      2.00000
     24       3.2647      2.00000
     25       3.2647      2.00000
     26       3.2647      2.00000
     27       3.2647      2.00000
     28       3.2647      2.00000
     29       4.5651      2.00000
     30       4.5651      2.00000
     31       4.5651      2.00000
     32       4.5651      2.00000
     33       4.6267      2.00000
     34       4.6267      2.00000
     35       4.6268      2.00000
     36       4.6268      2.00000
     37       4.6268      2.00000
     38       4.6269      2.00000
     39       4.6269      2.00000
     40       4.6269      2.00000
     41       5.9692      2.00000
     42       5.9692      2.00000
     43       5.9692      2.00000
     44       5.9692      2.00000
     45       7.3139      0.00000
     46       7.3139      0.00000
     47       7.3139      0.00000
     48       7.3139      0.00000
     49       7.5315      0.00000
     50       7.5316      0.00000
     51       7.5316      0.00000
     52       7.5316      0.00000
     53       8.5703      0.00000
     54       8.5703      0.00000
     55       8.5705      0.00000
     56       8.5705      0.00000
     57       8.5705      0.00000
     58       8.5706      0.00000
     59       8.5707      0.00000
     60       8.5707      0.00000
     61       8.6466      0.00000
     62       8.6466      0.00000
     63       8.6466      0.00000
     64       8.6466      0.00000
     65      10.1237      0.00000
     66      10.1237      0.00000
     67      10.1240      0.00000
     68      10.1240      0.00000
     69      10.1240      0.00000
     70      10.1240      0.00000
     71      10.1244      0.00000
     72      10.1244      0.00000

 k-point  39 :       0.3333    0.5000    0.5000
  band No.  band energies     occupation 
      1      -2.1186      2.00000
      2      -2.1186      2.00000
      3      -2.1186      2.00000
      4      -2.1186      2.00000
      5      -1.4128      2.00000
      6      -1.4128      2.00000
      7      -1.4128      2.00000
      8      -1.4127      2.00000
      9       1.3776      2.00000
     10       1.3776      2.00000
     11       1.3776      2.00000
     12       1.3776      2.00000
     13       2.0641      2.00000
     14       2.0641      2.00000
     15       2.0641      2.00000
     16       2.0641      2.00000
     17       2.0641      2.00000
     18       2.0641      2.00000
     19       2.0641      2.00000
     20       2.0641      2.00000
     21       2.7512      2.00000
     22       2.7512      2.00000
     23       2.7512      2.00000
     24       2.7512      2.00000
     25       2.7512      2.00000
     26       2.7512      2.00000
     27       2.7512      2.00000
     28       2.7512      2.00000
     29       3.4232      2.00000
     30       3.4232      2.00000
     31       3.4232      2.00000
     32       3.4233      2.00000
     33       5.4708      2.00000
     34       5.4708      2.00000
     35       5.4709      2.00000
     36       5.4709      2.00000
     37       5.4709      2.00000
     38       5.4709      2.00000
     39       5.4710      2.00000
     40       5.4710      2.00000
     41       6.1387      2.00000
     42       6.1387      2.00000
     43       6.1387      2.00000
     44       6.1387      2.00000
     45       6.8113      2.00000
     46       6.8113      2.00000
     47       6.8113      2.00000
     48       6.8113      2.00000
     49       7.4634      0.00000
     50       7.4634      0.00000
     51       7.4635      0.00000
     52       7.4635      0.00000
     53       7.4635      0.00000
     54       7.4635      0.00000
     55       7.4636      0.00000
     56       7.4636      0.00000
     57       8.9816      0.00000
     58       8.9816      0.00000
     59       8.9816      0.00000
     60       8.9816      0.00000
     61       9.4728      0.00000
     62       9.4728      0.00000
     63       9.4728      0.00000
     64       9.4728      0.00000
     65      10.2922      0.00000
     66      10.2922      0.00000
     67      10.2924      0.00000
     68      10.2924      0.00000
     69      10.2924      0.00000
     70      10.2924      0.00000
     71      10.2926      0.00000
     72      10.2926      0.00000

 k-point  40 :       0.5000    0.5000    0.5000
  band No.  band energies     occupation 
      1      -1.8286      2.00000
      2      -1.8245      2.00000
      3      -1.8245      2.00000
      4      -1.8243      2.00000
      5      -1.8240      2.00000
      6      -1.8237      2.00000
      7      -1.8237      2.00000
      8      -1.8197      2.00000
      9       2.3407      2.00000
     10       2.3469      2.00000
     11       2.3469      2.00000
     12       2.3500      2.00000
     13       2.3502      2.00000
     14       2.3503      2.00000
     15       2.3506      2.00000
     16       2.3506      2.00000
     17       2.3506      2.00000
     18       2.3506      2.00000
     19       2.3507      2.00000
     20       2.3507      2.00000
     21       2.3507      2.00000
     22       2.3507      2.00000
     23       2.3508      2.00000
     24       2.3508      2.00000
     25       2.3509      2.00000
     26       2.3509      2.00000
     27       2.3512      2.00000
     28       2.3512      2.00000
     29       2.3514      2.00000
     30       2.3545      2.00000
     31       2.3545      2.00000
     32       2.3607      2.00000
     33       6.4137      2.00000
     34       6.4137      2.00000
     35       6.4154      2.00000
     36       6.4174      2.00000
     37       6.4187      2.00000
     38       6.4191      2.00000
     39       6.4191      2.00000
     40       6.4191      2.00000
     41       6.4192      2.00000
     42       6.4193      2.00000
     43       6.4193      2.00000
     44       6.4193      2.00000
     45       6.4194      2.00000
     46       6.4194      2.00000
     47       6.4194      2.00000
     48       6.4194      2.00000
     49       6.4196      2.00000
     50       6.4196      2.00000
     51       6.4196      2.00000
     52       6.4200      2.00000
     53       6.4212      2.00000
     54       6.4233      2.00000
     55       6.4250      2.00000
     56       6.4250      2.00000
     57      10.3996      0.00000
     58      10.3996      0.00000
     59      10.3997      0.00000
     60      10.4003      0.00000
     61      10.4016      0.00000
     62      10.4024      0.00000
     63      10.4024      0.00000
     64      10.4024      0.00000
     65      10.5638      0.00000
     66      10.5648      0.00000
     67      10.5658      0.00000
     68      10.5666      0.00000
     69      10.5668      0.00000
     70      10.5672      0.00000
     71      10.5673      0.00000
     72      10.5675      0.00000


--------------------------------------------------------------------------------------------------------


 soft charge-density along one line, spin component           1
         0         1         2         3         4         5         6         7         8         9
 total charge-density along one line
 
 pseudopotential strength for first ion, spin component:           1
  8.472  -0.005  -0.000  -0.000  -0.000  -0.000  -0.000  -0.000
 -0.005   0.000  -0.000  -0.000  -0.000   0.000   0.000   0.000
 -0.000  -0.000   1.984   0.000   0.000  -0.024  -0.000  -0.000
 -0.000  -0.000   0.000   1.984  -0.000  -0.000  -0.024   0.000
 -0.000  -0.000   0.000  -0.000   1.984  -0.000   0.000  -0.024
 -0.000   0.000  -0.024  -0.000  -0.000  -0.012  -0.000  -0.000
 -0.000   0.000  -0.000  -0.024   0.000  -0.000  -0.012   0.000
 -0.000   0.000  -0.000   0.000  -0.024  -0.000   0.000  -0.012
 total augmentation occupancy for first ion, spin component:           1
  1.368  -0.380   0.000   0.000   0.001   0.000  -0.000  -0.001
 -0.380   0.391   0.000   0.000  -0.003  -0.000  -0.000   0.001
  0.000   0.000   0.666   0.005   0.011  -0.128  -0.001  -0.001
  0.000   0.000   0.005   0.668  -0.000  -0.001  -0.125  -0.001
  0.001  -0.003   0.011  -0.000   0.667  -0.001  -0.001  -0.127
  0.000  -0.000  -0.128  -0.001  -0.001   0.028   0.000   0.000
 -0.000  -0.000  -0.001  -0.125  -0.001   0.000   0.028   0.000
 -0.001   0.001  -0.001  -0.001  -0.127   0.000   0.000   0.028


------------------------ aborting loop because EDIFF is reached ----------------------------------------




--------------------------------------------------------------------------------------------------------


    CHARGE:  VPU time    1.64: CPU time    1.64
    FORLOC:  VPU time    0.06: CPU time    0.06
    FORNL :  VPU time    8.40: CPU time    8.39
    STRESS:  VPU time   19.97: CPU time   19.96
    FORCOR:  VPU time    0.23: CPU time    0.23
    FORHAR:  VPU time    0.12: CPU time    0.12
    MIXING:  VPU time    0.02: CPU time    0.02


--------------------------------------------------------------------------------------------------------



  FREE ENERGIE OF THE ION-ELECTRON SYSTEM (eV)
  ---------------------------------------------------
  free  energy   TOTEN  =      -118.880569 eV

  energy  without entropy=     -118.879570  energy(sigma->0) =     -118.880069
 

  FORCE on cell =-STRESS in cart. coord.  units (eV/reduce length):
  Direction    X        Y        Z        XY       YZ       ZX
  --------------------------------------------------------------------------------------
  Alpha Z     -5.98     -5.98     -5.98
  Ewald     -762.09   -762.09   -762.09      0.00     -0.00     -0.00
  Hartree      1.04      1.05      1.05     -0.00     -0.00     -0.00
  E(xc)     -267.03   -267.03   -267.03      0.00     -0.00     -0.00
  Local       -1.41     -1.42     -1.42      0.00     -0.00      0.00
  n-local    595.95    596.72    595.18     -0.30     -0.04      0.21
  augment    -35.03    -35.03    -35.03      0.00      0.00      0.00
  Kinetic    455.08    450.32    459.86      7.50      2.99     -1.53
  -------------------------------------------------------------------------------------
  Total      -19.47    -19.46    -19.46      0.00      0.00      0.00
  in kB      -54.22    -54.20    -54.20      0.00      0.00      0.00
  external pressure =      -54.20 kB  Pullay stress =        0.00 kB


 VOLUME and BASIS-vectors are now :
 -----------------------------------------------------------------------------
  energy-cutoff  :      500.00
  volume of cell :      575.23
      direct lattice vectors                 reciprocal lattice vectors
     8.316631794  0.000000000  0.000000000     0.120240985  0.000000000  0.000000000
     0.000000000  8.316631794  0.000000000     0.000000000  0.120240985  0.000000000
     0.000000000  0.000000000  8.316631794     0.000000000  0.000000000  0.120240985

  length of vectors
     8.316631794  8.316631794  8.316631794     0.120240985  0.120240985  0.120240985


 FORCES acting on ions
    electron-ion (+dipol)            ewald-force                    non-local-force                 convergence-correction
 -----------------------------------------------------------------------------------------------
   0.354E+00 -.214E-13 -.105E-07   -.293E+00 0.266E-14 0.105E-14   -.908E-01 0.285E-19 0.412E-19   0.229E-05 -.919E-14 -.640E-14
   -.781E-01 -.762E-13 0.709E-13   0.772E-01 0.666E-14 0.745E-15   0.307E-02 0.220E-19 -.199E-21   0.175E-05 -.132E-13 -.502E-14
   0.264E-01 0.162E-13 -.581E-14   -.244E-01 0.644E-14 -.144E-15   -.192E-02 -.639E-20 0.973E-21   0.311E-06 0.932E-14 -.273E-14
   -.207E-01 -.144E-12 -.332E-12   0.192E-01 0.644E-14 -.370E-14   0.165E-02 0.408E-19 0.171E-19   -.776E-06 0.134E-13 -.100E-14
   0.264E-01 -.352E-13 0.235E-14   -.244E-01 0.711E-14 -.116E-14   -.192E-02 0.651E-21 0.148E-19   0.319E-06 -.278E-14 0.630E-14
   -.207E-01 -.356E-12 0.348E-13   0.192E-01 0.711E-14 -.116E-14   0.165E-02 -.409E-19 -.393E-19   -.781E-06 -.423E-14 0.500E-14
   0.665E-02 0.437E-13 -.380E-14   -.101E-01 0.711E-14 0.173E-15   0.187E-02 -.100E-18 0.321E-20   -.569E-06 0.291E-14 0.268E-14
   -.877E-02 0.314E-12 0.239E-13   0.944E-02 0.711E-14 0.173E-15   -.190E-02 -.694E-19 -.149E-19   0.386E-06 0.440E-14 0.102E-14
   0.440E-01 -.205E-03 0.205E-03   -.461E-01 0.174E-03 -.174E-03   0.318E-03 0.486E-04 -.486E-04   -.756E-06 -.110E-06 0.110E-06
   -.269E-01 0.492E-04 -.492E-04   0.259E-01 -.522E-04 0.522E-04   0.599E-03 -.237E-04 0.237E-04   0.752E-06 -.639E-08 0.639E-08
   0.440E-01 0.205E-03 0.205E-03   -.461E-01 -.174E-03 -.174E-03   0.318E-03 -.486E-04 -.486E-04   -.756E-06 0.110E-06 0.110E-06
   -.269E-01 -.492E-04 -.492E-04   0.259E-01 0.522E-04 0.522E-04   0.599E-03 0.237E-04 0.237E-04   0.752E-06 0.639E-08 0.639E-08
   0.440E-01 -.205E-03 -.205E-03   -.461E-01 0.174E-03 0.174E-03   0.318E-03 0.486E-04 0.486E-04   -.756E-06 -.110E-06 -.110E-06
   -.269E-01 0.492E-04 0.492E-04   0.259E-01 -.522E-04 -.522E-04   0.599E-03 -.237E-04 -.237E-04   0.752E-06 -.639E-08 -.639E-08
   0.440E-01 0.205E-03 -.205E-03   -.461E-01 -.174E-03 0.174E-03   0.318E-03 -.486E-04 0.486E-04   -.756E-06 0.110E-06 -.110E-06
   -.269E-01 -.492E-04 0.492E-04   0.259E-01 0.522E-04 -.522E-04   0.599E-03 0.237E-04 -.237E-04   0.752E-06 0.639E-08 -.639E-08
   -.442E-01 0.164E-14 0.771E-01   0.373E-01 0.688E-14 -.707E-01   0.110E-01 -.312E-19 -.111E-01   -.721E-06 -.668E-14 -.502E-07
   -.440E-01 0.258E-12 -.779E-01   0.371E-01 0.711E-14 0.713E-01   0.112E-01 -.244E-19 0.115E-01   -.701E-06 -.352E-14 0.181E-06
   -.105E-03 -.548E-14 0.711E-02   0.124E-02 0.711E-14 -.585E-02   -.534E-03 0.104E-19 -.284E-03   0.446E-06 0.679E-14 0.517E-06
   0.417E-04 0.694E-13 -.717E-02   0.113E-02 0.711E-14 0.586E-02   -.536E-03 0.115E-19 0.287E-03   0.248E-06 0.365E-14 -.487E-06
   -.442E-01 0.533E-15 -.771E-01   0.373E-01 0.688E-14 0.707E-01   0.110E-01 -.243E-19 0.111E-01   -.721E-06 -.102E-13 0.502E-07
   -.440E-01 -.545E-13 0.779E-01   0.371E-01 0.711E-14 -.713E-01   0.112E-01 0.607E-19 -.115E-01   -.701E-06 -.896E-14 -.181E-06
   -.105E-03 -.885E-14 -.711E-02   0.124E-02 0.733E-14 0.585E-02   -.534E-03 -.148E-19 0.284E-03   0.446E-06 0.102E-13 -.517E-06
   0.417E-04 -.203E-12 0.717E-02   0.113E-02 0.711E-14 -.586E-02   -.536E-03 0.600E-21 -.287E-03   0.248E-06 0.907E-14 0.487E-06
   -.442E-01 -.771E-01 0.842E-14   0.373E-01 0.707E-01 0.457E-14   0.110E-01 0.111E-01 -.245E-20   -.720E-06 0.469E-07 -.413E-14
   -.440E-01 0.779E-01 -.449E-12   0.371E-01 -.713E-01 -.922E-16   0.112E-01 -.115E-01 -.983E-21   -.700E-06 -.177E-06 -.793E-14
   -.442E-01 0.771E-01 0.578E-15   0.373E-01 -.707E-01 0.796E-15   0.110E-01 -.111E-01 0.717E-20   -.720E-06 -.469E-07 -.687E-15
   -.440E-01 -.779E-01 -.531E-14   0.371E-01 0.713E-01 -.186E-14   0.112E-01 0.115E-01 0.136E-20   -.700E-06 0.177E-06 -.248E-14
   -.105E-03 -.711E-02 -.391E-14   0.124E-02 0.585E-02 -.437E-14   -.534E-03 0.284E-03 0.141E-19   0.445E-06 -.521E-06 0.416E-14
   0.417E-04 0.717E-02 0.164E-12   0.113E-02 -.586E-02 0.769E-16   -.536E-03 -.287E-03 -.726E-20   0.247E-06 0.490E-06 0.783E-14
   -.105E-03 0.711E-02 0.343E-15   0.124E-02 -.585E-02 0.965E-15   -.534E-03 -.284E-03 -.171E-19   0.445E-06 0.521E-06 0.691E-15
   0.417E-04 -.717E-02 -.101E-13   0.113E-02 0.586E-02 0.186E-14   -.536E-03 0.287E-03 -.133E-19   0.247E-06 -.490E-06 0.241E-14
 -----------------------------------------------------------------------------------------------
   0.262E-05 -.400E-12 -.105E-07   0.177E-14 0.588E-14 -.121E-13   -.186E-05 -.108E-18 -.235E-18   -.218E-08 0.100E-15 0.466E-16
 
 
 POSITION                                       TOTAL-FORCE (eV/Angst)
 -----------------------------------------------------------------------------------
      2.08916      2.07916      0.00000        -0.029751      0.000000      0.000000
      6.23747      2.07916      0.00000         0.002133     -0.000000     -0.000000
      2.07916      6.23747      0.00000         0.000047      0.000000     -0.000000
      6.23747      6.23747      0.00000         0.000125      0.000000      0.000000
      2.07916      2.07916      4.15832         0.000047     -0.000000     -0.000000
      6.23747      2.07916      4.15832         0.000125      0.000000      0.000000
      2.07916      6.23747      4.15832        -0.001571      0.000000      0.000000
      6.23747      6.23747      4.15832        -0.001226     -0.000000     -0.000000
      2.07916      0.00000      2.07916        -0.001837      0.000018     -0.000018
      6.23747      0.00000      2.07916        -0.000333     -0.000027      0.000027
      2.07916      4.15832      2.07916        -0.001837     -0.000018     -0.000018
      6.23747      4.15832      2.07916        -0.000333      0.000027      0.000027
      2.07916      0.00000      6.23747        -0.001837      0.000018      0.000018
      6.23747      0.00000      6.23747        -0.000333     -0.000027     -0.000027
      2.07916      4.15832      6.23747        -0.001837     -0.000018      0.000018
      6.23747      4.15832      6.23747        -0.000333      0.000027     -0.000027
      0.00000      2.07916      2.07916         0.004187     -0.000000     -0.004744
      4.15832      2.07916      2.07916         0.004261      0.000000      0.004898
      0.00000      6.23747      2.07916         0.000604     -0.000000      0.000974
      4.15832      6.23747      2.07916         0.000637      0.000000     -0.001027
      0.00000      2.07916      6.23747         0.004187     -0.000000      0.004744
      4.15832      2.07916      6.23747         0.004261     -0.000000     -0.004898
      0.00000      6.23747      6.23747         0.000604     -0.000000     -0.000974
      4.15832      6.23747      6.23747         0.000637      0.000000      0.001027
      0.00000      0.00000      0.00000         0.004187      0.004744     -0.000000
      4.15832      0.00000      0.00000         0.004261     -0.004898     -0.000000
      0.00000      4.15832      0.00000         0.004187     -0.004744     -0.000000
      4.15832      4.15832      0.00000         0.004261      0.004898     -0.000000
      0.00000      0.00000      4.15832         0.000604     -0.000974     -0.000000
      4.15832      0.00000      4.15832         0.000637      0.001027      0.000000
      0.00000      4.15832      4.15832         0.000604      0.000974     -0.000000
      4.15832      4.15832      4.15832         0.000637     -0.001027      0.000000
 -----------------------------------------------------------------------------------
    total drift:                                0.000001     -0.000000     -0.000000


--------------------------------------------------------------------------------------------------------



 mean value of Nose-termostat <S>:     1.000 mean value of <T> :     0.000
 mean temperature <T/S>/<1/S>  :     0.000

     LOOP+:  VPU time  373.77: CPU time  373.69
  
  
 General timing and accounting informations for this job:
 ========================================================
  
                  Total CPU time used (sec):      381.329
                            User time (sec):      337.167
                          System time (sec):       44.162
                         Elapsed time (sec):      381.250
  
                   Maximum memory used (kb):     1011832.
                   Average memory used (kb):           0.
  
                          Minor page faults:       234166
                          Major page faults:            0
                 Voluntary context switches:          865
