 running on    8 nodes
 distr:  one band on    1 nodes,    8 groups
 vasp.4.6.28 25Jul05 complex 
 POSCAR found :  1 types and   32 ions

 ----------------------------------------------------------------------------- 
|                                                                             |
|  ADVICE TO THIS USER RUNNING 'VASP/VAMP'   (HEAR YOUR MASTER'S VOICE ...):  |
|                                                                             |
|      You have a (more or less) 'large supercell' and for larger cells       |
|      it might be more efficient to use real space projection operators      |
|      So try LREAL= Auto  in the INCAR   file.                               |
|      Mind: If you want to do an extremely accurate calculations keep the    |
|      reciprocal projection scheme          (i.e. LREAL=.FALSE.)             |
|                                                                             |
 ----------------------------------------------------------------------------- 

 LDA part: xc-table for Pade appr. of Perdew
 POSCAR, INCAR and KPOINTS ok, starting setup
 FFT: planning ...           1
 reading WAVECAR
 entering main loop
       N       E                     dE             d eps       ncg     rms          rms(c)
DAV:   1     0.467967285191E+04    0.46797E+04   -0.20748E+05 84680   0.218E+03
DAV:   2     0.162425205357E+03   -0.45172E+04   -0.43179E+04 84680   0.556E+02
DAV:   3    -0.103053638184E+03   -0.26548E+03   -0.24313E+03 93264   0.145E+02
DAV:   4    -0.112103664323E+03   -0.90500E+01   -0.89118E+01 90752   0.255E+01
DAV:   5    -0.112255687182E+03   -0.15202E+00   -0.15158E+00 91392   0.286E+00    0.160E+01
DAV:   6    -0.104956437350E+03    0.72992E+01   -0.20065E+01 89544   0.156E+01    0.408E+00
DAV:   7    -0.104556653874E+03    0.39978E+00   -0.11940E+00 93856   0.313E+00    0.175E+00
DAV:   8    -0.104478201059E+03    0.78453E-01   -0.58677E-02 87856   0.870E-01    0.139E-01
DAV:   9    -0.104478555167E+03   -0.35411E-03   -0.46995E-03 94136   0.214E-01    0.808E-02
DAV:  10    -0.104478605254E+03   -0.50088E-04   -0.40688E-04 88056   0.611E-02    0.183E-02
DAV:  11    -0.104478612109E+03   -0.68543E-05   -0.28857E-05 91712   0.207E-02    0.331E-03
DAV:  12    -0.104478615261E+03   -0.31527E-05   -0.14527E-06 89392   0.403E-03    0.116E-03
DAV:  13    -0.104478614249E+03    0.10119E-05   -0.54166E-08 85488   0.982E-04    0.561E-04
DAV:  14    -0.104478613480E+03    0.76932E-06   -0.13699E-08 53800   0.434E-04    0.106E-04
DAV:  15    -0.104478613497E+03   -0.17048E-07   -0.13058E-09 46864   0.163E-04    0.600E-05
DAV:  16    -0.104478613499E+03   -0.20082E-08   -0.11113E-10 46384   0.629E-05
   1 F= -.10447861E+03 E0= -.10447831E+03  d E =-.600561E-03
