  32  32   0   0
  0.1871557E+02  0.8429161E-09  0.8429161E-09  0.8429161E-09  0.5000000E-15
  1.000000000000000E-004
  CAR 
 unknown system                          
     13.83370246     -5.16448661  301      4.59221888      1.00000000
     -5.164  0.0000E+00  0.0000E+00
     -5.101  0.0000E+00  0.0000E+00
     -5.038  0.0000E+00  0.0000E+00
     -4.975  0.0000E+00  0.0000E+00
     -4.911  0.0000E+00  0.0000E+00
     -4.848  0.0000E+00  0.0000E+00
     -4.785  0.0000E+00  0.0000E+00
     -4.721  0.0000E+00  0.0000E+00
     -4.658  0.0000E+00  0.0000E+00
     -4.595  0.0000E+00  0.0000E+00
     -4.531  0.0000E+00  0.0000E+00
     -4.468  0.0000E+00  0.0000E+00
     -4.405  0.0000E+00  0.0000E+00
     -4.341  0.1100E-09  0.6967E-11
     -4.278  0.1030E+00  0.6520E-02
     -4.215  0.5667E+00  0.4241E-01
     -4.151  0.9362E+00  0.1017E+00
     -4.088  0.1490E+01  0.1960E+00
     -4.025  0.1487E+01  0.2902E+00
     -3.961  0.1595E+01  0.3915E+00
     -3.898  0.2043E+01  0.5209E+00
     -3.835  0.1255E+01  0.6008E+00
     -3.771  0.2660E+01  0.7692E+00
     -3.708  0.1793E+01  0.8828E+00
     -3.645  0.2871E+01  0.1065E+01
     -3.581  0.2000E+01  0.1191E+01
     -3.518  0.3428E+01  0.1408E+01
     -3.455  0.2652E+01  0.1577E+01
     -3.391  0.2962E+01  0.1764E+01
     -3.328  0.3948E+01  0.2014E+01
     -3.265  0.2698E+01  0.2185E+01
     -3.201  0.3841E+01  0.2428E+01
     -3.138  0.3717E+01  0.2664E+01
     -3.075  0.3906E+01  0.2911E+01
     -3.011  0.4033E+01  0.3166E+01
     -2.948  0.4005E+01  0.3420E+01
     -2.885  0.3867E+01  0.3665E+01
     -2.821  0.4789E+01  0.3969E+01
     -2.758  0.5140E+01  0.4294E+01
     -2.695  0.4773E+01  0.4597E+01
     -2.631  0.4101E+01  0.4856E+01
     -2.568  0.6716E+01  0.5282E+01
     -2.505  0.5472E+01  0.5628E+01
     -2.441  0.5750E+01  0.5992E+01
     -2.378  0.6727E+01  0.6418E+01
     -2.315  0.7018E+01  0.6863E+01
     -2.251  0.6267E+01  0.7260E+01
     -2.188  0.1036E+02  0.7916E+01
     -2.125  0.6389E+01  0.8321E+01
     -2.061  0.8575E+01  0.8864E+01
     -1.998  0.1063E+02  0.9537E+01
     -1.935  0.1715E+02  0.1062E+02
     -1.871  0.1870E+02  0.1181E+02
     -1.808  0.2563E+02  0.1343E+02
     -1.745  0.2051E+02  0.1473E+02
     -1.681  0.2417E+02  0.1626E+02
     -1.618  0.2965E+02  0.1814E+02
     -1.555  0.3549E+02  0.2039E+02
     -1.492  0.3539E+02  0.2263E+02
     -1.428  0.4690E+02  0.2560E+02
     -1.365  0.5287E+02  0.2895E+02
     -1.302  0.5411E+02  0.3238E+02
     -1.238  0.6817E+02  0.3670E+02
     -1.175  0.6596E+02  0.4088E+02
     -1.112  0.7411E+02  0.4557E+02
     -1.048  0.6179E+02  0.4948E+02
     -0.985  0.7158E+02  0.5402E+02
     -0.922  0.5558E+02  0.5754E+02
     -0.858  0.6505E+02  0.6166E+02
     -0.795  0.5472E+02  0.6513E+02
     -0.732  0.6204E+02  0.6906E+02
     -0.668  0.5251E+02  0.7238E+02
     -0.605  0.5345E+02  0.7577E+02
     -0.542  0.4815E+02  0.7882E+02
     -0.478  0.3998E+02  0.8135E+02
     -0.415  0.4397E+02  0.8414E+02
     -0.352  0.6055E+02  0.8797E+02
     -0.288  0.5302E+02  0.9133E+02
     -0.225  0.7391E+02  0.9601E+02
     -0.162  0.6704E+02  0.1003E+03
     -0.098  0.7588E+02  0.1051E+03
     -0.035  0.7991E+02  0.1101E+03
      0.028  0.7052E+02  0.1146E+03
      0.092  0.7078E+02  0.1191E+03
      0.155  0.7845E+02  0.1240E+03
      0.218  0.7749E+02  0.1290E+03
      0.282  0.7104E+02  0.1335E+03
      0.345  0.8322E+02  0.1387E+03
      0.408  0.8915E+02  0.1444E+03
      0.472  0.9355E+02  0.1503E+03
      0.535  0.1020E+03  0.1568E+03
      0.598  0.1281E+03  0.1649E+03
      0.662  0.1399E+03  0.1737E+03
      0.725  0.9784E+02  0.1799E+03
      0.788  0.8271E+02  0.1852E+03
      0.852  0.6676E+02  0.1894E+03
      0.915  0.6324E+02  0.1934E+03
      0.978  0.6267E+02  0.1974E+03
      1.042  0.6375E+02  0.2014E+03
      1.105  0.5924E+02  0.2052E+03
      1.168  0.5874E+02  0.2089E+03
      1.232  0.6278E+02  0.2129E+03
      1.295  0.7256E+02  0.2175E+03
      1.358  0.7300E+02  0.2221E+03
      1.422  0.7651E+02  0.2269E+03
      1.485  0.7948E+02  0.2320E+03
      1.548  0.8421E+02  0.2373E+03
      1.612  0.8319E+02  0.2426E+03
      1.675  0.7727E+02  0.2475E+03
      1.738  0.6884E+02  0.2518E+03
      1.802  0.6671E+02  0.2561E+03
      1.865  0.6657E+02  0.2603E+03
      1.928  0.6487E+02  0.2644E+03
      1.991  0.6106E+02  0.2683E+03
      2.055  0.5850E+02  0.2720E+03
      2.118  0.6522E+02  0.2761E+03
      2.181  0.6051E+02  0.2799E+03
      2.245  0.7043E+02  0.2844E+03
      2.308  0.6250E+02  0.2884E+03
      2.371  0.6444E+02  0.2924E+03
      2.435  0.8568E+02  0.2979E+03
      2.498  0.8202E+02  0.3031E+03
      2.561  0.1207E+03  0.3107E+03
      2.625  0.1032E+03  0.3172E+03
      2.688  0.1099E+03  0.3242E+03
      2.751  0.7236E+02  0.3288E+03
      2.815  0.4695E+02  0.3318E+03
      2.878  0.4138E+02  0.3344E+03
      2.941  0.2859E+02  0.3362E+03
      3.005  0.1467E+02  0.3371E+03
      3.068  0.6332E+01  0.3375E+03
      3.131  0.5867E+01  0.3379E+03
      3.195  0.1478E+02  0.3388E+03
      3.258  0.1001E+02  0.3395E+03
      3.321  0.7841E+01  0.3400E+03
      3.385  0.4946E+01  0.3403E+03
      3.448  0.1534E+02  0.3413E+03
      3.511  0.7996E+01  0.3418E+03
      3.575  0.7749E+01  0.3423E+03
      3.638  0.9095E+01  0.3428E+03
      3.701  0.1244E+02  0.3436E+03
      3.765  0.8377E+01  0.3441E+03
      3.828  0.7506E+01  0.3446E+03
      3.891  0.8774E+01  0.3452E+03
      3.955  0.1383E+02  0.3461E+03
      4.018  0.8143E+01  0.3466E+03
      4.081  0.7940E+01  0.3471E+03
      4.145  0.7283E+01  0.3475E+03
      4.208  0.6461E+01  0.3479E+03
      4.271  0.1886E+02  0.3491E+03
      4.335  0.8061E+01  0.3497E+03
      4.398  0.7233E+01  0.3501E+03
      4.461  0.6951E+01  0.3506E+03
      4.525  0.9043E+01  0.3511E+03
      4.588  0.1301E+02  0.3519E+03
      4.651  0.1023E+02  0.3526E+03
      4.715  0.8755E+01  0.3532E+03
      4.778  0.7585E+01  0.3536E+03
      4.841  0.9233E+01  0.3542E+03
      4.905  0.1110E+02  0.3549E+03
      4.968  0.7644E+01  0.3554E+03
      5.031  0.1191E+02  0.3562E+03
      5.095  0.8252E+01  0.3567E+03
      5.158  0.9003E+01  0.3573E+03
      5.221  0.9976E+01  0.3579E+03
      5.285  0.9540E+01  0.3585E+03
      5.348  0.8991E+01  0.3591E+03
      5.411  0.8806E+01  0.3596E+03
      5.474  0.8302E+01  0.3601E+03
      5.538  0.1093E+02  0.3608E+03
      5.601  0.7675E+01  0.3613E+03
      5.664  0.1197E+02  0.3621E+03
      5.728  0.7874E+01  0.3626E+03
      5.791  0.7281E+01  0.3630E+03
      5.854  0.1204E+02  0.3638E+03
      5.918  0.8668E+01  0.3643E+03
      5.981  0.7271E+01  0.3648E+03
      6.044  0.1074E+02  0.3655E+03
      6.108  0.9212E+01  0.3661E+03
      6.171  0.7434E+01  0.3665E+03
      6.234  0.1259E+02  0.3673E+03
      6.298  0.8216E+01  0.3679E+03
      6.361  0.8964E+01  0.3684E+03
      6.424  0.8579E+01  0.3690E+03
      6.488  0.5634E+01  0.3693E+03
      6.551  0.1151E+02  0.3701E+03
      6.614  0.7015E+01  0.3705E+03
      6.678  0.8975E+01  0.3711E+03
      6.741  0.1117E+02  0.3718E+03
      6.804  0.7823E+01  0.3723E+03
      6.868  0.6416E+01  0.3727E+03
      6.931  0.9521E+01  0.3733E+03
      6.994  0.9009E+01  0.3739E+03
      7.058  0.8107E+01  0.3744E+03
      7.121  0.8103E+01  0.3749E+03
      7.184  0.6590E+01  0.3753E+03
      7.248  0.1497E+02  0.3762E+03
      7.311  0.1900E+02  0.3775E+03
      7.374  0.1369E+02  0.3783E+03
      7.438  0.1289E+02  0.3791E+03
      7.501  0.1297E+02  0.3800E+03
      7.564  0.1315E+02  0.3808E+03
      7.628  0.1432E+02  0.3817E+03
      7.691  0.1034E+02  0.3824E+03
      7.754  0.9147E+01  0.3829E+03
      7.818  0.1125E+02  0.3836E+03
      7.881  0.1256E+02  0.3844E+03
      7.944  0.9266E+01  0.3850E+03
      8.008  0.1181E+02  0.3858E+03
      8.071  0.6957E+01  0.3862E+03
      8.134  0.1159E+02  0.3870E+03
      8.198  0.8609E+01  0.3875E+03
      8.261  0.1075E+02  0.3882E+03
      8.324  0.8272E+01  0.3887E+03
      8.388  0.8605E+01  0.3892E+03
      8.451  0.6582E+01  0.3897E+03
      8.514  0.1048E+02  0.3903E+03
      8.578  0.9123E+01  0.3909E+03
      8.641  0.5546E+01  0.3913E+03
      8.704  0.1137E+02  0.3920E+03
      8.768  0.7734E+01  0.3925E+03
      8.831  0.7249E+01  0.3929E+03
      8.894  0.8992E+01  0.3935E+03
      8.958  0.8735E+01  0.3940E+03
      9.021  0.1085E+02  0.3947E+03
      9.084  0.1192E+02  0.3955E+03
      9.147  0.1088E+02  0.3962E+03
      9.211  0.1172E+02  0.3969E+03
      9.274  0.1205E+02  0.3977E+03
      9.337  0.7566E+01  0.3982E+03
      9.401  0.1179E+02  0.3989E+03
      9.464  0.1393E+02  0.3998E+03
      9.527  0.1696E+02  0.4009E+03
      9.591  0.1192E+02  0.4016E+03
      9.654  0.1028E+02  0.4023E+03
      9.717  0.1449E+02  0.4032E+03
      9.781  0.1036E+02  0.4038E+03
      9.844  0.1297E+02  0.4047E+03
      9.907  0.1282E+02  0.4055E+03
      9.971  0.1079E+02  0.4062E+03
     10.034  0.8532E+01  0.4067E+03
     10.097  0.1386E+02  0.4076E+03
     10.161  0.1432E+02  0.4085E+03
     10.224  0.9482E+01  0.4091E+03
     10.287  0.1354E+02  0.4099E+03
     10.351  0.7252E+01  0.4104E+03
     10.414  0.1029E+02  0.4111E+03
     10.477  0.1244E+02  0.4118E+03
     10.541  0.1077E+02  0.4125E+03
     10.604  0.8464E+01  0.4131E+03
     10.667  0.8172E+01  0.4136E+03
     10.731  0.8176E+01  0.4141E+03
     10.794  0.1217E+02  0.4149E+03
     10.857  0.7623E+01  0.4154E+03
     10.921  0.9883E+01  0.4160E+03
     10.984  0.9875E+01  0.4166E+03
     11.047  0.6664E+01  0.4170E+03
     11.111  0.9589E+01  0.4176E+03
     11.174  0.1432E+02  0.4185E+03
     11.237  0.1011E+02  0.4192E+03
     11.301  0.9687E+01  0.4198E+03
     11.364  0.8401E+01  0.4203E+03
     11.427  0.8393E+01  0.4209E+03
     11.491  0.1270E+02  0.4217E+03
     11.554  0.1088E+02  0.4224E+03
     11.617  0.1054E+02  0.4230E+03
     11.681  0.1268E+02  0.4238E+03
     11.744  0.1510E+02  0.4248E+03
     11.807  0.1260E+02  0.4256E+03
     11.871  0.1366E+02  0.4264E+03
     11.934  0.7885E+01  0.4269E+03
     11.997  0.5270E+01  0.4273E+03
     12.061  0.1003E+02  0.4279E+03
     12.124  0.1210E+02  0.4287E+03
     12.187  0.5058E+01  0.4290E+03
     12.251  0.6886E+01  0.4294E+03
     12.314  0.1246E+02  0.4302E+03
     12.377  0.7982E+01  0.4307E+03
     12.441  0.3601E+01  0.4310E+03
     12.504  0.3706E+01  0.4312E+03
     12.567  0.2257E+01  0.4313E+03
     12.630  0.3486E+01  0.4316E+03
     12.694  0.3562E+01  0.4318E+03
     12.757  0.8728E+00  0.4318E+03
     12.820  0.2878E-02  0.4318E+03
     12.884  0.3541E+00  0.4319E+03
     12.947  0.8362E+00  0.4319E+03
     13.010  0.1292E+01  0.4320E+03
     13.074  0.0000E+00  0.4320E+03
     13.137  0.0000E+00  0.4320E+03
     13.200  0.0000E+00  0.4320E+03
     13.264  0.0000E+00  0.4320E+03
     13.327  0.0000E+00  0.4320E+03
     13.390  0.0000E+00  0.4320E+03
     13.454  0.0000E+00  0.4320E+03
     13.517  0.0000E+00  0.4320E+03
     13.580  0.0000E+00  0.4320E+03
     13.644  0.0000E+00  0.4320E+03
     13.707  0.0000E+00  0.4320E+03
     13.770  0.0000E+00  0.4320E+03
     13.834  0.0000E+00  0.4320E+03
