   32   32    1    1
  0.1871557E+02  0.8429161E-09  0.8429161E-09  0.8429161E-09  0.5000000E-15
  1.000000000000000E-004
  CAR 
 unknown system                          
  352  196  216
 
  0.0000000E+00  0.0000000E+00  0.0000000E+00  0.5787037E-03
   1       -4.3009
   2       -2.0563
   3       -2.0531
   4       -2.0531
   5       -2.0531
   6       -2.0531
   7       -2.0499
   8       -1.9345
   9       -1.9345
  10       -1.9345
  11       -1.9344
  12       -1.6855
  13       -1.6855
  14       -1.6855
  15       -1.4256
  16       -1.4256
  17       -1.4256
  18       -0.8480
  19       -0.8466
  20       -0.8466
  21       -0.8449
  22       -0.8447
  23       -0.8446
  24       -0.8446
  25       -0.8446
  26       -0.8444
  27       -0.8427
  28       -0.8427
  29       -0.8413
  30       -0.7185
  31       -0.7164
  32       -0.7164
  33       -0.7164
  34       -0.7164
  35       -0.7143
  36       -0.6164
  37       -0.6144
  38       -0.6144
  39       -0.6143
  40       -0.6143
  41       -0.6123
  42       -0.1008
  43       -0.0982
  44       -0.0982
  45       -0.0970
  46       -0.0970
  47       -0.0970
  48       -0.0970
  49       -0.0970
  50       -0.0969
  51       -0.0958
  52       -0.0958
  53       -0.0934
  54       -0.0373
  55       -0.0373
  56       -0.0350
  57       -0.0350
  58       -0.0350
  59       -0.0350
  60       -0.0350
  61       -0.0349
  62       -0.0349
  63       -0.0347
  64       -0.0326
  65       -0.0326
  66        0.2140
  67        0.2176
  68        0.2177
  69        0.2177
  70        0.2179
  71        0.2179
  72        0.2179
  73        0.2179
  74        0.2182
  75        0.2182
  76        0.2182
  77        0.2218
  78        0.3084
  79        0.3084
  80        0.3084
  81        0.3084
  82        0.3085
  83        0.3085
  84        0.3085
  85        0.3085
  86        0.3340
  87        0.3340
  88        0.3341
  89        0.9665
  90        0.9685
  91        0.9686
  92        0.9686
  93        0.9686
  94        0.9706
  95        1.1292
  96        1.1300
  97        1.1311
  98        1.1311
  99        1.1317
 100        1.1317
 101        1.1317
 102        1.1317
 103        1.1323
 104        1.1323
 105        1.1336
 106        1.1342
 107        1.3924
 108        1.3924
 109        1.3950
 110        1.3950
 111        1.3952
 112        1.3952
 113        1.3952
 114        1.3952
 115        1.3954
 116        1.3954
 117        1.3978
 118        1.3978
 119        1.5239
 120        1.5257
 121        1.5257
 122        1.5257
 123        1.5257
 124        1.5274
 125        1.6197
 126        1.6203
 127        1.6222
 128        1.6222
 129        1.6247
 130        1.6251
 131        1.6252
 132        1.6252
 133        1.6252
 134        1.6253
 135        1.6256
 136        1.6258
 137        1.6282
 138        1.6282
 139        2.0899
 140        2.0911
 141        2.0911
 142        2.0911
 143        2.0911
 144        2.0924
 145        2.5985
 146        2.5985
 147        2.5986
 148        2.6380
 149        2.6380
 150        2.6380
 151        2.6380
 152        2.6380
 153        2.6380
 154        2.6380
 155        2.6381
 156        2.9085
 157        2.9088
 158        2.9088
 159        2.9088
 160        2.9088
 161        2.9088
 162        2.9103
 163        2.9104
 164        2.9104
 165        2.9104
 166        2.9104
 167        2.9106
 168        4.0555
 169        4.0555
 170        4.0555
 171        4.0555
 172        4.2100
 173        4.2106
 174        4.2106
 175        4.2113
 176        4.2118
 177        4.2118
 178        4.2118
 179        4.2118
 180        4.2123
 181        4.2130
 182        4.2130
 183        4.2137
 184        5.8845
 185        5.8845
 186        5.8846
 187        7.2167
 188        7.2167
 189        7.2167
 190        7.2167
 191        8.9215
 192        8.9216
 193        8.9217
 194        8.9217
 195        8.9217
 196        8.9219
 197        9.7001
 198        9.7002
 199        9.7002
 200       10.6196
 201       10.6196
 202       10.6227
 203       10.6227
 204       10.6231
 205       10.6231
 206       10.6232
 207       10.6232
 208       10.6236
 209       10.6236
 210       10.6267
 211       10.6267
 212       12.6962
 213       12.6977
 214       12.6982
 215       12.6989
 216       12.6997
 
  0.8333333E-01  0.0000000E+00  0.0000000E+00  0.1157407E-02
   1       -4.2822
   2       -2.3203
   3       -2.0396
   4       -2.0395
   5       -2.0395
   6       -2.0395
   7       -1.9243
   8       -1.9243
   9       -1.9243
  10       -1.9243
  11       -1.8250
  12       -1.6794
  13       -1.6734
  14       -1.6734
  15       -1.4191
  16       -1.4157
  17       -1.4157
  18       -0.9428
  19       -0.9427
  20       -0.9427
  21       -0.9427
  22       -0.8973
  23       -0.8973
  24       -0.8973
  25       -0.8973
  26       -0.7603
  27       -0.7603
  28       -0.7603
  29       -0.7603
  30       -0.7414
  31       -0.7413
  32       -0.7269
  33       -0.7078
  34       -0.7078
  35       -0.7078
  36       -0.7077
  37       -0.6088
  38       -0.6088
  39       -0.6088
  40       -0.6088
  41       -0.4995
  42       -0.2535
  43       -0.2535
  44       -0.1412
  45       -0.1411
  46       -0.1411
  47       -0.1410
  48       -0.0629
  49       -0.0623
  50       -0.0623
  51       -0.0623
  52       -0.0544
  53       -0.0543
  54       -0.0543
  55       -0.0540
  56       -0.0451
  57       -0.0450
  58       -0.0450
  59       -0.0450
  60       -0.0340
  61       -0.0339
  62       -0.0339
  63       -0.0336
  64        0.1620
  65        0.1621
  66        0.1621
  67        0.1621
  68        0.2004
  69        0.2004
  70        0.2430
  71        0.2442
  72        0.2442
  73        0.2442
  74        0.2481
  75        0.2481
  76        0.2481
  77        0.2494
  78        0.3044
  79        0.3044
  80        0.3044
  81        0.3045
  82        0.3165
  83        0.3165
  84        0.3165
  85        0.3165
  86        0.3252
  87        0.3420
  88        0.3420
  89        0.9191
  90        0.9192
  91        0.9192
  92        0.9192
  93        0.9498
  94        1.0624
  95        1.0928
  96        1.0929
  97        1.0929
  98        1.0929
  99        1.1317
 100        1.1317
 101        1.1317
 102        1.1318
 103        1.1772
 104        1.1772
 105        1.1773
 106        1.1773
 107        1.2383
 108        1.2383
 109        1.3946
 110        1.3946
 111        1.3947
 112        1.3947
 113        1.4368
 114        1.4368
 115        1.4368
 116        1.4368
 117        1.5296
 118        1.5296
 119        1.5296
 120        1.5297
 121        1.5492
 122        1.5492
 123        1.5495
 124        1.5495
 125        1.5530
 126        1.5531
 127        1.5594
 128        1.5594
 129        1.6109
 130        1.6241
 131        1.6672
 132        1.6672
 133        1.6672
 134        1.6673
 135        1.7192
 136        1.7192
 137        1.7193
 138        1.7193
 139        2.0277
 140        2.1030
 141        2.1030
 142        2.1030
 143        2.1030
 144        2.1552
 145        2.5793
 146        2.5793
 147        2.5793
 148        2.5793
 149        2.5853
 150        2.5853
 151        2.5940
 152        2.6266
 153        2.6266
 154        2.6266
 155        2.6266
 156        2.8492
 157        2.8492
 158        2.8924
 159        2.8924
 160        2.8925
 161        2.8925
 162        2.8925
 163        2.8925
 164        2.9086
 165        2.9088
 166        2.9103
 167        2.9106
 168        3.9366
 169        3.9366
 170        3.9366
 171        3.9367
 172        4.0694
 173        4.0695
 174        4.0695
 175        4.0695
 176        4.2119
 177        4.2119
 178        4.2119
 179        4.2119
 180        4.5082
 181        4.5082
 182        4.5082
 183        4.5082
 184        5.7137
 185        5.9579
 186        5.9579
 187        7.2861
 188        7.2861
 189        7.2861
 190        7.2861
 191        8.7805
 192        8.7805
 193        8.7805
 194        8.7805
 195        8.9335
 196        8.9335
 197        9.6856
 198        9.6856
 199        9.9037
 200       10.1273
 201       10.1273
 202       10.6571
 203       10.6571
 204       10.6572
 205       10.6572
 206       10.6775
 207       10.6775
 208       10.6776
 209       10.6776
 210       11.1125
 211       11.1125
 212       12.3826
 213       12.3831
 214       12.3839
 215       12.3856
 216       12.3869
 
  0.1666667E+00  0.0000000E+00  0.0000000E+00  0.1157407E-02
   1       -4.2262
   2       -2.6054
   3       -1.9994
   4       -1.9993
   5       -1.9993
   6       -1.9993
   7       -1.8937
   8       -1.8937
   9       -1.8937
  10       -1.8937
  11       -1.6615
  12       -1.6549
  13       -1.6374
  14       -1.6374
  15       -1.3997
  16       -1.3863
  17       -1.3863
  18       -1.0569
  19       -1.0569
  20       -1.0569
  21       -1.0569
  22       -1.0203
  23       -1.0203
  24       -1.0203
  25       -1.0203
  26       -0.8355
  27       -0.8110
  28       -0.8110
  29       -0.6860
  30       -0.6859
  31       -0.6859
  32       -0.6859
  33       -0.6826
  34       -0.6826
  35       -0.6826
  36       -0.6824
  37       -0.5923
  38       -0.5923
  39       -0.5923
  40       -0.5923
  41       -0.4543
  42       -0.4543
  43       -0.3842
  44       -0.1932
  45       -0.1931
  46       -0.1931
  47       -0.1931
  48       -0.0737
  49       -0.0737
  50       -0.0737
  51       -0.0737
  52       -0.0382
  53       -0.0374
  54       -0.0374
  55       -0.0374
  56       -0.0312
  57       -0.0311
  58       -0.0311
  59       -0.0304
  60        0.0215
  61        0.0216
  62        0.0216
  63        0.0217
  64        0.0807
  65        0.0807
  66        0.0807
  67        0.0807
  68        0.2516
  69        0.2517
  70        0.2517
  71        0.2517
  72        0.2926
  73        0.2926
  74        0.2926
  75        0.2927
  76        0.2988
  77        0.3406
  78        0.3406
  79        0.3406
  80        0.3407
  81        0.3553
  82        0.3553
  83        0.3553
  84        0.3553
  85        0.3657
  86        0.3657
  87        0.4517
  88        0.4517
  89        0.8120
  90        0.8121
  91        0.8121
  92        0.8121
  93        0.9831
  94        1.0028
  95        1.0028
  96        1.0028
  97        1.0028
  98        1.0904
  99        1.0904
 100        1.1747
 101        1.1748
 102        1.1748
 103        1.1748
 104        1.2513
 105        1.2541
 106        1.2541
 107        1.2542
 108        1.2549
 109        1.3933
 110        1.3933
 111        1.3933
 112        1.3933
 113        1.4915
 114        1.4915
 115        1.4916
 116        1.4916
 117        1.5137
 118        1.5138
 119        1.5138
 120        1.5138
 121        1.5401
 122        1.5401
 123        1.5402
 124        1.5402
 125        1.5830
 126        1.6294
 127        1.6295
 128        1.6359
 129        1.7278
 130        1.7278
 131        1.7665
 132        1.7665
 133        1.7665
 134        1.7665
 135        1.8306
 136        1.8306
 137        1.8307
 138        1.8307
 139        1.9660
 140        2.1456
 141        2.1456
 142        2.1456
 143        2.1456
 144        2.2187
 145        2.4189
 146        2.4189
 147        2.4189
 148        2.4189
 149        2.5459
 150        2.5459
 151        2.5806
 152        2.5928
 153        2.5928
 154        2.5928
 155        2.5928
 156        2.6858
 157        2.6858
 158        2.8402
 159        2.8402
 160        2.8402
 161        2.8402
 162        2.8441
 163        2.8441
 164        2.9086
 165        2.9089
 166        2.9102
 167        2.9106
 168        3.6776
 169        3.6776
 170        3.6776
 171        3.6776
 172        4.1021
 173        4.1022
 174        4.1022
 175        4.1022
 176        4.2120
 177        4.2120
 178        4.2120
 179        4.2121
 180        4.8315
 181        4.8315
 182        4.8315
 183        4.8315
 184        5.2829
 185        6.1624
 186        6.1624
 187        7.4877
 188        7.4877
 189        7.4877
 190        7.4878
 191        8.4261
 192        8.4261
 193        8.4261
 194        8.4261
 195        8.9684
 196        8.9684
 197        9.6290
 198        9.6290
 199        9.6431
 200        9.6431
 201       10.4331
 202       10.7579
 203       10.7579
 204       10.7579
 205       10.7579
 206       10.7944
 207       10.7944
 208       10.7944
 209       10.7944
 210       11.5909
 211       11.5909
 212       11.7833
 213       11.7833
 214       11.7834
 215       11.7834
 216       12.1034
 
  0.2500000E+00  0.0000000E+00  0.0000000E+00  0.1157407E-02
   1       -4.1333
   2       -2.8910
   3       -1.9336
   4       -1.9335
   5       -1.9335
   6       -1.9335
   7       -1.8431
   8       -1.8431
   9       -1.8431
  10       -1.8431
  11       -1.6332
  12       -1.5786
  13       -1.5785
  14       -1.5503
  15       -1.3676
  16       -1.3374
  17       -1.3374
  18       -1.1863
  19       -1.1863
  20       -1.1863
  21       -1.1863
  22       -1.1670
  23       -1.1670
  24       -1.1670
  25       -1.1670
  26       -0.9383
  27       -0.9132
  28       -0.9132
  29       -0.6425
  30       -0.6425
  31       -0.6425
  32       -0.6425
  33       -0.6372
  34       -0.6372
  35       -0.6185
  36       -0.6184
  37       -0.6184
  38       -0.6184
  39       -0.5653
  40       -0.5653
  41       -0.5653
  42       -0.5653
  43       -0.2706
  44       -0.2510
  45       -0.2510
  46       -0.2510
  47       -0.2510
  48       -0.1163
  49       -0.1163
  50       -0.1163
  51       -0.1163
  52       -0.0278
  53       -0.0269
  54       -0.0269
  55       -0.0268
  56       -0.0214
  57       -0.0214
  58       -0.0214
  59       -0.0205
  60       -0.0143
  61       -0.0142
  62       -0.0142
  63       -0.0142
  64        0.0772
  65        0.0772
  66        0.0772
  67        0.0772
  68        0.2557
  69        0.2590
  70        0.2591
  71        0.2591
  72        0.2591
  73        0.2737
  74        0.2737
  75        0.2737
  76        0.2738
  77        0.3805
  78        0.3806
  79        0.3806
  80        0.3806
  81        0.4052
  82        0.4052
  83        0.5448
  84        0.5448
  85        0.5448
  86        0.5448
  87        0.6917
  88        0.6917
  89        0.6917
  90        0.6917
  91        0.7179
  92        0.7179
  93        0.8952
  94        0.8952
  95        0.8952
  96        0.8952
  97        0.9531
  98        0.9531
  99        1.0491
 100        1.2460
 101        1.2460
 102        1.2460
 103        1.2460
 104        1.3420
 105        1.3420
 106        1.3420
 107        1.3420
 108        1.3916
 109        1.3916
 110        1.3916
 111        1.3916
 112        1.4499
 113        1.4499
 114        1.4499
 115        1.4499
 116        1.5375
 117        1.5450
 118        1.5518
 119        1.5519
 120        1.5519
 121        1.5523
 122        1.5672
 123        1.5672
 124        1.5673
 125        1.5673
 126        1.6549
 127        1.7424
 128        1.7424
 129        1.8888
 130        1.8889
 131        1.8889
 132        1.8889
 133        1.8987
 134        1.8987
 135        1.9071
 136        1.9569
 137        1.9569
 138        1.9570
 139        1.9570
 140        2.1895
 141        2.1895
 142        2.1895
 143        2.1895
 144        2.2340
 145        2.2340
 146        2.2340
 147        2.2340
 148        2.2806
 149        2.4518
 150        2.4518
 151        2.4810
 152        2.4810
 153        2.5375
 154        2.5375
 155        2.5375
 156        2.5375
 157        2.5585
 158        2.7572
 159        2.7572
 160        2.7572
 161        2.7572
 162        2.7660
 163        2.7660
 164        2.9087
 165        2.9090
 166        2.9101
 167        2.9105
 168        3.4307
 169        3.4307
 170        3.4307
 171        3.4307
 172        4.1376
 173        4.1376
 174        4.1376
 175        4.1376
 176        4.2118
 177        4.2118
 178        4.2118
 179        4.2118
 180        4.7245
 181        5.1871
 182        5.1871
 183        5.1871
 184        5.1871
 185        6.4646
 186        6.4646
 187        7.8047
 188        7.8047
 189        7.8047
 190        7.8047
 191        7.9650
 192        7.9650
 193        7.9651
 194        7.9651
 195        9.0249
 196        9.0249
 197        9.1321
 198        9.1321
 199        9.5762
 200        9.5762
 201       10.9193
 202       10.9193
 203       10.9195
 204       10.9195
 205       10.9215
 206       10.9215
 207       10.9216
 208       10.9216
 209       11.1265
 210       11.1266
 211       11.1266
 212       11.1266
 213       11.1574
 214       11.8588
 215       11.8588
 216       11.8590
 
  0.3333333E+00  0.0000000E+00  0.0000000E+00  0.1157407E-02
   1       -4.0045
   2       -3.1646
   3       -1.8441
   4       -1.8441
   5       -1.8441
   6       -1.8441
   7       -1.7729
   8       -1.7729
   9       -1.7729
  10       -1.7729
  11       -1.5975
  12       -1.5044
  13       -1.4983
  14       -1.4982
  15       -1.3260
  16       -1.3260
  17       -1.3259
  18       -1.3259
  19       -1.3233
  20       -1.3143
  21       -1.3142
  22       -1.3142
  23       -1.3142
  24       -1.2688
  25       -1.2688
  26       -1.0341
  27       -1.0340
  28       -1.0340
  29       -0.8015
  30       -0.8015
  31       -0.5913
  32       -0.5912
  33       -0.5912
  34       -0.5912
  35       -0.5587
  36       -0.5587
  37       -0.5587
  38       -0.5586
  39       -0.5285
  40       -0.5285
  41       -0.5285
  42       -0.5285
  43       -0.3118
  44       -0.3118
  45       -0.3118
  46       -0.3118
  47       -0.1656
  48       -0.1656
  49       -0.1656
  50       -0.1656
  51       -0.1608
  52       -0.1092
  53       -0.1092
  54       -0.1092
  55       -0.1092
  56       -0.0223
  57       -0.0217
  58       -0.0217
  59       -0.0216
  60       -0.0131
  61       -0.0130
  62       -0.0130
  63       -0.0124
  64        0.1177
  65        0.1177
  66        0.1177
  67        0.1178
  68        0.1969
  69        0.2489
  70        0.2489
  71        0.2489
  72        0.2489
  73        0.2808
  74        0.2809
  75        0.2809
  76        0.2809
  77        0.4356
  78        0.4357
  79        0.4357
  80        0.4357
  81        0.4601
  82        0.4601
  83        0.5762
  84        0.5762
  85        0.5762
  86        0.5762
  87        0.7855
  88        0.7855
  89        0.7860
  90        0.7860
  91        0.7863
  92        0.7863
  93        0.7868
  94        0.7868
  95        0.8274
  96        0.8274
  97        0.9971
  98        0.9971
  99        1.1332
 100        1.3295
 101        1.3295
 102        1.3295
 103        1.3295
 104        1.3904
 105        1.3904
 106        1.3904
 107        1.3904
 108        1.4217
 109        1.4217
 110        1.4217
 111        1.4218
 112        1.4236
 113        1.4237
 114        1.4237
 115        1.4237
 116        1.4762
 117        1.5589
 118        1.5589
 119        1.5589
 120        1.5589
 121        1.5758
 122        1.5758
 123        1.5759
 124        1.5759
 125        1.6814
 126        1.8514
 127        1.8762
 128        1.8763
 129        1.9205
 130        1.9205
 131        1.9205
 132        1.9205
 133        1.9361
 134        2.0175
 135        2.0175
 136        2.0175
 137        2.0175
 138        2.0687
 139        2.0687
 140        2.0943
 141        2.0943
 142        2.0943
 143        2.0943
 144        2.1776
 145        2.1776
 146        2.3398
 147        2.3723
 148        2.3723
 149        2.3723
 150        2.3723
 151        2.3925
 152        2.3925
 153        2.4625
 154        2.4625
 155        2.4625
 156        2.4625
 157        2.5282
 158        2.6489
 159        2.6489
 160        2.6489
 161        2.6489
 162        2.6616
 163        2.6616
 164        2.9088
 165        2.9092
 166        2.9100
 167        2.9104
 168        3.1937
 169        3.1937
 170        3.1937
 171        3.1937
 172        4.1216
 173        4.1666
 174        4.1666
 175        4.1666
 176        4.1666
 177        4.2105
 178        4.2105
 179        4.2105
 180        4.2107
 181        5.5784
 182        5.5784
 183        5.5784
 184        5.5784
 185        6.8335
 186        6.8335
 187        7.4639
 188        7.4639
 189        7.4639
 190        7.4639
 191        8.2164
 192        8.2164
 193        8.2164
 194        8.2164
 195        8.6407
 196        8.6407
 197        9.1002
 198        9.1002
 199        9.4904
 200        9.4904
 201       10.4734
 202       10.4734
 203       10.4734
 204       10.4734
 205       11.0415
 206       11.0415
 207       11.0415
 208       11.0415
 209       11.1424
 210       11.1425
 211       11.1425
 212       11.1425
 213       11.6465
 214       11.6465
 215       11.6465
 216       11.6465
 
  0.4166667E+00  0.0000000E+00  0.0000000E+00  0.1157407E-02
   1       -3.8409
   2       -3.4176
   3       -1.7339
   4       -1.7339
   5       -1.7339
   6       -1.7339
   7       -1.6836
   8       -1.6836
   9       -1.6836
  10       -1.6836
  11       -1.5586
  12       -1.5007
  13       -1.4687
  14       -1.4687
  15       -1.4687
  16       -1.4687
  17       -1.4522
  18       -1.4522
  19       -1.4522
  20       -1.4522
  21       -1.3994
  22       -1.3994
  23       -1.2669
  24       -1.1809
  25       -1.1809
  26       -1.1612
  27       -1.1612
  28       -1.1215
  29       -0.9470
  30       -0.9470
  31       -0.5381
  32       -0.5379
  33       -0.5379
  34       -0.5379
  35       -0.5140
  36       -0.5140
  37       -0.5140
  38       -0.5139
  39       -0.4831
  40       -0.4830
  41       -0.4830
  42       -0.4830
  43       -0.3725
  44       -0.3725
  45       -0.3725
  46       -0.3725
  47       -0.2096
  48       -0.2095
  49       -0.2095
  50       -0.2095
  51       -0.1877
  52       -0.1877
  53       -0.1877
  54       -0.1876
  55       -0.0570
  56       -0.0173
  57       -0.0164
  58       -0.0164
  59       -0.0164
  60       -0.0106
  61       -0.0105
  62       -0.0105
  63       -0.0096
  64        0.1239
  65        0.1534
  66        0.1534
  67        0.1534
  68        0.1535
  69        0.2197
  70        0.2197
  71        0.2197
  72        0.2197
  73        0.3235
  74        0.3235
  75        0.3235
  76        0.3236
  77        0.4734
  78        0.4735
  79        0.4735
  80        0.4736
  81        0.5052
  82        0.5052
  83        0.5052
  84        0.5052
  85        0.5303
  86        0.5303
  87        0.6823
  88        0.6823
  89        0.6823
  90        0.6823
  91        0.7145
  92        0.7145
  93        1.0561
  94        1.0561
  95        1.0561
  96        1.0561
  97        1.2248
  98        1.2871
  99        1.2871
 100        1.3909
 101        1.3909
 102        1.3909
 103        1.3910
 104        1.4012
 105        1.4043
 106        1.4044
 107        1.4044
 108        1.4044
 109        1.4132
 110        1.4132
 111        1.4132
 112        1.4133
 113        1.4885
 114        1.4885
 115        1.4885
 116        1.4885
 117        1.5452
 118        1.5453
 119        1.5454
 120        1.5454
 121        1.5543
 122        1.5543
 123        1.5544
 124        1.5544
 125        1.6331
 126        1.6332
 127        1.6332
 128        1.6332
 129        1.7148
 130        1.8005
 131        1.8841
 132        1.8841
 133        2.0177
 134        2.0177
 135        2.1438
 136        2.1438
 137        2.1438
 138        2.1438
 139        2.2341
 140        2.2341
 141        2.2381
 142        2.2381
 143        2.2381
 144        2.2381
 145        2.2827
 146        2.2827
 147        2.3699
 148        2.3699
 149        2.3699
 150        2.3699
 151        2.3953
 152        2.4075
 153        2.4904
 154        2.5218
 155        2.5218
 156        2.5218
 157        2.5218
 158        2.5351
 159        2.5351
 160        2.5488
 161        2.5489
 162        2.5489
 163        2.5489
 164        2.9088
 165        2.9094
 166        2.9098
 167        2.9103
 168        2.9662
 169        2.9662
 170        2.9662
 171        2.9662
 172        3.5188
 173        4.1868
 174        4.1869
 175        4.1870
 176        4.1870
 177        4.2070
 178        4.2070
 179        4.2070
 180        4.2072
 181        6.0064
 182        6.0064
 183        6.0065
 184        6.0065
 185        6.9584
 186        6.9584
 187        6.9584
 188        6.9584
 189        7.2476
 190        7.2476
 191        8.1591
 192        8.1591
 193        8.7036
 194        8.7036
 195        8.7036
 196        8.7036
 197        9.1903
 198        9.1904
 199        9.3924
 200        9.3924
 201        9.8440
 202        9.8440
 203        9.8440
 204        9.8440
 205       11.1673
 206       11.1673
 207       11.1673
 208       11.1673
 209       11.4142
 210       11.4142
 211       11.4142
 212       11.4142
 213       11.4635
 214       11.4635
 215       11.4635
 216       11.4635
 
  0.5000000E+00  0.0000000E+00  0.0000000E+00  0.5787037E-03
   1       -3.6460
   2       -3.6427
   3       -1.6104
   4       -1.6079
   5       -1.6076
   6       -1.6076
   7       -1.6063
   8       -1.6063
   9       -1.6060
  10       -1.6037
  11       -1.5778
  12       -1.5778
  13       -1.5772
  14       -1.5771
  15       -1.5752
  16       -1.5750
  17       -1.5745
  18       -1.5745
  19       -1.5240
  20       -1.5223
  21       -1.2871
  22       -1.2862
  23       -1.2845
  24       -1.2836
  25       -1.2006
  26       -1.1982
  27       -1.0749
  28       -1.0749
  29       -1.0722
  30       -1.0722
  31       -0.5063
  32       -0.5041
  33       -0.5041
  34       -0.5041
  35       -0.5040
  36       -0.5040
  37       -0.5040
  38       -0.5019
  39       -0.4321
  40       -0.4317
  41       -0.4317
  42       -0.4307
  43       -0.4301
  44       -0.4290
  45       -0.4290
  46       -0.4287
  47       -0.2260
  48       -0.2257
  49       -0.2257
  50       -0.2251
  51       -0.2248
  52       -0.2242
  53       -0.2242
  54       -0.2239
  55       -0.0148
  56       -0.0128
  57       -0.0128
  58       -0.0125
  59       -0.0120
  60       -0.0116
  61       -0.0116
  62       -0.0098
  63        0.0382
  64        0.0392
  65        0.1868
  66        0.1871
  67        0.1872
  68        0.1872
  69        0.1877
  70        0.1877
  71        0.1878
  72        0.1881
  73        0.3871
  74        0.3871
  75        0.3873
  76        0.3881
  77        0.3886
  78        0.3892
  79        0.3894
  80        0.3894
  81        0.5857
  82        0.5863
  83        0.5863
  84        0.5876
  85        0.5882
  86        0.5894
  87        0.5894
  88        0.5901
  89        0.6141
  90        0.6141
  91        0.6165
  92        0.6165
  93        1.3152
  94        1.3168
  95        1.3404
  96        1.3409
  97        1.3412
  98        1.3412
  99        1.3418
 100        1.3418
 101        1.3422
 102        1.3426
 103        1.3943
 104        1.3943
 105        1.3946
 106        1.3949
 107        1.3951
 108        1.3952
 109        1.3955
 110        1.3955
 111        1.4862
 112        1.4874
 113        1.4874
 114        1.4875
 115        1.4882
 116        1.4884
 117        1.4884
 118        1.4895
 119        1.5308
 120        1.5311
 121        1.5318
 122        1.5318
 123        1.5321
 124        1.5321
 125        1.5329
 126        1.5332
 127        1.5837
 128        1.5837
 129        1.5855
 130        1.5855
 131        1.7537
 132        1.7557
 133        2.1555
 134        2.1556
 135        2.1561
 136        2.1562
 137        2.2613
 138        2.2619
 139        2.2619
 140        2.2622
 141        2.2630
 142        2.2633
 143        2.2633
 144        2.2640
 145        2.3809
 146        2.3809
 147        2.3823
 148        2.3824
 149        2.3829
 150        2.3830
 151        2.3841
 152        2.3841
 153        2.3907
 154        2.3907
 155        2.3917
 156        2.3917
 157        2.4456
 158        2.4459
 159        2.7486
 160        2.7492
 161        2.7492
 162        2.7497
 163        2.7498
 164        2.7503
 165        2.7503
 166        2.7509
 167        2.9089
 168        2.9096
 169        2.9096
 170        2.9103
 171        2.9408
 172        2.9413
 173        4.1979
 174        4.1986
 175        4.1992
 176        4.1992
 177        4.2003
 178        4.2003
 179        4.2009
 180        4.2016
 181        6.4665
 182        6.4665
 183        6.4683
 184        6.4685
 185        6.4689
 186        6.4690
 187        6.4708
 188        6.4708
 189        7.6911
 190        7.6911
 191        7.6940
 192        7.6940
 193        9.2477
 194        9.2477
 195        9.2497
 196        9.2498
 197        9.2508
 198        9.2509
 199        9.2530
 200        9.2530
 201        9.2897
 202        9.2899
 203        9.2900
 204        9.2903
 205       11.3039
 206       11.3052
 207       11.3052
 208       11.3053
 209       11.3058
 210       11.3060
 211       11.3060
 212       11.3073
 213       11.7284
 214       11.7294
 215       11.7303
 216       11.7307
 
  0.0000000E+00  0.8333333E-01  0.0000000E+00  0.2314815E-02
   1       -4.2822
   2       -2.3203
   3       -2.0420
   4       -2.0395
   5       -2.0395
   6       -2.0371
   7       -1.9243
   8       -1.9243
   9       -1.9242
  10       -1.9242
  11       -1.8250
  12       -1.6794
  13       -1.6734
  14       -1.6734
  15       -1.4191
  16       -1.4158
  17       -1.4157
  18       -0.9447
  19       -0.9428
  20       -0.9427
  21       -0.9408
  22       -0.8984
  23       -0.8974
  24       -0.8972
  25       -0.8962
  26       -0.7620
  27       -0.7603
  28       -0.7603
  29       -0.7586
  30       -0.7414