 vasp.4.6.28 25Jul05 complex 
 executed on             LinuxIFC date 2017.01.12  01:02:37
 running on    8 nodes
 distr:  one band on    1 nodes,    8 groups


--------------------------------------------------------------------------------------------------------


 INCAR:
 POTCAR:   PAW_PBE Au 06Sep2000                   
 POTCAR:   PAW_PBE Au 06Sep2000                   
   VRHFIN =Au: s1d10                                                            
   LEXCH  = PE                                                                  
   EATOM  =   926.0567 eV,   68.0632 Ry                                         
                                                                                
   TITEL  = PAW_PBE Au 06Sep2000                                                
   LULTRA =        F    use ultrasoft PP ?                                      
   IUNSCR =        1    unscreen: 0-lin 1-nonlin 2-no                           
   RPACOR =    2.330    partial core radius                                     
   POMASS =  196.966; ZVAL   =   11.000    mass and valenz                      
   RCORE  =    2.500    outmost cutoff radius                                   
   RWIGS  =    2.840; RWIGS  =    1.503    wigner-seitz radius (au A)           
   ENMAX  =  229.948; ENMIN  =  172.461 eV                                      
   RCLOC  =    1.964    cutoff for local pot                                    
   LCOR   =        T    correct aug charges                                     
   LPAW   =        T    paw PP                                                  
   EAUG   =  356.670                                                            
   DEXC   =    -.025                                                            
   RMAX   =    3.041    core radius for proj-oper                               
   RAUG   =    1.300    factor for augmentation sphere                          
   RDEP   =    2.598    radius for radial grids                                 
   QCUT   =   -4.111; QGAM   =    8.222    optimization parameters              
                                                                                
   Description                                                                  
     l     E      TYP  RCUT    TYP  RCUT                                        
     2   .000     23  2.500                                                     
     2   .000     23  2.500                                                     
     0   .000     23  2.500                                                     
     0   .000     23  2.500                                                     
     1  -.200     23  2.500                                                     
     1   .000     23  2.500                                                     
     3   .000      7   .000                                                     
  local pseudopotential read in
  partial core-charges read in
  atomic valenz-charges read in
  non local Contribution for L=           2  read in
    real space projection operators read in
  non local Contribution for L=           2  read in
    real space projection operators read in
  non local Contribution for L=           0  read in
    real space projection operators read in
  non local Contribution for L=           0  read in
    real space projection operators read in
  non local Contribution for L=           1  read in
    real space projection operators read in
  non local Contribution for L=           1  read in
    real space projection operators read in
    PAW grid and wavefunctions read in
 
   number of l-projection  operators is LMAX  =           6
   number of lm-projection operators is LMMAX =          18
 

 ----------------------------------------------------------------------------- 
|                                                                             |
|  ADVICE TO THIS USER RUNNING 'VASP/VAMP'   (HEAR YOUR MASTER'S VOICE ...):  |
|                                                                             |
|      You have a (more or less) 'large supercell' and for larger cells       |
|      it might be more efficient to use real space projection operators      |
|      So try LREAL= Auto  in the INCAR   file.                               |
|      Mind: If you want to do an extremely accurate calculations keep the    |
|      reciprocal projection scheme          (i.e. LREAL=.FALSE.)             |
|                                                                             |
 ----------------------------------------------------------------------------- 

 PAW_PBE Au 06Sep2000                   :
 energy of atom  1       EATOM= -926.0567
 kinetic energy error for atom=    0.0008 (will be added to EATOM!!)
 
 EXHCAR: internal setup
 exchange correlation table for  LEXCH =        8
   RHO(1)=    0.500       N(1)  =     2000
   RHO(2)=  100.500       N(2)  =     4000
 
 POSCAR: Au                                      
  positions in direct lattice
  No initial velocities read in
 


--------------------------------------------------------------------------------------------------------


 ion  position               nearest neighbor table
   1  0.001  0.000  0.000-   9 2.97  11 2.97  17 2.97  21 2.97  25 2.98  27 2.98  29 2.98  31 2.98
                            10 2.99  18 2.99  12 2.99  22 2.99
   2  0.500  0.000  0.000-   9 2.98  10 2.98  11 2.98  12 2.98  17 2.98  18 2.98  21 2.98  22 2.98
                            26 2.98  28 2.98  30 2.98  32 2.98
   3  0.000  0.500  0.000-   9 2.98  10 2.98  11 2.98  12 2.98  19 2.98  20 2.98  23 2.98  24 2.98
                            25 2.98  27 2.98  29 2.98  31 2.98
   4  0.500  0.500  0.000-   9 2.98  10 2.98  11 2.98  12 2.98  19 2.98  20 2.98  23 2.98  24 2.98
                            26 2.98  28 2.98  30 2.98  32 2.98
   5  0.000  0.000  0.500-  13 2.98  14 2.98  15 2.98  16 2.98  17 2.98  18 2.98  21 2.98  22 2.98
                            25 2.98  27 2.98  29 2.98  31 2.98
   6  0.500  0.000  0.500-  13 2.98  14 2.98  15 2.98  16 2.98  17 2.98  18 2.98  21 2.98  22 2.98
                            26 2.98  28 2.98  30 2.98  32 2.98
   7  0.000  0.500  0.500-  13 2.98  14 2.98  15 2.98  16 2.98  19 2.98  20 2.98  23 2.98  24 2.98
                            25 2.98  27 2.98  29 2.98  31 2.98
   8  0.500  0.500  0.500-  13 2.98  14 2.98  15 2.98  16 2.98  19 2.98  20 2.98  23 2.98  24 2.98
                            26 2.98  28 2.98  30 2.98  32 2.98
   9  0.250  0.250  0.000-   1 2.97   2 2.98   3 2.98   4 2.98  17 2.98  19 2.98  21 2.98  23 2.98
                            25 2.98  26 2.98  29 2.98  30 2.98
  10  0.750  0.250  0.000-   2 2.98   3 2.98   4 2.98  18 2.98  20 2.98  22 2.98  24 2.98  25 2.98
                            26 2.98  29 2.98  30 2.98   1 2.99
  11  0.250  0.750  0.000-   1 2.97   2 2.98   3 2.98   4 2.98  17 2.98  19 2.98  21 2.98  23 2.98
                            27 2.98  28 2.98  31 2.98  32 2.98
  12  0.750  0.750  0.000-   2 2.98   3 2.98   4 2.98  18 2.98  20 2.98  22 2.98  24 2.98  27 2.98
                            28 2.98  31 2.98  32 2.98   1 2.99
  13  0.250  0.250  0.500-   5 2.98   6 2.98   7 2.98   8 2.98  17 2.98  19 2.98  21 2.98  23 2.98
                            25 2.98  26 2.98  29 2.98  30 2.98
  14  0.750  0.250  0.500-   5 2.98   6 2.98   7 2.98   8 2.98  18 2.98  20 2.98  22 2.98  24 2.98
                            25 2.98  26 2.98  29 2.98  30 2.98
  15  0.250  0.750  0.500-   5 2.98   6 2.98   7 2.98   8 2.98  17 2.98  19 2.98  21 2.98  23 2.98
                            27 2.98  28 2.98  31 2.98  32 2.98
  16  0.750  0.750  0.500-   5 2.98   6 2.98   7 2.98   8 2.98  18 2.98  20 2.98  22 2.98  24 2.98
                            27 2.98  28 2.98  31 2.98  32 2.98
  17  0.250  0.000  0.250-   1 2.97   2 2.98   5 2.98   6 2.98   9 2.98  11 2.98  13 2.98  15 2.98
                            25 2.98  26 2.98  27 2.98  28 2.98
  18  0.750  0.000  0.250-   2 2.98   5 2.98   6 2.98  10 2.98  12 2.98  14 2.98  16 2.98  25 2.98
                            26 2.98  27 2.98  28 2.98   1 2.99
  19  0.250  0.500  0.250-   3 2.98   4 2.98   7 2.98   8 2.98   9 2.98  11 2.98  13 2.98  15 2.98
                            25 2.98  26 2.98  27 2.98  28 2.98
  20  0.750  0.500  0.250-   3 2.98   4 2.98   7 2.98   8 2.98  10 2.98  12 2.98  14 2.98  16 2.98
                            25 2.98  26 2.98  27 2.98  28 2.98
  21  0.250  0.000  0.750-   1 2.97   2 2.98   5 2.98   6 2.98   9 2.98  11 2.98  13 2.98  15 2.98
                            29 2.98  30 2.98  31 2.98  32 2.98
  22  0.750  0.000  0.750-   2 2.98   5 2.98   6 2.98  10 2.98  12 2.98  14 2.98  16 2.98  29 2.98
                            30 2.98  31 2.98  32 2.98   1 2.99
  23  0.250  0.500  0.750-   3 2.98   4 2.98   7 2.98   8 2.98   9 2.98  11 2.98  13 2.98  15 2.98
                            29 2.98  30 2.98  31 2.98  32 2.98
  24  0.750  0.500  0.750-   3 2.98   4 2.98   7 2.98   8 2.98  10 2.98  12 2.98  14 2.98  16 2.98
                            29 2.98  30 2.98  31 2.98  32 2.98
  25  0.000  0.250  0.250-   3 2.98   5 2.98   7 2.98   9 2.98  10 2.98  13 2.98  14 2.98  17 2.98
                            18 2.98  19 2.98  20 2.98   1 2.98
  26  0.500  0.250  0.250-   2 2.98   4 2.98   6 2.98   8 2.98   9 2.98  10 2.98  13 2.98  14 2.98
                            17 2.98  18 2.98  19 2.98  20 2.98
  27  0.000  0.750  0.250-   3 2.98   5 2.98   7 2.98  11 2.98  12 2.98  15 2.98  16 2.98  17 2.98
                            18 2.98  19 2.98  20 2.98   1 2.98
  28  0.500  0.750  0.250-   2 2.98   4 2.98   6 2.98   8 2.98  11 2.98  12 2.98  15 2.98  16 2.98
                            17 2.98  18 2.98  19 2.98  20 2.98
  29  0.000  0.250  0.750-   3 2.98   5 2.98   7 2.98   9 2.98  10 2.98  13 2.98  14 2.98  21 2.98
                            22 2.98  23 2.98  24 2.98   1 2.98
  30  0.500  0.250  0.750-   2 2.98   4 2.98   6 2.98   8 2.98   9 2.98  10 2.98  13 2.98  14 2.98
                            21 2.98  22 2.98  23 2.98  24 2.98
  31  0.000  0.750  0.750-   3 2.98   5 2.98   7 2.98  11 2.98  12 2.98  15 2.98  16 2.98  21 2.98
                            22 2.98  23 2.98  24 2.98   1 2.98
  32  0.500  0.750  0.750-   2 2.98   4 2.98   6 2.98   8 2.98  11 2.98  12 2.98  15 2.98  16 2.98
                            21 2.98  22 2.98  23 2.98  24 2.98
 
  LATTYP: Found a simple cubic cell.
 ALAT       =     8.4291608427
  
  Lattice vectors:
  
 A1 = (   8.4291608427,   0.0000000000,   0.0000000000)
 A2 = (   0.0000000000,   8.4291608427,   0.0000000000)
 A3 = (   0.0000000000,   0.0000000000,   8.4291608427)
 Subroutine PRICEL returns:
 Original cell was already a primitive cell.
 

Analysis of symmetry for initial positions (statically):

 Routine SETGRP: Setting up the symmetry group for a 
 simple cubic supercell.


 Subroutine GETGRP returns: Found  8 space group operations
 (whereof  8 operations were pure point group operations)
 out of a pool of 48 trial point group operations.


The static configuration has the point symmetry C_4v.

Analysis of symmetry for dynamics (positions and initial velocities):

 Subroutine DYNSYM returns: Found  8 space group operations
 (whereof  8 operations were pure point group operations)
 out of a pool of  8 trial space group operations
 (whereof  8 operations were pure point group operations)
 and found also     1 'primitive' translations


The dynamic configuration has the point symmetry C_4v.
 
 
 KPOINTS: Automatic mesh                          

Automatic generation of k-mesh.
 
 Subroutine IBZKPT returns following result:
 ===========================================
 
 Found    196 irreducible k-points:
 
 Following reciprocal coordinates:
            Coordinates               Weight
  0.000000  0.000000  0.000000      1.000000
  0.083333  0.000000  0.000000      2.000000
  0.166667  0.000000  0.000000      2.000000
  0.250000  0.000000  0.000000      2.000000
  0.333333  0.000000  0.000000      2.000000
  0.416667  0.000000  0.000000      2.000000
  0.500000  0.000000  0.000000      1.000000
  0.000000  0.083333  0.000000      4.000000
  0.083333  0.083333  0.000000      8.000000
  0.166667  0.083333  0.000000      8.000000
  0.250000  0.083333  0.000000      8.000000
  0.333333  0.083333  0.000000      8.000000
  0.416667  0.083333  0.000000      8.000000
  0.500000  0.083333  0.000000      4.000000
  0.000000  0.166667  0.000000      4.000000
  0.083333  0.166667  0.000000      8.000000
  0.166667  0.166667  0.000000      8.000000
  0.250000  0.166667  0.000000      8.000000
  0.333333  0.166667  0.000000      8.000000
  0.416667  0.166667  0.000000      8.000000
  0.500000  0.166667  0.000000      4.000000
  0.000000  0.250000  0.000000      4.000000
  0.083333  0.250000  0.000000      8.000000
  0.166667  0.250000  0.000000      8.000000
  0.250000  0.250000  0.000000      8.000000
  0.333333  0.250000  0.000000      8.000000
  0.416667  0.250000  0.000000      8.000000
  0.500000  0.250000  0.000000      4.000000
  0.000000  0.333333  0.000000      4.000000
  0.083333  0.333333  0.000000      8.000000
  0.166667  0.333333  0.000000      8.000000
  0.250000  0.333333  0.000000      8.000000
  0.333333  0.333333  0.000000      8.000000
  0.416667  0.333333  0.000000      8.000000
  0.500000  0.333333  0.000000      4.000000
  0.000000  0.416667  0.000000      4.000000
  0.083333  0.416667  0.000000      8.000000
  0.166667  0.416667  0.000000      8.000000
  0.250000  0.416667  0.000000      8.000000
  0.333333  0.416667  0.000000      8.000000
  0.416667  0.416667  0.000000      8.000000
  0.500000  0.416667  0.000000      4.000000
  0.000000  0.500000  0.000000      2.000000
  0.083333  0.500000  0.000000      4.000000
  0.166667  0.500000  0.000000      4.000000
  0.250000  0.500000  0.000000      4.000000
  0.333333  0.500000  0.000000      4.000000
  0.416667  0.500000  0.000000      4.000000
  0.500000  0.500000  0.000000      2.000000
  0.000000  0.083333  0.083333      4.000000
  0.083333  0.083333  0.083333      8.000000
  0.166667  0.083333  0.083333      8.000000
  0.250000  0.083333  0.083333      8.000000
  0.333333  0.083333  0.083333      8.000000
  0.416667  0.083333  0.083333      8.000000
  0.500000  0.083333  0.083333      4.000000
  0.000000  0.166667  0.083333      8.000000
  0.083333  0.166667  0.083333     16.000000
  0.166667  0.166667  0.083333     16.000000
  0.250000  0.166667  0.083333     16.000000
  0.333333  0.166667  0.083333     16.000000
  0.416667  0.166667  0.083333     16.000000
  0.500000  0.166667  0.083333      8.000000
  0.000000  0.250000  0.083333      8.000000
  0.083333  0.250000  0.083333     16.000000
  0.166667  0.250000  0.083333     16.000000
  0.250000  0.250000  0.083333     16.000000
  0.333333  0.250000  0.083333     16.000000
  0.416667  0.250000  0.083333     16.000000
  0.500000  0.250000  0.083333      8.000000
  0.000000  0.333333  0.083333      8.000000
  0.083333  0.333333  0.083333     16.000000
  0.166667  0.333333  0.083333     16.000000
  0.250000  0.333333  0.083333     16.000000
  0.333333  0.333333  0.083333     16.000000
  0.416667  0.333333  0.083333     16.000000
  0.500000  0.333333  0.083333      8.000000
  0.000000  0.416667  0.083333      8.000000
  0.083333  0.416667  0.083333     16.000000
  0.166667  0.416667  0.083333     16.000000
  0.250000  0.416667  0.083333     16.000000
  0.333333  0.416667  0.083333     16.000000
  0.416667  0.416667  0.083333     16.000000
  0.500000  0.416667  0.083333      8.000000
  0.000000  0.500000  0.083333      4.000000
  0.083333  0.500000  0.083333      8.000000
  0.166667  0.500000  0.083333      8.000000
  0.250000  0.500000  0.083333      8.000000
  0.333333  0.500000  0.083333      8.000000
  0.416667  0.500000  0.083333      8.000000
  0.500000  0.500000  0.083333      4.000000
  0.000000  0.166667  0.166667      4.000000
  0.083333  0.166667  0.166667      8.000000
  0.166667  0.166667  0.166667      8.000000
  0.250000  0.166667  0.166667      8.000000
  0.333333  0.166667  0.166667      8.000000
  0.416667  0.166667  0.166667      8.000000
  0.500000  0.166667  0.166667      4.000000
  0.000000  0.250000  0.166667      8.000000
  0.083333  0.250000  0.166667     16.000000
  0.166667  0.250000  0.166667     16.000000
  0.250000  0.250000  0.166667     16.000000
  0.333333  0.250000  0.166667     16.000000
  0.416667  0.250000  0.166667     16.000000
  0.500000  0.250000  0.166667      8.000000
  0.000000  0.333333  0.166667      8.000000
  0.083333  0.333333  0.166667     16.000000
  0.166667  0.333333  0.166667     16.000000
  0.250000  0.333333  0.166667     16.000000
  0.333333  0.333333  0.166667     16.000000
  0.416667  0.333333  0.166667     16.000000
  0.500000  0.333333  0.166667      8.000000
  0.000000  0.416667  0.166667      8.000000
  0.083333  0.416667  0.166667     16.000000
  0.166667  0.416667  0.166667     16.000000
  0.250000  0.416667  0.166667     16.000000
  0.333333  0.416667  0.166667     16.000000
  0.416667  0.416667  0.166667     16.000000
  0.500000  0.416667  0.166667      8.000000
  0.000000  0.500000  0.166667      4.000000
  0.083333  0.500000  0.166667      8.000000
  0.166667  0.500000  0.166667      8.000000
  0.250000  0.500000  0.166667      8.000000
  0.333333  0.500000  0.166667      8.000000
  0.416667  0.500000  0.166667      8.000000
  0.500000  0.500000  0.166667      4.000000
  0.000000  0.250000  0.250000      4.000000
  0.083333  0.250000  0.250000      8.000000
  0.166667  0.250000  0.250000      8.000000
  0.250000  0.250000  0.250000      8.000000
  0.333333  0.250000  0.250000      8.000000
  0.416667  0.250000  0.250000      8.000000
  0.500000  0.250000  0.250000      4.000000
  0.000000  0.333333  0.250000      8.000000
  0.083333  0.333333  0.250000     16.000000
  0.166667  0.333333  0.250000     16.000000
  0.250000  0.333333  0.250000     16.000000
  0.333333  0.333333  0.250000     16.000000
  0.416667  0.333333  0.250000     16.000000
  0.500000  0.333333  0.250000      8.000000
  0.000000  0.416667  0.250000      8.000000
  0.083333  0.416667  0.250000     16.000000
  0.166667  0.416667  0.250000     16.000000
  0.250000  0.416667  0.250000     16.000000
  0.333333  0.416667  0.250000     16.000000
  0.416667  0.416667  0.250000     16.000000
  0.500000  0.416667  0.250000      8.000000
  0.000000  0.500000  0.250000      4.000000
  0.083333  0.500000  0.250000      8.000000
  0.166667  0.500000  0.250000      8.000000
  0.250000  0.500000  0.250000      8.000000
  0.333333  0.500000  0.250000      8.000000
  0.416667  0.500000  0.250000      8.000000
  0.500000  0.500000  0.250000      4.000000
  0.000000  0.333333  0.333333      4.000000
  0.083333  0.333333  0.333333      8.000000
  0.166667  0.333333  0.333333      8.000000
  0.250000  0.333333  0.333333      8.000000
  0.333333  0.333333  0.333333      8.000000
  0.416667  0.333333  0.333333      8.000000
  0.500000  0.333333  0.333333      4.000000
  0.000000  0.416667  0.333333      8.000000
  0.083333  0.416667  0.333333     16.000000
  0.166667  0.416667  0.333333     16.000000
  0.250000  0.416667  0.333333     16.000000
  0.333333  0.416667  0.333333     16.000000
  0.416667  0.416667  0.333333     16.000000
  0.500000  0.416667  0.333333      8.000000
  0.000000  0.500000  0.333333      4.000000
  0.083333  0.500000  0.333333      8.000000
  0.166667  0.500000  0.333333      8.000000
  0.250000  0.500000  0.333333      8.000000
  0.333333  0.500000  0.333333      8.000000
  0.416667  0.500000  0.333333      8.000000
  0.500000  0.500000  0.333333      4.000000
  0.000000  0.416667  0.416667      4.000000
  0.083333  0.416667  0.416667      8.000000
  0.166667  0.416667  0.416667      8.000000
  0.250000  0.416667  0.416667      8.000000
  0.333333  0.416667  0.416667      8.000000
  0.416667  0.416667  0.416667      8.000000
  0.500000  0.416667  0.416667      4.000000
  0.000000  0.500000  0.416667      4.000000
  0.083333  0.500000  0.416667      8.000000
  0.166667  0.500000  0.416667      8.000000
  0.250000  0.500000  0.416667      8.000000
  0.333333  0.500000  0.416667      8.000000
  0.416667  0.500000  0.416667      8.000000
  0.500000  0.500000  0.416667      4.000000
  0.000000  0.500000  0.500000      1.000000
  0.083333  0.500000  0.500000      2.000000
  0.166667  0.500000  0.500000      2.000000
  0.250000  0.500000  0.500000      2.000000
  0.333333  0.500000  0.500000      2.000000
  0.416667  0.500000  0.500000      2.000000
  0.500000  0.500000  0.500000      1.000000
 
 Following cartesian coordinates:
            Coordinates               Weight
  0.000000  0.000000  0.000000      1.000000
  0.009886  0.000000  0.000000      2.000000
  0.019773  0.000000  0.000000      2.000000
  0.029659  0.000000  0.000000      2.000000
  0.039545  0.000000  0.000000      2.000000
  0.049432  0.000000  0.000000      2.000000
  0.059318  0.000000  0.000000      1.000000
  0.000000  0.009886  0.000000      4.000000
  0.009886  0.009886  0.000000      8.000000
  0.019773  0.009886  0.000000      8.000000
  0.029659  0.009886  0.000000      8.000000
  0.039545  0.009886  0.000000      8.000000
  0.049432  0.009886  0.000000      8.000000
  0.059318  0.009886  0.000000      4.000000
  0.000000  0.019773  0.000000      4.000000
  0.009886  0.019773  0.000000      8.000000
  0.019773  0.019773  0.000000      8.000000
  0.029659  0.019773  0.000000      8.000000
  0.039545  0.019773  0.000000      8.000000
  0.049432  0.019773  0.000000      8.000000
  0.059318  0.019773  0.000000      4.000000
  0.000000  0.029659  0.000000      4.000000
  0.009886  0.029659  0.000000      8.000000
  0.019773  0.029659  0.000000      8.000000
  0.029659  0.029659  0.000000      8.000000
  0.039545  0.029659  0.000000      8.000000
  0.049432  0.029659  0.000000      8.000000
  0.059318  0.029659  0.000000      4.000000
  0.000000  0.039545  0.000000      4.000000
  0.009886  0.039545  0.000000      8.000000
  0.019773  0.039545  0.000000      8.000000
  0.029659  0.039545  0.000000      8.000000
  0.039545  0.039545  0.000000      8.000000
  0.049432  0.039545  0.000000      8.000000
  0.059318  0.039545  0.000000      4.000000
  0.000000  0.049432  0.000000      4.000000
  0.009886  0.049432  0.000000      8.000000
  0.019773  0.049432  0.000000      8.000000
  0.029659  0.049432  0.000000      8.000000
  0.039545  0.049432  0.000000      8.000000
  0.049432  0.049432  0.000000      8.000000
  0.059318  0.049432  0.000000      4.000000
  0.000000  0.059318  0.000000      2.000000
  0.009886  0.059318  0.000000      4.000000
  0.019773  0.059318  0.000000      4.000000
  0.029659  0.059318  0.000000      4.000000
  0.039545  0.059318  0.000000      4.000000
  0.049432  0.059318  0.000000      4.000000
  0.059318  0.059318  0.000000      2.000000
  0.000000  0.009886  0.009886      4.000000
  0.009886  0.009886  0.009886      8.000000
  0.019773  0.009886  0.009886      8.000000
  0.029659  0.009886  0.009886      8.000000
  0.039545  0.009886  0.009886      8.000000
  0.049432  0.009886  0.009886      8.000000
  0.059318  0.009886  0.009886      4.000000
  0.000000  0.019773  0.009886      8.000000
  0.009886  0.019773  0.009886     16.000000
  0.019773  0.019773  0.009886     16.000000
  0.029659  0.019773  0.009886     16.000000
  0.039545  0.019773  0.009886     16.000000
  0.049432  0.019773  0.009886     16.000000
  0.059318  0.019773  0.009886      8.000000
  0.000000  0.029659  0.009886      8.000000
  0.009886  0.029659  0.009886     16.000000
  0.019773  0.029659  0.009886     16.000000
  0.029659  0.029659  0.009886     16.000000
  0.039545  0.029659  0.009886     16.000000
  0.049432  0.029659  0.009886     16.000000
  0.059318  0.029659  0.009886      8.000000
  0.000000  0.039545  0.009886      8.000000
  0.009886  0.039545  0.009886     16.000000
  0.019773  0.039545  0.009886     16.000000
  0.029659  0.039545  0.009886     16.000000
  0.039545  0.039545  0.009886     16.000000
  0.049432  0.039545  0.009886     16.000000
  0.059318  0.039545  0.009886      8.000000
  0.000000  0.049432  0.009886      8.000000
  0.009886  0.049432  0.009886     16.000000
  0.019773  0.049432  0.009886     16.000000
  0.029659  0.049432  0.009886     16.000000
  0.039545  0.049432  0.009886     16.000000
  0.049432  0.049432  0.009886     16.000000
  0.059318  0.049432  0.009886      8.000000
  0.000000  0.059318  0.009886      4.000000
  0.009886  0.059318  0.009886      8.000000
  0.019773  0.059318  0.009886      8.000000
  0.029659  0.059318  0.009886      8.000000
  0.039545  0.059318  0.009886      8.000000
  0.049432  0.059318  0.009886      8.000000
  0.059318  0.059318  0.009886      4.000000
  0.000000  0.019773  0.019773      4.000000
  0.009886  0.019773  0.019773      8.000000
  0.019773  0.019773  0.019773      8.000000
  0.029659  0.019773  0.019773      8.000000
  0.039545  0.019773  0.019773      8.000000
  0.049432  0.019773  0.019773      8.000000
  0.059318  0.019773  0.019773      4.000000
  0.000000  0.029659  0.019773      8.000000
  0.009886  0.029659  0.019773     16.000000
  0.019773  0.029659  0.019773     16.000000
  0.029659  0.029659  0.019773     16.000000
  0.039545  0.029659  0.019773     16.000000
  0.049432  0.029659  0.019773     16.000000
  0.059318  0.029659  0.019773      8.000000
  0.000000  0.039545  0.019773      8.000000
  0.009886  0.039545  0.019773     16.000000
  0.019773  0.039545  0.019773     16.000000
  0.029659  0.039545  0.019773     16.000000
  0.039545  0.039545  0.019773     16.000000
  0.049432  0.039545  0.019773     16.000000
  0.059318  0.039545  0.019773      8.000000
  0.000000  0.049432  0.019773      8.000000
  0.009886  0.049432  0.019773     16.000000
  0.019773  0.049432  0.019773     16.000000
  0.029659  0.049432  0.019773     16.000000
  0.039545  0.049432  0.019773     16.000000
  0.049432  0.049432  0.019773     16.000000
  0.059318  0.049432  0.019773      8.000000
  0.000000  0.059318  0.019773      4.000000
  0.009886  0.059318  0.019773      8.000000
  0.019773  0.059318  0.019773      8.000000
  0.029659  0.059318  0.019773      8.000000
  0.039545  0.059318  0.019773      8.000000
  0.049432  0.059318  0.019773      8.000000
  0.059318  0.059318  0.019773      4.000000
  0.000000  0.029659  0.029659      4.000000
  0.009886  0.029659  0.029659      8.000000
  0.019773  0.029659  0.029659      8.000000
  0.029659  0.029659  0.029659      8.000000
  0.039545  0.029659  0.029659      8.000000
  0.049432  0.029659  0.029659      8.000000
  0.059318  0.029659  0.029659      4.000000
  0.000000  0.039545  0.029659      8.000000
  0.009886  0.039545  0.029659     16.000000
  0.019773  0.039545  0.029659     16.000000
  0.029659  0.039545  0.029659     16.000000
  0.039545  0.039545  0.029659     16.000000
  0.049432  0.039545  0.029659     16.000000
  0.059318  0.039545  0.029659      8.000000
  0.000000  0.049432  0.029659      8.000000
  0.009886  0.049432  0.029659     16.000000
  0.019773  0.049432  0.029659     16.000000
  0.029659  0.049432  0.029659     16.000000
  0.039545  0.049432  0.029659     16.000000
  0.049432  0.049432  0.029659     16.000000
  0.059318  0.049432  0.029659      8.000000
  0.000000  0.059318  0.029659      4.000000
  0.009886  0.059318  0.029659      8.000000
  0.019773  0.059318  0.029659      8.000000
  0.029659  0.059318  0.029659      8.000000
  0.039545  0.059318  0.029659      8.000000
  0.049432  0.059318  0.029659      8.000000
  0.059318  0.059318  0.029659      4.000000
  0.000000  0.039545  0.039545      4.000000
  0.009886  0.039545  0.039545      8.000000
  0.019773  0.039545  0.039545      8.000000
  0.029659  0.039545  0.039545      8.000000
  0.039545  0.039545  0.039545      8.000000
  0.049432  0.039545  0.039545      8.000000
  0.059318  0.039545  0.039545      4.000000
  0.000000  0.049432  0.039545      8.000000
  0.009886  0.049432  0.039545     16.000000
  0.019773  0.049432  0.039545     16.000000
  0.029659  0.049432  0.039545     16.000000
  0.039545  0.049432  0.039545     16.000000
  0.049432  0.049432  0.039545     16.000000
  0.059318  0.049432  0.039545      8.000000
  0.000000  0.059318  0.039545      4.000000
  0.009886  0.059318  0.039545      8.000000
  0.019773  0.059318  0.039545      8.000000
  0.029659  0.059318  0.039545      8.000000
  0.039545  0.059318  0.039545      8.000000
  0.049432  0.059318  0.039545      8.000000
  0.059318  0.059318  0.039545      4.000000
  0.000000  0.049432  0.049432      4.000000
  0.009886  0.049432  0.049432      8.000000
  0.019773  0.049432  0.049432      8.000000
  0.029659  0.049432  0.049432      8.000000
  0.039545  0.049432  0.049432      8.000000
  0.049432  0.049432  0.049432      8.000000
  0.059318  0.049432  0.049432      4.000000
  0.000000  0.059318  0.049432      4.000000
  0.009886  0.059318  0.049432      8.000000
  0.019773  0.059318  0.049432      8.000000
  0.029659  0.059318  0.049432      8.000000
  0.039545  0.059318  0.049432      8.000000
  0.049432  0.059318  0.049432      8.000000
  0.059318  0.059318  0.049432      4.000000
  0.000000  0.059318  0.059318      1.000000
  0.009886  0.059318  0.059318      2.000000
  0.019773  0.059318  0.059318      2.000000
  0.029659  0.059318  0.059318      2.000000
  0.039545  0.059318  0.059318      2.000000
  0.049432  0.059318  0.059318      2.000000
  0.059318  0.059318  0.059318      1.000000
 


--------------------------------------------------------------------------------------------------------




 Dimension of arrays:
   k-Points           NKPTS =    196   number of bands    NBANDS=    216
   number of dos      NEDOS =    301   number of ions     NIONS =     32
   non local maximal  LDIM  =      6   non local SUM 2l+1 LMDIM =     18
   total plane-waves  NPLWV = 512000
   max r-space proj   IRMAX =      1   max aug-charges    IRDMAX= 418391
   dimension x,y,z NGX =    80 NGY =   80 NGZ =   80
   dimension x,y,z NGXF=   160 NGYF=  160 NGZF=  160
   support grid    NGXF=   320 NGYF=  320 NGZF=  320
   ions per type =              32
 NGX,Y,Z   is equivalent  to a cutoff of  15.78, 15.78, 15.78 a.u.
 NGXF,Y,Z  is equivalent  to a cutoff of  31.56, 31.56, 31.56 a.u.


 I would recommend the setting:
   dimension x,y,z NGX =    75 NGY =   75 NGZ =   75
 SYSTEM =  unknown system                          
 POSCAR =  Au                                      

 Startparameter for this run:
   NWRITE =      2    write-flag & timer
   PREC   = accura    medium, high low
   ISTART =      0    job   : 0-new  1-cont  2-samecut
   ICHARG =      2    charge: 1-file 2-atom 10-const
   ISPIN  =      1    spin polarized calculation?
   LNONCOLLINEAR =      F non collinear calculations
   LSORBIT =      F    spin-orbit coupling
   INIWAV =      1    electr: 0-lowe 1-rand  2-diag
   LASPH  =      F    aspherical Exc in radial PAW
   METAGGA=      F    non-selfconsistent MetaGGA calc.

 Electronic Relaxation 1
   ENCUT  =  750.0 eV  55.12 Ry    7.42 a.u.  18.82 18.82 18.82*2*pi/ulx,y,z
   ENINI  =  750.0     initial cutoff
   ENAUG  =  356.7 eV  augmentation charge cutoff
   NELM   =     60;   NELMIN=  2; NELMDL= -5     # of ELM steps 
   EDIFF  = 0.1E-07   stopping-criterion for ELM
   LREAL  =      F    real-space projection
   LCOMPAT=      F    compatible to vasp.4.4
   LREAL_COMPAT= F    compatible to vasp.4.5.1-3
   GGA_COMPAT  = T    GGA compatible to vasp.4.4-vasp.4.6
   LMAXPAW     = -100 max onsite density
   LMAXMIX     =    2 max onsite mixed and CHGCAR
   VOSKOWN=      0    Vosko Wilk Nusair interpolation
   ROPT   =    0.00000
 Ionic relaxation
   EDIFFG = 0.1E-06   stopping-criterion for IOM
   NSW    =      0    number of steps for IOM
   NBLOCK =      1;   KBLOCK =      1    inner block; outer block 
   IBRION =     -1    ionic relax: 0-MD 1-quasi-New 2-CG
   NFREE  =      0    steps in history (QN), initial steepest desc. (CG)
   ISIF   =      2    stress and relaxation
   IWAVPR =     10    prediction:  0-non 1-charg 2-wave 3-comb
   ISYM   =      2    0-nonsym 1-usesym 2-fastsym
   LCORR  =      T    Harris-Foulkes like correction to forces

   POTIM  =   0.50    time-step for ionic-motion
   TEIN   =    0.0    initial temperature
   TEBEG  =    0.0;   TEEND  =   0.0 temperature during run
   SMASS  =  -3.00    Nose mass-parameter (am)
   estimated Nose-frequenzy (Omega)   =  0.10E-29 period in steps =****** mass=  -0.162E-26a.u.
   NPACO  =    256;   APACO  = 16.0  distance and # of slots for P.C.
   PSTRESS=    0.0 pullay stress

  Mass of Ions in am
   POMASS = 196.97
  Ionic Valenz
   ZVAL   =  11.00
  Atomic Wigner-Seitz radii
   RWIGS  =  -1.00
   NELECT =     352.0000    total number of electrons
   NUPDOWN=      -1.0000    fix difference up-down

 DOS related values:
   EMIN   =  10.00;   EMAX   =-10.00  energy-range for DOS
   ISMEAR =     0;   SIGMA  =   0.01  broadening in eV -4-tet -1-fermi 0-gaus

 Electronic relaxation 2 (details)
   IALGO  =     38    algorithm
   LDIAG  =      T    sub-space diagonalisation
   IMIX   =      4    mixing-type and parameters
     AMIX     =   0.40;   BMIX     =  1.00
     AMIX_MAG =   1.60;   BMIX_MAG =  1.00
     AMIN     =   0.10
     WC   =   100.;   INIMIX=   1;  MIXPRE=   1

 Intra band minimization:
   WEIMIN = 0.0000     energy-eigenvalue tresh-hold
   EBREAK =  0.12E-10  absolut break condition
   DEPER  =   0.30     relativ break condition  

   TIME   =   0.10     timestep for ELM

  volume/ion in A,a.u.               =      18.72       126.30
  Fermi-wavevector in a.u.,eV,Ry     =   1.371318 25.585918  1.880512

 Second variation
   LSECVAR=     F    do a second variation
 
 Write flags
   LWAVE  =      F    write WAVECAR
   LCHARG =      F    write CHGCAR
   LVTOT  =      F    write LOCPOT, local potential
   LELF   =      F    write electronic localiz. function (ELF)
   LORBIT =      0    0 simple, 1 ext, 2 COOP (PROOUT)


 Dipole corrections
   IDIPOL =      0    1-x, 2-y, 3-z
   LDIPOL =      F    correct potential



--------------------------------------------------------------------------------------------------------


 Static calculation
 charge density will be updated during run
 non-spin polarized calculation
 Variant of blocked Davidson
 Davidson routine will perform the subspace rotation
 performe sub-space diagonalisation
    after iterative eigenvector-optimisation
 modified Broyden-mixing scheme, WC =      100.0
 initial mixing is a Kerker type mixing with AMIX =  0.4000 and BMIX =      1.0000
 Hartree-type preconditioning will be used
 using additional bands           40
 reciprocal scheme for non local part
 use partial core corrections
 calculate Harris-corrections to forces 
   (improved forces if not selfconsistent)
 use gradient corrections 
 use of overlap-Matrix (Vanderbilt PP)
 Gauss-broadening in eV      SIGMA  =   0.01


--------------------------------------------------------------------------------------------------------


  energy-cutoff  :      750.00
  volume of cell :      598.90
      direct lattice vectors                 reciprocal lattice vectors
     8.429160843  0.000000000  0.000000000     0.118635772  0.000000000  0.000000000
     0.000000000  8.429160843  0.000000000     0.000000000  0.118635772  0.000000000
     0.000000000  0.000000000  8.429160843     0.000000000  0.000000000  0.118635772

  length of vectors
     8.429160843  8.429160843  8.429160843     0.118635772  0.118635772  0.118635772


 
 k-points in units of 2pi/SCALE and weight: Automatic mesh                          
   0.00000000  0.00000000  0.00000000       0.001
   0.00988631  0.00000000  0.00000000       0.001
   0.01977263  0.00000000  0.00000000       0.001
   0.02965894  0.00000000  0.00000000       0.001
   0.03954526  0.00000000  0.00000000       0.001
   0.04943157  0.00000000  0.00000000       0.001
   0.05931789  0.00000000  0.00000000       0.001
   0.00000000  0.00988631  0.00000000       0.002
   0.00988631  0.00988631  0.00000000       0.005
   0.01977263  0.00988631  0.00000000       0.005
   0.02965894  0.00988631  0.00000000       0.005
   0.03954526  0.00988631  0.00000000       0.005
   0.04943157  0.00988631  0.00000000       0.005
   0.05931789  0.00988631  0.00000000       0.002
   0.00000000  0.01977263  0.00000000       0.002
   0.00988631  0.01977263  0.00000000       0.005
   0.01977263  0.01977263  0.00000000       0.005
   0.02965894  0.01977263  0.00000000       0.005
   0.03954526  0.01977263  0.00000000       0.005
   0.04943157  0.01977263  0.00000000       0.005
   0.05931789  0.01977263  0.00000000       0.002
   0.00000000  0.02965894  0.00000000       0.002
   0.00988631  0.02965894  0.00000000       0.005
   0.01977263  0.02965894  0.00000000       0.005
   0.02965894  0.02965894  0.00000000       0.005
   0.03954526  0.02965894  0.00000000       0.005
   0.04943157  0.02965894  0.00000000       0.005
   0.05931789  0.02965894  0.00000000       0.002
   0.00000000  0.03954526  0.00000000       0.002
   0.00988631  0.03954526  0.00000000       0.005
   0.01977263  0.03954526  0.00000000       0.005
   0.02965894  0.03954526  0.00000000       0.005
   0.03954526  0.03954526  0.00000000       0.005
   0.04943157  0.03954526  0.00000000       0.005
   0.05931789  0.03954526  0.00000000       0.002
   0.00000000  0.04943157  0.00000000       0.002
   0.00988631  0.04943157  0.00000000       0.005
   0.01977263  0.04943157  0.00000000       0.005
   0.02965894  0.04943157  0.00000000       0.005
   0.03954526  0.04943157  0.00000000       0.005
   0.04943157  0.04943157  0.00000000       0.005
   0.05931789  0.04943157  0.00000000       0.002
   0.00000000  0.05931789  0.00000000       0.001
   0.00988631  0.05931789  0.00000000       0.002
   0.01977263  0.05931789  0.00000000       0.002
   0.02965894  0.05931789  0.00000000       0.002
   0.03954526  0.05931789  0.00000000       0.002
   0.04943157  0.05931789  0.00000000       0.002
   0.05931789  0.05931789  0.00000000       0.001
   0.00000000  0.00988631  0.00988631       0.002
   0.00988631  0.00988631  0.00988631       0.005
   0.01977263  0.00988631  0.00988631       0.005
   0.02965894  0.00988631  0.00988631       0.005
   0.03954526  0.00988631  0.00988631       0.005
   0.04943157  0.00988631  0.00988631       0.005
   0.05931789  0.00988631  0.00988631       0.002
   0.00000000  0.01977263  0.00988631       0.005
   0.00988631  0.01977263  0.00988631       0.009
   0.01977263  0.01977263  0.00988631       0.009
   0.02965894  0.01977263  0.00988631       0.009
   0.03954526  0.01977263  0.00988631       0.009
   0.04943157  0.01977263  0.00988631       0.009
   0.05931789  0.01977263  0.00988631       0.005
   0.00000000  0.02965894  0.00988631       0.005
   0.00988631  0.02965894  0.00988631       0.009
   0.01977263  0.02965894  0.00988631       0.009
   0.02965894  0.02965894  0.00988631       0.009
   0.03954526  0.02965894  0.00988631       0.009
   0.04943157  0.02965894  0.00988631       0.009
   0.05931789  0.02965894  0.00988631       0.005
   0.00000000  0.03954526  0.00988631       0.005
   0.00988631  0.03954526  0.00988631       0.009
   0.01977263  0.03954526  0.00988631       0.009
   0.02965894  0.03954526  0.00988631       0.009
   0.03954526  0.03954526  0.00988631       0.009
   0.04943157  0.03954526  0.00988631       0.009
   0.05931789  0.03954526  0.00988631       0.005
   0.00000000  0.04943157  0.00988631       0.005
   0.00988631  0.04943157  0.00988631       0.009
   0.01977263  0.04943157  0.00988631       0.009
   0.02965894  0.04943157  0.00988631       0.009
   0.03954526  0.04943157  0.00988631       0.009
   0.04943157  0.04943157  0.00988631       0.009
   0.05931789  0.04943157  0.00988631       0.005
   0.00000000  0.05931789  0.00988631       0.002
   0.00988631  0.05931789  0.00988631       0.005
   0.01977263  0.05931789  0.00988631       0.005
   0.02965894  0.05931789  0.00988631       0.005
   0.03954526  0.05931789  0.00988631       0.005
   0.04943157  0.05931789  0.00988631       0.005
   0.05931789  0.05931789  0.00988631       0.002
   0.00000000  0.01977263  0.01977263       0.002
   0.00988631  0.01977263  0.01977263       0.005
   0.01977263  0.01977263  0.01977263       0.005
   0.02965894  0.01977263  0.01977263       0.005
   0.03954526  0.01977263  0.01977263       0.005
   0.04943157  0.01977263  0.01977263       0.005
   0.05931789  0.01977263  0.01977263       0.002
   0.00000000  0.02965894  0.01977263       0.005
   0.00988631  0.02965894  0.01977263       0.009
   0.01977263  0.02965894  0.01977263       0.009
   0.02965894  0.02965894  0.01977263       0.009
   0.03954526  0.02965894  0.01977263       0.009
   0.04943157  0.02965894  0.01977263       0.009
   0.05931789  0.02965894  0.01977263       0.005
   0.00000000  0.03954526  0.01977263       0.005
   0.00988631  0.03954526  0.01977263       0.009
   0.01977263  0.03954526  0.01977263       0.009
   0.02965894  0.03954526  0.01977263       0.009
   0.03954526  0.03954526  0.01977263       0.009
   0.04943157  0.03954526  0.01977263       0.009
   0.05931789  0.03954526  0.01977263       0.005
   0.00000000  0.04943157  0.01977263       0.005
   0.00988631  0.04943157  0.01977263       0.009
   0.01977263  0.04943157  0.01977263       0.009
   0.02965894  0.04943157  0.01977263       0.009
   0.03954526  0.04943157  0.01977263       0.009
   0.04943157  0.04943157  0.01977263       0.009
   0.05931789  0.04943157  0.01977263       0.005
   0.00000000  0.05931789  0.01977263       0.002
   0.00988631  0.05931789  0.01977263       0.005
   0.01977263  0.05931789  0.01977263       0.005
   0.02965894  0.05931789  0.01977263       0.005
   0.03954526  0.05931789  0.01977263       0.005
   0.04943157  0.05931789  0.01977263       0.005
   0.05931789  0.05931789  0.01977263       0.002
   0.00000000  0.02965894  0.02965894       0.002
   0.00988631  0.02965894  0.02965894       0.005
   0.01977263  0.02965894  0.02965894       0.005
   0.02965894  0.02965894  0.02965894       0.005
   0.03954526  0.02965894  0.02965894       0.005
   0.04943157  0.02965894  0.02965894       0.005
   0.05931789  0.02965894  0.02965894       0.002
   0.00000000  0.03954526  0.02965894       0.005
   0.00988631  0.03954526  0.02965894       0.009
   0.01977263  0.03954526  0.02965894       0.009
   0.02965894  0.03954526  0.02965894       0.009
   0.03954526  0.03954526  0.02965894       0.009
   0.04943157  0.03954526  0.02965894       0.009
   0.05931789  0.03954526  0.02965894       0.005
   0.00000000  0.04943157  0.02965894       0.005
   0.00988631  0.04943157  0.02965894       0.009
   0.01977263  0.04943157  0.02965894       0.009
   0.02965894  0.04943157  0.02965894       0.009
   0.03954526  0.04943157  0.02965894       0.009
   0.04943157  0.04943157  0.02965894       0.009
   0.05931789  0.04943157  0.02965894       0.005
   0.00000000  0.05931789  0.02965894       0.002
   0.00988631  0.05931789  0.02965894       0.005
   0.01977263  0.05931789  0.02965894       0.005
   0.02965894  0.05931789  0.02965894       0.005
   0.03954526  0.05931789  0.02965894       0.005
   0.04943157  0.05931789  0.02965894       0.005
   0.05931789  0.05931789  0.02965894       0.002
   0.00000000  0.03954526  0.03954526       0.002
   0.00988631  0.03954526  0.03954526       0.005
   0.01977263  0.03954526  0.03954526       0.005
   0.02965894  0.03954526  0.03954526       0.005
   0.03954526  0.03954526  0.03954526       0.005
   0.04943157  0.03954526  0.03954526       0.005
   0.05931789  0.03954526  0.03954526       0.002
   0.00000000  0.04943157  0.03954526       0.005
   0.00988631  0.04943157  0.03954526       0.009
   0.01977263  0.04943157  0.03954526       0.009
   0.02965894  0.04943157  0.03954526       0.009
   0.03954526  0.04943157  0.03954526       0.009
   0.04943157  0.04943157  0.03954526       0.009
   0.05931789  0.04943157  0.03954526       0.005
   0.00000000  0.05931789  0.03954526       0.002
   0.00988631  0.05931789  0.03954526       0.005
   0.01977263  0.05931789  0.03954526       0.005
   0.02965894  0.05931789  0.03954526       0.005
   0.03954526  0.05931789  0.03954526       0.005
   0.04943157  0.05931789  0.03954526       0.005
   0.05931789  0.05931789  0.03954526       0.002
   0.00000000  0.04943157  0.04943157       0.002
   0.00988631  0.04943157  0.04943157       0.005
   0.01977263  0.04943157  0.04943157       0.005
   0.02965894  0.04943157  0.04943157       0.005
   0.03954526  0.04943157  0.04943157       0.005
   0.04943157  0.04943157  0.04943157       0.005
   0.05931789  0.04943157  0.04943157       0.002
   0.00000000  0.05931789  0.04943157       0.002
   0.00988631  0.05931789  0.04943157       0.005
   0.01977263  0.05931789  0.04943157       0.005
   0.02965894  0.05931789  0.04943157       0.005
   0.03954526  0.05931789  0.04943157       0.005
   0.04943157  0.05931789  0.04943157       0.005
   0.05931789  0.05931789  0.04943157       0.002
   0.00000000  0.05931789  0.05931789       0.001
   0.00988631  0.05931789  0.05931789       0.001
   0.01977263  0.05931789  0.05931789       0.001
   0.02965894  0.05931789  0.05931789       0.001
   0.03954526  0.05931789  0.05931789       0.001
   0.04943157  0.05931789  0.05931789       0.001
   0.05931789  0.05931789  0.05931789       0.001
 
 k-points in reciprocal lattice and weights: Automatic mesh                          
   0.00000000  0.00000000  0.00000000       0.001
   0.08333333  0.00000000  0.00000000       0.001
   0.16666667  0.00000000  0.00000000       0.001
   0.25000000  0.00000000  0.00000000       0.001
   0.33333333  0.00000000  0.00000000       0.001
   0.41666667  0.00000000  0.00000000       0.001
   0.50000000  0.00000000  0.00000000       0.001
   0.00000000  0.08333333  0.00000000       0.002
   0.08333333  0.08333333  0.00000000       0.005
   0.16666667  0.08333333  0.00000000       0.005
   0.25000000  0.08333333  0.00000000       0.005
   0.33333333  0.08333333  0.00000000       0.005
   0.41666667  0.08333333  0.00000000       0.005
   0.50000000  0.08333333  0.00000000       0.002
   0.00000000  0.16666667  0.00000000       0.002
   0.08333333  0.16666667  0.00000000       0.005
   0.16666667  0.16666667  0.00000000       0.005
   0.25000000  0.16666667  0.00000000       0.005
   0.33333333  0.16666667  0.00000000       0.005
   0.41666667  0.16666667  0.00000000       0.005
   0.50000000  0.16666667  0.00000000       0.002
   0.00000000  0.25000000  0.00000000       0.002
   0.08333333  0.25000000  0.00000000       0.005
   0.16666667  0.25000000  0.00000000       0.005
   0.25000000  0.25000000  0.00000000       0.005
   0.33333333  0.25000000  0.00000000       0.005
   0.41666667  0.25000000  0.00000000       0.005
   0.50000000  0.25000000  0.00000000       0.002
   0.00000000  0.33333333  0.00000000       0.002
   0.08333333  0.33333333  0.00000000       0.005
   0.16666667  0.33333333  0.00000000       0.005
   0.25000000  0.33333333  0.00000000       0.005
   0.33333333  0.33333333  0.00000000       0.005
   0.41666667  0.33333333  0.00000000       0.005
   0.50000000  0.33333333  0.00000000       0.002
   0.00000000  0.41666667  0.00000000       0.002
   0.08333333  0.41666667  0.00000000       0.005
   0.16666667  0.41666667  0.00000000       0.005
   0.25000000  0.41666667  0.00000000       0.005
   0.33333333  0.41666667  0.00000000       0.005
   0.41666667  0.41666667  0.00000000       0.005
   0.50000000  0.41666667  0.00000000       0.002
   0.00000000  0.50000000  0.00000000       0.001
   0.08333333  0.50000000  0.00000000       0.002
   0.16666667  0.50000000  0.00000000       0.002
   0.25000000  0.50000000  0.00000000       0.002
   0.33333333  0.50000000  0.00000000       0.002
   0.41666667  0.50000000  0.00000000       0.002
   0.50000000  0.50000000  0.00000000       0.001
   0.00000000  0.08333333  0.08333333       0.002
   0.08333333  0.08333333  0.08333333       0.005
   0.16666667  0.08333333  0.08333333       0.005
   0.25000000  0.08333333  0.08333333       0.005
   0.33333333  0.08333333  0.08333333       0.005
   0.41666667  0.08333333  0.08333333       0.005
   0.50000000  0.08333333  0.08333333       0.002
   0.00000000  0.16666667  0.08333333       0.005
   0.08333333  0.16666667  0.08333333       0.009
   0.16666667  0.16666667  0.08333333       0.009
   0.25000000  0.16666667  0.08333333       0.009
   0.33333333  0.16666667  0.08333333       0.009
   0.41666667  0.16666667  0.08333333       0.009
   0.50000000  0.16666667  0.08333333       0.005
   0.00000000  0.25000000  0.08333333       0.005
   0.08333333  0.25000000  0.08333333       0.009
   0.16666667  0.25000000  0.08333333       0.009
   0.25000000  0.25000000  0.08333333       0.009
   0.33333333  0.25000000  0.08333333       0.009
   0.41666667  0.25000000  0.08333333       0.009
   0.50000000  0.25000000  0.08333333       0.005
   0.00000000  0.33333333  0.08333333       0.005
   0.08333333  0.33333333  0.08333333       0.009
   0.16666667  0.33333333  0.08333333       0.009
   0.25000000  0.33333333  0.08333333       0.009
   0.33333333  0.33333333  0.08333333       0.009
   0.41666667  0.33333333  0.08333333       0.009
   0.50000000  0.33333333  0.08333333       0.005
   0.00000000  0.41666667  0.08333333       0.005
   0.08333333  0.41666667  0.08333333       0.009
   0.16666667  0.41666667  0.08333333       0.009
   0.25000000  0.41666667  0.08333333       0.009
   0.33333333  0.41666667  0.08333333       0.009
   0.41666667  0.41666667  0.08333333       0.009
   0.50000000  0.41666667  0.08333333       0.005
   0.00000000  0.50000000  0.08333333       0.002
   0.08333333  0.50000000  0.08333333       0.005
   0.16666667  0.50000000  0.08333333       0.005
   0.25000000  0.50000000  0.08333333       0.005
   0.33333333  0.50000000  0.08333333       0.005
   0.41666667  0.50000000  0.08333333       0.005
   0.50000000  0.50000000  0.08333333       0.002
   0.00000000  0.16666667  0.16666667       0.002
   0.08333333  0.16666667  0.16666667       0.005
   0.16666667  0.16666667  0.16666667       0.005
   0.25000000  0.16666667  0.16666667       0.005
   0.33333333  0.16666667  0.16666667       0.005
   0.41666667  0.16666667  0.16666667       0.005
   0.50000000  0.16666667  0.16666667       0.002
   0.00000000  0.25000000  0.16666667       0.005
   0.08333333  0.25000000  0.16666667       0.009
   0.16666667  0.25000000  0.16666667       0.009
   0.25000000  0.25000000  0.16666667       0.009
   0.33333333  0.25000000  0.16666667       0.009
   0.41666667  0.25000000  0.16666667       0.009
   0.50000000  0.25000000  0.16666667       0.005
   0.00000000  0.33333333  0.16666667       0.005
   0.08333333  0.33333333  0.16666667       0.009
   0.16666667  0.33333333  0.16666667       0.009
   0.25000000  0.33333333  0.16666667       0.009
   0.33333333  0.33333333  0.16666667       0.009
   0.41666667  0.33333333  0.16666667       0.009
   0.50000000  0.33333333  0.16666667       0.005
   0.00000000  0.41666667  0.16666667       0.005
   0.08333333  0.41666667  0.16666667       0.009
   0.16666667  0.41666667  0.16666667       0.009
   0.25000000  0.41666667  0.16666667       0.009
   0.33333333  0.41666667  0.16666667       0.009
   0.41666667  0.41666667  0.16666667       0.009
   0.50000000  0.41666667  0.16666667       0.005
   0.00000000  0.50000000  0.16666667       0.002
   0.08333333  0.50000000  0.16666667       0.005
   0.16666667  0.50000000  0.16666667       0.005
   0.25000000  0.50000000  0.16666667       0.005
   0.33333333  0.50000000  0.16666667       0.005
   0.41666667  0.50000000  0.16666667       0.005
   0.50000000  0.50000000  0.16666667       0.002
   0.00000000  0.25000000  0.25000000       0.002
   0.08333333  0.25000000  0.25000000       0.005
   0.16666667  0.25000000  0.25000000       0.005
   0.25000000  0.25000000  0.25000000       0.005
   0.33333333  0.25000000  0.25000000       0.005
   0.41666667  0.25000000  0.25000000       0.005
   0.50000000  0.25000000  0.25000000       0.002
   0.00000000  0.33333333  0.25000000       0.005
   0.08333333  0.33333333  0.25000000       0.009
   0.16666667  0.33333333  0.25000000       0.009
   0.25000000  0.33333333  0.25000000       0.009
   0.33333333  0.33333333  0.25000000       0.009
   0.41666667  0.33333333  0.25000000       0.009
   0.50000000  0.33333333  0.25000000       0.005
   0.00000000  0.41666667  0.25000000       0.005
   0.08333333  0.41666667  0.25000000       0.009
   0.16666667  0.41666667  0.25000000       0.009
   0.25000000  0.41666667  0.25000000       0.009
   0.33333333  0.41666667  0.25000000       0.009
   0.41666667  0.41666667  0.25000000       0.009
   0.50000000  0.41666667  0.25000000       0.005
   0.00000000  0.50000000  0.25000000       0.002
   0.08333333  0.50000000  0.25000000       0.005
   0.16666667  0.50000000  0.25000000       0.005
   0.25000000  0.50000000  0.25000000       0.005
   0.33333333  0.50000000  0.25000000       0.005
   0.41666667  0.50000000  0.25000000       0.005
   0.50000000  0.50000000  0.25000000       0.002
   0.00000000  0.33333333  0.33333333       0.002
   0.08333333  0.33333333  0.33333333       0.005
   0.16666667  0.33333333  0.33333333       0.005
   0.25000000  0.33333333  0.33333333       0.005
   0.33333333  0.33333333  0.33333333       0.005
   0.41666667  0.33333333  0.33333333       0.005
   0.50000000  0.33333333  0.33333333       0.002
   0.00000000  0.41666667  0.33333333       0.005
   0.08333333  0.41666667  0.33333333       0.009
   0.16666667  0.41666667  0.33333333       0.009
   0.25000000  0.41666667  0.33333333       0.009
   0.33333333  0.41666667  0.33333333       0.009
   0.41666667  0.41666667  0.33333333       0.009
   0.50000000  0.41666667  0.33333333       0.005
   0.00000000  0.50000000  0.33333333       0.002
   0.08333333  0.50000000  0.33333333       0.005
   0.16666667  0.50000000  0.33333333       0.005
   0.25000000  0.50000000  0.33333333       0.005
   0.33333333  0.50000000  0.33333333       0.005
   0.41666667  0.50000000  0.33333333       0.005
   0.50000000  0.50000000  0.33333333       0.002
   0.00000000  0.41666667  0.41666667       0.002
   0.08333333  0.41666667  0.41666667       0.005
   0.16666667  0.41666667  0.41666667       0.005
   0.25000000  0.41666667  0.41666667       0.005
   0.33333333  0.41666667  0.41666667       0.005
   0.41666667  0.41666667  0.41666667       0.005
   0.50000000  0.41666667  0.41666667       0.002
   0.00000000  0.50000000  0.41666667       0.002
   0.08333333  0.50000000  0.41666667       0.005
   0.16666667  0.50000000  0.41666667       0.005
   0.25000000  0.50000000  0.41666667       0.005
   0.33333333  0.50000000  0.41666667       0.005
   0.41666667  0.50000000  0.41666667       0.005
   0.50000000  0.50000000  0.41666667       0.002
   0.00000000  0.50000000  0.50000000       0.001
   0.08333333  0.50000000  0.50000000       0.001
   0.16666667  0.50000000  0.50000000       0.001
   0.25000000  0.50000000  0.50000000       0.001
   0.33333333  0.50000000  0.50000000       0.001
   0.41666667  0.50000000  0.50000000       0.001
   0.50000000  0.50000000  0.50000000       0.001
 
 position of ions in fractional coordinates (direct lattice) 
   0.00118636  0.00000000  0.00000000
   0.50000000  0.00000000  0.00000000
   0.00000000  0.50000000  0.00000000
   0.50000000  0.50000000  0.00000000
   0.00000000  0.00000000  0.50000000
   0.50000000  0.00000000  0.50000000
   0.00000000  0.50000000  0.50000000
   0.50000000  0.50000000  0.50000000
   0.25000000  0.25000000  0.00000000
   0.75000000  0.25000000  0.00000000
   0.25000000  0.75000000  0.00000000
   0.75000000  0.75000000  0.00000000
   0.25000000  0.25000000  0.50000000
   0.75000000  0.25000000  0.50000000
   0.25000000  0.75000000  0.50000000
   0.75000000  0.75000000  0.50000000
   0.25000000  0.00000000  0.25000000
   0.75000000  0.00000000  0.25000000
   0.25000000  0.50000000  0.25000000
   0.75000000  0.50000000  0.25000000
   0.25000000  0.00000000  0.75000000
   0.75000000  0.00000000  0.75000000
   0.25000000  0.50000000  0.75000000
   0.75000000  0.50000000  0.75000000
   0.00000000  0.25000000  0.25000000
   0.50000000  0.25000000  0.25000000
   0.00000000  0.75000000  0.25000000
   0.50000000  0.75000000  0.25000000
   0.00000000  0.25000000  0.75000000
   0.50000000  0.25000000  0.75000000
   0.00000000  0.75000000  0.75000000
   0.50000000  0.75000000  0.75000000
 
 position of ions in cartesian coordinates  (Angst):
   0.01000000  0.00000000  0.00000000
   4.21458042  0.00000000  0.00000000
   0.00000000  4.21458042  0.00000000
   4.21458042  4.21458042  0.00000000
   0.00000000  0.00000000  4.21458042
   4.21458042  0.00000000  4.21458042
   0.00000000  4.21458042  4.21458042
   4.21458042  4.21458042  4.21458042
   2.10729021  2.10729021  0.00000000
   6.32187063  2.10729021  0.00000000
   2.10729021  6.32187063  0.00000000
   6.32187063  6.32187063  0.00000000
   2.10729021  2.10729021  4.21458042
   6.32187063  2.10729021  4.21458042
   2.10729021  6.32187063  4.21458042
   6.32187063  6.32187063  4.21458042
   2.10729021  0.00000000  2.10729021
   6.32187063  0.00000000  2.10729021
   2.10729021  4.21458042  2.10729021
   6.32187063  4.21458042  2.10729021
   2.10729021  0.00000000  6.32187063
   6.32187063  0.00000000  6.32187063
   2.10729021  4.21458042  6.32187063
   6.32187063  4.21458042  6.32187063
   0.00000000  2.10729021  2.10729021
   4.21458042  2.10729021  2.10729021
   0.00000000  6.32187063  2.10729021
   4.21458042  6.32187063  2.10729021
   0.00000000  2.10729021  6.32187063
   4.21458042  2.10729021  6.32187063
   0.00000000  6.32187063  6.32187063
   4.21458042  6.32187063  6.32187063
 


--------------------------------------------------------------------------------------------------------


 k-point  1 :  0.00000.00000.0000  plane waves:  28017
 k-point  2 :  0.08330.00000.0000  plane waves:  27949
 k-point  3 :  0.16670.00000.0000  plane waves:  27913
 k-point  4 :  0.25000.00000.0000  plane waves:  27926
 k-point  5 :  0.33330.00000.0000  plane waves:  27942
 k-point  6 :  0.41670.00000.0000  plane waves:  27902
 k-point  7 :  0.50000.00000.0000  plane waves:  27910
 k-point  8 :  0.00000.08330.0000  plane waves:  27949
 k-point  9 :  0.08330.08330.0000  plane waves:  27951
 k-point 10 :  0.16670.08330.0000  plane waves:  27921
 k-point 11 :  0.25000.08330.0000  plane waves:  27936
 k-point 12 :  0.33330.08330.0000  plane waves:  27925
 k-point 13 :  0.41670.08330.0000  plane waves:  27896
 k-point 14 :  0.50000.08330.0000  plane waves:  27908
 k-point 15 :  0.00000.16670.0000  plane waves:  27913
 k-point 16 :  0.08330.16670.0000  plane waves:  27921
 k-point 17 :  0.16670.16670.0000  plane waves:  27945
 k-point 18 :  0.25000.16670.0000  plane waves:  27937
 k-point 19 :  0.33330.16670.0000  plane waves:  27954
 k-point 20 :  0.41670.16670.0000  plane waves:  27918
 k-point 21 :  0.50000.16670.0000  plane waves:  27860
 k-point 22 :  0.00000.25000.0000  plane waves:  27926
 k-point 23 :  0.08330.25000.0000  plane waves:  27936
 k-point 24 :  0.16670.25000.0000  plane waves:  27937
 k-point 25 :  0.25000.25000.0000  plane waves:  27971
 k-point 26 :  0.33330.25000.0000  plane waves:  27925
 k-point 27 :  0.41670.25000.0000  plane waves:  27938
 k-point 28 :  0.50000.25000.0000  plane waves:  27912
 k-point 29 :  0.00000.33330.0000  plane waves:  27942
 k-point 30 :  0.08330.33330.0000  plane waves:  27925
 k-point 31 :  0.16670.33330.0000  plane waves:  27954
 k-point 32 :  0.25000.33330.0000  plane waves:  27925
 k-point 33 :  0.33330.33330.0000  plane waves:  27948
 k-point 34 :  0.41670.33330.0000  plane waves:  27919
 k-point 35 :  0.50000.33330.0000  plane waves:  27910
 k-point 36 :  0.00000.41670.0000  plane waves:  27902
 k-point 37 :  0.08330.41670.0000  plane waves:  27896
 k-point 38 :  0.16670.41670.0000  plane waves:  27918
 k-point 39 :  0.25000.41670.0000  plane waves:  27938
 k-point 40 :  0.33330.41670.0000  plane waves:  27919
 k-point 41 :  0.41670.41670.0000  plane waves:  27902
 k-point 42 :  0.50000.41670.0000  plane waves:  27940
 k-point 43 :  0.00000.50000.0000  plane waves:  27910
 k-point 44 :  0.08330.50000.0000  plane waves:  27908
 k-point 45 :  0.16670.50000.0000  plane waves:  27860
 k-point 46 :  0.25000.50000.0000  plane waves:  27912
 k-point 47 :  0.33330.50000.0000  plane waves:  27910
 k-point 48 :  0.41670.50000.0000  plane waves:  27940
 k-point 49 :  0.50000.50000.0000  plane waves:  27916
 k-point 50 :  0.00000.08330.0833  plane waves:  27951
 k-point 51 :  0.08330.08330.0833  plane waves:  27924
 k-point 52 :  0.16670.08330.0833  plane waves:  27930
 k-point 53 :  0.25000.08330.0833  plane waves:  27935
 k-point 54 :  0.33330.08330.0833  plane waves:  27930
 k-point 55 :  0.41670.08330.0833  plane waves:  27911
 k-point 56 :  0.50000.08330.0833  plane waves:  27914
 k-point 57 :  0.00000.16670.0833  plane waves:  27921
 k-point 58 :  0.08330.16670.0833  plane waves:  27930
 k-point 59 :  0.16670.16670.0833  plane waves:  27936
 k-point 60 :  0.25000.16670.0833  plane waves:  27955
 k-point 61 :  0.33330.16670.0833  plane waves:  27928
 k-point 62 :  0.41670.16670.0833  plane waves:  27918
 k-point 63 :  0.50000.16670.0833  plane waves:  27898
 k-point 64 :  0.00000.25000.0833  plane waves:  27936
 k-point 65 :  0.08330.25000.0833  plane waves:  27935
 k-point 66 :  0.16670.25000.0833  plane waves:  27955
 k-point 67 :  0.25000.25000.0833  plane waves:  27933
 k-point 68 :  0.33330.25000.0833  plane waves:  27911
 k-point 69 :  0.41670.25000.0833  plane waves:  27925
 k-point 70 :  0.50000.25000.0833  plane waves:  27912
 k-point 71 :  0.00000.33330.0833  plane waves:  27925
 k-point 72 :  0.08330.33330.0833  plane waves:  27930
 k-point 73 :  0.16670.33330.0833  plane waves:  27928
 k-point 74 :  0.25000.33330.0833  plane waves:  27911
 k-point 75 :  0.33330.33330.0833  plane waves:  27938
 k-point 76 :  0.41670.33330.0833  plane waves:  27936
 k-point 77 :  0.50000.33330.0833  plane waves:  27922
 k-point 78 :  0.00000.41670.0833  plane waves:  27896
 k-point 79 :  0.08330.41670.0833  plane waves:  27911
 k-point 80 :  0.16670.41670.0833  plane waves:  27918
 k-point 81 :  0.25000.41670.0833  plane waves:  27925
 k-point 82 :  0.33330.41670.0833  plane waves:  27936
 k-point 83 :  0.41670.41670.0833  plane waves:  27949
 k-point 84 :  0.50000.41670.0833  plane waves:  27978
 k-point 85 :  0.00000.50000.0833  plane waves:  27908
 k-point 86 :  0.08330.50000.0833  plane waves:  27914
 k-point 87 :  0.16670.50000.0833  plane waves:  27898
 k-point 88 :  0.25000.50000.0833  plane waves:  27912
 k-point 89 :  0.33330.50000.0833  plane waves:  27922
 k-point 90 :  0.41670.50000.0833  plane waves:  27978
 k-point 91 :  0.50000.50000.0833  plane waves:  27948
 k-point 92 :  0.00000.16670.1667  plane waves:  27945
 k-point 93 :  0.08330.16670.1667  plane waves:  27936
 k-point 94 :  0.16670.16670.1667  plane waves:  27889
 k-point 95 :  0.25000.16670.1667  plane waves:  27923
 k-point 96 :  0.33330.16670.1667  plane waves:  27946
 k-point 97 :  0.41670.16670.1667  plane waves:  27922
 k-point 98 :  0.50000.16670.1667  plane waves:  27898
 k-point 99 :  0.00000.25000.1667  plane waves:  27937
 k-point ** :  0.08330.25000.1667  plane waves:  27955
 k-point ** :  0.16670.25000.1667  plane waves:  27923
 k-point ** :  0.25000.25000.1667  plane waves:  27922
 k-point ** :  0.33330.25000.1667  plane waves:  27925
 k-point ** :  0.41670.25000.1667  plane waves:  27923
 k-point ** :  0.50000.25000.1667  plane waves:  27912
 k-point ** :  0.00000.33330.1667  plane waves:  27954
 k-point ** :  0.08330.33330.1667  plane waves:  27928
 k-point ** :  0.16670.33330.1667  plane waves:  27946
 k-point ** :  0.25000.33330.1667  plane waves:  27925
 k-point ** :  0.33330.33330.1667  plane waves:  27949
 k-point ** :  0.41670.33330.1667  plane waves:  27917
 k-point ** :  0.50000.33330.1667  plane waves:  27932
 k-point ** :  0.00000.41670.1667  plane waves:  27918
 k-point ** :  0.08330.41670.1667  plane waves:  27918
 k-point ** :  0.16670.41670.1667  plane waves:  27922
 k-point ** :  0.25000.41670.1667  plane waves:  27923
 k-point ** :  0.33330.41670.1667  plane waves:  27917
 k-point ** :  0.41670.41670.1667  plane waves:  27954
 k-point ** :  0.50000.41670.1667  plane waves:  27948
 k-point ** :  0.00000.50000.1667  plane waves:  27860
 k-point ** :  0.08330.50000.1667  plane waves:  27898
 k-point ** :  0.16670.50000.1667  plane waves:  27898
 k-point ** :  0.25000.50000.1667  plane waves:  27912
 k-point ** :  0.33330.50000.1667  plane waves:  27932
 k-point ** :  0.41670.50000.1667  plane waves:  27948
 k-point ** :  0.50000.50000.1667  plane waves:  27996
 k-point ** :  0.00000.25000.2500  plane waves:  27971
 k-point ** :  0.08330.25000.2500  plane waves:  27933
 k-point ** :  0.16670.25000.2500  plane waves:  27922
 k-point ** :  0.25000.25000.2500  plane waves:  27928
 k-point ** :  0.33330.25000.2500  plane waves:  27936
 k-point ** :  0.41670.25000.2500  plane waves:  27917
 k-point ** :  0.50000.25000.2500  plane waves:  27902
 k-point ** :  0.00000.33330.2500  plane waves:  27925
 k-point ** :  0.08330.33330.2500  plane waves:  27911
 k-point ** :  0.16670.33330.2500  plane waves:  27925
 k-point ** :  0.25000.33330.2500  plane waves:  27936
 k-point ** :  0.33330.33330.2500  plane waves:  27925
 k-point ** :  0.41670.33330.2500  plane waves:  27931
 k-point ** :  0.50000.33330.2500  plane waves:  27954
 k-point ** :  0.00000.41670.2500  plane waves:  27938
 k-point ** :  0.08330.41670.2500  plane waves:  27925
 k-point ** :  0.16670.41670.2500  plane waves:  27923
 k-point ** :  0.25000.41670.2500  plane waves:  27917
 k-point ** :  0.33330.41670.2500  plane waves:  27931
 k-point ** :  0.41670.41670.2500  plane waves:  27960
 k-point ** :  0.50000.41670.2500  plane waves:  27948
 k-point ** :  0.00000.50000.2500  plane waves:  27912
 k-point ** :  0.08330.50000.2500  plane waves:  27912
 k-point ** :  0.16670.50000.2500  plane waves:  27912
 k-point ** :  0.25000.50000.2500  plane waves:  27902
 k-point ** :  0.33330.50000.2500  plane waves:  27954
 k-point ** :  0.41670.50000.2500  plane waves:  27948
 k-point ** :  0.50000.50000.2500  plane waves:  27964
 k-point ** :  0.00000.33330.3333  plane waves:  27948
 k-point ** :  0.08330.33330.3333  plane waves:  27938
 k-point ** :  0.16670.33330.3333  plane waves:  27949
 k-point ** :  0.25000.33330.3333  plane waves:  27925
 k-point ** :  0.33330.33330.3333  plane waves:  27916
 k-point ** :  0.41670.33330.3333  plane waves:  27958
 k-point ** :  0.50000.33330.3333  plane waves:  27950
 k-point ** :  0.00000.41670.3333  plane waves:  27919
 k-point ** :  0.08330.41670.3333  plane waves:  27936
 k-point ** :  0.16670.41670.3333  plane waves:  27917
 k-point ** :  0.25000.41670.3333  plane waves:  27931
 k-point ** :  0.33330.41670.3333  plane waves:  27958
 k-point ** :  0.41670.41670.3333  plane waves:  27961
 k-point ** :  0.50000.41670.3333  plane waves:  27950
 k-point ** :  0.00000.50000.3333  plane waves:  27910
 k-point ** :  0.08330.50000.3333  plane waves:  27922
 k-point ** :  0.16670.50000.3333  plane waves:  27932
 k-point ** :  0.25000.50000.3333  plane waves:  27954
 k-point ** :  0.33330.50000.3333  plane waves:  27950
 k-point ** :  0.41670.50000.3333  plane waves:  27950
 k-point ** :  0.50000.50000.3333  plane waves:  27932
 k-point ** :  0.00000.41670.4167  plane waves:  27902
 k-point ** :  0.08330.41670.4167  plane waves:  27949
 k-point ** :  0.16670.41670.4167  plane waves:  27954
 k-point ** :  0.25000.41670.4167  plane waves:  27960
 k-point ** :  0.33330.41670.4167  plane waves:  27961
 k-point ** :  0.41670.41670.4167  plane waves:  27973
 k-point ** :  0.50000.41670.4167  plane waves:  27988
 k-point ** :  0.00000.50000.4167  plane waves:  27940
 k-point ** :  0.08330.50000.4167  plane waves:  27978
 k-point ** :  0.16670.50000.4167  plane waves:  27948
 k-point ** :  0.25000.50000.4167  plane waves:  27948
 k-point ** :  0.33330.50000.4167  plane waves:  27950
 k-point ** :  0.41670.50000.4167  plane waves:  27988
 k-point ** :  0.50000.50000.4167  plane waves:  27956
 k-point ** :  0.00000.50000.5000  plane waves:  27916
 k-point ** :  0.08330.50000.5000  plane waves:  27948
 k-point ** :  0.16670.50000.5000  plane waves:  27996
 k-point ** :  0.25000.50000.5000  plane waves:  27964
 k-point ** :  0.33330.50000.5000  plane waves:  27932
 k-point ** :  0.41670.50000.5000  plane waves:  27956
 k-point ** :  0.50000.50000.5000  plane waves:  27832

 maximum and minimum number of plane-waves per node :  28017 27832

 maximum number of plane-waves:  28017
 maximal index in each direction: 
   IXMAX= 18   IYMAX= 18   IZMAX= 18
   IXMIN=-19   IYMIN=-19   IZMIN=-19

 NGX is ok and might be reduce to  76
 NGY is ok and might be reduce to  76
 NGZ is ok and might be reduce to  76

 parallel 3dFFT wavefunction:
    minimum data exchange during FFTs selected (reduces bandwidth)
 parallel 3dFFT charge:
    minimum data exchange during FFTs selected (reduces bandwidth)

 For storing wavefunctions ******* MBYTES are necessary
 For predicting wavefunctions  203.62 MBYTES are necessary
Broyden mixing: mesh for mixing (old mesh)
   NGX = 37   NGY = 37   NGZ = 37
  (NGX  =160   NGY  =160   NGZ  =160)
 gives a total of  50653 points
 initial charge density was supplied:
 charge density of overlapping atoms calculated
 number of electron  352.0000000 magnetization 
 keeping initial charge density in first step


--------------------------------------------------------------------------------------------------------


 Maximum index for augmentation-charges        50791 (set IRDMAX)


--------------------------------------------------------------------------------------------------------


 First call to EWALD:  gamma=   0.210
 Maximum number of real-space cells 3x 3x 3
 Maximum number of reciprocal cells 3x 3x 3

    FEWALD:  VPU time    0.00: CPU time    0.00


----------------------------------------- Iteration    1(   1)  ---------------------------------------


    POTLOK:  VPU time    0.37: CPU time    0.38
    SETDIJ:  VPU time    0.72: CPU time    0.73
    EDDAV :  VPU time 1846.55: CPU time 1850.53
    DOS   :  VPU time    0.00: CPU time   -0.00
    ------------------------------------------
      LOOP:  VPU time 1847.75: CPU time 1851.74

 eigenvalue-minimisations  : 84680
 total energy-change (2. order) : 0.4679673E+04  (-0.2074761E+05)
 number of electron  352.0000000 magnetization 
 augmentation part   352.0000000 magnetization 

 Free energy of the ion-electron system (eV)
  ---------------------------------------------------
  alpha Z        PSCENC =      3202.16027136
  Ewald energy   TEWEN  =    -30327.25737275
  -1/2 Hartree   DENC   =     -4357.02316370
  -V(xc)+E(xc)   XCENC  =       481.55610614
  PAW double counting   =     23920.39735419   -23172.13309131
  entropy T*S    EENTRO =        -0.00067521
  eigenvalues    EBANDS =      5298.18363128
  atomic energy  EATOM  =     29633.78979189
  ---------------------------------------------------
  free energy    TOTEN  =      4679.67285191 eV

  energy without entropy =     4679.67352711  energy(sigma->0) =     4679.67318951


--------------------------------------------------------------------------------------------------------




----------------------------------------- Iteration    1(   2)  ---------------------------------------


    EDDAV :  VPU time 1845.61: CPU time 1848.62
    DOS   :  VPU time    0.00: CPU time   -0.00
    ------------------------------------------
      LOOP:  VPU time 1845.71: CPU time 1848.73

 eigenvalue-minimisations  : 84680
 total energy-change (2. order) :-0.4517248E+04  (-0.4317908E+04)
 number of electron  352.0000000 magnetization 
 augmentation part   352.0000000 magnetization 

 Free energy of the ion-electron system (eV)
  ---------------------------------------------------
  alpha Z        PSCENC =      3202.16027136
  Ewald energy   TEWEN  =    -30327.25737275
  -1/2 Hartree   DENC   =     -4357.02316370
  -V(xc)+E(xc)   XCENC  =       481.55610614
  PAW double counting   =     23920.39735419   -23172.13309131
  entropy T*S    EENTRO =        -0.00042504
  eigenvalues    EBANDS =       780.93573457
  atomic energy  EATOM  =     29633.78979189
  ---------------------------------------------------
  free energy    TOTEN  =       162.42520536 eV

  energy without entropy =      162.42563040  energy(sigma->0) =      162.42541788


--------------------------------------------------------------------------------------------------------




----------------------------------------- Iteration    1(   3)  ---------------------------------------


    EDDAV :  VPU time 1988.90: CPU time 1992.15
    DOS   :  VPU time    0.00: CPU time   -0.00
    ------------------------------------------
      LOOP:  VPU time 1989.00: CPU time 1992.25

 eigenvalue-minimisations  : 93264
 total energy-change (2. order) :-0.2654788E+03  (-0.2431342E+03)
 number of electron  352.0000000 magnetization 
 augmentation part   352.0000000 magnetization 

 Free energy of the ion-electron system (eV)
  ---------------------------------------------------
  alpha Z        PSCENC =      3202.16027136
  Ewald energy   TEWEN  =    -30327.25737275
  -1/2 Hartree   DENC   =     -4357.02316370
  -V(xc)+E(xc)   XCENC  =       481.55610614
  PAW double counting   =     23920.39735419   -23172.13309131
  entropy T*S    EENTRO =        -0.00079927
  eigenvalues    EBANDS =       515.45726526
  atomic energy  EATOM  =     29633.78979189
  ---------------------------------------------------
  free energy    TOTEN  =      -103.05363818 eV

  energy without entropy =     -103.05283891  energy(sigma->0) =     -103.05323855


--------------------------------------------------------------------------------------------------------




----------------------------------------- Iteration    1(   4)  ---------------------------------------


    EDDAV :  VPU time 1946.45: CPU time 1949.64
    DOS   :  VPU time    0.00: CPU time   -0.00
    ------------------------------------------
      LOOP:  VPU time 1946.55: CPU time 1949.74

 eigenvalue-minimisations  : 90752
 total energy-change (2. order) :-0.9050026E+01  (-0.8911805E+01)
 number of electron  352.0000000 magnetization 
 augmentation part   352.0000000 magnetization 

 Free energy of the ion-electron system (eV)
  ---------------------------------------------------
  alpha Z        PSCENC =      3202.16027136
  Ewald energy   TEWEN  =    -30327.25737275
  -1/2 Hartree   DENC   =     -4357.02316370
  -V(xc)+E(xc)   XCENC  =       481.55610614
  PAW double counting   =     23920.39735419   -23172.13309131
  entropy T*S    EENTRO =        -0.00094301
  eigenvalues    EBANDS =       506.40738286
  atomic energy  EATOM  =     29633.78979189
  ---------------------------------------------------
  free energy    TOTEN  =      -112.10366432 eV

  energy without entropy =     -112.10272131  energy(sigma->0) =     -112.10319282


--------------------------------------------------------------------------------------------------------




----------------------------------------- Iteration    1(   5)  ---------------------------------------


    EDDAV :  VPU time 1958.42: CPU time 1962.13
    DOS   :  VPU time    0.00: CPU time   -0.00
    CHARGE:  VPU time   62.76: CPU time   62.86
    MIXING:  VPU time    0.01: CPU time    0.01
    ------------------------------------------
      LOOP:  VPU time 2021.29: CPU time 2025.11

 eigenvalue-minimisations  : 91392
 total energy-change (2. order) :-0.1520229E+00  (-0.1515789E+00)
 number of electron  352.0000006 magnetization 
 augmentation part   124.3182719 magnetization 

 Broyden mixing:
  rms(total) = 0.15950E+01    rms(broyden)= 0.15950E+01
  rms(prec ) = 0.24422E+01
  weight for this iteration     100.00

 Free energy of the ion-electron system (eV)
  ---------------------------------------------------
  alpha Z        PSCENC =      3202.16027136
  Ewald energy   TEWEN  =    -30327.25737275
  -1/2 Hartree   DENC   =     -4357.02316370
  -V(xc)+E(xc)   XCENC  =       481.55610614
  PAW double counting   =     23920.39735419   -23172.13309131
  entropy T*S    EENTRO =        -0.00095938
  eigenvalues    EBANDS =       506.25537636
  atomic energy  EATOM  =     29633.78979189
  ---------------------------------------------------
  free energy    TOTEN  =      -112.25568718 eV

  energy without entropy =     -112.25472781  energy(sigma->0) =     -112.25520749


--------------------------------------------------------------------------------------------------------




----------------------------------------- Iteration    1(   6)  ---------------------------------------


    POTLOK:  VPU time    0.40: CPU time    0.41
    SETDIJ:  VPU time    0.72: CPU time    0.73
    EDDAV :  VPU time 1924.85: CPU time 1927.98
    DOS   :  VPU time    0.00: CPU time   -0.00
    CHARGE:  VPU time   61.98: CPU time   62.08
    MIXING:  VPU time    0.01: CPU time    0.01
    ------------------------------------------
      LOOP:  VPU time 1988.06: CPU time 1991.30

 eigenvalue-minimisations  : 89544
 total energy-change (2. order) : 0.7299250E+01  (-0.2006537E+01)
 number of electron  352.0000006 magnetization 
 augmentation part   128.6173070 magnetization 

 Broyden mixing:
  rms(total) = 0.40781E+00    rms(broyden)= 0.40780E+00
  rms(prec ) = 0.60005E+00
  weight for this iteration     100.00

 eigenvalues of (default mixing * dielectric matrix)
  average eigenvalue GAMMA=   1.2021
  1.2021

 Free energy of the ion-electron system (eV)
  ---------------------------------------------------
  alpha Z        PSCENC =      3202.16027136
  Ewald energy   TEWEN  =    -30327.25737275
  -1/2 Hartree   DENC   =     -4109.89616566
  -V(xc)+E(xc)   XCENC  =       470.63304384
  PAW double counting   =     23628.85688512   -22915.07601398
  entropy T*S    EENTRO =        -0.00061575
  eigenvalues    EBANDS =       311.83373858
  atomic energy  EATOM  =     29633.78979189
  ---------------------------------------------------
  free energy    TOTEN  =      -104.95643735 eV

  energy without entropy =     -104.95582160  energy(sigma->0) =     -104.95612947


--------------------------------------------------------------------------------------------------------




----------------------------------------- Iteration    1(   7)  ---------------------------------------


    POTLOK:  VPU time    0.39: CPU time    0.39
    SETDIJ:  VPU time    0.73: CPU time    0.73
    EDDAV :  VPU time 1999.67: CPU time 2002.93
    DOS   :  VPU time    0.00: CPU time   -0.00
    CHARGE:  VPU time   62.77: CPU time   62.87
    MIXING:  VPU time    0.01: CPU time    0.01
    ------------------------------------------
      LOOP:  VPU time 2063.67: CPU time 2067.04

 eigenvalue-minimisations  : 93856
 total energy-change (2. order) : 0.3997835E+00  (-0.1193991E+00)
 number of electron  352.0000006 magnetization 
 augmentation part   129.5913239 magnetization 

 Broyden mixing:
  rms(total) = 0.17521E+00    rms(broyden)= 0.17521E+00
  rms(prec ) = 0.20675E+00
  weight for this iteration     100.00

 eigenvalues of (default mixing * dielectric matrix)
  average eigenvalue GAMMA=   1.8283
  1.1963  2.4603

 Free energy of the ion-electron system (eV)
  ---------------------------------------------------
  alpha Z        PSCENC =      3202.16027136
  Ewald energy   TEWEN  =    -30327.25737275
  -1/2 Hartree   DENC   =     -4040.53212776
  -V(xc)+E(xc)   XCENC  =       467.45558987
  PAW double counting   =     23657.88831135   -22964.71382074
  entropy T*S    EENTRO =        -0.00060135
  eigenvalues    EBANDS =       266.65330425
  atomic energy  EATOM  =     29633.78979189
[...]
     72       0.5772      2.00000
     73       0.5775      2.00000
     74       0.5775      2.00000
     75       0.5776      2.00000
     76       0.5777      2.00000
     77       0.5783      2.00000
     78       0.5785      2.00000
     79       0.5789      2.00000
     80       0.5789      2.00000
     81       0.6771      2.00000
     82       0.6771      2.00000
     83       0.6781      2.00000
     84       0.6786      2.00000
     85       0.6802      2.00000
     86       0.6809      2.00000
     87       0.6810      2.00000
     88       0.6810      2.00000
     89       0.6811      2.00000
     90       0.6811      2.00000
     91       0.6811      2.00000
     92       0.6811      2.00000
     93       0.6812      2.00000
     94       0.6813      2.00000
     95       0.6813      2.00000
     96       0.6813      2.00000
     97       0.6814      2.00000
     98       0.6814      2.00000
     99       0.6814      2.00000
    100       0.6822      2.00000
    101       0.6839      2.00000
    102       0.6843      2.00000
    103       0.6854      2.00000
    104       0.6854      2.00000
    105       1.3495      2.00000
    106       1.3510      2.00000
    107       1.3510      2.00000
    108       1.3533      2.00000
    109       1.3535      2.00000
    110       1.3536      2.00000
    111       1.3536      2.00000
    112       1.3539      2.00000
    113       1.3540      2.00000
    114       1.3540      2.00000
    115       1.3540      2.00000
    116       1.3541      2.00000
    117       1.3542      2.00000
    118       1.3542      2.00000
    119       1.3542      2.00000
    120       1.3542      2.00000
    121       1.3543      2.00000
    122       1.3546      2.00000
    123       1.3546      2.00000
    124       1.3547      2.00000
    125       1.3549      2.00000
    126       1.3572      2.00000
    127       1.3572      2.00000
    128       1.3587      2.00000
    129       1.7683      2.00000
    130       1.7698      2.00000
    131       1.7699      2.00000
    132       1.7699      2.00000
    133       1.7710      2.00000
    134       1.7710      2.00000
    135       1.7713      2.00000
    136       1.7714      2.00000
    137       1.7715      2.00000
    138       1.7716      2.00000
    139       1.7718      2.00000
    140       1.7718      2.00000
    141       1.7730      2.00000
    142       1.7730      2.00000
    143       1.7731      2.00000
    144       1.7746      2.00000
    145       2.7117      2.00000
    146       2.7117      2.00000
    147       2.7120      2.00000
    148       2.7122      2.00000
    149       2.7123      2.00000
    150       2.7123      2.00000
    151       2.7123      2.00000
    152       2.7123      2.00000
    153       2.7124      2.00000
    154       2.7125      2.00000
    155       2.7125      2.00000
    156       2.7125      2.00000
    157       2.7127      2.00000
    158       2.7128      2.00000
    159       2.7128      2.00000
    160       2.7128      2.00000
    161       2.7129      2.00000
    162       2.7130      2.00000
    163       2.7130      2.00000
    164       2.7130      2.00000
    165       2.7130      2.00000
    166       2.7133      2.00000
    167       2.7135      2.00000
    168       2.7135      2.00000
    169       5.4983      0.00000
    170       5.5013      0.00000
    171       5.5013      0.00000
    172       5.5031      0.00000
    173       5.5036      0.00000
    174       5.5039      0.00000
    175       5.5039      0.00000
    176       5.5040      0.00000
    177       5.5040      0.00000
    178       5.5040      0.00000
    179       5.5040      0.00000
    180       5.5040      0.00000
    181       5.5044      0.00000
    182       5.5044      0.00000
    183       5.5044      0.00000
    184       5.5044      0.00000
    185       5.5044      0.00000
    186       5.5045      0.00000
    187       5.5045      0.00000
    188       5.5047      0.00000
    189       5.5053      0.00000
    190       5.5071      0.00000
    191       5.5071      0.00000
    192       5.5101      0.00000
    193       9.7462      0.00000
    194       9.7462      0.00000
    195       9.7494      0.00000
    196       9.7495      0.00000
    197       9.7502      0.00000
    198       9.7507      0.00000
    199       9.7507      0.00000
    200       9.7513      0.00000
    201       9.7513      0.00000
    202       9.7513      0.00000
    203       9.7514      0.00000
    204       9.7514      0.00000
    205       9.7515      0.00000
    206       9.7515      0.00000
    207       9.7515      0.00000
    208       9.7515      0.00000
    209       9.7516      0.00000
    210       9.7522      0.00000
    211       9.7522      0.00000
    212       9.7526      0.00000
    213       9.7533      0.00000
    214       9.7534      0.00000
    215       9.7567      0.00000
    216       9.7567      0.00000


--------------------------------------------------------------------------------------------------------


 soft charge-density along one line, spin component           1
         0         1         2         3         4         5         6         7         8         9
 total charge-density along one line
 
 pseudopotential strength for first ion, spin component:           1
-10.165  -0.000  -0.000  -0.000  -0.000  -0.051   0.000   0.000
 -0.000 -10.165   0.000  -0.000   0.000   0.000  -0.051  -0.000
 -0.000   0.000 -10.151   0.000  -0.000   0.000  -0.000  -0.053
 -0.000  -0.000   0.000 -10.165  -0.000   0.000   0.000  -0.000
 -0.000   0.000  -0.000  -0.000 -10.151   0.000  -0.000   0.000
 -0.051   0.000   0.000   0.000   0.000   0.277  -0.000  -0.000
  0.000  -0.051  -0.000   0.000  -0.000  -0.000   0.277   0.000
  0.000  -0.000  -0.053  -0.000   0.000  -0.000   0.000   0.277
  0.000   0.000  -0.000  -0.051   0.000  -0.000   0.000   0.000
  0.000  -0.000   0.000   0.000  -0.053  -0.000   0.000  -0.000
 -0.000   0.000   0.000   0.000  -0.000  -0.000   0.000  -0.000
  0.000  -0.000  -0.000  -0.000   0.000  -0.000   0.000   0.000
 -0.000  -0.000   0.000  -0.000  -0.000   0.000   0.000  -0.000
 -0.000  -0.000   0.000  -0.000  -0.000   0.000   0.000   0.000
 -0.000  -0.000   0.000  -0.000  -0.000   0.000   0.000  -0.000
  0.000   0.000  -0.000   0.000   0.000  -0.000  -0.000   0.000
  0.000  -0.000  -0.000   0.000   0.000  -0.000  -0.000   0.000
  0.000   0.000  -0.000   0.000   0.000  -0.000  -0.000   0.000
 total augmentation occupancy for first ion, spin component:           1
  1.902  -0.000  -0.003  -0.001  -0.001  -0.051   0.000   0.001   0.001   0.001   0.006   0.000   0.000   0.000  -0.000  -0.000
 -0.000   1.909  -0.001  -0.002  -0.003   0.000  -0.058   0.002   0.001   0.001   0.005   0.000   0.000   0.000  -0.000  -0.000
 -0.003  -0.001   1.961   0.000  -0.004   0.001   0.002  -0.101   0.001   0.003   0.014   0.004   0.000  -0.000  -0.000  -0.000
 -0.001  -0.002   0.000   1.916   0.001   0.001   0.001   0.001  -0.064   0.001   0.004  -0.000   0.000   0.000  -0.000  -0.000
 -0.001  -0.003  -0.004   0.001   1.948   0.001   0.001   0.003   0.001  -0.091   0.008   0.002   0.000   0.000   0.000  -0.000
 -0.051   0.000   0.001   0.001   0.001   0.160   0.000   0.002  -0.000  -0.000  -0.002   0.001   0.002  -0.000   0.000  -0.000
  0.000  -0.058   0.002   0.001   0.001   0.000   0.165  -0.003  -0.001   0.001  -0.001   0.002  -0.000  -0.000   0.000   0.000
  0.001   0.002  -0.101   0.001   0.003   0.002  -0.003   0.133  -0.002  -0.001  -0.009  -0.002   0.000   0.000  -0.000   0.000
  0.001   0.001   0.001  -0.064   0.001  -0.000  -0.001  -0.002   0.171  -0.003  -0.000   0.002  -0.000   0.002   0.000   0.000
  0.001   0.001   0.003   0.001  -0.091  -0.000   0.001  -0.001  -0.003   0.128  -0.005  -0.001  -0.000  -0.000   0.001   0.000
  0.006   0.005   0.014   0.004   0.008  -0.002  -0.001  -0.009  -0.000  -0.005   1.034  -0.331   0.000  -0.000   0.002   0.000
  0.000   0.000   0.004  -0.000   0.002   0.001   0.002  -0.002   0.002  -0.001  -0.331   0.200   0.000   0.000  -0.001  -0.000
  0.000   0.000   0.000   0.000   0.000   0.002  -0.000   0.000  -0.000  -0.000   0.000   0.000   0.133   0.001   0.002  -0.009
  0.000   0.000  -0.000   0.000   0.000  -0.000  -0.000   0.000   0.002  -0.000  -0.000   0.000   0.001   0.133  -0.000  -0.000
 -0.000  -0.000  -0.000  -0.000   0.000   0.000   0.000  -0.000   0.000   0.001   0.002  -0.001   0.002  -0.000   0.133  -0.000
 -0.000  -0.000  -0.000  -0.000  -0.000  -0.000   0.000   0.000   0.000   0.000   0.000  -0.000  -0.009  -0.000  -0.000   0.001
 -0.000  -0.000   0.000  -0.000   0.000   0.000   0.000  -0.000  -0.000  -0.000   0.000   0.000  -0.000  -0.010  -0.000   0.000
  0.000   0.000   0.000   0.000  -0.000  -0.000  -0.000   0.000  -0.000  -0.000  -0.000   0.000  -0.000  -0.000  -0.010   0.000


------------------------ aborting loop because EDIFF is reached ----------------------------------------




--------------------------------------------------------------------------------------------------------


    CHARGE:  VPU time   62.51: CPU time   62.63
    FORLOC:  VPU time    0.06: CPU time    0.06
    FORNL :  VPU time  374.30: CPU time  374.93
    STRESS:  VPU time 2220.98: CPU time 2225.46
    FORCOR:  VPU time    0.41: CPU time    0.41
    FORHAR:  VPU time    0.13: CPU time    0.13
    MIXING:  VPU time    0.01: CPU time    0.01


--------------------------------------------------------------------------------------------------------



  FREE ENERGIE OF THE ION-ELECTRON SYSTEM (eV)
  ---------------------------------------------------
  free  energy   TOTEN  =      -104.478613 eV

  energy  without entropy=     -104.478013  energy(sigma->0) =     -104.478313
 

  FORCE on cell =-STRESS in cart. coord.  units (eV/reduce length):
  Direction    X        Y        Z        XY       YZ       ZX
  --------------------------------------------------------------------------------------
  Alpha Z   3202.16   3202.16   3202.16
  Ewald   -10109.15 -10109.12 -10109.12     -0.00      0.00      0.00
  Hartree   1338.17   1338.19   1338.19     -0.00     -0.00     -0.00
  E(xc)    -1583.16  -1583.16  -1583.16     -0.00     -0.00      0.00
  Local     2497.51   2497.46   2497.46     -0.00      0.00      0.00
  n-local  -1624.38  -1630.89  -1617.87      3.92      3.14      2.37
  augment   1375.77   1375.77   1375.77     -0.00     -0.00     -0.00
  Kinetic   4889.21   4882.80   4895.62      0.75     -0.35     -1.45
  -------------------------------------------------------------------------------------
  Total      -13.86    -13.86    -13.86     -0.00      0.00      0.00
  in kB      -37.08    -37.08    -37.08     -0.00      0.00      0.00
  external pressure =      -37.08 kB  Pullay stress =        0.00 kB


 VOLUME and BASIS-vectors are now :
 -----------------------------------------------------------------------------
  energy-cutoff  :      750.00
  volume of cell :      598.90
      direct lattice vectors                 reciprocal lattice vectors
     8.429160843  0.000000000  0.000000000     0.118635772  0.000000000  0.000000000
     0.000000000  8.429160843  0.000000000     0.000000000  0.118635772  0.000000000
     0.000000000  0.000000000  8.429160843     0.000000000  0.000000000  0.118635772

  length of vectors
     8.429160843  8.429160843  8.429160843     0.118635772  0.118635772  0.118635772


 FORCES acting on ions
    electron-ion (+dipol)            ewald-force                    non-local-force                 convergence-correction
 -----------------------------------------------------------------------------------------------
   0.377E+01 0.594E-13 0.142E-07   -.378E+01 -.142E-13 0.142E-13   -.365E-01 -.918E-19 -.491E-19   -.252E-04 0.931E-13 -.127E-12
   -.986E+00 0.105E-12 -.144E-07   0.997E+00 -.142E-13 -.853E-13   -.682E-02 -.776E-20 -.267E-20   0.294E-05 0.653E-13 -.199E-12
   0.314E+00 -.637E-13 -.627E-11   -.316E+00 -.355E-13 -.426E-13   0.123E-02 -.341E-20 -.364E-20   -.961E-05 -.200E-12 -.684E-13
   -.254E+00 0.125E-11 -.651E-11   0.248E+00 -.142E-13 -.711E-13   0.361E-02 0.732E-21 -.470E-20   0.919E-05 -.180E-12 -.920E-13
   0.314E+00 0.531E-13 -.893E-11   -.316E+00 -.426E-13 0.355E-14   0.123E-02 0.898E-21 -.644E-20   -.927E-05 0.987E-13 0.267E-13
   -.254E+00 0.474E-13 -.780E-11   0.248E+00 -.142E-13 0.853E-13   0.361E-02 0.312E-20 -.132E-19   0.911E-05 0.713E-13 0.940E-13
   0.132E+00 -.563E-13 -.412E-11   -.130E+00 -.391E-13 0.426E-13   -.136E-02 -.461E-20 0.134E-19   -.129E-04 -.208E-12 -.343E-13
   -.121E+00 -.466E-11 -.284E-11   0.122E+00 -.426E-13 0.711E-13   -.538E-03 -.161E-20 0.280E-20   0.135E-04 -.187E-12 -.187E-13
   -.477E+00 -.914E+00 0.208E-11   0.479E+00 0.921E+00 -.284E-13   0.422E-02 0.155E-02 0.145E-20   0.681E-05 0.141E-05 -.163E-12
   -.480E+00 0.907E+00 -.418E-11   0.482E+00 -.913E+00 -.284E-13   0.411E-02 -.148E-02 0.257E-20   0.263E-05 -.330E-05 -.111E-12
   -.477E+00 0.914E+00 0.202E-11   0.479E+00 -.921E+00 -.568E-13   0.422E-02 -.155E-02 -.106E-19   0.681E-05 -.141E-05 -.117E-12
   -.480E+00 -.907E+00 0.784E-11   0.482E+00 0.913E+00 -.568E-13   0.411E-02 0.148E-02 -.127E-19   0.263E-05 0.330E-05 -.860E-13
   -.138E-01 -.756E-01 0.301E-11   0.146E-01 0.757E-01 0.284E-13   -.601E-03 -.297E-04 -.228E-20   0.859E-07 -.173E-05 0.597E-13
   -.153E-01 0.755E-01 0.415E-11   0.160E-01 -.756E-01 0.284E-13   -.604E-03 0.268E-05 0.207E-20   -.134E-05 0.224E-05 0.682E-14
   -.138E-01 0.756E-01 0.309E-11   0.146E-01 -.757E-01 0.568E-13   -.601E-03 0.297E-04 -.480E-21   0.859E-07 0.173E-05 0.195E-13
   -.153E-01 -.755E-01 -.801E-11   0.160E-01 0.756E-01 0.568E-13   -.604E-03 -.268E-05 -.230E-21   -.134E-05 -.224E-05 -.169E-13
   -.477E+00 0.540E-13 -.914E+00   0.479E+00 -.426E-13 0.921E+00   0.422E-02 0.103E-20 0.155E-02   0.674E-05 0.423E-13 0.148E-05
   -.480E+00 0.552E-13 0.907E+00   0.482E+00 0.142E-13 -.913E+00   0.411E-02 -.548E-20 -.148E-02   0.256E-05 0.803E-13 -.337E-05
   -.138E-01 0.608E-12 -.756E-01   0.146E-01 -.178E-13 0.757E-01   -.601E-03 0.260E-21 -.297E-04   0.106E-06 -.160E-12 -.167E-05
   -.153E-01 0.745E-11 0.755E-01   0.160E-01 -.178E-13 -.756E-01   -.604E-03 0.937E-21 0.268E-05   -.132E-05 -.194E-12 0.217E-05
   -.477E+00 0.748E-13 0.914E+00   0.479E+00 -.568E-13 -.921E+00   0.422E-02 -.873E-20 -.155E-02   0.674E-05 0.862E-13 -.148E-05
   -.480E+00 0.557E-13 -.907E+00   0.482E+00 0.000E+00 0.913E+00   0.411E-02 0.603E-21 0.148E-02   0.256E-05 0.105E-12 0.337E-05
   -.138E-01 0.711E-12 0.756E-01   0.146E-01 -.284E-13 -.757E-01   -.601E-03 0.592E-21 0.297E-04   0.106E-06 -.203E-12 0.167E-05
   -.153E-01 -.481E-11 -.755E-01   0.160E-01 0.000E+00 0.756E-01   -.604E-03 0.166E-21 -.268E-05   -.132E-05 -.218E-12 -.217E-05
   0.590E+00 0.222E-02 0.222E-02   -.596E+00 -.222E-02 -.222E-02   0.299E-02 -.495E-05 -.495E-05   -.108E-04 0.401E-06 0.400E-06
   -.333E+00 -.635E-03 -.635E-03   0.335E+00 0.666E-03 0.666E-03   -.124E-02 -.226E-04 -.226E-04   0.816E-05 -.975E-06 -.975E-06
   0.590E+00 -.222E-02 0.222E-02   -.596E+00 0.222E-02 -.222E-02   0.299E-02 0.495E-05 -.495E-05   -.108E-04 -.401E-06 0.400E-06
   -.333E+00 0.635E-03 -.635E-03   0.335E+00 -.666E-03 0.666E-03   -.124E-02 0.226E-04 -.226E-04   0.816E-05 0.975E-06 -.975E-06
   0.590E+00 0.222E-02 -.222E-02   -.596E+00 -.222E-02 0.222E-02   0.299E-02 -.495E-05 0.495E-05   -.108E-04 0.401E-06 -.400E-06
   -.333E+00 -.635E-03 0.635E-03   0.335E+00 0.666E-03 -.666E-03   -.124E-02 -.226E-04 0.226E-04   0.816E-05 -.975E-06 0.975E-06
   0.590E+00 -.222E-02 -.222E-02   -.596E+00 0.222E-02 0.222E-02   0.299E-02 0.495E-05 0.495E-05   -.108E-04 -.401E-06 -.400E-06
   -.333E+00 0.635E-03 0.635E-03   0.335E+00 -.666E-03 -.666E-03   -.124E-02 0.226E-04 0.226E-04   0.816E-05 0.975E-06 0.975E-06
 -----------------------------------------------------------------------------------------------
   -.247E-05 0.420E-11 -.608E-10   0.788E-14 -.145E-12 0.141E-13   0.384E-05 0.190E-18 0.779E-19   -.285E-06 -.524E-12 -.357E-12
 
 
 POSITION                                       TOTAL-FORCE (eV/Angst)
 -----------------------------------------------------------------------------------
      0.01000      0.00000      0.00000        -0.042227     -0.000000     -0.000000
      4.21458      0.00000      0.00000         0.004412      0.000000     -0.000000
      0.00000      4.21458      0.00000        -0.000672     -0.000000      0.000000
      4.21458      4.21458      0.00000        -0.002046     -0.000000      0.000000
      0.00000      0.00000      4.21458        -0.000672      0.000000     -0.000000
      4.21458      0.00000      4.21458        -0.002046     -0.000000     -0.000000
      0.00000      4.21458      4.21458         0.000282      0.000000      0.000000
      4.21458      4.21458      4.21458        -0.000108      0.000000     -0.000000
      2.10729      2.10729      0.00000         0.006351      0.008134     -0.000000
      6.32187      2.10729      0.00000         0.006123     -0.007812     -0.000000
      2.10729      6.32187      0.00000         0.006351     -0.008134      0.000000
      6.32187      6.32187      0.00000         0.006123      0.007812      0.000000
      2.10729      2.10729      4.21458         0.000186      0.000078      0.000000
      6.32187      2.10729      4.21458         0.000184     -0.000067     -0.000000
      2.10729      6.32187      4.21458         0.000186     -0.000078      0.000000
      6.32187      6.32187      4.21458         0.000184      0.000067     -0.000000
      2.10729      0.00000      2.10729         0.006351     -0.000000      0.008134
      6.32187      0.00000      2.10729         0.006123     -0.000000     -0.007812
      2.10729      4.21458      2.10729         0.000186     -0.000000      0.000078
      6.32187      4.21458      2.10729         0.000184     -0.000000     -0.000067
      2.10729      0.00000      6.32187         0.006351     -0.000000     -0.008134
      6.32187      0.00000      6.32187         0.006123      0.000000      0.007812
      2.10729      4.21458      6.32187         0.000186     -0.000000     -0.000078
      6.32187      4.21458      6.32187         0.000184     -0.000000      0.000067
      0.00000      2.10729      2.10729        -0.002895     -0.000003     -0.000003
      4.21458      2.10729      2.10729         0.000820      0.000007      0.000007
      0.00000      6.32187      2.10729        -0.002895      0.000003     -0.000003
      4.21458      6.32187      2.10729         0.000820     -0.000007      0.000007
      0.00000      2.10729      6.32187        -0.002895     -0.000003      0.000003
      4.21458      2.10729      6.32187         0.000820      0.000007     -0.000007
      0.00000      6.32187      6.32187        -0.002895      0.000003      0.000003
      4.21458      6.32187      6.32187         0.000820     -0.000007     -0.000007
 -----------------------------------------------------------------------------------
    total drift:                                0.000001      0.000000     -0.000000


--------------------------------------------------------------------------------------------------------



 mean value of Nose-termostat <S>:     1.000 mean value of <T> :     0.000
 mean temperature <T/S>/<1/S>  :     0.000

     LOOP+:  VPU time32185.67: CPU time32244.12
  
  
 General timing and accounting informations for this job:
 ========================================================
  
                  Total CPU time used (sec):    32505.225
                            User time (sec):    32089.535
                          System time (sec):      415.691
                         Elapsed time (sec):    32564.266
  
                   Maximum memory used (kb):     8569780.
                   Average memory used (kb):           0.
  
                          Minor page faults:      1160789
                          Major page faults:            0
                 Voluntary context switches:         1041
