 running on    4 nodes
 distr:  one band on    1 nodes,    4 groups
 vasp.4.6.28 25Jul05 complex 
 POSCAR found :  1 types and   32 ions

 ----------------------------------------------------------------------------- 
|                                                                             |
|  ADVICE TO THIS USER RUNNING 'VASP/VAMP'   (HEAR YOUR MASTER'S VOICE ...):  |
|                                                                             |
|      You have a (more or less) 'large supercell' and for larger cells       |
|      it might be more efficient to use real space projection operators      |
|      So try LREAL= Auto  in the INCAR   file.                               |
|      Mind: If you want to do an extremely accurate calculations keep the    |
|      reciprocal projection scheme          (i.e. LREAL=.FALSE.)             |
|                                                                             |
 ----------------------------------------------------------------------------- 

 LDA part: xc-table for Pade appr. of Perdew
 POSCAR, INCAR and KPOINTS ok, starting setup
 FFT: planning ...           1
 reading WAVECAR
 entering main loop
       N       E                     dE             d eps       ncg     rms          rms(c)
DAV:   1     0.453270267246E+04    0.45327E+04   -0.21690E+05 83168   0.236E+03
DAV:   2     0.153209290186E+03   -0.43795E+04   -0.41949E+04 83104   0.579E+02
DAV:   3    -0.891794706571E+02   -0.24239E+03   -0.23048E+03 86316   0.165E+02
DAV:   4    -0.941775023918E+02   -0.49980E+01   -0.49663E+01 89440   0.225E+01
DAV:   5    -0.942035873383E+02   -0.26085E-01   -0.26059E-01 88332   0.134E+00    0.176E+01
DAV:   6    -0.863377551797E+02    0.78658E+01   -0.25422E+01 87952   0.202E+01    0.350E+00
DAV:   7    -0.859621261091E+02    0.37563E+00   -0.65997E-01 87832   0.223E+00    0.151E+00
DAV:   8    -0.858228777858E+02    0.13925E+00   -0.43814E-02 86900   0.833E-01    0.136E-01
DAV:   9    -0.858235664808E+02   -0.68870E-03   -0.28390E-03 91876   0.177E-01    0.825E-02
DAV:  10    -0.858234072148E+02    0.15927E-03   -0.22598E-04 86752   0.505E-02    0.951E-03
DAV:  11    -0.858233999033E+02    0.73115E-05   -0.49766E-06 89236   0.793E-03    0.319E-03
DAV:  12    -0.858233974159E+02    0.24874E-05   -0.36872E-07 88376   0.278E-03    0.109E-03
DAV:  13    -0.858233949041E+02    0.25118E-05   -0.74307E-08 83196   0.844E-04    0.103E-04
DAV:  14    -0.858233944537E+02    0.45043E-06   -0.30664E-09 47052   0.250E-04    0.473E-05
DAV:  15    -0.858233942954E+02    0.15831E-06   -0.46563E-10 46252   0.102E-04    0.203E-05
DAV:  16    -0.858233942540E+02    0.41393E-07    0.27241E-11 45388   0.389E-05    0.126E-05
DAV:  17    -0.858233942105E+02    0.43547E-07    0.65489E-11 45088   0.182E-05    0.167E-05
DAV:  18    -0.858233942026E+02    0.78071E-08    0.80424E-11 44744   0.114E-05
   1 F= -.85823394E+02 E0= -.85822910E+02  d E =-.969199E-03
