  32  32   0   0
  0.1546680E+02  0.7910127E-09  0.7910127E-09  0.7910127E-09  0.5000000E-15
  1.000000000000000E-004
  CAR 
 unknown system                          
     14.41794640     -4.94548134  301      4.50325915      1.00000000
     -4.945  0.0000E+00  0.0000E+00
     -4.881  0.0000E+00  0.0000E+00
     -4.816  0.0000E+00  0.0000E+00
     -4.752  0.0000E+00  0.0000E+00
     -4.687  0.0000E+00  0.0000E+00
     -4.623  0.0000E+00  0.0000E+00
     -4.558  0.0000E+00  0.0000E+00
     -4.494  0.0000E+00  0.0000E+00
     -4.429  0.0000E+00  0.0000E+00
     -4.365  0.0000E+00  0.0000E+00
     -4.300  0.0000E+00  0.0000E+00
     -4.235  0.0000E+00  0.0000E+00
     -4.171  0.0000E+00  0.0000E+00
     -4.106  0.5644E-10  0.3643E-11
     -4.042  0.9556E-01  0.6168E-02
     -3.977  0.5148E+00  0.3939E-01
     -3.913  0.9009E+00  0.9754E-01
     -3.848  0.1392E+01  0.1874E+00
     -3.784  0.1525E+01  0.2859E+00
     -3.719  0.1281E+01  0.3686E+00
     -3.655  0.2015E+01  0.4990E+00
     -3.590  0.1145E+01  0.5729E+00
     -3.525  0.2374E+01  0.7264E+00
     -3.461  0.2118E+01  0.8631E+00
     -3.396  0.2854E+01  0.1047E+01
     -3.332  0.2093E+01  0.1182E+01
     -3.267  0.3420E+01  0.1403E+01
     -3.203  0.2681E+01  0.1576E+01
     -3.138  0.2628E+01  0.1746E+01
     -3.074  0.4323E+01  0.2025E+01
     -3.009  0.2630E+01  0.2195E+01
     -2.945  0.4111E+01  0.2460E+01
     -2.880  0.4456E+01  0.2749E+01
     -2.816  0.3583E+01  0.2981E+01
     -2.751  0.5301E+01  0.3323E+01
     -2.686  0.5260E+01  0.3663E+01
     -2.622  0.1034E+02  0.4330E+01
     -2.557  0.2239E+02  0.5776E+01
     -2.493  0.3296E+02  0.7904E+01
     -2.428  0.4883E+02  0.1106E+02
     -2.364  0.5437E+02  0.1457E+02
     -2.299  0.6257E+02  0.1861E+02
     -2.235  0.6623E+02  0.2289E+02
     -2.170  0.7507E+02  0.2773E+02
     -2.106  0.9343E+02  0.3377E+02
     -2.041  0.1101E+03  0.4087E+02
     -1.976  0.1061E+03  0.4773E+02
     -1.912  0.9241E+02  0.5370E+02
     -1.847  0.8287E+02  0.5905E+02
     -1.783  0.8162E+02  0.6432E+02
     -1.718  0.6816E+02  0.6872E+02
     -1.654  0.7643E+02  0.7366E+02
     -1.589  0.5182E+02  0.7701E+02
     -1.525  0.5723E+02  0.8070E+02
     -1.460  0.5397E+02  0.8419E+02
     -1.396  0.6430E+02  0.8834E+02
     -1.331  0.6555E+02  0.9257E+02
     -1.266  0.6776E+02  0.9695E+02
     -1.202  0.6914E+02  0.1014E+03
     -1.137  0.7510E+02  0.1063E+03
     -1.073  0.6838E+02  0.1107E+03
     -1.008  0.7105E+02  0.1153E+03
     -0.944  0.6427E+02  0.1194E+03
     -0.879  0.7194E+02  0.1241E+03
     -0.815  0.7195E+02  0.1287E+03
     -0.750  0.7053E+02  0.1333E+03
     -0.686  0.7912E+02  0.1384E+03
     -0.621  0.9940E+02  0.1448E+03
     -0.556  0.1032E+03  0.1515E+03
     -0.492  0.1127E+03  0.1587E+03
     -0.427  0.1535E+03  0.1686E+03
     -0.363  0.9645E+02  0.1749E+03
     -0.298  0.9428E+02  0.1810E+03
     -0.234  0.6996E+02  0.1855E+03
     -0.169  0.6226E+02  0.1895E+03
     -0.105  0.6979E+02  0.1940E+03
     -0.040  0.7710E+02  0.1990E+03
      0.024  0.6677E+02  0.2033E+03
      0.089  0.6573E+02  0.2075E+03
      0.154  0.6858E+02  0.2120E+03
      0.218  0.8533E+02  0.2175E+03
      0.283  0.7908E+02  0.2226E+03
      0.347  0.8637E+02  0.2282E+03
      0.412  0.8406E+02  0.2336E+03
      0.476  0.8747E+02  0.2392E+03
      0.541  0.8722E+02  0.2449E+03
      0.605  0.7671E+02  0.2498E+03
      0.670  0.7786E+02  0.2549E+03
      0.734  0.6965E+02  0.2594E+03
      0.799  0.7140E+02  0.2640E+03
      0.864  0.6032E+02  0.2679E+03
      0.928  0.7526E+02  0.2727E+03
      0.993  0.6294E+02  0.2768E+03
      1.057  0.7521E+02  0.2816E+03
      1.122  0.6849E+02  0.2861E+03
      1.186  0.7856E+02  0.2911E+03
      1.251  0.9061E+02  0.2970E+03
      1.315  0.9711E+02  0.3033E+03
      1.380  0.1330E+03  0.3118E+03
      1.444  0.1274E+03  0.3201E+03
      1.509  0.6765E+02  0.3244E+03
      1.574  0.5128E+02  0.3278E+03
      1.638  0.5110E+02  0.3311E+03
      1.703  0.1735E+02  0.3322E+03
      1.767  0.3679E+01  0.3324E+03
      1.832  0.5426E+01  0.3328E+03
      1.896  0.7066E+01  0.3332E+03
      1.961  0.9658E+01  0.3338E+03
      2.025  0.4778E+01  0.3342E+03
      2.090  0.6731E+01  0.3346E+03
      2.154  0.4696E+01  0.3349E+03
      2.219  0.1065E+02  0.3356E+03
      2.284  0.5579E+01  0.3359E+03
      2.348  0.4527E+01  0.3362E+03
      2.413  0.6637E+01  0.3367E+03
      2.477  0.6460E+01  0.3371E+03
      2.542  0.9207E+01  0.3377E+03
      2.606  0.5665E+01  0.3380E+03
      2.671  0.4669E+01  0.3383E+03
      2.735  0.6635E+01  0.3388E+03
      2.800  0.6837E+01  0.3392E+03
      2.864  0.1030E+02  0.3399E+03
      2.929  0.6186E+01  0.3403E+03
      2.994  0.6037E+01  0.3407E+03
      3.058  0.4177E+01  0.3409E+03
      3.123  0.6489E+01  0.3414E+03
      3.187  0.9188E+01  0.3419E+03
      3.252  0.8109E+01  0.3425E+03
      3.316  0.7374E+01  0.3429E+03
      3.381  0.7090E+01  0.3434E+03
      3.445  0.2212E+01  0.3435E+03
      3.510  0.8897E+01  0.3441E+03
      3.574  0.9001E+01  0.3447E+03
      3.639  0.1088E+02  0.3454E+03
      3.704  0.6483E+01  0.3458E+03
      3.768  0.5969E+01  0.3462E+03
      3.833  0.6202E+01  0.3466E+03
      3.897  0.5022E+01  0.3469E+03
      3.962  0.9086E+01  0.3475E+03
      4.026  0.1247E+02  0.3483E+03
      4.091  0.8172E+01  0.3489E+03
      4.155  0.5992E+01  0.3492E+03
      4.220  0.8297E+01  0.3498E+03
      4.284  0.5636E+01  0.3501E+03
      4.349  0.6346E+01  0.3506E+03
      4.414  0.8858E+01  0.3511E+03
      4.478  0.9259E+01  0.3517E+03
      4.543  0.1239E+02  0.3525E+03
      4.607  0.4642E+01  0.3528E+03
      4.672  0.6007E+01  0.3532E+03
      4.736  0.8661E+01  0.3538E+03
      4.801  0.7431E+01  0.3542E+03
      4.865  0.7054E+01  0.3547E+03
      4.930  0.1124E+02  0.3554E+03
      4.994  0.8869E+01  0.3560E+03
      5.059  0.6702E+01  0.3564E+03
      5.124  0.6078E+01  0.3568E+03
      5.188  0.7714E+01  0.3573E+03
      5.253  0.4987E+01  0.3576E+03
      5.317  0.9267E+01  0.3582E+03
      5.382  0.1121E+02  0.3590E+03
      5.446  0.9214E+01  0.3596E+03
      5.511  0.5770E+01  0.3599E+03
      5.575  0.6382E+01  0.3604E+03
      5.640  0.9337E+01  0.3610E+03
      5.704  0.5507E+01  0.3613E+03
      5.769  0.6787E+01  0.3617E+03
      5.833  0.8808E+01  0.3623E+03
      5.898  0.1024E+02  0.3630E+03
      5.963  0.8181E+01  0.3635E+03
      6.027  0.1000E+02  0.3642E+03
      6.092  0.3700E+01  0.3644E+03
      6.156  0.9137E+01  0.3650E+03
      6.221  0.5969E+01  0.3654E+03
      6.285  0.7702E+01  0.3659E+03
      6.350  0.9876E+01  0.3665E+03
      6.414  0.8822E+01  0.3671E+03
      6.479  0.7737E+01  0.3676E+03
      6.543  0.7221E+01  0.3680E+03
      6.608  0.8403E+01  0.3686E+03
      6.673  0.4841E+01  0.3689E+03
      6.737  0.5549E+01  0.3693E+03
      6.802  0.7183E+01  0.3697E+03
      6.866  0.7858E+01  0.3702E+03
      6.931  0.9295E+01  0.3708E+03
      6.995  0.6111E+01  0.3712E+03
      7.060  0.9358E+01  0.3718E+03
      7.124  0.4995E+01  0.3721E+03
      7.189  0.5464E+01  0.3725E+03
      7.253  0.7642E+01  0.3730E+03
      7.318  0.5511E+01  0.3733E+03
      7.383  0.6087E+01  0.3737E+03
      7.447  0.5337E+01  0.3741E+03
      7.512  0.8620E+01  0.3746E+03
      7.576  0.6389E+01  0.3751E+03
      7.641  0.6483E+01  0.3755E+03
      7.705  0.6536E+01  0.3759E+03
      7.770  0.4303E+01  0.3762E+03
      7.834  0.2634E+01  0.3763E+03
      7.899  0.8605E+01  0.3769E+03
      7.963  0.5718E+01  0.3773E+03
      8.028  0.4048E+01  0.3775E+03
      8.093  0.7681E+01  0.3780E+03
      8.157  0.4800E+01  0.3783E+03
      8.222  0.3985E+01  0.3786E+03
      8.286  0.4529E+01  0.3789E+03
      8.351  0.5399E+01  0.3792E+03
      8.415  0.2689E+01  0.3794E+03
      8.480  0.3620E+01  0.3796E+03
      8.544  0.7119E+01  0.3801E+03
      8.609  0.5123E+01  0.3804E+03
      8.673  0.3797E+01  0.3807E+03
      8.738  0.9922E+01  0.3813E+03
      8.803  0.1111E+02  0.3820E+03
      8.867  0.9095E+01  0.3826E+03
      8.932  0.9462E+01  0.3832E+03
      8.996  0.1298E+02  0.3841E+03
      9.061  0.1030E+02  0.3847E+03
      9.125  0.1003E+02  0.3854E+03
      9.190  0.1110E+02  0.3861E+03
      9.254  0.1345E+02  0.3870E+03
      9.319  0.9403E+01  0.3876E+03
      9.383  0.5630E+01  0.3879E+03
      9.448  0.1265E+02  0.3888E+03
      9.513  0.9162E+01  0.3893E+03
      9.577  0.1323E+02  0.3902E+03
      9.642  0.7935E+01  0.3907E+03
      9.706  0.1028E+02  0.3914E+03
      9.771  0.1158E+02  0.3921E+03
      9.835  0.6845E+01  0.3926E+03
      9.900  0.1027E+02  0.3932E+03
      9.964  0.1216E+02  0.3940E+03
     10.029  0.6154E+01  0.3944E+03
     10.093  0.9906E+01  0.3951E+03
     10.158  0.9428E+01  0.3957E+03
     10.223  0.7763E+01  0.3962E+03
     10.287  0.8360E+01  0.3967E+03
     10.352  0.1116E+02  0.3974E+03
     10.416  0.9860E+01  0.3981E+03
     10.481  0.8610E+01  0.3986E+03
     10.545  0.6791E+01  0.3991E+03
     10.610  0.9388E+01  0.3997E+03
     10.674  0.8552E+01  0.4002E+03
     10.739  0.6258E+01  0.4006E+03
     10.803  0.9833E+01  0.4013E+03
     10.868  0.9370E+01  0.4019E+03
     10.933  0.8262E+01  0.4024E+03
     10.997  0.6205E+01  0.4028E+03
     11.062  0.1035E+02  0.4035E+03
     11.126  0.7508E+01  0.4039E+03
     11.191  0.7049E+01  0.4044E+03
     11.255  0.8147E+01  0.4049E+03
     11.320  0.1109E+02  0.4056E+03
     11.384  0.4871E+01  0.4060E+03
     11.449  0.7179E+01  0.4064E+03
     11.513  0.1035E+02  0.4071E+03
     11.578  0.6779E+01  0.4075E+03
     11.643  0.7864E+01  0.4080E+03
     11.707  0.7707E+01  0.4085E+03
     11.772  0.8212E+01  0.4091E+03
     11.836  0.9018E+01  0.4096E+03
     11.901  0.5673E+01  0.4100E+03
     11.965  0.8334E+01  0.4106E+03
     12.030  0.1066E+02  0.4112E+03
     12.094  0.9673E+01  0.4119E+03
     12.159  0.9837E+01  0.4125E+03
     12.223  0.1975E+02  0.4138E+03
     12.288  0.1263E+02  0.4146E+03
     12.353  0.8981E+01  0.4152E+03
     12.417  0.9342E+01  0.4158E+03
     12.482  0.1350E+02  0.4166E+03
     12.546  0.1219E+02  0.4174E+03
     12.611  0.1512E+02  0.4184E+03
     12.675  0.1950E+02  0.4197E+03
     12.740  0.1314E+02  0.4205E+03
     12.804  0.9708E+01  0.4211E+03
     12.869  0.7073E+01  0.4216E+03
     12.933  0.6711E+01  0.4220E+03
     12.998  0.7302E+01  0.4225E+03
     13.063  0.5330E+01  0.4228E+03
     13.127  0.3544E+01  0.4231E+03
     13.192  0.5980E+01  0.4235E+03
     13.256  0.2730E+01  0.4236E+03
     13.321  0.2966E+01  0.4238E+03
     13.385  0.9337E+00  0.4239E+03
     13.450  0.6766E+00  0.4239E+03
     13.514  0.5566E+00  0.4240E+03
     13.579  0.4147E+00  0.4240E+03
     13.643  0.0000E+00  0.4240E+03
     13.708  0.0000E+00  0.4240E+03
     13.772  0.0000E+00  0.4240E+03
     13.837  0.0000E+00  0.4240E+03
     13.902  0.0000E+00  0.4240E+03
     13.966  0.0000E+00  0.4240E+03
     14.031  0.0000E+00  0.4240E+03
     14.095  0.0000E+00  0.4240E+03
     14.160  0.0000E+00  0.4240E+03
     14.224  0.0000E+00  0.4240E+03
     14.289  0.0000E+00  0.4240E+03
     14.353  0.0000E+00  0.4240E+03
     14.418  0.0000E+00  0.4240E+03
