   32   32    1    1
  0.1546680E+02  0.7910127E-09  0.7910127E-09  0.7910127E-09  0.5000000E-15
  1.000000000000000E-004
  CAR 
 unknown system                          
  352  196  212
 
  0.0000000E+00  0.0000000E+00  0.0000000E+00  0.5787037E-03
   1       -4.0653
   2       -2.7129
   3       -2.7129
   4       -2.7129
   5       -2.6281
   6       -2.6281
   7       -2.6281
   8       -2.6281
   9       -2.5376
  10       -2.5376
  11       -2.5376
  12       -2.1571
  13       -2.1549
  14       -2.1549
  15       -2.1549
  16       -2.1549
  17       -2.1528
  18       -1.8452
  19       -1.8430
  20       -1.8430
  21       -1.8430
  22       -1.8430
  23       -1.8409
  24       -1.7119
  25       -1.7096
  26       -1.7096
  27       -1.7096
  28       -1.7096
  29       -1.7074
  30       -1.4306
  31       -1.4306
  32       -1.4300
  33       -1.4291
  34       -1.4287
  35       -1.4287
  36       -1.4287
  37       -1.4287
  38       -1.4283
  39       -1.4273
  40       -1.4268
  41       -1.4268
  42       -1.1774
  43       -1.1746
  44       -1.1746
  45       -1.1734
  46       -1.1734
  47       -1.1734
  48       -1.1734
  49       -1.1734
  50       -1.1734
  51       -1.1723
  52       -1.1723
  53       -1.1696
  54       -1.1095
  55       -1.1095
  56       -1.1072
  57       -1.1072
  58       -1.1072
  59       -1.1071
  60       -1.1071
  61       -1.1071
  62       -1.1071
  63       -1.1069
  64       -1.1047
  65       -1.1047
  66       -0.7972
  67       -0.7972
  68       -0.7971
  69       -0.7971
  70       -0.7971
  71       -0.7971
  72       -0.7971
  73       -0.7971
  74       -0.7664
  75       -0.7664
  76       -0.7663
  77       -0.7432
  78       -0.7403
  79       -0.7399
  80       -0.7399
  81       -0.7397
  82       -0.7397
  83       -0.7397
  84       -0.7397
  85       -0.7395
  86       -0.7395
  87       -0.7392
  88       -0.7362
  89       -0.0004
  90        0.0004
  91        0.0016
  92        0.0016
  93        0.0022
  94        0.0022
  95        0.0022
  96        0.0022
  97        0.0028
  98        0.0028
  99        0.0040
 100        0.0047
 101        0.2603
 102        0.2603
 103        0.2628
 104        0.2628
 105        0.2631
 106        0.2631
 107        0.2631
 108        0.2631
 109        0.2633
 110        0.2633
 111        0.2658
 112        0.2658
 113        0.3467
 114        0.3488
 115        0.3489
 116        0.3489
 117        0.3489
 118        0.3509
 119        0.4598
 120        0.4613
 121        0.4613
 122        0.4617
 123        0.4618
 124        0.4629
 125        0.4646
 126        0.4647
 127        0.4689
 128        0.4689
 129        0.4710
 130        0.4715
 131        0.4715
 132        0.4715
 133        0.4715
 134        0.4716
 135        0.4720
 136        0.4725
 137        0.4748
 138        0.4748
 139        0.9037
 140        0.9049
 141        0.9049
 142        0.9049
 143        0.9049
 144        0.9062
 145        1.3711
 146        1.3711
 147        1.3711
 148        1.4064
 149        1.4065
 150        1.4065
 151        1.4065
 152        1.4065
 153        1.4065
 154        1.4065
 155        1.4065
 156        1.6531
 157        1.6534
 158        1.6534
 159        1.6534
 160        1.6535
 161        1.6535
 162        1.6547
 163        1.6548
 164        1.6548
 165        1.6548
 166        1.6548
 167        1.6551
 168        3.7715
 169        3.7715
 170        3.7715
 171        3.7715
 172        3.9818
 173        3.9821
 174        3.9821
 175        3.9834
 176        3.9837
 177        3.9837
 178        3.9837
 179        3.9837
 180        3.9841
 181        3.9853
 182        3.9853
 183        3.9856
 184        5.9851
 185        5.9851
 186        5.9851
 187        8.6431
 188        8.6431
 189        8.6431
 190        8.6432
 191       10.8312
 192       10.8312
 193       10.8340
 194       10.8340
 195       10.8345
 196       10.8345
 197       10.8345
 198       10.8346
 199       10.8350
 200       10.8350
 201       10.8378
 202       10.8378
 203       12.0021
 204       12.0022
 205       12.0022
 206       12.3077
 207       12.3077
 208       12.3078
 209       12.3078
 210       12.3078
 211       12.3079
 212       13.2175
 
  0.8333333E-01  0.0000000E+00  0.0000000E+00  0.1157407E-02
   1       -4.0455
   2       -2.7040
   3       -2.7015
   4       -2.7015
   5       -2.6178
   6       -2.6177
   7       -2.6177
   8       -2.6177
   9       -2.5309
  10       -2.5274
  11       -2.5274
  12       -2.2697
  13       -2.1413
  14       -2.1413
  15       -2.1413
  16       -2.1413
  17       -2.1106
  18       -1.8641
  19       -1.8639
  20       -1.8341
  21       -1.8341
  22       -1.8341
  23       -1.8339
  24       -1.8235
  25       -1.7039
  26       -1.7039
  27       -1.7039
  28       -1.7039
  29       -1.5938
  30       -1.5142
  31       -1.5142
  32       -1.5142
  33       -1.5142
  34       -1.4461
  35       -1.4461
  36       -1.4461
  37       -1.4461
  38       -1.4121
  39       -1.4121
  40       -1.4121
  41       -1.4121
  42       -1.3297
  43       -1.3297
  44       -1.2195
  45       -1.2194
  46       -1.2194
  47       -1.2194
  48       -1.1377
  49       -1.1372
  50       -1.1372
  51       -1.1372
  52       -1.1235
  53       -1.1234
  54       -1.1234
  55       -1.1232
  56       -1.1113
  57       -1.1113
  58       -1.1113
  59       -1.1112
  60       -1.1061
  61       -1.1061
  62       -1.1061
  63       -1.1057
  64       -0.8685
  65       -0.8685
  66       -0.8013
  67       -0.8011
  68       -0.8011
  69       -0.8011
  70       -0.7917
  71       -0.7917
  72       -0.7917
  73       -0.7915
  74       -0.7892
  75       -0.7892
  76       -0.7891
  77       -0.7891
  78       -0.7750
  79       -0.7586
  80       -0.7586
  81       -0.7423
  82       -0.7423
  83       -0.7423
  84       -0.7423
  85       -0.6870
  86       -0.6870
  87       -0.6870
  88       -0.6868
  89       -0.0352
  90       -0.0350
  91       -0.0350
  92       -0.0350
  93        0.0093
  94        0.0093
  95        0.0093
  96        0.0093
  97        0.0502
  98        0.0502
  99        0.0502
 100        0.0503
 101        0.1058
 102        0.1058
 103        0.1058
 104        0.1059
 105        0.1132
 106        0.1132
 107        0.1516
 108        0.2625
 109        0.2625
 110        0.2625
 111        0.2625
 112        0.4003
 113        0.4003
 114        0.4005
 115        0.4005
 116        0.4189
 117        0.4189
 118        0.4559
 119        0.4616
 120        0.4618
 121        0.4618
 122        0.4618
 123        0.4682
 124        0.4835
 125        0.4836
 126        0.4972
 127        0.4973
 128        0.4973
 129        0.4973
 130        0.5111
 131        0.5111
 132        0.5111
 133        0.5113
 134        0.5601
 135        0.5601
 136        0.5602
 137        0.5602
 138        0.6523
 139        0.8461
 140        0.9180
 141        0.9180
 142        0.9180
 143        0.9180
 144        0.9642
 145        1.3593
 146        1.3593
 147        1.3670
 148        1.3679
 149        1.3680
 150        1.3680
 151        1.3680
 152        1.3962
 153        1.3962
 154        1.3962
 155        1.3962
 156        1.6079
 157        1.6079
 158        1.6390
 159        1.6390
 160        1.6390
 161        1.6390
 162        1.6391
 163        1.6391
 164        1.6531
 165        1.6535
 166        1.6547
 167        1.6551
 168        3.5793
 169        3.5793
 170        3.5793
 171        3.5793
 172        3.7815
 173        3.7815
 174        3.7815
 175        3.7815
 176        3.9829
 177        3.9829
 178        3.9829
 179        3.9829
 180        4.4206
 181        4.4206
 182        4.4206
 183        4.4206
 184        5.8587
 185        6.0460
 186        6.0460
 187        8.6980
 188        8.6980
 189        8.6980
 190        8.6980
 191       10.2797
 192       10.2797
 193       10.5203
 194       10.5203
 195       10.5203
 196       10.5203
 197       10.8670
 198       10.8670
 199       10.8670
 200       10.8670
 201       11.3925
 202       11.3925
 203       12.0039
 204       12.0039
 205       12.1567
 206       12.2920
 207       12.2920
 208       12.4693
 209       12.4693
 210       12.4693
 211       12.4693
 212       13.2626
 
  0.1666667E+00  0.0000000E+00  0.0000000E+00  0.1157407E-02
   1       -3.9863
   2       -2.6776
   3       -2.6679
   4       -2.6679
   5       -2.5867
   6       -2.5867
   7       -2.5867
   8       -2.5866
   9       -2.5109
  10       -2.4969
  11       -2.4969
  12       -2.4499
  13       -2.1246
  14       -2.1007
  15       -2.1007
  16       -2.1007
  17       -2.1007
  18       -1.9336
  19       -1.9231
  20       -1.9230
  21       -1.8076
  22       -1.8076
  23       -1.8076
  24       -1.8076
  25       -1.6871
  26       -1.6870
  27       -1.6870
  28       -1.6869
  29       -1.6707
  30       -1.6706
  31       -1.6706
  32       -1.6706
  33       -1.5353
  34       -1.5353
  35       -1.4780
  36       -1.4615
  37       -1.4615
  38       -1.4615
  39       -1.4615
  40       -1.4062
  41       -1.4062
  42       -1.4062
  43       -1.4062
  44       -1.2737
  45       -1.2737
  46       -1.2737
  47       -1.2737
  48       -1.1230
  49       -1.1230
  50       -1.1230
  51       -1.1229
  52       -1.1119
  53       -1.1111
  54       -1.1111
  55       -1.1111
  56       -1.1033
  57       -1.1032
  58       -1.1032
  59       -1.1025
  60       -1.0619
  61       -1.0619
  62       -1.0619
  63       -1.0618
  64       -0.8787
  65       -0.8787
  66       -0.8787
  67       -0.8787
  68       -0.8128
  69       -0.8128
  70       -0.8128
  71       -0.8128
  72       -0.8008
  73       -0.7859
  74       -0.7858
  75       -0.7858
  76       -0.7858
  77       -0.7655
  78       -0.7655
  79       -0.7654
  80       -0.7654
  81       -0.7352
  82       -0.7352
  83       -0.6153
  84       -0.6153
  85       -0.5409
  86       -0.5409
  87       -0.5409
  88       -0.5409
  89       -0.1217
  90       -0.1216
  91       -0.1216
  92       -0.1216
  93       -0.0810
  94       -0.0810
  95       -0.0810
  96       -0.0810
  97       -0.0290
  98       -0.0290
  99        0.0541
 100        0.0711
 101        0.0711
 102        0.0711
 103        0.0711
 104        0.1285
 105        0.1285
 106        0.1286
 107        0.1286
 108        0.2610
 109        0.2610
 110        0.2610
 111        0.2610
 112        0.3466
 113        0.3466
 114        0.3466
 115        0.3467
 116        0.4298
 117        0.4613
 118        0.4613
 119        0.4613
 120        0.4613
 121        0.4793
 122        0.5452
 123        0.5453
 124        0.5779
 125        0.5779
 126        0.6043
 127        0.6043
 128        0.6043
 129        0.6044
 130        0.6267
 131        0.6267
 132        0.6268
 133        0.6268
 134        0.6651
 135        0.6651
 136        0.6651
 137        0.6651
 138        0.7887
 139        0.9882
 140        0.9882
 141        0.9882
 142        0.9882
 143        1.0230
 144        1.0503
 145        1.2581
 146        1.2581
 147        1.2581
 148        1.2581
 149        1.3242
 150        1.3243
 151        1.3547
 152        1.3656
 153        1.3656
 154        1.3656
 155        1.3656
 156        1.4788
 157        1.4788
 158        1.5928
 159        1.5928
 160        1.5928
 161        1.5928
 162        1.5966
 163        1.5966
 164        1.6531
 165        1.6535
 166        1.6547
 167        1.6551
 168        3.2038
 169        3.2038
 170        3.2038
 171        3.2038
 172        3.8079
 173        3.8079
 174        3.8079
 175        3.8079
 176        3.9802
 177        3.9802
 178        3.9802
 179        3.9802
 180        4.8927
 181        4.8927
 182        4.8927
 183        4.8927
 184        5.5140
 185        6.2211
 186        6.2211
 187        8.8604
 188        8.8604
 189        8.8604
 190        8.8604
 191        9.7317
 192        9.7317
 193        9.8914
 194        9.8914
 195        9.8914
 196        9.8914
 197       10.9636
 198       10.9636
 199       10.9636
 200       10.9636
 201       11.9498
 202       11.9498
 203       12.0093
 204       12.0093
 205       12.2525
 206       12.2525
 207       12.5858
 208       12.6491
 209       12.6492
 210       12.6492
 211       12.6492
 212       13.0160
 
  0.2500000E+00  0.0000000E+00  0.0000000E+00  0.1157407E-02
   1       -3.8886
   2       -2.6743
   3       -2.6346
   4       -2.6129
   5       -2.6129
   6       -2.5351
   7       -2.5351
   8       -2.5351
   9       -2.5351
  10       -2.4779
  11       -2.4460
  12       -2.4460
  13       -2.1777
  14       -2.0382
  15       -2.0349
  16       -2.0348
  17       -2.0348
  18       -2.0348
  19       -2.0112
  20       -2.0111
  21       -1.8348
  22       -1.8348
  23       -1.8348
  24       -1.8348
  25       -1.7653
  26       -1.7653
  27       -1.7653
  28       -1.7653
  29       -1.7229
  30       -1.7229
  31       -1.6591
  32       -1.6590
  33       -1.6590
  34       -1.6590
  35       -1.4765
  36       -1.4765
  37       -1.4765
  38       -1.4764
  39       -1.4291
  40       -1.4291
  41       -1.4291
  42       -1.4291
  43       -1.3643
  44       -1.3339
  45       -1.3339
  46       -1.3339
  47       -1.3339
  48       -1.1393
  49       -1.1392
  50       -1.1392
  51       -1.1392
  52       -1.1001
  53       -1.0990
  54       -1.0990
  55       -1.0989
  56       -1.0944
  57       -1.0943
  58       -1.0943
  59       -1.0932
  60       -1.0189
  61       -1.0189
  62       -1.0189
  63       -1.0188
  64       -0.9761
  65       -0.9761
  66       -0.9761
  67       -0.9761
  68       -0.8431
  69       -0.8318
  70       -0.8315
  71       -0.8315
  72       -0.8314
  73       -0.8264
  74       -0.8263
  75       -0.8263
  76       -0.8260
  77       -0.7263
  78       -0.7263
  79       -0.7263
  80       -0.7263
  81       -0.6963
  82       -0.6963
  83       -0.3493
  84       -0.3493
  85       -0.3363
  86       -0.3363
  87       -0.3363
  88       -0.3363
  89       -0.2572
  90       -0.2572
  91       -0.2572
  92       -0.2572
  93       -0.2254
  94       -0.2254
  95       -0.2254
  96       -0.2254
  97       -0.1617
  98       -0.1617
  99        0.0342
 100        0.1650
 101        0.1650
 102        0.1650
 103        0.1650
 104        0.2129
 105        0.2129
 106        0.2130
 107        0.2130
 108        0.2589
 109        0.2589
 110        0.2589
 111        0.2589
 112        0.3082
 113        0.3082
 114        0.3082
 115        0.3082
 116        0.3877
 117        0.4580
 118        0.4580
 119        0.4580
 120        0.4580
 121        0.4974
 122        0.6373
 123        0.6373
 124        0.6571
 125        0.6571
 126        0.6571
 127        0.6571
 128        0.7186
 129        0.7188
 130        0.7188
 131        0.7188
 132        0.7338
 133        0.7379
 134        0.7379
 135        0.7838
 136        0.7838
 137        0.7838
 138        0.7838
 139        1.0801
 140        1.0905
 141        1.0906
 142        1.0906
 143        1.0906
 144        1.1569
 145        1.1569
 146        1.1569
 147        1.1569
 148        1.2669
 149        1.2670
 150        1.2841
 151        1.2841
 152        1.3155
 153        1.3155
 154        1.3155
 155        1.3156
 156        1.3346
 157        1.5189
 158        1.5189
 159        1.5189
 160        1.5189
 161        1.5238
 162        1.5276
 163        1.5276
 164        1.6532
 165        1.6536
 166        1.6546
 167        1.6550
 168        2.8535
 169        2.8535
 170        2.8535
 171        2.8535
 172        3.8429
 173        3.8429
 174        3.8429
 175        3.8429
 176        3.9751
 177        3.9751
 178        3.9751
 179        3.9751
 180        5.0229
 181        5.4022
 182        5.4022
 183        5.4022
 184        5.4022
 185        6.4922
 186        6.4922
 187        9.1243
 188        9.1243
 189        9.1243
 190        9.1244
 191        9.1934
 192        9.1934
 193        9.1938
 194        9.1938
 195        9.1945
 196        9.1945
 197       11.1213
 198       11.1213
 199       11.1213
 200       11.1213
 201       12.0188
 202       12.0188
 203       12.2037
 204       12.2038
 205       12.3036
 206       12.3036
 207       12.3036
 208       12.3037
 209       12.5025
 210       12.5025
 211       12.7651
 212       12.7651
 
  0.3333333E+00  0.0000000E+00  0.0000000E+00  0.1157407E-02
   1       -3.7538
   2       -2.9175
   3       -2.5765
   4       -2.5385
   5       -2.5384
   6       -2.4634
   7       -2.4634
   8       -2.4634
   9       -2.4634
  10       -2.4322
  11       -2.3750
  12       -2.3750
  13       -2.2532
  14       -2.1359
  15       -2.1173
  16       -2.1172
  17       -1.9914
  18       -1.9914
  19       -1.9914
  20       -1.9914
  21       -1.9461
  22       -1.9461
  23       -1.9461
  24       -1.9460
  25       -1.8920
  26       -1.8920
  27       -1.7099
  28       -1.7098
  29       -1.7098
  30       -1.7098
  31       -1.6211
  32       -1.6211
  33       -1.6211
  34       -1.6211
  35       -1.4975
  36       -1.4971
  37       -1.4971
  38       -1.4971
  39       -1.4959
  40       -1.4959
  41       -1.4958
  42       -1.4955
  43       -1.3970
  44       -1.3970
  45       -1.3970
  46       -1.3969
  47       -1.2548
  48       -1.1558
  49       -1.1558
  50       -1.1558
  51       -1.1558
  52       -1.0944
  53       -1.0937
  54       -1.0937
  55       -1.0937
  56       -1.0855
  57       -1.0855
  58       -1.0855
  59       -1.0848
  60       -1.0644
  61       -1.0644
  62       -1.0644
  63       -1.0644
  64       -0.9833
  65       -0.9833
  66       -0.9833
  67       -0.9833
  68       -0.9008
  69       -0.8560
  70       -0.8560
  71       -0.8560
  72       -0.8559
  73       -0.8249
  74       -0.8249
  75       -0.8249
  76       -0.8248
  77       -0.6723
  78       -0.6723
  79       -0.6723
  80       -0.6723
  81       -0.6423
  82       -0.6423
  83       -0.4184
  84       -0.4184
  85       -0.4184
  86       -0.4184
  87       -0.3311
  88       -0.3311
  89       -0.3311
  90       -0.3310
  91       -0.2835
  92       -0.2835
  93       -0.1023
  94       -0.1023
  95       -0.1023
  96       -0.1023
  97       -0.0728
  98       -0.0728
  99        0.0644
 100        0.2571
 101        0.2571
 102        0.2571
 103        0.2571
 104        0.2708
 105        0.2709
 106        0.2710
 107        0.2710
 108        0.2828
 109        0.2828
 110        0.2828
 111        0.2828
 112        0.2896
 113        0.2896
 114        0.2896
 115        0.2897
 116        0.3317
 117        0.4488
 118        0.4488
 119        0.4488
 120        0.4488
 121        0.5223
 122        0.6233
 123        0.6233
 124        0.6233
 125        0.6233
 126        0.6818
 127        0.7483
 128        0.7483
 129        0.8383
 130        0.8383
 131        0.8383
 132        0.8384
 133        0.8819
 134        0.8819
 135        0.8819
 136        0.8819
 137        0.8958
 138        0.8958
 139        0.9124
 140        0.9124
 141        0.9124
 142        0.9124
 143        1.0444
 144        1.0444
 145        1.1345
 146        1.1892
 147        1.1892
 148        1.2474
 149        1.2474
 150        1.2474
 151        1.2474
 152        1.3070
 153        1.3867
 154        1.3867
 155        1.3867
 156        1.3868
 157        1.4218
 158        1.4218
 159        1.4218
 160        1.4218
 161        1.4348
 162        1.4348
 163        1.6533
 164        1.6538
 165        1.6544
 166        1.6549
 167        2.0546
 168        2.5248
 169        2.5248
 170        2.5248
 171        2.5248
 172        3.8786
 173        3.8786
 174        3.8786
 175        3.8786
 176        3.9666
 177        3.9666
 178        3.9666
 179        3.9666
 180        4.4510
 181        5.9497
 182        5.9497
 183        5.9497
 184        5.9497
 185        6.8385
 186        6.8385
 187        8.4931
 188        8.4931
 189        8.4931
 190        8.4931
 191        8.6708
 192        8.6708
 193        9.4809
 194        9.4809
 195        9.4809
 196        9.4809
 197       11.3360
 198       11.3360
 199       11.3360
 200       11.3360
 201       11.6307
 202       11.6307
 203       11.6307
 204       11.6307
 205       12.0331
 206       12.0331
 207       12.1560
 208       12.1560
 209       12.6554
 210       12.6554
 211       12.6555
 212       12.6563
 
  0.4166667E+00  0.0000000E+00  0.0000000E+00  0.1157407E-02
   1       -3.5844
   2       -3.1587
   3       -2.5054
   4       -2.4473
   5       -2.4472
   6       -2.3743
   7       -2.3722
   8       -2.3722
   9       -2.3722
  10       -2.3722
  11       -2.3384
  12       -2.2839
  13       -2.2839
  14       -2.2307
  15       -2.2307
  16       -2.2252
  17       -2.1348
  18       -2.1348
  19       -2.1348
  20       -2.1348
  21       -2.0421
  22       -2.0421
  23       -1.8388
  24       -1.8388
  25       -1.8388
  26       -1.8388
  27       -1.6465
  28       -1.6464
  29       -1.6464
  30       -1.6464
  31       -1.5997
  32       -1.5997
  33       -1.5997
  34       -1.5996
  35       -1.5742
  36       -1.5742
  37       -1.5742
  38       -1.5741
  39       -1.5314
  40       -1.5314
  41       -1.5314
  42       -1.5313
  43       -1.4599
  44       -1.4599
  45       -1.4599
  46       -1.4599
  47       -1.1660
  48       -1.1659
  49       -1.1659
  50       -1.1659
  51       -1.1517
  52       -1.1282
  53       -1.1282
  54       -1.1282
  55       -1.1281
  56       -1.0895
  57       -1.0885
  58       -1.0885
  59       -1.0884
  60       -1.0828
  61       -1.0827
  62       -1.0827
  63       -1.0817
  64       -0.9727
  65       -0.9496
  66       -0.9496
  67       -0.9496
  68       -0.9496
  69       -0.8849
  70       -0.8849
  71       -0.8848
  72       -0.8848
  73       -0.7731
  74       -0.7731
  75       -0.7731
  76       -0.7730
  77       -0.6045
  78       -0.6044
  79       -0.6044
  80       -0.6043
  81       -0.5736
  82       -0.5736
  83       -0.5612
  84       -0.5612
  85       -0.5611
  86       -0.5611
  87       -0.4317
  88       -0.4317
  89       -0.4317
  90       -0.4317
  91       -0.3934
  92       -0.3934
  93        0.1226
  94        0.1458
  95        0.1458
  96        0.1458
  97        0.1458
  98        0.2105
  99        0.2105
 100        0.2568
 101        0.2568
 102        0.2568
 103        0.2569
 104        0.2652
 105        0.2675
 106        0.2675
 107        0.2675
 108        0.2675
 109        0.3520
 110        0.3521
 111        0.3521
 112        0.3521
 113        0.3765
 114        0.3765
 115        0.3765
 116        0.3766
 117        0.4301
 118        0.4301
 119        0.4301
 120        0.4301
 121        0.5536
 122        0.5584
 123        0.5584
 124        0.5584
 125        0.5584
 126        0.6341
 127        0.6472
 128        0.6472
 129        0.6472
 130        0.6472
 131        0.7772
 132        0.7772
 133        0.8671
 134        0.8671
 135        0.9552
 136        0.9552
 137        0.9552
 138        0.9553
 139        1.0460
 140        1.0460
 141        1.0461
 142        1.0461
 143        1.0481
 144        1.0481
 145        1.0938
 146        1.0938
 147        1.1630
 148        1.1630
 149        1.1630
 150        1.1630
 151        1.1854
 152        1.2725
 153        1.3066
 154        1.3066
 155        1.3067
 156        1.3067
 157        1.3215
 158        1.3215
 159        1.6449
 160        1.6449
 161        1.6449
 162        1.6449
 163        1.6533
 164        1.6539
 165        1.6543
 166        1.6549
 167        2.2148
 168        2.2148
 169        2.2148
 170        2.2148
 171        2.6277
 172        3.8432
 173        3.9101
 174        3.9101
 175        3.9101
 176        3.9101
 177        3.9537
 178        3.9537
 179        3.9537
 180        3.9538
 181        6.5350
 182        6.5350
 183        6.5350
 184        6.5350
 185        7.2417
 186        7.2417
 187        7.8108
 188        7.8108
 189        7.8108
 190        7.8108
 191        8.1669
 192        8.1669
 193        9.9198
 194        9.9198
 195        9.9198
 196        9.9198
 197       11.0039
 198       11.0039
 199       11.0039
 200       11.0039
 201       11.6024
 202       11.6024
 203       11.6024
 204       11.6024
 205       12.0531
 206       12.0531
 207       12.1142
 208       12.1142
 209       12.2676
 210       12.2676
 211       12.2676
 212       12.2676
 
  0.5000000E+00  0.0000000E+00  0.0000000E+00  0.5787037E-03
   1       -3.3855
   2       -3.3827
   3       -2.4259
   4       -2.4234
   5       -2.3447
   6       -2.3437
   7       -2.3421
   8       -2.3412
   9       -2.3064
  10       -2.3038
  11       -2.2638
  12       -2.2638
  13       -2.2636
  14       -2.2633
  15       -2.2613
  16       -2.2610
  17       -2.2608
  18       -2.2608
  19       -2.1742
  20       -2.1742
  21       -2.1715
  22       -2.1715
  23       -1.7221
  24       -1.7213
  25       -1.7201
  26       -1.7201
  27       -1.7193
  28       -1.7193
  29       -1.7182
  30       -1.7173
  31       -1.5869
  32       -1.5835
  33       -1.5835
  34       -1.5835
  35       -1.5833
  36       -1.5833
  37       -1.5832
  38       -1.5799
  39       -1.5216
  40       -1.5211
  41       -1.5211
  42       -1.5201
  43       -1.5194
  44       -1.5184
  45       -1.5184
  46       -1.5180
  47       -1.1618
  48       -1.1610
  49       -1.1610
  50       -1.1604
  51       -1.1602
  52       -1.1597
  53       -1.1597
  54       -1.1588
  55       -1.0871
  56       -1.0849
  57       -1.0849
  58       -1.0846
  59       -1.0840
  60       -1.0837
  61       -1.0837
  62       -1.0818
  63       -1.0572
  64       -1.0563
  65       -0.9173
  66       -0.9169
  67       -0.9168
  68       -0.9168
  69       -0.9162
  70       -0.9162
  71       -0.9162
  72       -0.9158
  73       -0.6831
  74       -0.6829
  75       -0.6829
  76       -0.6817
  77       -0.6816
  78       -0.6805
  79       -0.6805
  80       -0.6803
  81       -0.5258
  82       -0.5252
  83       -0.5252
  84       -0.5239
  85       -0.5233
  86       -0.5220
  87       -0.5220
  88       -0.5213
  89       -0.4915
  90       -0.4915
  91       -0.4891
  92       -0.4891
  93        0.1924
  94        0.1939
  95        0.2590
  96        0.2590
  97        0.2593
  98        0.2595
  99        0.2597
 100        0.2599
 101        0.2602
 102        0.2602
 103        0.3972
 104        0.3973
 105        0.3973
 106        0.3973
 107        0.3977
 108        0.3982
 109        0.3985
 110        0.3985
 111        0.3987
 112        0.3987
 113        0.3988
 114        0.3996
 115        0.3999
 116        0.3999
 117        0.3999
 118        0.3999
 119        0.4726
 120        0.4736
 121        0.4736
 122        0.4739
 123        0.4744
 124        0.4746
 125        0.4746
 126        0.4758
 127        0.4953
 128        0.4953
 129        0.4970
 130        0.4970
 131        0.5901
 132        0.5922
 133        0.9844
 134        0.9845
 135        0.9848
 136        0.9849
 137        1.0634
 138        1.0639
 139        1.0639
 140        1.0642
 141        1.0651
 142        1.0653
 143        1.0653
 144        1.0660
 145        1.1778
 146        1.1778
 147        1.1791
 148        1.1792
 149        1.1797
 150        1.1798
 151        1.1809
 152        1.1809
 153        1.1909
 154        1.1909
 155        1.1918
 156        1.1918
 157        1.2315
 158        1.2318
 159        1.6533
 160        1.6541
 161        1.6541
 162        1.6549
 163        1.9206
 164        1.9213
 165        1.9216
 166        1.9216
 167        1.9219
 168        1.9219
 169        1.9222
 170        1.9228
 171        3.2282
 172        3.2297
 173        3.9334
 174        3.9341
 175        3.9348
 176        3.9348
 177        3.9356
 178        3.9356
 179        3.9362
 180        3.9369
 181        7.1535
 182        7.1542
 183        7.1542
 184        7.1559
 185        7.1569
 186        7.1586
 187        7.1586
 188        7.1593
 189        7.6865
 190        7.6865
 191        7.6893
 192        7.6893
 193       10.4283
 194       10.4285
 195       10.4285
 196       10.4301
 197       10.4313
 198       10.4329
 199       10.4329
 200       10.4331
 201       11.9132
 202       11.9132
 203       11.9141
 204       11.9144
 205       11.9151
 206       11.9155
 207       11.9164
 208       11.9164
 209       12.0794
 210       12.0798
 211       12.0801
 212       12.0805
 
  0.0000000E+00  0.8333333E-01  0.0000000E+00  0.2314815E-02
   1       -4.0455
   2       -2.7040
   3       -2.7016
   4       -2.7015
   5       -2.6178
   6       -2.6178
   7       -2.6177
   8       -2.6177
   9       -2.5309
  10       -2.5274
  11       -2.5274
  12       -2.2697
  13       -2.1428
  14       -2.1413
  15       -2.1413
  16       -2.1398
  17       -2.1106
  18       -1.8640
  19       -1.8639
  20       -1.8356
  21       -1.8341
  22       -1.8341
  23       -1.8325
  24       -1.8235
  25       -1.7057
  26       -1.7039
  27       -1.7039
  28       -1.7021
  29       -1.5938
  30       -1.5143
  31       -1.5142
  32       -1.5142
  33       -1.5142
  34       -1.4475
  35       -1.4461
  36       -1.4461
  37       -1.4448
  38       -1.4135
  39       -1.4121
  40       -1.4121
  41       -1.4106
  42       -1.3298
  43       -1.3297
  44       -1.2211
  45       -1.2194
  46       -1.2194
  47       -1.2177
  48       -1.1392
  49       -1.1373
  50       -1.1372
  51       -1.1356
  52       -1.1244
  53       -1.1243
  54       -1.1227
  55       -1.1226
  56       -1.1127
  57       -1.1113
  58       -1.1110