 vasp.4.6.28 25Jul05 complex 
 executed on             LinuxIFC date 2017.01.10  08:49:28
 running on    4 nodes
 distr:  one band on    1 nodes,    4 groups


--------------------------------------------------------------------------------------------------------


 INCAR:
 POTCAR:   PAW_PBE Ag 06Sep2000                   
 POTCAR:   PAW_PBE Ag 06Sep2000                   
   VRHFIN =Ag : s1 d10                                                          
   LEXCH  = PE                                                                  
   EATOM  =  1037.4134 eV,   76.2477 Ry                                         
                                                                                
   TITEL  = PAW_PBE Ag 06Sep2000                                                
   LULTRA =        F    use ultrasoft PP ?                                      
   IUNSCR =        1    unscreen: 0-lin 1-nonlin 2-no                           
   RPACOR =    2.000    partial core radius                                     
   POMASS =  107.868; ZVAL   =   11.000    mass and valenz                      
   RCORE  =    2.400    outmost cutoff radius                                   
   RWIGS  =    2.840; RWIGS  =    1.503    wigner-seitz radius (au A)           
   ENMAX  =  249.846; ENMIN  =  187.385 eV                                      
   RCLOC  =    1.962    cutoff for local pot                                    
   LCOR   =        T    correct aug charges                                     
   LPAW   =        T    paw PP                                                  
   EAUG   =  412.496                                                            
   DEXC   =    -.047                                                            
   RMAX   =    2.917    core radius for proj-oper                               
   RAUG   =    1.300    factor for augmentation sphere                          
   RDEP   =    2.416    radius for radial grids                                 
   QCUT   =   -4.285; QGAM   =    8.570    optimization parameters              
                                                                                
   Description                                                                  
     l     E      TYP  RCUT    TYP  RCUT                                        
     2   .000     23  2.400                                                     
     2   .000     23  2.400                                                     
     0   .000     23  2.400                                                     
     0   .000     23  2.400                                                     
     1  -.200     23  2.400                                                     
     1  1.500     23  2.400                                                     
     3   .000      7   .000                                                     
  local pseudopotential read in
  partial core-charges read in
  atomic valenz-charges read in
  non local Contribution for L=           2  read in
    real space projection operators read in
  non local Contribution for L=           2  read in
    real space projection operators read in
  non local Contribution for L=           0  read in
    real space projection operators read in
  non local Contribution for L=           0  read in
    real space projection operators read in
  non local Contribution for L=           1  read in
    real space projection operators read in
  non local Contribution for L=           1  read in
    real space projection operators read in
    PAW grid and wavefunctions read in
 
   number of l-projection  operators is LMAX  =           6
   number of lm-projection operators is LMMAX =          18
 

 ----------------------------------------------------------------------------- 
|                                                                             |
|  ADVICE TO THIS USER RUNNING 'VASP/VAMP'   (HEAR YOUR MASTER'S VOICE ...):  |
|                                                                             |
|      You have a (more or less) 'large supercell' and for larger cells       |
|      it might be more efficient to use real space projection operators      |
|      So try LREAL= Auto  in the INCAR   file.                               |
|      Mind: If you want to do an extremely accurate calculations keep the    |
|      reciprocal projection scheme          (i.e. LREAL=.FALSE.)             |
|                                                                             |
 ----------------------------------------------------------------------------- 

 PAW_PBE Ag 06Sep2000                   :
 energy of atom  1       EATOM=-1037.4134
 kinetic energy error for atom=    0.0010 (will be added to EATOM!!)
 
 EXHCAR: internal setup
 exchange correlation table for  LEXCH =        8
   RHO(1)=    0.500       N(1)  =     2000
   RHO(2)=  100.500       N(2)  =     4000
 
 POSCAR: Ag                                      
  positions in direct lattice
  No initial velocities read in
 


--------------------------------------------------------------------------------------------------------


 ion  position               nearest neighbor table
   1  0.001  0.000  0.000-   9 2.79  11 2.79  17 2.79  21 2.79  25 2.80  27 2.80  29 2.80  31 2.80
                            10 2.80  18 2.80  12 2.80  22 2.80
   2  0.500  0.000  0.000-   9 2.80  10 2.80  11 2.80  12 2.80  17 2.80  18 2.80  21 2.80  22 2.80
                            26 2.80  28 2.80  30 2.80  32 2.80
   3  0.000  0.500  0.000-   9 2.80  10 2.80  11 2.80  12 2.80  19 2.80  20 2.80  23 2.80  24 2.80
                            25 2.80  27 2.80  29 2.80  31 2.80
   4  0.500  0.500  0.000-   9 2.80  10 2.80  11 2.80  12 2.80  19 2.80  20 2.80  23 2.80  24 2.80
                            26 2.80  28 2.80  30 2.80  32 2.80
   5  0.000  0.000  0.500-  13 2.80  14 2.80  15 2.80  16 2.80  17 2.80  18 2.80  21 2.80  22 2.80
                            25 2.80  27 2.80  29 2.80  31 2.80
   6  0.500  0.000  0.500-  13 2.80  14 2.80  15 2.80  16 2.80  17 2.80  18 2.80  21 2.80  22 2.80
                            26 2.80  28 2.80  30 2.80  32 2.80
   7  0.000  0.500  0.500-  13 2.80  14 2.80  15 2.80  16 2.80  19 2.80  20 2.80  23 2.80  24 2.80
                            25 2.80  27 2.80  29 2.80  31 2.80
   8  0.500  0.500  0.500-  13 2.80  14 2.80  15 2.80  16 2.80  19 2.80  20 2.80  23 2.80  24 2.80
                            26 2.80  28 2.80  30 2.80  32 2.80
   9  0.250  0.250  0.000-   1 2.79   2 2.80   3 2.80   4 2.80  17 2.80  19 2.80  21 2.80  23 2.80
                            25 2.80  26 2.80  29 2.80  30 2.80
  10  0.750  0.250  0.000-   2 2.80   3 2.80   4 2.80  18 2.80  20 2.80  22 2.80  24 2.80  25 2.80
                            26 2.80  29 2.80  30 2.80   1 2.80
  11  0.250  0.750  0.000-   1 2.79   2 2.80   3 2.80   4 2.80  17 2.80  19 2.80  21 2.80  23 2.80
                            27 2.80  28 2.80  31 2.80  32 2.80
  12  0.750  0.750  0.000-   2 2.80   3 2.80   4 2.80  18 2.80  20 2.80  22 2.80  24 2.80  27 2.80
                            28 2.80  31 2.80  32 2.80   1 2.80
  13  0.250  0.250  0.500-   5 2.80   6 2.80   7 2.80   8 2.80  17 2.80  19 2.80  21 2.80  23 2.80
                            25 2.80  26 2.80  29 2.80  30 2.80
  14  0.750  0.250  0.500-   5 2.80   6 2.80   7 2.80   8 2.80  18 2.80  20 2.80  22 2.80  24 2.80
                            25 2.80  26 2.80  29 2.80  30 2.80
  15  0.250  0.750  0.500-   5 2.80   6 2.80   7 2.80   8 2.80  17 2.80  19 2.80  21 2.80  23 2.80
                            27 2.80  28 2.80  31 2.80  32 2.80
  16  0.750  0.750  0.500-   5 2.80   6 2.80   7 2.80   8 2.80  18 2.80  20 2.80  22 2.80  24 2.80
                            27 2.80  28 2.80  31 2.80  32 2.80
  17  0.250  0.000  0.250-   1 2.79   2 2.80   5 2.80   6 2.80   9 2.80  11 2.80  13 2.80  15 2.80
                            25 2.80  26 2.80  27 2.80  28 2.80
  18  0.750  0.000  0.250-   2 2.80   5 2.80   6 2.80  10 2.80  12 2.80  14 2.80  16 2.80  25 2.80
                            26 2.80  27 2.80  28 2.80   1 2.80
  19  0.250  0.500  0.250-   3 2.80   4 2.80   7 2.80   8 2.80   9 2.80  11 2.80  13 2.80  15 2.80
                            25 2.80  26 2.80  27 2.80  28 2.80
  20  0.750  0.500  0.250-   3 2.80   4 2.80   7 2.80   8 2.80  10 2.80  12 2.80  14 2.80  16 2.80
                            25 2.80  26 2.80  27 2.80  28 2.80
  21  0.250  0.000  0.750-   1 2.79   2 2.80   5 2.80   6 2.80   9 2.80  11 2.80  13 2.80  15 2.80
                            29 2.80  30 2.80  31 2.80  32 2.80
  22  0.750  0.000  0.750-   2 2.80   5 2.80   6 2.80  10 2.80  12 2.80  14 2.80  16 2.80  29 2.80
                            30 2.80  31 2.80  32 2.80   1 2.80
  23  0.250  0.500  0.750-   3 2.80   4 2.80   7 2.80   8 2.80   9 2.80  11 2.80  13 2.80  15 2.80
                            29 2.80  30 2.80  31 2.80  32 2.80
  24  0.750  0.500  0.750-   3 2.80   4 2.80   7 2.80   8 2.80  10 2.80  12 2.80  14 2.80  16 2.80
                            29 2.80  30 2.80  31 2.80  32 2.80
  25  0.000  0.250  0.250-   3 2.80   5 2.80   7 2.80   9 2.80  10 2.80  13 2.80  14 2.80  17 2.80
                            18 2.80  19 2.80  20 2.80   1 2.80
  26  0.500  0.250  0.250-   2 2.80   4 2.80   6 2.80   8 2.80   9 2.80  10 2.80  13 2.80  14 2.80
                            17 2.80  18 2.80  19 2.80  20 2.80
  27  0.000  0.750  0.250-   3 2.80   5 2.80   7 2.80  11 2.80  12 2.80  15 2.80  16 2.80  17 2.80
                            18 2.80  19 2.80  20 2.80   1 2.80
  28  0.500  0.750  0.250-   2 2.80   4 2.80   6 2.80   8 2.80  11 2.80  12 2.80  15 2.80  16 2.80
                            17 2.80  18 2.80  19 2.80  20 2.80
  29  0.000  0.250  0.750-   3 2.80   5 2.80   7 2.80   9 2.80  10 2.80  13 2.80  14 2.80  21 2.80
                            22 2.80  23 2.80  24 2.80   1 2.80
  30  0.500  0.250  0.750-   2 2.80   4 2.80   6 2.80   8 2.80   9 2.80  10 2.80  13 2.80  14 2.80
                            21 2.80  22 2.80  23 2.80  24 2.80
  31  0.000  0.750  0.750-   3 2.80   5 2.80   7 2.80  11 2.80  12 2.80  15 2.80  16 2.80  21 2.80
                            22 2.80  23 2.80  24 2.80   1 2.80
  32  0.500  0.750  0.750-   2 2.80   4 2.80   6 2.80   8 2.80  11 2.80  12 2.80  15 2.80  16 2.80
                            21 2.80  22 2.80  23 2.80  24 2.80
 
  LATTYP: Found a simple cubic cell.
 ALAT       =     7.9101270851
  
  Lattice vectors:
  
 A1 = (   7.9101270851,   0.0000000000,   0.0000000000)
 A2 = (   0.0000000000,   7.9101270851,   0.0000000000)
 A3 = (   0.0000000000,   0.0000000000,   7.9101270851)
 Subroutine PRICEL returns:
 Original cell was already a primitive cell.
 

Analysis of symmetry for initial positions (statically):

 Routine SETGRP: Setting up the symmetry group for a 
 simple cubic supercell.


 Subroutine GETGRP returns: Found  8 space group operations
 (whereof  8 operations were pure point group operations)
 out of a pool of 48 trial point group operations.


The static configuration has the point symmetry C_4v.

Analysis of symmetry for dynamics (positions and initial velocities):

 Subroutine DYNSYM returns: Found  8 space group operations
 (whereof  8 operations were pure point group operations)
 out of a pool of  8 trial space group operations
 (whereof  8 operations were pure point group operations)
 and found also     1 'primitive' translations


The dynamic configuration has the point symmetry C_4v.
 
 
 KPOINTS: Automatic mesh                          

Automatic generation of k-mesh.
 
 Subroutine IBZKPT returns following result:
 ===========================================
 
 Found    196 irreducible k-points:
 
 Following reciprocal coordinates:
            Coordinates               Weight
  0.000000  0.000000  0.000000      1.000000
  0.083333  0.000000  0.000000      2.000000
  0.166667  0.000000  0.000000      2.000000
  0.250000  0.000000  0.000000      2.000000
  0.333333  0.000000  0.000000      2.000000
  0.416667  0.000000  0.000000      2.000000
  0.500000  0.000000  0.000000      1.000000
  0.000000  0.083333  0.000000      4.000000
  0.083333  0.083333  0.000000      8.000000
  0.166667  0.083333  0.000000      8.000000
  0.250000  0.083333  0.000000      8.000000
  0.333333  0.083333  0.000000      8.000000
  0.416667  0.083333  0.000000      8.000000
  0.500000  0.083333  0.000000      4.000000
  0.000000  0.166667  0.000000      4.000000
  0.083333  0.166667  0.000000      8.000000
  0.166667  0.166667  0.000000      8.000000
  0.250000  0.166667  0.000000      8.000000
  0.333333  0.166667  0.000000      8.000000
  0.416667  0.166667  0.000000      8.000000
  0.500000  0.166667  0.000000      4.000000
  0.000000  0.250000  0.000000      4.000000
  0.083333  0.250000  0.000000      8.000000
  0.166667  0.250000  0.000000      8.000000
  0.250000  0.250000  0.000000      8.000000
  0.333333  0.250000  0.000000      8.000000
  0.416667  0.250000  0.000000      8.000000
  0.500000  0.250000  0.000000      4.000000
  0.000000  0.333333  0.000000      4.000000
  0.083333  0.333333  0.000000      8.000000
  0.166667  0.333333  0.000000      8.000000
  0.250000  0.333333  0.000000      8.000000
  0.333333  0.333333  0.000000      8.000000
  0.416667  0.333333  0.000000      8.000000
  0.500000  0.333333  0.000000      4.000000
  0.000000  0.416667  0.000000      4.000000
  0.083333  0.416667  0.000000      8.000000
  0.166667  0.416667  0.000000      8.000000
  0.250000  0.416667  0.000000      8.000000
  0.333333  0.416667  0.000000      8.000000
  0.416667  0.416667  0.000000      8.000000
  0.500000  0.416667  0.000000      4.000000
  0.000000  0.500000  0.000000      2.000000
  0.083333  0.500000  0.000000      4.000000
  0.166667  0.500000  0.000000      4.000000
  0.250000  0.500000  0.000000      4.000000
  0.333333  0.500000  0.000000      4.000000
  0.416667  0.500000  0.000000      4.000000
  0.500000  0.500000  0.000000      2.000000
  0.000000  0.083333  0.083333      4.000000
  0.083333  0.083333  0.083333      8.000000
  0.166667  0.083333  0.083333      8.000000
  0.250000  0.083333  0.083333      8.000000
  0.333333  0.083333  0.083333      8.000000
  0.416667  0.083333  0.083333      8.000000
  0.500000  0.083333  0.083333      4.000000
  0.000000  0.166667  0.083333      8.000000
  0.083333  0.166667  0.083333     16.000000
  0.166667  0.166667  0.083333     16.000000
  0.250000  0.166667  0.083333     16.000000
  0.333333  0.166667  0.083333     16.000000
  0.416667  0.166667  0.083333     16.000000
  0.500000  0.166667  0.083333      8.000000
  0.000000  0.250000  0.083333      8.000000
  0.083333  0.250000  0.083333     16.000000
  0.166667  0.250000  0.083333     16.000000
  0.250000  0.250000  0.083333     16.000000
  0.333333  0.250000  0.083333     16.000000
  0.416667  0.250000  0.083333     16.000000
  0.500000  0.250000  0.083333      8.000000
  0.000000  0.333333  0.083333      8.000000
  0.083333  0.333333  0.083333     16.000000
  0.166667  0.333333  0.083333     16.000000
  0.250000  0.333333  0.083333     16.000000
  0.333333  0.333333  0.083333     16.000000
  0.416667  0.333333  0.083333     16.000000
  0.500000  0.333333  0.083333      8.000000
  0.000000  0.416667  0.083333      8.000000
  0.083333  0.416667  0.083333     16.000000
  0.166667  0.416667  0.083333     16.000000
  0.250000  0.416667  0.083333     16.000000
  0.333333  0.416667  0.083333     16.000000
  0.416667  0.416667  0.083333     16.000000
  0.500000  0.416667  0.083333      8.000000
  0.000000  0.500000  0.083333      4.000000
  0.083333  0.500000  0.083333      8.000000
  0.166667  0.500000  0.083333      8.000000
  0.250000  0.500000  0.083333      8.000000
  0.333333  0.500000  0.083333      8.000000
  0.416667  0.500000  0.083333      8.000000
  0.500000  0.500000  0.083333      4.000000
  0.000000  0.166667  0.166667      4.000000
  0.083333  0.166667  0.166667      8.000000
  0.166667  0.166667  0.166667      8.000000
  0.250000  0.166667  0.166667      8.000000
  0.333333  0.166667  0.166667      8.000000
  0.416667  0.166667  0.166667      8.000000
  0.500000  0.166667  0.166667      4.000000
  0.000000  0.250000  0.166667      8.000000
  0.083333  0.250000  0.166667     16.000000
  0.166667  0.250000  0.166667     16.000000
  0.250000  0.250000  0.166667     16.000000
  0.333333  0.250000  0.166667     16.000000
  0.416667  0.250000  0.166667     16.000000
  0.500000  0.250000  0.166667      8.000000
  0.000000  0.333333  0.166667      8.000000
  0.083333  0.333333  0.166667     16.000000
  0.166667  0.333333  0.166667     16.000000
  0.250000  0.333333  0.166667     16.000000
  0.333333  0.333333  0.166667     16.000000
  0.416667  0.333333  0.166667     16.000000
  0.500000  0.333333  0.166667      8.000000
  0.000000  0.416667  0.166667      8.000000
  0.083333  0.416667  0.166667     16.000000
  0.166667  0.416667  0.166667     16.000000
  0.250000  0.416667  0.166667     16.000000
  0.333333  0.416667  0.166667     16.000000
  0.416667  0.416667  0.166667     16.000000
  0.500000  0.416667  0.166667      8.000000
  0.000000  0.500000  0.166667      4.000000
  0.083333  0.500000  0.166667      8.000000
  0.166667  0.500000  0.166667      8.000000
  0.250000  0.500000  0.166667      8.000000
  0.333333  0.500000  0.166667      8.000000
  0.416667  0.500000  0.166667      8.000000
  0.500000  0.500000  0.166667      4.000000
  0.000000  0.250000  0.250000      4.000000
  0.083333  0.250000  0.250000      8.000000
  0.166667  0.250000  0.250000      8.000000
  0.250000  0.250000  0.250000      8.000000
  0.333333  0.250000  0.250000      8.000000
  0.416667  0.250000  0.250000      8.000000
  0.500000  0.250000  0.250000      4.000000
  0.000000  0.333333  0.250000      8.000000
  0.083333  0.333333  0.250000     16.000000
  0.166667  0.333333  0.250000     16.000000
  0.250000  0.333333  0.250000     16.000000
  0.333333  0.333333  0.250000     16.000000
  0.416667  0.333333  0.250000     16.000000
  0.500000  0.333333  0.250000      8.000000
  0.000000  0.416667  0.250000      8.000000
  0.083333  0.416667  0.250000     16.000000
  0.166667  0.416667  0.250000     16.000000
  0.250000  0.416667  0.250000     16.000000
  0.333333  0.416667  0.250000     16.000000
  0.416667  0.416667  0.250000     16.000000
  0.500000  0.416667  0.250000      8.000000
  0.000000  0.500000  0.250000      4.000000
  0.083333  0.500000  0.250000      8.000000
  0.166667  0.500000  0.250000      8.000000
  0.250000  0.500000  0.250000      8.000000
  0.333333  0.500000  0.250000      8.000000
  0.416667  0.500000  0.250000      8.000000
  0.500000  0.500000  0.250000      4.000000
  0.000000  0.333333  0.333333      4.000000
  0.083333  0.333333  0.333333      8.000000
  0.166667  0.333333  0.333333      8.000000
  0.250000  0.333333  0.333333      8.000000
  0.333333  0.333333  0.333333      8.000000
  0.416667  0.333333  0.333333      8.000000
  0.500000  0.333333  0.333333      4.000000
  0.000000  0.416667  0.333333      8.000000
  0.083333  0.416667  0.333333     16.000000
  0.166667  0.416667  0.333333     16.000000
  0.250000  0.416667  0.333333     16.000000
  0.333333  0.416667  0.333333     16.000000
  0.416667  0.416667  0.333333     16.000000
  0.500000  0.416667  0.333333      8.000000
  0.000000  0.500000  0.333333      4.000000
  0.083333  0.500000  0.333333      8.000000
  0.166667  0.500000  0.333333      8.000000
  0.250000  0.500000  0.333333      8.000000
  0.333333  0.500000  0.333333      8.000000
  0.416667  0.500000  0.333333      8.000000
  0.500000  0.500000  0.333333      4.000000
  0.000000  0.416667  0.416667      4.000000
  0.083333  0.416667  0.416667      8.000000
  0.166667  0.416667  0.416667      8.000000
  0.250000  0.416667  0.416667      8.000000
  0.333333  0.416667  0.416667      8.000000
  0.416667  0.416667  0.416667      8.000000
  0.500000  0.416667  0.416667      4.000000
  0.000000  0.500000  0.416667      4.000000
  0.083333  0.500000  0.416667      8.000000
  0.166667  0.500000  0.416667      8.000000
  0.250000  0.500000  0.416667      8.000000
  0.333333  0.500000  0.416667      8.000000
  0.416667  0.500000  0.416667      8.000000
  0.500000  0.500000  0.416667      4.000000
  0.000000  0.500000  0.500000      1.000000
  0.083333  0.500000  0.500000      2.000000
  0.166667  0.500000  0.500000      2.000000
  0.250000  0.500000  0.500000      2.000000
  0.333333  0.500000  0.500000      2.000000
  0.416667  0.500000  0.500000      2.000000
  0.500000  0.500000  0.500000      1.000000
 
 Following cartesian coordinates:
            Coordinates               Weight
  0.000000  0.000000  0.000000      1.000000
  0.010535  0.000000  0.000000      2.000000
  0.021070  0.000000  0.000000      2.000000
  0.031605  0.000000  0.000000      2.000000
  0.042140  0.000000  0.000000      2.000000
  0.052675  0.000000  0.000000      2.000000
  0.063210  0.000000  0.000000      1.000000
  0.000000  0.010535  0.000000      4.000000
  0.010535  0.010535  0.000000      8.000000
  0.021070  0.010535  0.000000      8.000000
  0.031605  0.010535  0.000000      8.000000
  0.042140  0.010535  0.000000      8.000000
  0.052675  0.010535  0.000000      8.000000
  0.063210  0.010535  0.000000      4.000000
  0.000000  0.021070  0.000000      4.000000
  0.010535  0.021070  0.000000      8.000000
  0.021070  0.021070  0.000000      8.000000
  0.031605  0.021070  0.000000      8.000000
  0.042140  0.021070  0.000000      8.000000
  0.052675  0.021070  0.000000      8.000000
  0.063210  0.021070  0.000000      4.000000
  0.000000  0.031605  0.000000      4.000000
  0.010535  0.031605  0.000000      8.000000
  0.021070  0.031605  0.000000      8.000000
  0.031605  0.031605  0.000000      8.000000
  0.042140  0.031605  0.000000      8.000000
  0.052675  0.031605  0.000000      8.000000
  0.063210  0.031605  0.000000      4.000000
  0.000000  0.042140  0.000000      4.000000
  0.010535  0.042140  0.000000      8.000000
  0.021070  0.042140  0.000000      8.000000
  0.031605  0.042140  0.000000      8.000000
  0.042140  0.042140  0.000000      8.000000
  0.052675  0.042140  0.000000      8.000000
  0.063210  0.042140  0.000000      4.000000
  0.000000  0.052675  0.000000      4.000000
  0.010535  0.052675  0.000000      8.000000
  0.021070  0.052675  0.000000      8.000000
  0.031605  0.052675  0.000000      8.000000
  0.042140  0.052675  0.000000      8.000000
  0.052675  0.052675  0.000000      8.000000
  0.063210  0.052675  0.000000      4.000000
  0.000000  0.063210  0.000000      2.000000
  0.010535  0.063210  0.000000      4.000000
  0.021070  0.063210  0.000000      4.000000
  0.031605  0.063210  0.000000      4.000000
  0.042140  0.063210  0.000000      4.000000
  0.052675  0.063210  0.000000      4.000000
  0.063210  0.063210  0.000000      2.000000
  0.000000  0.010535  0.010535      4.000000
  0.010535  0.010535  0.010535      8.000000
  0.021070  0.010535  0.010535      8.000000
  0.031605  0.010535  0.010535      8.000000
  0.042140  0.010535  0.010535      8.000000
  0.052675  0.010535  0.010535      8.000000
  0.063210  0.010535  0.010535      4.000000
  0.000000  0.021070  0.010535      8.000000
  0.010535  0.021070  0.010535     16.000000
  0.021070  0.021070  0.010535     16.000000
  0.031605  0.021070  0.010535     16.000000
  0.042140  0.021070  0.010535     16.000000
  0.052675  0.021070  0.010535     16.000000
  0.063210  0.021070  0.010535      8.000000
  0.000000  0.031605  0.010535      8.000000
  0.010535  0.031605  0.010535     16.000000
  0.021070  0.031605  0.010535     16.000000
  0.031605  0.031605  0.010535     16.000000
  0.042140  0.031605  0.010535     16.000000
  0.052675  0.031605  0.010535     16.000000
  0.063210  0.031605  0.010535      8.000000
  0.000000  0.042140  0.010535      8.000000
  0.010535  0.042140  0.010535     16.000000
  0.021070  0.042140  0.010535     16.000000
  0.031605  0.042140  0.010535     16.000000
  0.042140  0.042140  0.010535     16.000000
  0.052675  0.042140  0.010535     16.000000
  0.063210  0.042140  0.010535      8.000000
  0.000000  0.052675  0.010535      8.000000
  0.010535  0.052675  0.010535     16.000000
  0.021070  0.052675  0.010535     16.000000
  0.031605  0.052675  0.010535     16.000000
  0.042140  0.052675  0.010535     16.000000
  0.052675  0.052675  0.010535     16.000000
  0.063210  0.052675  0.010535      8.000000
  0.000000  0.063210  0.010535      4.000000
  0.010535  0.063210  0.010535      8.000000
  0.021070  0.063210  0.010535      8.000000
  0.031605  0.063210  0.010535      8.000000
  0.042140  0.063210  0.010535      8.000000
  0.052675  0.063210  0.010535      8.000000
  0.063210  0.063210  0.010535      4.000000
  0.000000  0.021070  0.021070      4.000000
  0.010535  0.021070  0.021070      8.000000
  0.021070  0.021070  0.021070      8.000000
  0.031605  0.021070  0.021070      8.000000
  0.042140  0.021070  0.021070      8.000000
  0.052675  0.021070  0.021070      8.000000
  0.063210  0.021070  0.021070      4.000000
  0.000000  0.031605  0.021070      8.000000
  0.010535  0.031605  0.021070     16.000000
  0.021070  0.031605  0.021070     16.000000
  0.031605  0.031605  0.021070     16.000000
  0.042140  0.031605  0.021070     16.000000
  0.052675  0.031605  0.021070     16.000000
  0.063210  0.031605  0.021070      8.000000
  0.000000  0.042140  0.021070      8.000000
  0.010535  0.042140  0.021070     16.000000
  0.021070  0.042140  0.021070     16.000000
  0.031605  0.042140  0.021070     16.000000
  0.042140  0.042140  0.021070     16.000000
  0.052675  0.042140  0.021070     16.000000
  0.063210  0.042140  0.021070      8.000000
  0.000000  0.052675  0.021070      8.000000
  0.010535  0.052675  0.021070     16.000000
  0.021070  0.052675  0.021070     16.000000
  0.031605  0.052675  0.021070     16.000000
  0.042140  0.052675  0.021070     16.000000
  0.052675  0.052675  0.021070     16.000000
  0.063210  0.052675  0.021070      8.000000
  0.000000  0.063210  0.021070      4.000000
  0.010535  0.063210  0.021070      8.000000
  0.021070  0.063210  0.021070      8.000000
  0.031605  0.063210  0.021070      8.000000
  0.042140  0.063210  0.021070      8.000000
  0.052675  0.063210  0.021070      8.000000
  0.063210  0.063210  0.021070      4.000000
  0.000000  0.031605  0.031605      4.000000
  0.010535  0.031605  0.031605      8.000000
  0.021070  0.031605  0.031605      8.000000
  0.031605  0.031605  0.031605      8.000000
  0.042140  0.031605  0.031605      8.000000
  0.052675  0.031605  0.031605      8.000000
  0.063210  0.031605  0.031605      4.000000
  0.000000  0.042140  0.031605      8.000000
  0.010535  0.042140  0.031605     16.000000
  0.021070  0.042140  0.031605     16.000000
  0.031605  0.042140  0.031605     16.000000
  0.042140  0.042140  0.031605     16.000000
  0.052675  0.042140  0.031605     16.000000
  0.063210  0.042140  0.031605      8.000000
  0.000000  0.052675  0.031605      8.000000
  0.010535  0.052675  0.031605     16.000000
  0.021070  0.052675  0.031605     16.000000
  0.031605  0.052675  0.031605     16.000000
  0.042140  0.052675  0.031605     16.000000
  0.052675  0.052675  0.031605     16.000000
  0.063210  0.052675  0.031605      8.000000
  0.000000  0.063210  0.031605      4.000000
  0.010535  0.063210  0.031605      8.000000
  0.021070  0.063210  0.031605      8.000000
  0.031605  0.063210  0.031605      8.000000
  0.042140  0.063210  0.031605      8.000000
  0.052675  0.063210  0.031605      8.000000
  0.063210  0.063210  0.031605      4.000000
  0.000000  0.042140  0.042140      4.000000
  0.010535  0.042140  0.042140      8.000000
  0.021070  0.042140  0.042140      8.000000
  0.031605  0.042140  0.042140      8.000000
  0.042140  0.042140  0.042140      8.000000
  0.052675  0.042140  0.042140      8.000000
  0.063210  0.042140  0.042140      4.000000
  0.000000  0.052675  0.042140      8.000000
  0.010535  0.052675  0.042140     16.000000
  0.021070  0.052675  0.042140     16.000000
  0.031605  0.052675  0.042140     16.000000
  0.042140  0.052675  0.042140     16.000000
  0.052675  0.052675  0.042140     16.000000
  0.063210  0.052675  0.042140      8.000000
  0.000000  0.063210  0.042140      4.000000
  0.010535  0.063210  0.042140      8.000000
  0.021070  0.063210  0.042140      8.000000
  0.031605  0.063210  0.042140      8.000000
  0.042140  0.063210  0.042140      8.000000
  0.052675  0.063210  0.042140      8.000000
  0.063210  0.063210  0.042140      4.000000
  0.000000  0.052675  0.052675      4.000000
  0.010535  0.052675  0.052675      8.000000
  0.021070  0.052675  0.052675      8.000000
  0.031605  0.052675  0.052675      8.000000
  0.042140  0.052675  0.052675      8.000000
  0.052675  0.052675  0.052675      8.000000
  0.063210  0.052675  0.052675      4.000000
  0.000000  0.063210  0.052675      4.000000
  0.010535  0.063210  0.052675      8.000000
  0.021070  0.063210  0.052675      8.000000
  0.031605  0.063210  0.052675      8.000000
  0.042140  0.063210  0.052675      8.000000
  0.052675  0.063210  0.052675      8.000000
  0.063210  0.063210  0.052675      4.000000
  0.000000  0.063210  0.063210      1.000000
  0.010535  0.063210  0.063210      2.000000
  0.021070  0.063210  0.063210      2.000000
  0.031605  0.063210  0.063210      2.000000
  0.042140  0.063210  0.063210      2.000000
  0.052675  0.063210  0.063210      2.000000
  0.063210  0.063210  0.063210      1.000000
 


--------------------------------------------------------------------------------------------------------




 Dimension of arrays:
   k-Points           NKPTS =    196   number of bands    NBANDS=    212
   number of dos      NEDOS =    301   number of ions     NIONS =     32
   non local maximal  LDIM  =      6   non local SUM 2l+1 LMDIM =     18
   total plane-waves  NPLWV = 373248
   max r-space proj   IRMAX =      1   max aug-charges    IRDMAX= 296802
   dimension x,y,z NGX =    72 NGY =   72 NGZ =   72
   dimension x,y,z NGXF=   144 NGYF=  144 NGZF=  144
   support grid    NGXF=   288 NGYF=  288 NGZF=  288
   ions per type =              32
 NGX,Y,Z   is equivalent  to a cutoff of  15.13, 15.13, 15.13 a.u.
 NGXF,Y,Z  is equivalent  to a cutoff of  30.26, 30.26, 30.26 a.u.


 I would recommend the setting:
   dimension x,y,z NGX =    71 NGY =   71 NGZ =   71
 SYSTEM =  unknown system                          
 POSCAR =  Ag                                      

 Startparameter for this run:
   NWRITE =      2    write-flag & timer
   PREC   = accura    medium, high low
   ISTART =      0    job   : 0-new  1-cont  2-samecut
   ICHARG =      2    charge: 1-file 2-atom 10-const
   ISPIN  =      1    spin polarized calculation?
   LNONCOLLINEAR =      F non collinear calculations
   LSORBIT =      F    spin-orbit coupling
   INIWAV =      1    electr: 0-lowe 1-rand  2-diag
   LASPH  =      F    aspherical Exc in radial PAW
   METAGGA=      F    non-selfconsistent MetaGGA calc.

 Electronic Relaxation 1
   ENCUT  =  750.0 eV  55.12 Ry    7.42 a.u.  17.66 17.66 17.66*2*pi/ulx,y,z
   ENINI  =  750.0     initial cutoff
   ENAUG  =  412.5 eV  augmentation charge cutoff
   NELM   =     60;   NELMIN=  2; NELMDL= -5     # of ELM steps 
   EDIFF  = 0.1E-07   stopping-criterion for ELM
   LREAL  =      F    real-space projection
   LCOMPAT=      F    compatible to vasp.4.4
   LREAL_COMPAT= F    compatible to vasp.4.5.1-3
   GGA_COMPAT  = T    GGA compatible to vasp.4.4-vasp.4.6
   LMAXPAW     = -100 max onsite density
   LMAXMIX     =    2 max onsite mixed and CHGCAR
   VOSKOWN=      0    Vosko Wilk Nusair interpolation
   ROPT   =    0.00000
 Ionic relaxation
   EDIFFG = 0.1E-06   stopping-criterion for IOM
   NSW    =      0    number of steps for IOM
   NBLOCK =      1;   KBLOCK =      1    inner block; outer block 
   IBRION =     -1    ionic relax: 0-MD 1-quasi-New 2-CG
   NFREE  =      0    steps in history (QN), initial steepest desc. (CG)
   ISIF   =      2    stress and relaxation
   IWAVPR =     10    prediction:  0-non 1-charg 2-wave 3-comb
   ISYM   =      2    0-nonsym 1-usesym 2-fastsym
   LCORR  =      T    Harris-Foulkes like correction to forces

   POTIM  =   0.50    time-step for ionic-motion
   TEIN   =    0.0    initial temperature
   TEBEG  =    0.0;   TEEND  =   0.0 temperature during run
   SMASS  =  -3.00    Nose mass-parameter (am)
   estimated Nose-frequenzy (Omega)   =  0.10E-29 period in steps =****** mass=  -0.143E-26a.u.
   NPACO  =    256;   APACO  = 16.0  distance and # of slots for P.C.
   PSTRESS=    0.0 pullay stress

  Mass of Ions in am
   POMASS = 107.87
  Ionic Valenz
   ZVAL   =  11.00
  Atomic Wigner-Seitz radii
   RWIGS  =  -1.00
   NELECT =     352.0000    total number of electrons
   NUPDOWN=      -1.0000    fix difference up-down

 DOS related values:
   EMIN   =  10.00;   EMAX   =-10.00  energy-range for DOS
   ISMEAR =     0;   SIGMA  =   0.01  broadening in eV -4-tet -1-fermi 0-gaus

 Electronic relaxation 2 (details)
   IALGO  =     38    algorithm
   LDIAG  =      T    sub-space diagonalisation
   IMIX   =      4    mixing-type and parameters
     AMIX     =   0.40;   BMIX     =  1.00
     AMIX_MAG =   1.60;   BMIX_MAG =  1.00
     AMIN     =   0.10
     WC   =   100.;   INIMIX=   1;  MIXPRE=   1

 Intra band minimization:
   WEIMIN = 0.0000     energy-eigenvalue tresh-hold
   EBREAK =  0.12E-10  absolut break condition
   DEPER  =   0.30     relativ break condition  

   TIME   =   0.10     timestep for ELM

  volume/ion in A,a.u.               =      15.47       104.38
  Fermi-wavevector in a.u.,eV,Ry     =   1.461298 29.053788  2.135393

 Second variation
   LSECVAR=     F    do a second variation
 
 Write flags
   LWAVE  =      F    write WAVECAR
   LCHARG =      F    write CHGCAR
   LVTOT  =      F    write LOCPOT, local potential
   LELF   =      F    write electronic localiz. function (ELF)
   LORBIT =      0    0 simple, 1 ext, 2 COOP (PROOUT)


 Dipole corrections
   IDIPOL =      0    1-x, 2-y, 3-z
   LDIPOL =      F    correct potential



--------------------------------------------------------------------------------------------------------


 Static calculation
 charge density will be updated during run
 non-spin polarized calculation
 Variant of blocked Davidson
 Davidson routine will perform the subspace rotation
 performe sub-space diagonalisation
    after iterative eigenvector-optimisation
 modified Broyden-mixing scheme, WC =      100.0
 initial mixing is a Kerker type mixing with AMIX =  0.4000 and BMIX =      1.0000
 Hartree-type preconditioning will be used
 using additional bands           36
 reciprocal scheme for non local part
 use partial core corrections
 calculate Harris-corrections to forces 
   (improved forces if not selfconsistent)
 use gradient corrections 
 use of overlap-Matrix (Vanderbilt PP)
 Gauss-broadening in eV      SIGMA  =   0.01


--------------------------------------------------------------------------------------------------------


  energy-cutoff  :      750.00
  volume of cell :      494.94
      direct lattice vectors                 reciprocal lattice vectors
     7.910127085  0.000000000  0.000000000     0.126420219  0.000000000  0.000000000
     0.000000000  7.910127085  0.000000000     0.000000000  0.126420219  0.000000000
     0.000000000  0.000000000  7.910127085     0.000000000  0.000000000  0.126420219

  length of vectors
     7.910127085  7.910127085  7.910127085     0.126420219  0.126420219  0.126420219


 
 k-points in units of 2pi/SCALE and weight: Automatic mesh                          
   0.00000000  0.00000000  0.00000000       0.001
   0.01053502  0.00000000  0.00000000       0.001
   0.02107004  0.00000000  0.00000000       0.001
   0.03160505  0.00000000  0.00000000       0.001
   0.04214007  0.00000000  0.00000000       0.001
   0.05267509  0.00000000  0.00000000       0.001
   0.06321011  0.00000000  0.00000000       0.001
   0.00000000  0.01053502  0.00000000       0.002
   0.01053502  0.01053502  0.00000000       0.005
   0.02107004  0.01053502  0.00000000       0.005
   0.03160505  0.01053502  0.00000000       0.005
   0.04214007  0.01053502  0.00000000       0.005
   0.05267509  0.01053502  0.00000000       0.005
   0.06321011  0.01053502  0.00000000       0.002
   0.00000000  0.02107004  0.00000000       0.002
   0.01053502  0.02107004  0.00000000       0.005
   0.02107004  0.02107004  0.00000000       0.005
   0.03160505  0.02107004  0.00000000       0.005
   0.04214007  0.02107004  0.00000000       0.005
   0.05267509  0.02107004  0.00000000       0.005
   0.06321011  0.02107004  0.00000000       0.002
   0.00000000  0.03160505  0.00000000       0.002
   0.01053502  0.03160505  0.00000000       0.005
   0.02107004  0.03160505  0.00000000       0.005
   0.03160505  0.03160505  0.00000000       0.005
   0.04214007  0.03160505  0.00000000       0.005
   0.05267509  0.03160505  0.00000000       0.005
   0.06321011  0.03160505  0.00000000       0.002
   0.00000000  0.04214007  0.00000000       0.002
   0.01053502  0.04214007  0.00000000       0.005
   0.02107004  0.04214007  0.00000000       0.005
   0.03160505  0.04214007  0.00000000       0.005
   0.04214007  0.04214007  0.00000000       0.005
   0.05267509  0.04214007  0.00000000       0.005
   0.06321011  0.04214007  0.00000000       0.002
   0.00000000  0.05267509  0.00000000       0.002
   0.01053502  0.05267509  0.00000000       0.005
   0.02107004  0.05267509  0.00000000       0.005
   0.03160505  0.05267509  0.00000000       0.005
   0.04214007  0.05267509  0.00000000       0.005
   0.05267509  0.05267509  0.00000000       0.005
   0.06321011  0.05267509  0.00000000       0.002
   0.00000000  0.06321011  0.00000000       0.001
   0.01053502  0.06321011  0.00000000       0.002
   0.02107004  0.06321011  0.00000000       0.002
   0.03160505  0.06321011  0.00000000       0.002
   0.04214007  0.06321011  0.00000000       0.002
   0.05267509  0.06321011  0.00000000       0.002
   0.06321011  0.06321011  0.00000000       0.001
   0.00000000  0.01053502  0.01053502       0.002
   0.01053502  0.01053502  0.01053502       0.005
   0.02107004  0.01053502  0.01053502       0.005
   0.03160505  0.01053502  0.01053502       0.005
   0.04214007  0.01053502  0.01053502       0.005
   0.05267509  0.01053502  0.01053502       0.005
   0.06321011  0.01053502  0.01053502       0.002
   0.00000000  0.02107004  0.01053502       0.005
   0.01053502  0.02107004  0.01053502       0.009
   0.02107004  0.02107004  0.01053502       0.009
   0.03160505  0.02107004  0.01053502       0.009
   0.04214007  0.02107004  0.01053502       0.009
   0.05267509  0.02107004  0.01053502       0.009
   0.06321011  0.02107004  0.01053502       0.005
   0.00000000  0.03160505  0.01053502       0.005
   0.01053502  0.03160505  0.01053502       0.009
   0.02107004  0.03160505  0.01053502       0.009
   0.03160505  0.03160505  0.01053502       0.009
   0.04214007  0.03160505  0.01053502       0.009
   0.05267509  0.03160505  0.01053502       0.009
   0.06321011  0.03160505  0.01053502       0.005
   0.00000000  0.04214007  0.01053502       0.005
   0.01053502  0.04214007  0.01053502       0.009
   0.02107004  0.04214007  0.01053502       0.009
   0.03160505  0.04214007  0.01053502       0.009
   0.04214007  0.04214007  0.01053502       0.009
   0.05267509  0.04214007  0.01053502       0.009
   0.06321011  0.04214007  0.01053502       0.005
   0.00000000  0.05267509  0.01053502       0.005
   0.01053502  0.05267509  0.01053502       0.009
   0.02107004  0.05267509  0.01053502       0.009
   0.03160505  0.05267509  0.01053502       0.009
   0.04214007  0.05267509  0.01053502       0.009
   0.05267509  0.05267509  0.01053502       0.009
   0.06321011  0.05267509  0.01053502       0.005
   0.00000000  0.06321011  0.01053502       0.002
   0.01053502  0.06321011  0.01053502       0.005
   0.02107004  0.06321011  0.01053502       0.005
   0.03160505  0.06321011  0.01053502       0.005
   0.04214007  0.06321011  0.01053502       0.005
   0.05267509  0.06321011  0.01053502       0.005
   0.06321011  0.06321011  0.01053502       0.002
   0.00000000  0.02107004  0.02107004       0.002
   0.01053502  0.02107004  0.02107004       0.005
   0.02107004  0.02107004  0.02107004       0.005
   0.03160505  0.02107004  0.02107004       0.005
   0.04214007  0.02107004  0.02107004       0.005
   0.05267509  0.02107004  0.02107004       0.005
   0.06321011  0.02107004  0.02107004       0.002
   0.00000000  0.03160505  0.02107004       0.005
   0.01053502  0.03160505  0.02107004       0.009
   0.02107004  0.03160505  0.02107004       0.009
   0.03160505  0.03160505  0.02107004       0.009
   0.04214007  0.03160505  0.02107004       0.009
   0.05267509  0.03160505  0.02107004       0.009
   0.06321011  0.03160505  0.02107004       0.005
   0.00000000  0.04214007  0.02107004       0.005
   0.01053502  0.04214007  0.02107004       0.009
   0.02107004  0.04214007  0.02107004       0.009
   0.03160505  0.04214007  0.02107004       0.009
   0.04214007  0.04214007  0.02107004       0.009
   0.05267509  0.04214007  0.02107004       0.009
   0.06321011  0.04214007  0.02107004       0.005
   0.00000000  0.05267509  0.02107004       0.005
   0.01053502  0.05267509  0.02107004       0.009
   0.02107004  0.05267509  0.02107004       0.009
   0.03160505  0.05267509  0.02107004       0.009
   0.04214007  0.05267509  0.02107004       0.009
   0.05267509  0.05267509  0.02107004       0.009
   0.06321011  0.05267509  0.02107004       0.005
   0.00000000  0.06321011  0.02107004       0.002
   0.01053502  0.06321011  0.02107004       0.005
   0.02107004  0.06321011  0.02107004       0.005
   0.03160505  0.06321011  0.02107004       0.005
   0.04214007  0.06321011  0.02107004       0.005
   0.05267509  0.06321011  0.02107004       0.005
   0.06321011  0.06321011  0.02107004       0.002
   0.00000000  0.03160505  0.03160505       0.002
   0.01053502  0.03160505  0.03160505       0.005
   0.02107004  0.03160505  0.03160505       0.005
   0.03160505  0.03160505  0.03160505       0.005
   0.04214007  0.03160505  0.03160505       0.005
   0.05267509  0.03160505  0.03160505       0.005
   0.06321011  0.03160505  0.03160505       0.002
   0.00000000  0.04214007  0.03160505       0.005
   0.01053502  0.04214007  0.03160505       0.009
   0.02107004  0.04214007  0.03160505       0.009
   0.03160505  0.04214007  0.03160505       0.009
   0.04214007  0.04214007  0.03160505       0.009
   0.05267509  0.04214007  0.03160505       0.009
   0.06321011  0.04214007  0.03160505       0.005
   0.00000000  0.05267509  0.03160505       0.005
   0.01053502  0.05267509  0.03160505       0.009
   0.02107004  0.05267509  0.03160505       0.009
   0.03160505  0.05267509  0.03160505       0.009
   0.04214007  0.05267509  0.03160505       0.009
   0.05267509  0.05267509  0.03160505       0.009
   0.06321011  0.05267509  0.03160505       0.005
   0.00000000  0.06321011  0.03160505       0.002
   0.01053502  0.06321011  0.03160505       0.005
   0.02107004  0.06321011  0.03160505       0.005
   0.03160505  0.06321011  0.03160505       0.005
   0.04214007  0.06321011  0.03160505       0.005
   0.05267509  0.06321011  0.03160505       0.005
   0.06321011  0.06321011  0.03160505       0.002
   0.00000000  0.04214007  0.04214007       0.002
   0.01053502  0.04214007  0.04214007       0.005
   0.02107004  0.04214007  0.04214007       0.005
   0.03160505  0.04214007  0.04214007       0.005
   0.04214007  0.04214007  0.04214007       0.005
   0.05267509  0.04214007  0.04214007       0.005
   0.06321011  0.04214007  0.04214007       0.002
   0.00000000  0.05267509  0.04214007       0.005
   0.01053502  0.05267509  0.04214007       0.009
   0.02107004  0.05267509  0.04214007       0.009
   0.03160505  0.05267509  0.04214007       0.009
   0.04214007  0.05267509  0.04214007       0.009
   0.05267509  0.05267509  0.04214007       0.009
   0.06321011  0.05267509  0.04214007       0.005
   0.00000000  0.06321011  0.04214007       0.002
   0.01053502  0.06321011  0.04214007       0.005
   0.02107004  0.06321011  0.04214007       0.005
   0.03160505  0.06321011  0.04214007       0.005
   0.04214007  0.06321011  0.04214007       0.005
   0.05267509  0.06321011  0.04214007       0.005
   0.06321011  0.06321011  0.04214007       0.002
   0.00000000  0.05267509  0.05267509       0.002
   0.01053502  0.05267509  0.05267509       0.005
   0.02107004  0.05267509  0.05267509       0.005
   0.03160505  0.05267509  0.05267509       0.005
   0.04214007  0.05267509  0.05267509       0.005
   0.05267509  0.05267509  0.05267509       0.005
   0.06321011  0.05267509  0.05267509       0.002
   0.00000000  0.06321011  0.05267509       0.002
   0.01053502  0.06321011  0.05267509       0.005
   0.02107004  0.06321011  0.05267509       0.005
   0.03160505  0.06321011  0.05267509       0.005
   0.04214007  0.06321011  0.05267509       0.005
   0.05267509  0.06321011  0.05267509       0.005
   0.06321011  0.06321011  0.05267509       0.002
   0.00000000  0.06321011  0.06321011       0.001
   0.01053502  0.06321011  0.06321011       0.001
   0.02107004  0.06321011  0.06321011       0.001
   0.03160505  0.06321011  0.06321011       0.001
   0.04214007  0.06321011  0.06321011       0.001
   0.05267509  0.06321011  0.06321011       0.001
   0.06321011  0.06321011  0.06321011       0.001
 
 k-points in reciprocal lattice and weights: Automatic mesh                          
   0.00000000  0.00000000  0.00000000       0.001
   0.08333333  0.00000000  0.00000000       0.001
   0.16666667  0.00000000  0.00000000       0.001
   0.25000000  0.00000000  0.00000000       0.001
   0.33333333  0.00000000  0.00000000       0.001
   0.41666667  0.00000000  0.00000000       0.001
   0.50000000  0.00000000  0.00000000       0.001
   0.00000000  0.08333333  0.00000000       0.002
   0.08333333  0.08333333  0.00000000       0.005
   0.16666667  0.08333333  0.00000000       0.005
   0.25000000  0.08333333  0.00000000       0.005
   0.33333333  0.08333333  0.00000000       0.005
   0.41666667  0.08333333  0.00000000       0.005
   0.50000000  0.08333333  0.00000000       0.002
   0.00000000  0.16666667  0.00000000       0.002
   0.08333333  0.16666667  0.00000000       0.005
   0.16666667  0.16666667  0.00000000       0.005
   0.25000000  0.16666667  0.00000000       0.005
   0.33333333  0.16666667  0.00000000       0.005
   0.41666667  0.16666667  0.00000000       0.005
   0.50000000  0.16666667  0.00000000       0.002
   0.00000000  0.25000000  0.00000000       0.002
   0.08333333  0.25000000  0.00000000       0.005
   0.16666667  0.25000000  0.00000000       0.005
   0.25000000  0.25000000  0.00000000       0.005
   0.33333333  0.25000000  0.00000000       0.005
   0.41666667  0.25000000  0.00000000       0.005
   0.50000000  0.25000000  0.00000000       0.002
   0.00000000  0.33333333  0.00000000       0.002
   0.08333333  0.33333333  0.00000000       0.005
   0.16666667  0.33333333  0.00000000       0.005
   0.25000000  0.33333333  0.00000000       0.005
   0.33333333  0.33333333  0.00000000       0.005
   0.41666667  0.33333333  0.00000000       0.005
   0.50000000  0.33333333  0.00000000       0.002
   0.00000000  0.41666667  0.00000000       0.002
   0.08333333  0.41666667  0.00000000       0.005
   0.16666667  0.41666667  0.00000000       0.005
   0.25000000  0.41666667  0.00000000       0.005
   0.33333333  0.41666667  0.00000000       0.005
   0.41666667  0.41666667  0.00000000       0.005
   0.50000000  0.41666667  0.00000000       0.002
   0.00000000  0.50000000  0.00000000       0.001
   0.08333333  0.50000000  0.00000000       0.002
   0.16666667  0.50000000  0.00000000       0.002
   0.25000000  0.50000000  0.00000000       0.002
   0.33333333  0.50000000  0.00000000       0.002
   0.41666667  0.50000000  0.00000000       0.002
   0.50000000  0.50000000  0.00000000       0.001
   0.00000000  0.08333333  0.08333333       0.002
   0.08333333  0.08333333  0.08333333       0.005
   0.16666667  0.08333333  0.08333333       0.005
   0.25000000  0.08333333  0.08333333       0.005
   0.33333333  0.08333333  0.08333333       0.005
   0.41666667  0.08333333  0.08333333       0.005
   0.50000000  0.08333333  0.08333333       0.002
   0.00000000  0.16666667  0.08333333       0.005
   0.08333333  0.16666667  0.08333333       0.009
   0.16666667  0.16666667  0.08333333       0.009
   0.25000000  0.16666667  0.08333333       0.009
   0.33333333  0.16666667  0.08333333       0.009
   0.41666667  0.16666667  0.08333333       0.009
   0.50000000  0.16666667  0.08333333       0.005
   0.00000000  0.25000000  0.08333333       0.005
   0.08333333  0.25000000  0.08333333       0.009
   0.16666667  0.25000000  0.08333333       0.009
   0.25000000  0.25000000  0.08333333       0.009
   0.33333333  0.25000000  0.08333333       0.009
   0.41666667  0.25000000  0.08333333       0.009
   0.50000000  0.25000000  0.08333333       0.005
   0.00000000  0.33333333  0.08333333       0.005
   0.08333333  0.33333333  0.08333333       0.009
   0.16666667  0.33333333  0.08333333       0.009
   0.25000000  0.33333333  0.08333333       0.009
   0.33333333  0.33333333  0.08333333       0.009
   0.41666667  0.33333333  0.08333333       0.009
   0.50000000  0.33333333  0.08333333       0.005
   0.00000000  0.41666667  0.08333333       0.005
   0.08333333  0.41666667  0.08333333       0.009
   0.16666667  0.41666667  0.08333333       0.009
   0.25000000  0.41666667  0.08333333       0.009
   0.33333333  0.41666667  0.08333333       0.009
   0.41666667  0.41666667  0.08333333       0.009
   0.50000000  0.41666667  0.08333333       0.005
   0.00000000  0.50000000  0.08333333       0.002
   0.08333333  0.50000000  0.08333333       0.005
   0.16666667  0.50000000  0.08333333       0.005
   0.25000000  0.50000000  0.08333333       0.005
   0.33333333  0.50000000  0.08333333       0.005
   0.41666667  0.50000000  0.08333333       0.005
   0.50000000  0.50000000  0.08333333       0.002
   0.00000000  0.16666667  0.16666667       0.002
   0.08333333  0.16666667  0.16666667       0.005
   0.16666667  0.16666667  0.16666667       0.005
   0.25000000  0.16666667  0.16666667       0.005
   0.33333333  0.16666667  0.16666667       0.005
   0.41666667  0.16666667  0.16666667       0.005
   0.50000000  0.16666667  0.16666667       0.002
   0.00000000  0.25000000  0.16666667       0.005
   0.08333333  0.25000000  0.16666667       0.009
   0.16666667  0.25000000  0.16666667       0.009
   0.25000000  0.25000000  0.16666667       0.009
   0.33333333  0.25000000  0.16666667       0.009
   0.41666667  0.25000000  0.16666667       0.009
   0.50000000  0.25000000  0.16666667       0.005
   0.00000000  0.33333333  0.16666667       0.005
   0.08333333  0.33333333  0.16666667       0.009
   0.16666667  0.33333333  0.16666667       0.009
   0.25000000  0.33333333  0.16666667       0.009
   0.33333333  0.33333333  0.16666667       0.009
   0.41666667  0.33333333  0.16666667       0.009
   0.50000000  0.33333333  0.16666667       0.005
   0.00000000  0.41666667  0.16666667       0.005
   0.08333333  0.41666667  0.16666667       0.009
   0.16666667  0.41666667  0.16666667       0.009
   0.25000000  0.41666667  0.16666667       0.009
   0.33333333  0.41666667  0.16666667       0.009
   0.41666667  0.41666667  0.16666667       0.009
   0.50000000  0.41666667  0.16666667       0.005
   0.00000000  0.50000000  0.16666667       0.002
   0.08333333  0.50000000  0.16666667       0.005
   0.16666667  0.50000000  0.16666667       0.005
   0.25000000  0.50000000  0.16666667       0.005
   0.33333333  0.50000000  0.16666667       0.005
   0.41666667  0.50000000  0.16666667       0.005
   0.50000000  0.50000000  0.16666667       0.002
   0.00000000  0.25000000  0.25000000       0.002
   0.08333333  0.25000000  0.25000000       0.005
   0.16666667  0.25000000  0.25000000       0.005
   0.25000000  0.25000000  0.25000000       0.005
   0.33333333  0.25000000  0.25000000       0.005
   0.41666667  0.25000000  0.25000000       0.005
   0.50000000  0.25000000  0.25000000       0.002
   0.00000000  0.33333333  0.25000000       0.005
   0.08333333  0.33333333  0.25000000       0.009
   0.16666667  0.33333333  0.25000000       0.009
   0.25000000  0.33333333  0.25000000       0.009
   0.33333333  0.33333333  0.25000000       0.009
   0.41666667  0.33333333  0.25000000       0.009
   0.50000000  0.33333333  0.25000000       0.005
   0.00000000  0.41666667  0.25000000       0.005
   0.08333333  0.41666667  0.25000000       0.009
   0.16666667  0.41666667  0.25000000       0.009
   0.25000000  0.41666667  0.25000000       0.009
   0.33333333  0.41666667  0.25000000       0.009
   0.41666667  0.41666667  0.25000000       0.009
   0.50000000  0.41666667  0.25000000       0.005
   0.00000000  0.50000000  0.25000000       0.002
   0.08333333  0.50000000  0.25000000       0.005
   0.16666667  0.50000000  0.25000000       0.005
   0.25000000  0.50000000  0.25000000       0.005
   0.33333333  0.50000000  0.25000000       0.005
   0.41666667  0.50000000  0.25000000       0.005
   0.50000000  0.50000000  0.25000000       0.002
   0.00000000  0.33333333  0.33333333       0.002
   0.08333333  0.33333333  0.33333333       0.005
   0.16666667  0.33333333  0.33333333       0.005
   0.25000000  0.33333333  0.33333333       0.005
   0.33333333  0.33333333  0.33333333       0.005
   0.41666667  0.33333333  0.33333333       0.005
   0.50000000  0.33333333  0.33333333       0.002
   0.00000000  0.41666667  0.33333333       0.005
   0.08333333  0.41666667  0.33333333       0.009
   0.16666667  0.41666667  0.33333333       0.009
   0.25000000  0.41666667  0.33333333       0.009
   0.33333333  0.41666667  0.33333333       0.009
   0.41666667  0.41666667  0.33333333       0.009
   0.50000000  0.41666667  0.33333333       0.005
   0.00000000  0.50000000  0.33333333       0.002
   0.08333333  0.50000000  0.33333333       0.005
   0.16666667  0.50000000  0.33333333       0.005
   0.25000000  0.50000000  0.33333333       0.005
   0.33333333  0.50000000  0.33333333       0.005
   0.41666667  0.50000000  0.33333333       0.005
   0.50000000  0.50000000  0.33333333       0.002
   0.00000000  0.41666667  0.41666667       0.002
   0.08333333  0.41666667  0.41666667       0.005
   0.16666667  0.41666667  0.41666667       0.005
   0.25000000  0.41666667  0.41666667       0.005
   0.33333333  0.41666667  0.41666667       0.005
   0.41666667  0.41666667  0.41666667       0.005
   0.50000000  0.41666667  0.41666667       0.002
   0.00000000  0.50000000  0.41666667       0.002
   0.08333333  0.50000000  0.41666667       0.005
   0.16666667  0.50000000  0.41666667       0.005
   0.25000000  0.50000000  0.41666667       0.005
   0.33333333  0.50000000  0.41666667       0.005
   0.41666667  0.50000000  0.41666667       0.005
   0.50000000  0.50000000  0.41666667       0.002
   0.00000000  0.50000000  0.50000000       0.001
   0.08333333  0.50000000  0.50000000       0.001
   0.16666667  0.50000000  0.50000000       0.001
   0.25000000  0.50000000  0.50000000       0.001
   0.33333333  0.50000000  0.50000000       0.001
   0.41666667  0.50000000  0.50000000       0.001
   0.50000000  0.50000000  0.50000000       0.001
 
 position of ions in fractional coordinates (direct lattice) 
   0.00126420  0.00000000  0.00000000
   0.50000000  0.00000000  0.00000000
   0.00000000  0.50000000  0.00000000
   0.50000000  0.50000000  0.00000000
   0.00000000  0.00000000  0.50000000
   0.50000000  0.00000000  0.50000000
   0.00000000  0.50000000  0.50000000
   0.50000000  0.50000000  0.50000000
   0.25000000  0.25000000  0.00000000
   0.75000000  0.25000000  0.00000000
   0.25000000  0.75000000  0.00000000
   0.75000000  0.75000000  0.00000000
   0.25000000  0.25000000  0.50000000
   0.75000000  0.25000000  0.50000000
   0.25000000  0.75000000  0.50000000
   0.75000000  0.75000000  0.50000000
   0.25000000  0.00000000  0.25000000
   0.75000000  0.00000000  0.25000000
   0.25000000  0.50000000  0.25000000
   0.75000000  0.50000000  0.25000000
   0.25000000  0.00000000  0.75000000
   0.75000000  0.00000000  0.75000000
   0.25000000  0.50000000  0.75000000
   0.75000000  0.50000000  0.75000000
   0.00000000  0.25000000  0.25000000
   0.50000000  0.25000000  0.25000000
   0.00000000  0.75000000  0.25000000
   0.50000000  0.75000000  0.25000000
   0.00000000  0.25000000  0.75000000
   0.50000000  0.25000000  0.75000000
   0.00000000  0.75000000  0.75000000
   0.50000000  0.75000000  0.75000000
 
 position of ions in cartesian coordinates  (Angst):
   0.01000000  0.00000000  0.00000000
   3.95506354  0.00000000  0.00000000
   0.00000000  3.95506354  0.00000000
   3.95506354  3.95506354  0.00000000
   0.00000000  0.00000000  3.95506354
   3.95506354  0.00000000  3.95506354
   0.00000000  3.95506354  3.95506354
   3.95506354  3.95506354  3.95506354
   1.97753177  1.97753177  0.00000000
   5.93259531  1.97753177  0.00000000
   1.97753177  5.93259531  0.00000000
   5.93259531  5.93259531  0.00000000
   1.97753177  1.97753177  3.95506354
   5.93259531  1.97753177  3.95506354
   1.97753177  5.93259531  3.95506354
   5.93259531  5.93259531  3.95506354
   1.97753177  0.00000000  1.97753177
   5.93259531  0.00000000  1.97753177
   1.97753177  3.95506354  1.97753177
   5.93259531  3.95506354  1.97753177
   1.97753177  0.00000000  5.93259531
   5.93259531  0.00000000  5.93259531
   1.97753177  3.95506354  5.93259531
   5.93259531  3.95506354  5.93259531
   0.00000000  1.97753177  1.97753177
   3.95506354  1.97753177  1.97753177
   0.00000000  5.93259531  1.97753177
   3.95506354  5.93259531  1.97753177
   0.00000000  1.97753177  5.93259531
   3.95506354  1.97753177  5.93259531
   0.00000000  5.93259531  5.93259531
   3.95506354  5.93259531  5.93259531
 


--------------------------------------------------------------------------------------------------------


 k-point  1 :  0.00000.00000.0000  plane waves:  22983
 k-point  2 :  0.08330.00000.0000  plane waves:  23067
 k-point  3 :  0.16670.00000.0000  plane waves:  23107
 k-point  4 :  0.25000.00000.0000  plane waves:  23075
 k-point  5 :  0.33330.00000.0000  plane waves:  23095
 k-point  6 :  0.41670.00000.0000  plane waves:  23088
 k-point  7 :  0.50000.00000.0000  plane waves:  23060
 k-point  8 :  0.00000.08330.0000  plane waves:  23067
 k-point  9 :  0.08330.08330.0000  plane waves:  23089
 k-point 10 :  0.16670.08330.0000  plane waves:  23087
 k-point 11 :  0.25000.08330.0000  plane waves:  23090
 k-point 12 :  0.33330.08330.0000  plane waves:  23097
 k-point 13 :  0.41670.08330.0000  plane waves:  23085
 k-point 14 :  0.50000.08330.0000  plane waves:  23092
 k-point 15 :  0.00000.16670.0000  plane waves:  23107
 k-point 16 :  0.08330.16670.0000  plane waves:  23087
 k-point 17 :  0.16670.16670.0000  plane waves:  23057
 k-point 18 :  0.25000.16670.0000  plane waves:  23096
 k-point 19 :  0.33330.16670.0000  plane waves:  23079
 k-point 20 :  0.41670.16670.0000  plane waves:  23078
 k-point 21 :  0.50000.16670.0000  plane waves:  23116
 k-point 22 :  0.00000.25000.0000  plane waves:  23075
 k-point 23 :  0.08330.25000.0000  plane waves:  23090
 k-point 24 :  0.16670.25000.0000  plane waves:  23096
 k-point 25 :  0.25000.25000.0000  plane waves:  23049
 k-point 26 :  0.33330.25000.0000  plane waves:  23062
 k-point 27 :  0.41670.25000.0000  plane waves:  23085
 k-point 28 :  0.50000.25000.0000  plane waves:  23116
 k-point 29 :  0.00000.33330.0000  plane waves:  23095
 k-point 30 :  0.08330.33330.0000  plane waves:  23097
 k-point 31 :  0.16670.33330.0000  plane waves:  23079
 k-point 32 :  0.25000.33330.0000  plane waves:  23062
 k-point 33 :  0.33330.33330.0000  plane waves:  23083
 k-point 34 :  0.41670.33330.0000  plane waves:  23091
 k-point 35 :  0.50000.33330.0000  plane waves:  23084
 k-point 36 :  0.00000.41670.0000  plane waves:  23088
 k-point 37 :  0.08330.41670.0000  plane waves:  23085
 k-point 38 :  0.16670.41670.0000  plane waves:  23078
 k-point 39 :  0.25000.41670.0000  plane waves:  23085
 k-point 40 :  0.33330.41670.0000  plane waves:  23091
 k-point 41 :  0.41670.41670.0000  plane waves:  23087
 k-point 42 :  0.50000.41670.0000  plane waves:  23110
 k-point 43 :  0.00000.50000.0000  plane waves:  23060
 k-point 44 :  0.08330.50000.0000  plane waves:  23092
 k-point 45 :  0.16670.50000.0000  plane waves:  23116
 k-point 46 :  0.25000.50000.0000  plane waves:  23116
 k-point 47 :  0.33330.50000.0000  plane waves:  23084
 k-point 48 :  0.41670.50000.0000  plane waves:  23110
 k-point 49 :  0.50000.50000.0000  plane waves:  23088
 k-point 50 :  0.00000.08330.0833  plane waves:  23089
 k-point 51 :  0.08330.08330.0833  plane waves:  23079
 k-point 52 :  0.16670.08330.0833  plane waves:  23107
 k-point 53 :  0.25000.08330.0833  plane waves:  23076
 k-point 54 :  0.33330.08330.0833  plane waves:  23078
 k-point 55 :  0.41670.08330.0833  plane waves:  23078
 k-point 56 :  0.50000.08330.0833  plane waves:  23078
 k-point 57 :  0.00000.16670.0833  plane waves:  23087
 k-point 58 :  0.08330.16670.0833  plane waves:  23107
 k-point 59 :  0.16670.16670.0833  plane waves:  23072
 k-point 60 :  0.25000.16670.0833  plane waves:  23079
 k-point 61 :  0.33330.16670.0833  plane waves:  23102
 k-point 62 :  0.41670.16670.0833  plane waves:  23098
 k-point 63 :  0.50000.16670.0833  plane waves:  23112
 k-point 64 :  0.00000.25000.0833  plane waves:  23090
 k-point 65 :  0.08330.25000.0833  plane waves:  23076
 k-point 66 :  0.16670.25000.0833  plane waves:  23079
 k-point 67 :  0.25000.25000.0833  plane waves:  23078
 k-point 68 :  0.33330.25000.0833  plane waves:  23075
 k-point 69 :  0.41670.25000.0833  plane waves:  23104
 k-point 70 :  0.50000.25000.0833  plane waves:  23112
 k-point 71 :  0.00000.33330.0833  plane waves:  23097
 k-point 72 :  0.08330.33330.0833  plane waves:  23078
 k-point 73 :  0.16670.33330.0833  plane waves:  23102
 k-point 74 :  0.25000.33330.0833  plane waves:  23075
 k-point 75 :  0.33330.33330.0833  plane waves:  23068
 k-point 76 :  0.41670.33330.0833  plane waves:  23092
 k-point 77 :  0.50000.33330.0833  plane waves:  23088
 k-point 78 :  0.00000.41670.0833  plane waves:  23085
 k-point 79 :  0.08330.41670.0833  plane waves:  23078
 k-point 80 :  0.16670.41670.0833  plane waves:  23098
 k-point 81 :  0.25000.41670.0833  plane waves:  23104
 k-point 82 :  0.33330.41670.0833  plane waves:  23092
 k-point 83 :  0.41670.41670.0833  plane waves:  23076
 k-point 84 :  0.50000.41670.0833  plane waves:  23092
 k-point 85 :  0.00000.50000.0833  plane waves:  23092
 k-point 86 :  0.08330.50000.0833  plane waves:  23078
 k-point 87 :  0.16670.50000.0833  plane waves:  23112
 k-point 88 :  0.25000.50000.0833  plane waves:  23112
 k-point 89 :  0.33330.50000.0833  plane waves:  23088
 k-point 90 :  0.41670.50000.0833  plane waves:  23092
 k-point 91 :  0.50000.50000.0833  plane waves:  23084
 k-point 92 :  0.00000.16670.1667  plane waves:  23057
 k-point 93 :  0.08330.16670.1667  plane waves:  23072
 k-point 94 :  0.16670.16670.1667  plane waves:  23031
 k-point 95 :  0.25000.16670.1667  plane waves:  23076
 k-point 96 :  0.33330.16670.1667  plane waves:  23088
 k-point 97 :  0.41670.16670.1667  plane waves:  23087
 k-point 98 :  0.50000.16670.1667  plane waves:  23138
 k-point 99 :  0.00000.25000.1667  plane waves:  23096
 k-point ** :  0.08330.25000.1667  plane waves:  23079
 k-point ** :  0.16670.25000.1667  plane waves:  23076
 k-point ** :  0.25000.25000.1667  plane waves:  23085
 k-point ** :  0.33330.25000.1667  plane waves:  23069
 k-point ** :  0.41670.25000.1667  plane waves:  23098
 k-point ** :  0.50000.25000.1667  plane waves:  23086
 k-point ** :  0.00000.33330.1667  plane waves:  23079
 k-point ** :  0.08330.33330.1667  plane waves:  23102
 k-point ** :  0.16670.33330.1667  plane waves:  23088
 k-point ** :  0.25000.33330.1667  plane waves:  23069
 k-point ** :  0.33330.33330.1667  plane waves:  23078
 k-point ** :  0.41670.33330.1667  plane waves:  23099
 k-point ** :  0.50000.33330.1667  plane waves:  23074
 k-point ** :  0.00000.41670.1667  plane waves:  23078
 k-point ** :  0.08330.41670.1667  plane waves:  23098
 k-point ** :  0.16670.41670.1667  plane waves:  23087
 k-point ** :  0.25000.41670.1667  plane waves:  23098
 k-point ** :  0.33330.41670.1667  plane waves:  23099
 k-point ** :  0.41670.41670.1667  plane waves:  23086
 k-point ** :  0.50000.41670.1667  plane waves:  23072
 k-point ** :  0.00000.50000.1667  plane waves:  23116
 k-point ** :  0.08330.50000.1667  plane waves:  23112
 k-point ** :  0.16670.50000.1667  plane waves:  23138
 k-point ** :  0.25000.50000.1667  plane waves:  23086
 k-point ** :  0.33330.50000.1667  plane waves:  23074
 k-point ** :  0.41670.50000.1667  plane waves:  23072
 k-point ** :  0.50000.50000.1667  plane waves:  23072
 k-point ** :  0.00000.25000.2500  plane waves:  23049
 k-point ** :  0.08330.25000.2500  plane waves:  23078
 k-point ** :  0.16670.25000.2500  plane waves:  23085
 k-point ** :  0.25000.25000.2500  plane waves:  23078
 k-point ** :  0.33330.25000.2500  plane waves:  23086
 k-point ** :  0.41670.25000.2500  plane waves:  23095
 k-point ** :  0.50000.25000.2500  plane waves:  23110
 k-point ** :  0.00000.33330.2500  plane waves:  23062
 k-point ** :  0.08330.33330.2500  plane waves:  23075
 k-point ** :  0.16670.33330.2500  plane waves:  23069
 k-point ** :  0.25000.33330.2500  plane waves:  23086
 k-point ** :  0.33330.33330.2500  plane waves:  23072
 k-point ** :  0.41670.33330.2500  plane waves:  23064
 k-point ** :  0.50000.33330.2500  plane waves:  23088
 k-point ** :  0.00000.41670.2500  plane waves:  23085
 k-point ** :  0.08330.41670.2500  plane waves:  23104
 k-point ** :  0.16670.41670.2500  plane waves:  23098
 k-point ** :  0.25000.41670.2500  plane waves:  23095
 k-point ** :  0.33330.41670.2500  plane waves:  23064
 k-point ** :  0.41670.41670.2500  plane waves:  23089
 k-point ** :  0.50000.41670.2500  plane waves:  23068
 k-point ** :  0.00000.50000.2500  plane waves:  23116
 k-point ** :  0.08330.50000.2500  plane waves:  23112
 k-point ** :  0.16670.50000.2500  plane waves:  23086
 k-point ** :  0.25000.50000.2500  plane waves:  23110
 k-point ** :  0.33330.50000.2500  plane waves:  23088
 k-point ** :  0.41670.50000.2500  plane waves:  23068
 k-point ** :  0.50000.50000.2500  plane waves:  23040
 k-point ** :  0.00000.33330.3333  plane waves:  23083
 k-point ** :  0.08330.33330.3333  plane waves:  23068
 k-point ** :  0.16670.33330.3333  plane waves:  23078
 k-point ** :  0.25000.33330.3333  plane waves:  23072
 k-point ** :  0.33330.33330.3333  plane waves:  23048
 k-point ** :  0.41670.33330.3333  plane waves:  23056
 k-point ** :  0.50000.33330.3333  plane waves:  23066
 k-point ** :  0.00000.41670.3333  plane waves:  23091
 k-point ** :  0.08330.41670.3333  plane waves:  23092
 k-point ** :  0.16670.41670.3333  plane waves:  23099
 k-point ** :  0.25000.41670.3333  plane waves:  23064
 k-point ** :  0.33330.41670.3333  plane waves:  23056
 k-point ** :  0.41670.41670.3333  plane waves:  23049
 k-point ** :  0.50000.41670.3333  plane waves:  23018
 k-point ** :  0.00000.50000.3333  plane waves:  23084
 k-point ** :  0.08330.50000.3333  plane waves:  23088
 k-point ** :  0.16670.50000.3333  plane waves:  23074
 k-point ** :  0.25000.50000.3333  plane waves:  23088
 k-point ** :  0.33330.50000.3333  plane waves:  23066
 k-point ** :  0.41670.50000.3333  plane waves:  23018
 k-point ** :  0.50000.50000.3333  plane waves:  23052
 k-point ** :  0.00000.41670.4167  plane waves:  23087
 k-point ** :  0.08330.41670.4167  plane waves:  23076
 k-point ** :  0.16670.41670.4167  plane waves:  23086
 k-point ** :  0.25000.41670.4167  plane waves:  23089
 k-point ** :  0.33330.41670.4167  plane waves:  23049
 k-point ** :  0.41670.41670.4167  plane waves:  23012
 k-point ** :  0.50000.41670.4167  plane waves:  23038
 k-point ** :  0.00000.50000.4167  plane waves:  23110
 k-point ** :  0.08330.50000.4167  plane waves:  23092
 k-point ** :  0.16670.50000.4167  plane waves:  23072
 k-point ** :  0.25000.50000.4167  plane waves:  23068
 k-point ** :  0.33330.50000.4167  plane waves:  23018
 k-point ** :  0.41670.50000.4167  plane waves:  23038
 k-point ** :  0.50000.50000.4167  plane waves:  22976
 k-point ** :  0.00000.50000.5000  plane waves:  23088
 k-point ** :  0.08330.50000.5000  plane waves:  23084
 k-point ** :  0.16670.50000.5000  plane waves:  23072
 k-point ** :  0.25000.50000.5000  plane waves:  23040
 k-point ** :  0.33330.50000.5000  plane waves:  23052
 k-point ** :  0.41670.50000.5000  plane waves:  22976
 k-point ** :  0.50000.50000.5000  plane waves:  22880

 maximum and minimum number of plane-waves per node :  23138 22880

 maximum number of plane-waves:  23138
 maximal index in each direction: 
   IXMAX= 17   IYMAX= 17   IZMAX= 17
   IXMIN=-18   IYMIN=-18   IZMIN=-18

 NGX is ok and might be reduce to  72
 NGY is ok and might be reduce to  72
 NGZ is ok and might be reduce to  72

 parallel 3dFFT wavefunction:
    minimum data exchange during FFTs selected (reduces bandwidth)
 parallel 3dFFT charge:
    minimum data exchange during FFTs selected (reduces bandwidth)

 For storing wavefunctions ******* MBYTES are necessary
 For predicting wavefunctions  168.46 MBYTES are necessary
Broyden mixing: mesh for mixing (old mesh)
   NGX = 35   NGY = 35   NGZ = 35
  (NGX  =144   NGY  =144   NGZ  =144)
 gives a total of  42875 points
 initial charge density was supplied:
 charge density of overlapping atoms calculated
 number of electron  352.0000000 magnetization 
 keeping initial charge density in first step


--------------------------------------------------------------------------------------------------------


 Maximum index for augmentation-charges        71941 (set IRDMAX)


--------------------------------------------------------------------------------------------------------


 First call to EWALD:  gamma=   0.224
 Maximum number of real-space cells 3x 3x 3
 Maximum number of reciprocal cells 3x 3x 3

    FEWALD:  VPU time    0.01: CPU time    0.07


----------------------------------------- Iteration    1(   1)  ---------------------------------------


    POTLOK:  VPU time    0.90: CPU time    0.93
    SETDIJ:  VPU time    2.07: CPU time    2.44
    EDDAV :  VPU time 1933.98: CPU time 1999.35
    DOS   :  VPU time   -0.00: CPU time   -0.15
    ------------------------------------------
      LOOP:  VPU time 1937.22: CPU time 2003.85

 eigenvalue-minimisations  : 83168
 total energy-change (2. order) : 0.4532703E+04  (-0.2168986E+05)
 number of electron  352.0000000 magnetization 
 augmentation part   352.0000000 magnetization 

 Free energy of the ion-electron system (eV)
  ---------------------------------------------------
  alpha Z        PSCENC =      3673.99042332
  Ewald energy   TEWEN  =    -32317.21892492
  -1/2 Hartree   DENC   =     -6004.23655008
  -V(xc)+E(xc)   XCENC  =      -333.04175355
  PAW double counting   =     27861.41421209   -26376.63839568
  entropy T*S    EENTRO =        -0.00053340
  eigenvalues    EBANDS =      4831.23729295
  atomic energy  EATOM  =     33197.19690173
  ---------------------------------------------------
  free energy    TOTEN  =      4532.70267246 eV

  energy without entropy =     4532.70320586  energy(sigma->0) =     4532.70293916


--------------------------------------------------------------------------------------------------------




----------------------------------------- Iteration    1(   2)  ---------------------------------------


    EDDAV :  VPU time 4494.12: CPU time 8217.95
    DOS   :  VPU time   -0.00: CPU time   -0.02
    ------------------------------------------
      LOOP:  VPU time 4495.08: CPU time 8239.28

 eigenvalue-minimisations  : 83104
 total energy-change (2. order) :-0.4379493E+04  (-0.4194944E+04)
 number of electron  352.0000000 magnetization 
 augmentation part   352.0000000 magnetization 

 Free energy of the ion-electron system (eV)
  ---------------------------------------------------
  alpha Z        PSCENC =      3673.99042332
  Ewald energy   TEWEN  =    -32317.21892492
  -1/2 Hartree   DENC   =     -6004.23655008
  -V(xc)+E(xc)   XCENC  =      -333.04175355
  PAW double counting   =     27861.41421209   -26376.63839568
  entropy T*S    EENTRO =        -0.00050906
  eigenvalues    EBANDS =       451.74388634
  atomic energy  EATOM  =     33197.19690173
  ---------------------------------------------------
  free energy    TOTEN  =       153.20929019 eV

  energy without entropy =      153.20979925  energy(sigma->0) =      153.20954472


--------------------------------------------------------------------------------------------------------




----------------------------------------- Iteration    1(   3)  ---------------------------------------


    EDDAV :  VPU time 2130.05: CPU time 2925.59
    DOS   :  VPU time    0.00: CPU time   -0.00
    ------------------------------------------
      LOOP:  VPU time 2130.29: CPU time 2926.04

 eigenvalue-minimisations  : 86316
 total energy-change (2. order) :-0.2423888E+03  (-0.2304840E+03)
 number of electron  352.0000000 magnetization 
 augmentation part   352.0000000 magnetization 

 Free energy of the ion-electron system (eV)
  ---------------------------------------------------
  alpha Z        PSCENC =      3673.99042332
  Ewald energy   TEWEN  =    -32317.21892492
  -1/2 Hartree   DENC   =     -6004.23655008
  -V(xc)+E(xc)   XCENC  =      -333.04175355
  PAW double counting   =     27861.41421209   -26376.63839568
  entropy T*S    EENTRO =        -0.00053962
  eigenvalues    EBANDS =       209.35515605
  atomic energy  EATOM  =     33197.19690173
  ---------------------------------------------------
  free energy    TOTEN  =       -89.17947066 eV

  energy without entropy =      -89.17893103  energy(sigma->0) =      -89.17920085


--------------------------------------------------------------------------------------------------------




----------------------------------------- Iteration    1(   4)  ---------------------------------------


    EDDAV :  VPU time 2069.79: CPU time 2431.98
    DOS   :  VPU time    0.00: CPU time   -0.00
    ------------------------------------------
      LOOP:  VPU time 2071.59: CPU time 2434.67

 eigenvalue-minimisations  : 89440
 total energy-change (2. order) :-0.4998032E+01  (-0.4966332E+01)
 number of electron  352.0000000 magnetization 
 augmentation part   352.0000000 magnetization 

 Free energy of the ion-electron system (eV)
  ---------------------------------------------------
  alpha Z        PSCENC =      3673.99042332
  Ewald energy   TEWEN  =    -32317.21892492
  -1/2 Hartree   DENC   =     -6004.23655008
  -V(xc)+E(xc)   XCENC  =      -333.04175355
  PAW double counting   =     27861.41421209   -26376.63839568
  entropy T*S    EENTRO =        -0.00052892
  eigenvalues    EBANDS =       204.35711362
  atomic energy  EATOM  =     33197.19690173
  ---------------------------------------------------
  free energy    TOTEN  =       -94.17750239 eV

  energy without entropy =      -94.17697347  energy(sigma->0) =      -94.17723793


--------------------------------------------------------------------------------------------------------




----------------------------------------- Iteration    1(   5)  ---------------------------------------


    EDDAV :  VPU time 2081.29: CPU time 2612.26
    DOS   :  VPU time    0.00: CPU time   -0.01
    CHARGE:  VPU time  161.66: CPU time 4190.38
    MIXING:  VPU time    1.83: CPU time    2.00
    ------------------------------------------
      LOOP:  VPU time 2245.26: CPU time 6806.34

 eigenvalue-minimisations  : 88332
 total energy-change (2. order) :-0.2608495E-01  (-0.2605920E-01)
 number of electron  352.0000007 magnetization 
 augmentation part   162.2225320 magnetization 

 Broyden mixing:
  rms(total) = 0.17575E+01    rms(broyden)= 0.17575E+01
  rms(prec ) = 0.26724E+01
  weight for this iteration     100.00

 Free energy of the ion-electron system (eV)
  ---------------------------------------------------
  alpha Z        PSCENC =      3673.99042332
  Ewald energy   TEWEN  =    -32317.21892492
  -1/2 Hartree   DENC   =     -6004.23655008
  -V(xc)+E(xc)   XCENC  =      -333.04175355
  PAW double counting   =     27861.41421209   -26376.63839568
  entropy T*S    EENTRO =        -0.00052823
  eigenvalues    EBANDS =       204.33102798
  atomic energy  EATOM  =     33197.19690173
  ---------------------------------------------------
  free energy    TOTEN  =       -94.20358734 eV

  energy without entropy =      -94.20305910  energy(sigma->0) =      -94.20332322


--------------------------------------------------------------------------------------------------------




----------------------------------------- Iteration    1(   6)  ---------------------------------------


    POTLOK:  VPU time    4.99: CPU time    9.65
    SETDIJ:  VPU time    1.16: CPU time    1.61
    EDDAV :  VPU time 4608.78: CPU time 8902.53
    DOS   :  VPU time   -0.00: CPU time   -0.00
    CHARGE:  VPU time   50.64: CPU time  139.16
    MIXING:  VPU time    0.55: CPU time    1.13
    ------------------------------------------
      LOOP:  VPU time 4666.92: CPU time 9059.74

 eigenvalue-minimisations  : 87952
 total energy-change (2. order) : 0.7865832E+01  (-0.2542176E+01)
 number of electron  352.0000007 magnetization 
 augmentation part   167.4419211 magnetization 

 Broyden mixing:
  rms(total) = 0.34967E+00    rms(broyden)= 0.34967E+00
  rms(prec ) = 0.52153E+00
  weight for this iteration     100.00

 eigenvalues of (default mixing * dielectric matrix)
  average eigenvalue GAMMA=   1.1452
  1.1452

 Free energy of the ion-electron system (eV)
  ---------------------------------------------------
  alpha Z        PSCENC =      3673.99042332
  Ewald energy   TEWEN  =    -32317.21892492
  -1/2 Hartree   DENC   =     -5702.21125381
  -V(xc)+E(xc)   XCENC  =      -343.77349767
  PAW double counting   =     27663.38520843   -26214.54422347
  entropy T*S    EENTRO =        -0.00098229
  eigenvalues    EBANDS =       -43.16140651
  atomic energy  EATOM  =     33197.19690173
  ---------------------------------------------------
  free energy    TOTEN  =       -86.33775518 eV

  energy without entropy =      -86.33677289  energy(sigma->0) =      -86.33726403


--------------------------------------------------------------------------------------------------------




----------------------------------------- Iteration    1(   7)  ---------------------------------------


    POTLOK:  VPU time    0.72: CPU time    0.72
    SETDIJ:  VPU time    0.85: CPU time    0.85
    EDDAV :  VPU time 1982.39: CPU time 2792.73
    DOS   :  VPU time   -0.00: CPU time   -0.00
    CHARGE:  VPU time   74.72: CPU time   74.69
    MIXING:  VPU time    0.02: CPU time    0.02
    ------------------------------------------
      LOOP:  VPU time 2058.93: CPU time 2869.25

 eigenvalue-minimisations  : 87832
 total energy-change (2. order) : 0.3756291E+00  (-0.6599731E-01)
 number of electron  352.0000007 magnetization 
 augmentation part   168.0303951 magnetization 

 Broyden mixing:
  rms(total) = 0.15102E+00    rms(broyden)= 0.15102E+00
  rms(prec ) = 0.20272E+00
  weight for this iteration     100.00

 eigenvalues of (default mixing * dielectric matrix)
  average eigenvalue GAMMA=   1.7405
  1.0881  2.3929

 Free energy of the ion-electron system (eV)
  ---------------------------------------------------
  alpha Z        PSCENC =      3673.99042332
  Ewald energy   TEWEN  =    -32317.21892492
  -1/2 Hartree   DENC   =     -5639.75999178
  -V(xc)+E(xc)   XCENC  =      -346.03159697
  PAW double counting   =     27852.06826391   -26432.13281652
  entropy T*S    EENTRO =        -0.00099055
  eigenvalues    EBANDS =       -74.07339432
  atomic energy  EATOM  =     33197.19690173
[...]
     68      -0.5318      2.00000
     69      -0.5312      2.00000
     70      -0.5311      2.00000
     71      -0.5311      2.00000
     72      -0.5310      2.00000
     73      -0.5307      2.00000
     74      -0.5307      2.00000
     75      -0.5306      2.00000
     76      -0.5298      2.00000
     77      -0.5298      2.00000
     78      -0.5296      2.00000
     79      -0.5292      2.00000
     80      -0.5292      2.00000
     81      -0.2302      2.00000
     82      -0.2302      2.00000
     83      -0.2288      2.00000
     84      -0.2281      2.00000
     85      -0.2268      2.00000
     86      -0.2265      2.00000
     87      -0.2264      2.00000
     88      -0.2264      2.00000
     89      -0.2264      2.00000
     90      -0.2264      2.00000
     91      -0.2263      2.00000
     92      -0.2263      2.00000
     93      -0.2262      2.00000
     94      -0.2262      2.00000
     95      -0.2261      2.00000
     96      -0.2261      2.00000
     97      -0.2260      2.00000
     98      -0.2260      2.00000
     99      -0.2260      2.00000
    100      -0.2256      2.00000
    101      -0.2244      2.00000
    102      -0.2236      2.00000
    103      -0.2223      2.00000
    104      -0.2223      2.00000
    105       0.2139      2.00000
    106       0.2154      2.00000
    107       0.2154      2.00000
    108       0.2178      2.00000
    109       0.2179      2.00000
    110       0.2180      2.00000
    111       0.2180      2.00000
    112       0.2183      2.00000
    113       0.2184      2.00000
    114       0.2185      2.00000
    115       0.2185      2.00000
    116       0.2185      2.00000
    117       0.2186      2.00000
    118       0.2186      2.00000
    119       0.2186      2.00000
    120       0.2186      2.00000
    121       0.2188      2.00000
    122       0.2191      2.00000
    123       0.2191      2.00000
    124       0.2192      2.00000
    125       0.2194      2.00000
    126       0.2217      2.00000
    127       0.2217      2.00000
    128       0.2231      2.00000
    129       0.6052      2.00000
    130       0.6068      2.00000
    131       0.6068      2.00000
    132       0.6068      2.00000
    133       0.6080      2.00000
    134       0.6080      2.00000
    135       0.6082      2.00000
    136       0.6083      2.00000
    137       0.6084      2.00000
    138       0.6085      2.00000
    139       0.6088      2.00000
    140       0.6088      2.00000
    141       0.6099      2.00000
    142       0.6099      2.00000
    143       0.6100      2.00000
    144       0.6115      2.00000
    145       1.4741      2.00000
    146       1.4741      2.00000
    147       1.4744      2.00000
    148       1.4746      2.00000
    149       1.4746      2.00000
    150       1.4746      2.00000
    151       1.4746      2.00000
    152       1.4747      2.00000
    153       1.4748      2.00000
    154       1.4749      2.00000
    155       1.4749      2.00000
    156       1.4749      2.00000
    157       1.4751      2.00000
    158       1.4752      2.00000
    159       1.4752      2.00000
    160       1.4753      2.00000
    161       1.4753      2.00000
    162       1.4754      2.00000
    163       1.4754      2.00000
    164       1.4754      2.00000
    165       1.4755      2.00000
    166       1.4757      2.00000
    167       1.4759      2.00000
    168       1.4759      2.00000
    169       5.5789      0.00000
    170       5.5808      0.00000
    171       5.5808      0.00000
    172       5.5834      0.00000
    173       5.5840      0.00000
    174       5.5840      0.00000
    175       5.5841      0.00000
    176       5.5841      0.00000
    177       5.5843      0.00000
    178       5.5843      0.00000
    179       5.5843      0.00000
    180       5.5843      0.00000
    181       5.5846      0.00000
    182       5.5846      0.00000
    183       5.5846      0.00000
    184       5.5846      0.00000
    185       5.5848      0.00000
    186       5.5848      0.00000
    187       5.5849      0.00000
    188       5.5849      0.00000
    189       5.5855      0.00000
    190       5.5881      0.00000
    191       5.5881      0.00000
    192       5.5900      0.00000
    193      11.1211      0.00000
    194      11.1213      0.00000
    195      11.1219      0.00000
    196      11.1254      0.00000
    197      11.1257      0.00000
    198      11.1264      0.00000
    199      11.1264      0.00000
    200      11.1268      0.00000
    201      11.1269      0.00000
    202      11.1269      0.00000
    203      11.1270      0.00000
    204      11.1271      0.00000
    205      11.1271      0.00000
    206      11.1272      0.00000
    207      11.1272      0.00000
    208      11.1274      0.00000
    209      11.1277      0.00000
    210      11.1277      0.00000
    211      11.1284      0.00000
    212      11.1286      0.00000


--------------------------------------------------------------------------------------------------------


 soft charge-density along one line, spin component           1
         0         1         2         3         4         5         6         7         8         9
 total charge-density along one line
 
 pseudopotential strength for first ion, spin component:           1
-11.611  -0.000  -0.000  -0.000  -0.000   0.024   0.000   0.000
 -0.000 -11.611   0.000  -0.000   0.000   0.000   0.024  -0.000
 -0.000   0.000 -11.599   0.000  -0.000   0.000  -0.000   0.022
 -0.000  -0.000   0.000 -11.611  -0.000   0.000   0.000  -0.000
 -0.000   0.000  -0.000  -0.000 -11.599   0.000  -0.000   0.000
  0.024   0.000   0.000   0.000   0.000   0.477  -0.000  -0.000
  0.000   0.024  -0.000   0.000  -0.000  -0.000   0.477   0.000
  0.000  -0.000   0.022  -0.000   0.000  -0.000   0.000   0.478
  0.000   0.000  -0.000   0.024   0.000  -0.000   0.000   0.000
  0.000  -0.000   0.000   0.000   0.022  -0.000   0.000  -0.000
 -0.000   0.000   0.000   0.000  -0.000   0.000  -0.000  -0.000
  0.000  -0.000  -0.000  -0.000   0.000  -0.000   0.000   0.000
  0.000  -0.000   0.000  -0.000  -0.000   0.000   0.000  -0.000
 -0.000  -0.000   0.000   0.000  -0.000   0.000   0.000   0.000
 -0.000  -0.000  -0.000  -0.000   0.000   0.000   0.000  -0.000
 -0.000   0.000  -0.000   0.000   0.000  -0.000  -0.000   0.000
  0.000  -0.000  -0.000  -0.000   0.000  -0.000  -0.000   0.000
  0.000   0.000   0.000   0.000  -0.000  -0.000  -0.000   0.000
 total augmentation occupancy for first ion, spin component:           1
  1.935   0.000  -0.002  -0.000  -0.001   0.003  -0.000   0.000   0.000   0.001   0.006  -0.000   0.001   0.000  -0.000   0.000
  0.000   1.939  -0.001  -0.001  -0.001  -0.000  -0.001   0.002   0.000   0.000   0.004  -0.000  -0.000   0.000  -0.000  -0.000
 -0.002  -0.001   1.967  -0.001  -0.003   0.000   0.002  -0.039   0.001   0.002   0.014   0.002   0.000  -0.000  -0.000  -0.000
 -0.000  -0.001  -0.001   1.943  -0.000   0.000   0.000   0.001  -0.005   0.001   0.003  -0.001   0.000   0.001  -0.000  -0.000
 -0.001  -0.001  -0.003  -0.000   1.957   0.001   0.000   0.002   0.001  -0.031   0.008   0.001   0.000   0.000   0.000  -0.000
  0.003  -0.000   0.000   0.000   0.001   0.121   0.000   0.001   0.000  -0.001  -0.003   0.001   0.001  -0.000   0.000  -0.000
 -0.000  -0.001   0.002   0.000   0.000   0.000   0.126  -0.003  -0.000   0.001  -0.001   0.001   0.000  -0.000   0.000   0.000
  0.000   0.002  -0.039   0.001   0.002   0.001  -0.003   0.108  -0.002  -0.001  -0.013  -0.000   0.000   0.000  -0.000   0.000
  0.000   0.000   0.001  -0.005   0.001   0.000  -0.000  -0.002   0.130  -0.003  -0.000   0.002  -0.000   0.001   0.000   0.000
  0.001   0.000   0.002   0.001  -0.031  -0.001   0.001  -0.001  -0.003   0.104  -0.008  -0.000  -0.000  -0.000   0.001   0.000
  0.006   0.004   0.014   0.003   0.008  -0.003  -0.001  -0.013  -0.000  -0.008   1.151  -0.439   0.000  -0.000   0.003   0.000
 -0.000  -0.000   0.002  -0.001   0.001   0.001   0.001  -0.000   0.002  -0.000  -0.439   0.254   0.000  -0.000  -0.001  -0.000
  0.001  -0.000   0.000   0.000   0.000   0.001   0.000   0.000  -0.000  -0.000   0.000   0.000   0.147   0.000   0.002  -0.008
  0.000   0.000  -0.000   0.001   0.000  -0.000  -0.000   0.000   0.001  -0.000  -0.000  -0.000   0.000   0.153  -0.001  -0.000
 -0.000  -0.000  -0.000  -0.000   0.000   0.000   0.000  -0.000   0.000   0.001   0.003  -0.001   0.002  -0.001   0.150  -0.000
  0.000  -0.000  -0.000  -0.000  -0.000  -0.000   0.000   0.000   0.000   0.000   0.000  -0.000  -0.008  -0.000  -0.000   0.001
 -0.000  -0.000   0.000   0.000   0.000   0.000   0.000  -0.000  -0.000   0.000   0.000  -0.000  -0.000  -0.009  -0.000   0.000
  0.000  -0.000  -0.000   0.000   0.000  -0.000  -0.000   0.000  -0.000  -0.000  -0.000   0.000  -0.000  -0.000  -0.008   0.000


------------------------ aborting loop because EDIFF is reached ----------------------------------------




--------------------------------------------------------------------------------------------------------


    CHARGE:  VPU time  141.78: CPU time  414.01
    FORLOC:  VPU time    0.21: CPU time    0.23
    FORNL :  VPU time  897.39: CPU time 1315.24
    STRESS:  VPU time 1002.82: CPU time 1135.41
    FORCOR:  VPU time    0.80: CPU time    1.67
    FORHAR:  VPU time    0.20: CPU time    0.20
    MIXING:  VPU time    1.70: CPU time    3.60


--------------------------------------------------------------------------------------------------------



  FREE ENERGIE OF THE ION-ELECTRON SYSTEM (eV)
  ---------------------------------------------------
  free  energy   TOTEN  =       -85.823394 eV

  energy  without entropy=      -85.822425  energy(sigma->0) =      -85.822910
 

  FORCE on cell =-STRESS in cart. coord.  units (eV/reduce length):
  Direction    X        Y        Z        XY       YZ       ZX
  --------------------------------------------------------------------------------------
  Alpha Z   3673.99   3673.99   3673.99
  Ewald   -10772.48 -10772.44 -10772.44     -0.00     -0.00     -0.00
  Hartree   1866.14   1866.16   1866.16     -0.00     -0.00     -0.00
  E(xc)    -1872.42  -1872.42  -1872.42     -0.00      0.00     -0.00
  Local     3484.03   3483.96   3483.96      0.00      0.00      0.00
  n-local  -2031.44  -2035.74  -2027.14      2.16      1.37      0.59
  augment   1344.00   1344.00   1344.00     -0.00     -0.00     -0.00
  Kinetic   4374.55   4367.56   4381.55      0.94     -0.68     -2.31
  -------------------------------------------------------------------------------------
  Total       66.37     66.37     66.37      0.00      0.00      0.00
  in kB      214.85    214.85    214.85      0.00      0.00      0.00
  external pressure =      214.85 kB  Pullay stress =        0.00 kB


 VOLUME and BASIS-vectors are now :
 -----------------------------------------------------------------------------
  energy-cutoff  :      750.00
  volume of cell :      494.94
      direct lattice vectors                 reciprocal lattice vectors
     7.910127085  0.000000000  0.000000000     0.126420219  0.000000000  0.000000000
     0.000000000  7.910127085  0.000000000     0.000000000  0.126420219  0.000000000
     0.000000000  0.000000000  7.910127085     0.000000000  0.000000000  0.126420219

  length of vectors
     7.910127085  7.910127085  7.910127085     0.126420219  0.126420219  0.126420219


 FORCES acting on ions
    electron-ion (+dipol)            ewald-force                    non-local-force                 convergence-correction
 -----------------------------------------------------------------------------------------------
   0.449E+01 -.934E-13 0.863E-07   -.457E+01 0.178E-13 -.995E-13   -.161E-01 0.213E-19 -.180E-19   -.156E-05 0.148E-13 -.492E-13
   -.119E+01 0.217E-13 -.870E-07   0.121E+01 0.284E-13 0.284E-13   -.105E-01 -.119E-19 -.584E-20   -.158E-05 -.877E-14 -.117E-12
   0.379E+00 0.489E-12 -.742E-10   -.382E+00 0.355E-13 -.533E-13   0.277E-02 -.306E-20 -.265E-20   -.232E-06 0.513E-14 -.339E-13
   -.304E+00 0.423E-11 -.747E-10   0.300E+00 0.284E-13 0.284E-13   0.376E-02 -.783E-20 0.812E-21   0.116E-05 -.240E-13 -.778E-13
   0.379E+00 -.790E-13 0.524E-10   -.382E+00 0.355E-14 0.568E-13   0.277E-02 0.873E-20 0.162E-20   0.215E-06 0.258E-14 0.143E-13
   -.304E+00 -.117E-12 0.536E-10   0.300E+00 0.000E+00 0.284E-13   0.376E-02 0.387E-20 0.166E-19   0.107E-05 -.239E-13 0.365E-13
   0.159E+00 0.474E-12 -.968E-10   -.158E+00 0.355E-13 0.568E-13   -.131E-02 0.371E-21 -.115E-19   -.713E-06 0.208E-13 -.267E-13
   -.148E+00 -.323E-11 -.951E-10   0.147E+00 0.284E-13 0.284E-13   -.178E-03 -.250E-20 -.501E-20   0.729E-06 -.622E-14 -.167E-13
   -.570E+00 -.110E+01 -.331E-11   0.580E+00 0.111E+01 -.462E-13   0.332E-02 0.580E-03 -.115E-19   0.231E-06 -.313E-06 -.882E-13
   -.574E+00 0.109E+01 -.130E-11   0.583E+00 -.110E+01 0.107E-13   0.337E-02 -.604E-03 -.215E-20   0.449E-06 0.403E-06 -.629E-13
   -.570E+00 0.110E+01 -.314E-11   0.580E+00 -.111E+01 0.000E+00   0.332E-02 -.580E-03 0.409E-20   0.231E-06 0.313E-06 -.821E-13
   -.574E+00 -.109E+01 -.124E-11   0.583E+00 0.110E+01 0.114E-12   0.337E-02 0.604E-03 -.233E-20   0.449E-06 -.403E-06 -.528E-13
   -.159E-01 -.913E-01 -.508E-11   0.176E-01 0.916E-01 0.604E-13   -.152E-02 -.115E-03 0.398E-21   -.496E-06 -.135E-06 -.320E-14
   -.178E-01 0.911E-01 -.927E-11   0.195E-01 -.914E-01 0.604E-13   -.150E-02 0.128E-03 0.190E-20   -.203E-06 0.427E-07 -.142E-15
   -.159E-01 0.913E-01 -.507E-11   0.176E-01 -.916E-01 0.568E-13   -.152E-02 0.115E-03 0.134E-20   -.496E-06 0.135E-06 -.759E-15
   -.178E-01 -.911E-01 -.100E-10   0.195E-01 0.914E-01 0.568E-13   -.150E-02 -.128E-03 -.319E-20   -.203E-06 -.427E-07 -.678E-14
   -.570E+00 -.770E-13 -.110E+01   0.580E+00 0.178E-13 0.111E+01   0.332E-02 0.276E-20 0.580E-03   0.142E-06 -.204E-13 -.237E-06
   -.574E+00 -.183E-12 0.109E+01   0.583E+00 0.178E-13 -.110E+01   0.337E-02 0.461E-20 -.604E-03   0.361E-06 -.169E-13 0.328E-06
   -.159E-01 0.480E-12 -.913E-01   0.176E-01 0.391E-13 0.916E-01   -.152E-02 -.883E-21 -.115E-03   -.472E-06 -.977E-14 -.582E-07
   -.178E-01 -.517E-11 0.911E-01   0.195E-01 0.391E-13 -.914E-01   -.150E-02 -.507E-22 0.128E-03   -.178E-06 0.156E-13 -.337E-07
   -.570E+00 -.107E-12 0.110E+01   0.580E+00 0.000E+00 -.111E+01   0.332E-02 -.136E-19 -.580E-03   0.142E-06 -.179E-13 0.237E-06
   -.574E+00 -.124E-12 -.109E+01   0.583E+00 0.000E+00 0.110E+01   0.337E-02 0.118E-20 0.604E-03   0.361E-06 -.887E-14 -.328E-06
   -.159E-01 0.509E-12 0.913E-01   0.176E-01 0.284E-13 -.916E-01   -.152E-02 0.182E-20 0.115E-03   -.472E-06 -.133E-13 0.582E-07
   -.178E-01 -.592E-11 -.911E-01   0.195E-01 0.284E-13 0.914E-01   -.150E-02 -.100E-20 -.128E-03   -.178E-06 0.871E-14 0.337E-07
   0.715E+00 0.283E-02 0.283E-02   -.721E+00 -.286E-02 -.286E-02   0.290E-02 -.101E-05 -.101E-05   0.212E-06 0.184E-07 0.178E-07
   -.402E+00 -.847E-03 -.847E-03   0.405E+00 0.858E-03 0.858E-03   -.280E-02 -.108E-04 -.108E-04   0.214E-06 -.324E-07 -.322E-07
   0.715E+00 -.283E-02 0.283E-02   -.721E+00 0.286E-02 -.286E-02   0.290E-02 0.101E-05 -.101E-05   0.212E-06 -.184E-07 0.178E-07
   -.402E+00 0.847E-03 -.847E-03   0.405E+00 -.858E-03 0.858E-03   -.280E-02 0.108E-04 -.108E-04   0.214E-06 0.324E-07 -.322E-07
   0.715E+00 0.283E-02 -.283E-02   -.721E+00 -.286E-02 0.286E-02   0.290E-02 -.101E-05 0.101E-05   0.212E-06 0.184E-07 -.178E-07
   -.402E+00 -.847E-03 0.847E-03   0.405E+00 0.858E-03 -.858E-03   -.280E-02 -.108E-04 0.108E-04   0.214E-06 -.324E-07 0.322E-07
   0.715E+00 -.283E-02 -.283E-02   -.721E+00 0.286E-02 0.286E-02   0.290E-02 0.101E-05 0.101E-05   0.212E-06 -.184E-07 -.178E-07
   -.402E+00 0.847E-03 0.847E-03   0.405E+00 -.858E-03 -.858E-03   -.280E-02 0.108E-04 0.108E-04   0.214E-06 0.324E-07 0.322E-07
 -----------------------------------------------------------------------------------------------
   -.463E-06 -.170E-10 -.121E-08   0.641E-13 -.488E-12 0.121E-12   0.525E-05 -.169E-20 -.152E-19   0.464E-06 -.265E-12 -.743E-12
 
 
 POSITION                                       TOTAL-FORCE (eV/Angst)
 -----------------------------------------------------------------------------------
      0.01000      0.00000      0.00000        -0.093695     -0.000000      0.000000
      3.95506      0.00000      0.00000         0.001690      0.000000     -0.000000
      0.00000      3.95506      0.00000        -0.000433      0.000000      0.000000
      3.95506      3.95506      0.00000        -0.000327      0.000000     -0.000000
      0.00000      0.00000      3.95506        -0.000433      0.000000      0.000000
      3.95506      0.00000      3.95506        -0.000327     -0.000000      0.000000
      0.00000      3.95506      3.95506        -0.000030     -0.000000     -0.000000
      3.95506      3.95506      3.95506        -0.000226      0.000000      0.000000
      1.97753      1.97753      0.00000         0.012678      0.015093      0.000000
      5.93260      1.97753      0.00000         0.012352     -0.014618      0.000000
      1.97753      5.93260      0.00000         0.012678     -0.015093      0.000000
      5.93260      5.93260      0.00000         0.012352      0.014618      0.000000
      1.97753      1.97753      3.95506         0.000177      0.000169      0.000000
      5.93260      1.97753      3.95506         0.000177     -0.000173     -0.000000
      1.97753      5.93260      3.95506         0.000177     -0.000169     -0.000000
      5.93260      5.93260      3.95506         0.000177      0.000173     -0.000000
      1.97753      0.00000      1.97753         0.012678     -0.000000      0.015093
      5.93260      0.00000      1.97753         0.012352     -0.000000     -0.014618
      1.97753      3.95506      1.97753         0.000177      0.000000      0.000169
      5.93260      3.95506      1.97753         0.000177      0.000000     -0.000173
      1.97753      0.00000      5.93260         0.012678      0.000000     -0.015093
      5.93260      0.00000      5.93260         0.012352      0.000000      0.014618
      1.97753      3.95506      5.93260         0.000177      0.000000     -0.000169
      5.93260      3.95506      5.93260         0.000177      0.000000      0.000173
      0.00000      1.97753      1.97753        -0.002448     -0.000030     -0.000030
      3.95506      1.97753      1.97753         0.000509     -0.000000     -0.000000
      0.00000      5.93260      1.97753        -0.002448      0.000030     -0.000030
      3.95506      5.93260      1.97753         0.000509      0.000000     -0.000000
      0.00000      1.97753      5.93260        -0.002448     -0.000030      0.000030
      3.95506      1.97753      5.93260         0.000509     -0.000000      0.000000
      0.00000      5.93260      5.93260        -0.002448      0.000030      0.000030
      3.95506      5.93260      5.93260         0.000509      0.000000      0.000000
 -----------------------------------------------------------------------------------
    total drift:                                0.000005     -0.000000     -0.000000


--------------------------------------------------------------------------------------------------------



 mean value of Nose-termostat <S>:     1.000 mean value of <T> :     0.000
 mean temperature <T/S>/<1/S>  :     0.000

     LOOP+:  VPU time45809.12: CPU time67144.51
  
  
 General timing and accounting informations for this job:
 ========================================================
  
                  Total CPU time used (sec):    46392.522
                            User time (sec):    37227.131
                          System time (sec):     9165.392
                         Elapsed time (sec):    68575.250
  
                   Maximum memory used (kb):    18213508.
                   Average memory used (kb):           0.
  
                          Minor page faults:     10334298
                          Major page faults:       534484
                 Voluntary context switches:       758163
