  32  32   0   0
  0.1548436E+02  0.7913121E-09  0.7913121E-09  0.7913121E-09  0.5000000E-15
  1.000000000000000E-004
  CAR 
 unknown system                          
     13.27247260     -3.67178258  301      8.69823408      1.00000000
     -3.672  0.0000E+00  0.0000E+00
     -3.615  0.0000E+00  0.0000E+00
     -3.559  0.0000E+00  0.0000E+00
     -3.502  0.0000E+00  0.0000E+00
     -3.446  0.0000E+00  0.0000E+00
     -3.389  0.0000E+00  0.0000E+00
     -3.333  0.0000E+00  0.0000E+00
     -3.276  0.0000E+00  0.0000E+00
     -3.220  0.0000E+00  0.0000E+00
     -3.163  0.0000E+00  0.0000E+00
     -3.107  0.0000E+00  0.0000E+00
     -3.050  0.0000E+00  0.0000E+00
     -2.994  0.0000E+00  0.0000E+00
     -2.938  0.3806E-08  0.2150E-09
     -2.881  0.1191E+00  0.6728E-02
     -2.825  0.6680E+00  0.4446E-01
     -2.768  0.1040E+01  0.1032E+00
     -2.712  0.1661E+01  0.1970E+00
     -2.655  0.1649E+01  0.2901E+00
     -2.599  0.1806E+01  0.3921E+00
     -2.542  0.2208E+01  0.5169E+00
     -2.486  0.1393E+01  0.5955E+00
     -2.429  0.2653E+01  0.7454E+00
     -2.373  0.2177E+01  0.8683E+00
     -2.316  0.3091E+01  0.1043E+01
     -2.260  0.2469E+01  0.1182E+01
     -2.203  0.3470E+01  0.1378E+01
     -2.147  0.3003E+01  0.1548E+01
     -2.090  0.1847E+01  0.1652E+01
     -2.034  0.3829E+01  0.1869E+01
     -1.977  0.3617E+01  0.2073E+01
     -1.921  0.2946E+01  0.2239E+01
     -1.864  0.3460E+01  0.2435E+01
     -1.808  0.4217E+01  0.2673E+01
     -1.751  0.4060E+01  0.2902E+01
     -1.695  0.2779E+01  0.3059E+01
     -1.638  0.4801E+01  0.3330E+01
     -1.582  0.2526E+01  0.3473E+01
     -1.526  0.4660E+01  0.3736E+01
     -1.469  0.3812E+01  0.3952E+01
     -1.413  0.6433E+01  0.4315E+01
     -1.356  0.3151E+01  0.4493E+01
     -1.300  0.3102E+01  0.4668E+01
     -1.243  0.6232E+01  0.5020E+01
     -1.187  0.3744E+01  0.5232E+01
     -1.130  0.4542E+01  0.5488E+01
     -1.074  0.4213E+01  0.5726E+01
     -1.017  0.5085E+01  0.6013E+01
     -0.961  0.5209E+01  0.6307E+01
     -0.904  0.5002E+01  0.6590E+01
     -0.848  0.5681E+01  0.6911E+01
     -0.791  0.4342E+01  0.7156E+01
     -0.735  0.5143E+01  0.7447E+01
     -0.678  0.5034E+01  0.7731E+01
     -0.622  0.5751E+01  0.8056E+01
     -0.565  0.3450E+01  0.8251E+01
     -0.509  0.7063E+01  0.8650E+01
     -0.452  0.6667E+01  0.9026E+01
     -0.396  0.5838E+01  0.9356E+01
     -0.339  0.4473E+01  0.9609E+01
     -0.283  0.4650E+01  0.9871E+01
     -0.226  0.6401E+01  0.1023E+02
     -0.170  0.4843E+01  0.1051E+02
     -0.113  0.7274E+01  0.1092E+02
     -0.057  0.6943E+01  0.1131E+02
     -0.001  0.3939E+01  0.1153E+02
      0.056  0.7911E+01  0.1198E+02
      0.112  0.6479E+01  0.1234E+02
      0.169  0.6175E+01  0.1269E+02
      0.225  0.2527E+01  0.1284E+02
      0.282  0.8530E+01  0.1332E+02
      0.338  0.5670E+01  0.1364E+02
      0.395  0.7168E+01  0.1404E+02
      0.451  0.8084E+01  0.1450E+02
      0.508  0.7276E+01  0.1491E+02
      0.564  0.5797E+01  0.1524E+02
      0.621  0.4757E+01  0.1551E+02
      0.677  0.6526E+01  0.1588E+02
      0.734  0.6157E+01  0.1622E+02
      0.790  0.7719E+01  0.1666E+02
      0.847  0.7856E+01  0.1710E+02
      0.903  0.8489E+01  0.1758E+02
      0.960  0.6545E+01  0.1795E+02
      1.016  0.5160E+01  0.1824E+02
      1.073  0.8537E+01  0.1873E+02
      1.129  0.6607E+01  0.1910E+02
      1.186  0.7198E+01  0.1951E+02
      1.242  0.5084E+01  0.1979E+02
      1.299  0.8514E+01  0.2027E+02
      1.355  0.7128E+01  0.2068E+02
      1.411  0.9044E+01  0.2119E+02
      1.468  0.1000E+02  0.2175E+02
      1.524  0.5438E+01  0.2206E+02
      1.581  0.7753E+01  0.2250E+02
      1.637  0.7482E+01  0.2292E+02
      1.694  0.6009E+01  0.2326E+02
      1.750  0.5992E+01  0.2360E+02
      1.807  0.9458E+01  0.2413E+02
      1.863  0.8774E+01  0.2463E+02
      1.920  0.1014E+02  0.2520E+02
      1.976  0.7010E+01  0.2560E+02
      2.033  0.8766E+01  0.2609E+02
      2.089  0.7986E+01  0.2654E+02
      2.146  0.4926E+01  0.2682E+02
      2.202  0.1004E+02  0.2739E+02
      2.259  0.5680E+01  0.2771E+02
      2.315  0.9362E+01  0.2824E+02
      2.372  0.9706E+01  0.2878E+02
      2.428  0.9731E+01  0.2933E+02
      2.485  0.6828E+01  0.2972E+02
      2.541  0.7196E+01  0.3013E+02
      2.598  0.1354E+02  0.3089E+02
      2.654  0.6473E+01  0.3126E+02
      2.711  0.7862E+01  0.3170E+02
      2.767  0.7611E+01  0.3213E+02
      2.824  0.1055E+02  0.3273E+02
      2.880  0.5304E+01  0.3303E+02
      2.936  0.1011E+02  0.3360E+02
      2.993  0.8116E+01  0.3406E+02
      3.049  0.1168E+02  0.3472E+02
      3.106  0.1119E+02  0.3535E+02
      3.162  0.9692E+01  0.3590E+02
      3.219  0.7866E+01  0.3634E+02
      3.275  0.5064E+01  0.3663E+02
      3.332  0.1157E+02  0.3728E+02
      3.388  0.7891E+01  0.3772E+02
      3.445  0.9911E+01  0.3828E+02
      3.501  0.7096E+01  0.3869E+02
      3.558  0.1151E+02  0.3934E+02
      3.614  0.1042E+02  0.3992E+02
      3.671  0.1059E+02  0.4052E+02
      3.727  0.1035E+02  0.4111E+02
      3.784  0.7565E+01  0.4153E+02
      3.840  0.9127E+01  0.4205E+02
      3.897  0.1324E+02  0.4280E+02
      3.953  0.9730E+01  0.4335E+02
      4.010  0.6470E+01  0.4371E+02
      4.066  0.1219E+02  0.4440E+02
      4.123  0.8765E+01  0.4490E+02
      4.179  0.8266E+01  0.4536E+02
      4.236  0.9517E+01  0.4590E+02
      4.292  0.1243E+02  0.4660E+02
      4.348  0.8889E+01  0.4710E+02
      4.405  0.9285E+01  0.4763E+02
      4.461  0.1207E+02  0.4831E+02
      4.518  0.9139E+01  0.4883E+02
      4.574  0.1016E+02  0.4940E+02
      4.631  0.1084E+02  0.5001E+02
      4.687  0.8523E+01  0.5049E+02
      4.744  0.7913E+01  0.5094E+02
      4.800  0.1186E+02  0.5161E+02
      4.857  0.1039E+02  0.5220E+02
      4.913  0.1370E+02  0.5297E+02
      4.970  0.1006E+02  0.5354E+02
      5.026  0.1215E+02  0.5423E+02
      5.083  0.6476E+01  0.5459E+02
      5.139  0.1389E+02  0.5538E+02
      5.196  0.8092E+01  0.5583E+02
      5.252  0.1010E+02  0.5640E+02
      5.309  0.9499E+01  0.5694E+02
      5.365  0.1527E+02  0.5780E+02
      5.422  0.1315E+02  0.5855E+02
      5.478  0.1034E+02  0.5913E+02
      5.535  0.9334E+01  0.5966E+02
      5.591  0.1147E+02  0.6030E+02
      5.648  0.1033E+02  0.6089E+02
      5.704  0.1115E+02  0.6152E+02
      5.761  0.1697E+02  0.6248E+02
      5.817  0.1281E+02  0.6320E+02
      5.873  0.1290E+02  0.6393E+02
      5.930  0.7584E+01  0.6436E+02
      5.986  0.1188E+02  0.6503E+02
      6.043  0.8002E+01  0.6548E+02
      6.099  0.1562E+02  0.6636E+02
      6.156  0.1166E+02  0.6702E+02
      6.212  0.1005E+02  0.6759E+02
      6.269  0.1126E+02  0.6822E+02
      6.325  0.1151E+02  0.6887E+02
      6.382  0.1232E+02  0.6957E+02
      6.438  0.9832E+01  0.7013E+02
      6.495  0.7944E+01  0.7057E+02
      6.551  0.1340E+02  0.7133E+02
      6.608  0.1385E+02  0.7211E+02
      6.664  0.9134E+01  0.7263E+02
      6.721  0.1233E+02  0.7333E+02
      6.777  0.6874E+01  0.7371E+02
      6.834  0.9450E+01  0.7425E+02
      6.890  0.1263E+02  0.7496E+02
      6.947  0.1384E+02  0.7574E+02
      7.003  0.8368E+01  0.7621E+02
      7.060  0.9858E+01  0.7677E+02
      7.116  0.1494E+02  0.7761E+02
      7.173  0.8346E+01  0.7809E+02
      7.229  0.1066E+02  0.7869E+02
      7.286  0.1139E+02  0.7933E+02
      7.342  0.9857E+01  0.7989E+02
      7.398  0.1590E+02  0.8079E+02
      7.455  0.6963E+01  0.8118E+02
      7.511  0.1307E+02  0.8192E+02
      7.568  0.1557E+02  0.8280E+02
      7.624  0.1198E+02  0.8347E+02
      7.681  0.9677E+01  0.8402E+02
      7.737  0.1322E+02  0.8477E+02
      7.794  0.1159E+02  0.8542E+02
      7.850  0.1319E+02  0.8617E+02
      7.907  0.1338E+02  0.8692E+02
      7.963  0.1182E+02  0.8759E+02
      8.020  0.1210E+02  0.8827E+02
      8.076  0.1043E+02  0.8886E+02
      8.133  0.1457E+02  0.8969E+02
      8.189  0.1079E+02  0.9029E+02
      8.246  0.9224E+01  0.9082E+02
      8.302  0.1026E+02  0.9140E+02
      8.359  0.1322E+02  0.9214E+02
      8.415  0.1121E+02  0.9278E+02
      8.472  0.1149E+02  0.9342E+02
      8.528  0.9979E+01  0.9399E+02
      8.585  0.1174E+02  0.9465E+02
      8.641  0.1185E+02  0.9532E+02
      8.698  0.1183E+02  0.9599E+02
      8.754  0.1372E+02  0.9676E+02
      8.810  0.1047E+02  0.9736E+02
      8.867  0.1438E+02  0.9817E+02
      8.923  0.1549E+02  0.9904E+02
      8.980  0.1061E+02  0.9964E+02
      9.036  0.1417E+02  0.1004E+03
      9.093  0.1071E+02  0.1010E+03
      9.149  0.1221E+02  0.1017E+03
      9.206  0.1484E+02  0.1026E+03
      9.262  0.1677E+02  0.1035E+03
      9.319  0.1608E+02  0.1044E+03
      9.375  0.9694E+01  0.1050E+03
      9.432  0.1325E+02  0.1057E+03
      9.488  0.1118E+02  0.1064E+03
      9.545  0.9890E+01  0.1069E+03
      9.601  0.1033E+02  0.1075E+03
      9.658  0.6607E+01  0.1079E+03
      9.714  0.1930E+02  0.1090E+03
      9.771  0.1763E+02  0.1100E+03
      9.827  0.1558E+02  0.1108E+03
      9.884  0.1198E+02  0.1115E+03
      9.940  0.1709E+02  0.1125E+03
      9.997  0.1223E+02  0.1132E+03
     10.053  0.1341E+02  0.1139E+03
     10.110  0.9066E+01  0.1144E+03
     10.166  0.9179E+01  0.1150E+03
     10.223  0.1046E+02  0.1155E+03
     10.279  0.1179E+02  0.1162E+03
     10.335  0.1328E+02  0.1170E+03
     10.392  0.1780E+02  0.1180E+03
     10.448  0.1400E+02  0.1188E+03
     10.505  0.1389E+02  0.1195E+03
     10.561  0.1110E+02  0.1202E+03
     10.618  0.1501E+02  0.1210E+03
     10.674  0.1476E+02  0.1219E+03
     10.731  0.1438E+02  0.1227E+03
     10.787  0.1164E+02  0.1233E+03
     10.844  0.1234E+02  0.1240E+03
     10.900  0.1552E+02  0.1249E+03
     10.957  0.1140E+02  0.1255E+03
     11.013  0.1162E+02  0.1262E+03
     11.070  0.1290E+02  0.1269E+03
     11.126  0.9477E+01  0.1275E+03
     11.183  0.1730E+02  0.1284E+03
     11.239  0.1409E+02  0.1292E+03
     11.296  0.9245E+01  0.1298E+03
     11.352  0.9679E+01  0.1303E+03
     11.409  0.1327E+02  0.1311E+03
     11.465  0.1838E+02  0.1321E+03
     11.522  0.1167E+02  0.1328E+03
     11.578  0.6045E+01  0.1331E+03
     11.635  0.8421E+01  0.1336E+03
     11.691  0.6815E+01  0.1340E+03
     11.747  0.1076E+02  0.1346E+03
     11.804  0.6691E+01  0.1349E+03
     11.860  0.7548E+01  0.1354E+03
     11.917  0.3191E+01  0.1355E+03
     11.973  0.2630E+01  0.1357E+03
     12.030  0.1048E+01  0.1358E+03
     12.086  0.1920E+01  0.1359E+03
     12.143  0.1139E+00  0.1359E+03
     12.199  0.8967E+00  0.1359E+03
     12.256  0.3471E+00  0.1359E+03
     12.312  0.5189E+00  0.1360E+03
     12.369  0.4914E+00  0.1360E+03
     12.425  0.0000E+00  0.1360E+03
     12.482  0.3396E-03  0.1360E+03
     12.538  0.8163E-01  0.1360E+03
     12.595  0.0000E+00  0.1360E+03
     12.651  0.0000E+00  0.1360E+03
     12.708  0.0000E+00  0.1360E+03
     12.764  0.0000E+00  0.1360E+03
     12.821  0.0000E+00  0.1360E+03
     12.877  0.0000E+00  0.1360E+03
     12.934  0.0000E+00  0.1360E+03
     12.990  0.0000E+00  0.1360E+03
     13.047  0.0000E+00  0.1360E+03
     13.103  0.0000E+00  0.1360E+03
     13.160  0.0000E+00  0.1360E+03
     13.216  0.0000E+00  0.1360E+03
     13.272  0.0000E+00  0.1360E+03
