   32   32    1    1
  0.1548436E+02  0.7913120E-09  0.7913120E-09  0.7913120E-09  0.5000000E-15
  1.000000000000000E-004
  CAR 
 unknown system                          
   96  196   68
 
  0.0000000E+00  0.0000000E+00  0.0000000E+00  0.5787037E-03
   1       -2.9016
   2       -0.5627
   3       -0.5589
   4       -0.5589
   5       -0.5589
   6       -0.5589
   7       -0.5551
   8        1.7363
   9        1.7408
  10        1.7408
  11        1.7426
  12        1.7427
  13        1.7427
  14        1.7427
  15        1.7427
  16        1.7428
  17        1.7446
  18        1.7446
  19        1.7491
  20        3.8298
  21        3.8298
  22        3.8298
  23        3.8298
  24        4.2119
  25        4.2119
  26        4.2119
  27        4.2119
  28        5.6018
  29        5.6018
  30        5.6019
  31        7.0601
  32        7.0601
  33        7.0601
  34        7.7481
  35        7.7481
  36        7.7526
  37        7.7526
  38        7.7527
  39        7.7528
  40        7.7528
  41        7.7528
  42        7.7529
  43        7.7529
  44        7.7574
  45        7.7574
  46        8.7294
  47        8.7337
  48        8.7337
  49        8.7337
  50        8.7337
  51        8.7381
  52        9.9092
  53        9.9092
  54        9.9107
  55        9.9133
  56        9.9134
  57        9.9134
  58        9.9134
  59        9.9134
  60        9.9135
  61        9.9161
  62        9.9176
  63        9.9176
  64       10.1491
  65       10.1500
  66       10.1500
  67       10.1500
  68       10.1509
 
  0.8333333E-01  0.0000000E+00  0.0000000E+00  0.1157407E-02
   1       -2.8852
   2       -0.9302
   3       -0.5428
   4       -0.5428
   5       -0.5428
   6       -0.5428
   7       -0.1565
   8        1.3779
   9        1.3779
  10        1.3779
  11        1.3779
  12        1.7585
  13        1.7585
  14        1.7585
  15        1.7585
  16        2.1379
  17        2.1379
  18        2.1379
  19        2.1380
  20        3.6145
  21        3.6145
  22        3.6145
  23        3.6145
  24        4.4574
  25        4.4574
  26        4.4575
  27        4.4575
  28        5.3010
  29        5.6167
  30        5.6167
  31        7.0757
  32        7.0757
  33        7.3889
  34        7.4085
  35        7.4085
  36        7.4548
  37        7.4548
  38        7.4548
  39        7.4549
  40        7.7677
  41        7.7677
  42        7.7677
  43        7.7677
  44        8.1271
  45        8.1271
  46        8.6544
  47        8.6544
  48        8.9412
  49        8.9412
  50        8.9412
  51        8.9412
  52        9.5678
  53        9.5678
  54        9.5679
  55        9.5679
  56        9.6581
  57        9.6581
  58        9.6581
  59        9.6581
  60       10.2570
  61       10.2579
  62       10.2833
  63       10.2835
  64       10.2838
  65       10.2864
  66       10.2891
  67       10.2892
  68       10.2896
 
  0.1666667E+00  0.0000000E+00  0.0000000E+00  0.1157407E-02
   1       -2.8359
   2       -1.2702
   3       -0.4944
   4       -0.4944
   5       -0.4944
   6       -0.4944
   7        0.2764
   8        1.0439
   9        1.0439
  10        1.0439
  11        1.0439
  12        1.8060
  13        1.8060
  14        1.8060
  15        1.8060
  16        2.5631
  17        2.5631
  18        2.5631
  19        2.5631
  20        3.3063
  21        3.3063
  22        3.3063
  23        3.3063
  24        4.7247
  25        4.8563
  26        4.8563
  27        4.8563
  28        4.8563
  29        5.6614
  30        5.6614
  31        6.8997
  32        6.8997
  33        6.8997
  34        6.8997
  35        7.0945
  36        7.0945
  37        7.1222
  38        7.1222
  39        7.8127
  40        7.8127
  41        7.8127
  42        7.8127
  43        8.0494
  44        8.4665
  45        8.4665
  46        8.5316
  47        8.5316
  48        9.1316
  49        9.1317
  50        9.1317
  51        9.1317
  52        9.2204
  53        9.2204
  54        9.2205
  55        9.2206
  56        9.2525
  57        9.2525
  58        9.2527
  59        9.2527
  60       10.5283
  61       10.5283
  62       10.6891
  63       10.6892
  64       10.6896
  65       10.6915
  66       10.6950
  67       10.6952
  68       10.6955
 
  0.2500000E+00  0.0000000E+00  0.0000000E+00  0.1157407E-02
   1       -2.7539
   2       -1.5786
   3       -0.4139
   4       -0.4139
   5       -0.4139
   6       -0.4139
   7        0.7376
   8        0.7409
   9        0.7409
  10        0.7409
  11        0.7429
  12        1.8852
  13        1.8852
  14        1.8852
  15        1.8852
  16        3.0127
  17        3.0142
  18        3.0142
  19        3.0148
  20        3.0178
  21        3.0184
  22        3.0184
  23        3.0199
  24        4.1014
  25        5.2986
  26        5.2986
  27        5.2986
  28        5.2986
  29        5.7360
  30        5.7360
  31        6.2990
  32        6.2990
  33        6.2990
  34        6.2990
  35        6.8105
  36        6.8105
  37        7.1995
  38        7.1995
  39        7.8876
  40        7.8876
  41        7.8876
  42        7.8876
  43        8.2404
  44        8.2404
  45        8.5419
  46        8.5419
  47        8.5419
  48        8.5419
  49        8.8129
  50        8.9644
  51        8.9644
  52        8.9673
  53        8.9673
  54        8.9693
  55        8.9693
  56        9.4212
  57        9.4212
  58        9.4212
  59        9.4212
  60       10.6649
  61       10.6650
  62       10.6650
  63       10.6650
  64       10.8924
  65       10.8924
  66       11.1311
  67       11.1311
  68       11.1312
 
  0.3333333E+00  0.0000000E+00  0.0000000E+00  0.1157407E-02
   1       -2.6392
   2       -1.8552
   3       -0.3012
   4       -0.3011
   5       -0.3011
   6       -0.3011
   7        0.4691
   8        0.4691
   9        0.4691
  10        0.4691
  11        1.2327
  12        1.9958
  13        1.9958
  14        1.9958
  15        1.9959
  16        2.7504
  17        2.7504
  18        2.7504
  19        2.7504
  20        3.4821
  21        3.5014
  22        3.5014
  23        3.5014
  24        3.5014
  25        5.6990
  26        5.6990
  27        5.6990
  28        5.6990
  29        5.7736
  30        5.7736
  31        5.7736
  32        5.7736
  33        5.8404
  34        5.8404
  35        6.5566
  36        6.5566
  37        7.3070
  38        7.3070
  39        7.9478
  40        7.9478
  41        7.9479
  42        7.9479
  43        7.9925
  44        7.9925
  45        7.9926
  46        7.9926
  47        8.0129
  48        8.0129
  49        8.7122
  50        8.7122
  51        8.7122
  52        8.7122
  53        9.4314
  54        9.4314
  55        9.5891
  56        9.5891
  57        9.5891
  58        9.5891
  59        9.6281
  60       10.3989
  61       10.3989
  62       10.3989
  63       10.3989
  64       11.3112
  65       11.3112
  66       11.5945
  67       11.5963
  68       11.5975
 
  0.4166667E+00  0.0000000E+00  0.0000000E+00  0.1157407E-02
   1       -2.4918
   2       -2.0997
   3       -0.1564
   4       -0.1564
   5       -0.1564
   6       -0.1564
   7        0.2289
   8        0.2289
   9        0.2289
  10        0.2289
  11        1.7546
  12        2.1379
  13        2.1379
  14        2.1379
  15        2.1380
  16        2.5156
  17        2.5156
  18        2.5156
  19        2.5156
  20        2.8815
  21        4.0129
  22        4.0129
  23        4.0129
  24        4.0129
  25        5.1143
  26        5.1143
  27        5.1143
  28        5.1143
  29        5.9745
  30        5.9745
  31        6.2782
  32        6.2782
  33        6.2783
  34        6.2783
  35        6.3327
  36        6.3327
  37        7.3683
  38        7.3684
  39        7.3684
  40        7.3684
  41        7.4439
  42        7.4440
  43        7.7999
  44        7.7999
  45        8.1274
  46        8.1274
  47        8.1274
  48        8.1274
  49        8.4872
  50        8.4872
  51        8.4872
  52        8.4872
  53        9.7597
  54        9.7597
  55        9.7597
  56        9.7597
  57        9.9265
  58        9.9265
  59       10.1603
  60       10.1603
  61       10.1603
  62       10.1603
  63       10.4808
  64       11.0069
  65       11.0069
  66       11.7664
  67       11.7665
  68       12.0939
 
  0.5000000E+00  0.0000000E+00  0.0000000E+00  0.5787037E-03
   1       -2.3134
   2       -2.3104
   3        0.0162
   4        0.0194
   5        0.0194
   6        0.0202
   7        0.0204
   8        0.0212
   9        0.0212
  10        0.0244
  11        2.3025
  12        2.3049
  13        2.3096
  14        2.3100
  15        2.3100
  16        2.3108
  17        2.3118
  18        2.3126
  19        2.3126
  20        2.3152
  21        4.5503
  22        4.5503
  23        4.5507
  24        4.5510
  25        4.5514
  26        4.5517
  27        4.5521
  28        4.5521
  29        6.1370
  30        6.1370
  31        6.1402
  32        6.1402
  33        6.8096
  34        6.8096
  35        6.8100
  36        6.8105
  37        6.8107
  38        6.8112
  39        6.8116
  40        6.8116
  41        7.6069
  42        7.6081
  43        7.6098
  44        7.6110
  45        8.2898
  46        8.2898
  47        8.2907
  48        8.2922
  49        8.2924
  50        8.2938
  51        8.2948
  52        8.2948
  53        9.9458
  54        9.9467
  55        9.9467
  56        9.9469
  57        9.9493
  58        9.9494
  59        9.9494
  60        9.9503
  61       10.4506
  62       10.4506
  63       10.4529
  64       10.4529
  65       11.3647
  66       11.3659
  67       12.2464
  68       12.2478
 
  0.0000000E+00  0.8333333E-01  0.0000000E+00  0.2314815E-02
   1       -2.8852
   2       -0.9302
   3       -0.5457
   4       -0.5428
   5       -0.5428
   6       -0.5398
   7       -0.1566
   8        1.3749
   9        1.3779
  10        1.3779
  11        1.3809
  12        1.7564
  13        1.7574
  14        1.7597
  15        1.7607
  16        2.1349
  17        2.1379
  18        2.1379
  19        2.1409
  20        3.6126
  21        3.6134
  22        3.6156
  23        3.6164
  24        4.4555
  25        4.4564
  26        4.4585
  27        4.4594
  28        5.3010
  29        5.6167
  30        5.6168
  31        7.0757
  32        7.0757
  33        7.3889
  34        7.4084
  35        7.4085
  36        7.4515
  37        7.4548
  38        7.4548
  39        7.4582
  40        7.7649
  41        7.7677
  42        7.7678
  43        7.7705
  44        8.1271
  45        8.1271
  46        8.6544
  47        8.6544
  48        8.9382
  49        8.9412
  50        8.9412
  51        8.9442
  52        9.5650
  53        9.5679
  54        9.5679
  55        9.5707
  56        9.6553
  57        9.6569
  58        9.6593
  59        9.6609
  60       10.2570
  61       10.2571
  62       10.2829
  63       10.2833
  64       10.2838
  65       10.2866
  66       10.2872
  67       10.2892
  68       10.2911
 
  0.8333333E-01  0.8333333E-01  0.0000000E+00  0.4629630E-02
   1       -2.8688
   2       -0.9153
   3       -0.9128
   4       -0.5267
   5       -0.5266
   6       -0.1417
   7       -0.1393
   8        1.0121
   9        1.3921
  10        1.3930
  11        1.3945
  12        1.3955
  13        1.7738
  14        1.7747
  15        2.1520
  16        2.1529
  17        2.1545
  18        2.1554
  19        2.5318
  20        3.2752
  21        3.2752
  22        3.8601
  23        3.8601
  24        4.2438
  25        4.2438
  26        4.8253
  27        4.8253
  28        5.3158
  29        5.3165
  30        5.6316
  31        7.0912
  32        7.1152
  33        7.1175
  34        7.3910
  35        7.3911
  36        7.4039
  37        7.4047
  38        7.4221
  39        7.4249
  40        7.5651
  41        7.5651
  42        7.8108
  43        7.8128
  44        8.1407
  45        8.1435
  46        8.8159
  47        8.8182
  48        8.9174
  49        8.9202
  50        9.1567
  51        9.1567
  52        9.2225
  53        9.3096
  54        9.3106
  55        9.3121
  56        9.3130
  57        9.9425
  58        9.9443
  59       10.0335
  60       10.0344
  61       10.0351
  62       10.0360
  63       10.3280
  64       10.3287
  65       10.3929
  66       10.3929
  67       10.4524
  68       10.4539
 
  0.1666667E+00  0.8333333E-01  0.0000000E+00  0.4629630E-02
   1       -2.8195
   2       -1.2540
   3       -0.8656
   4       -0.4783
   5       -0.4783
   6       -0.0923
   7        0.2925
   8        0.6771
   9        1.0598
  10        1.0598
  11        1.4407
  12        1.4415
  13        1.4421
  14        2.2002
  15        2.2010
  16        2.2016
  17        2.5788
  18        2.5788
  19        2.9522
  20        2.9523
  21        2.9556
  22        3.6760
  23        3.6761
  24        4.5200
  25        4.5201
  26        4.7400
  27        5.2371
  28        5.2371
  29        5.3614
  30        5.6763
  31        6.5588
  32        6.8039
  33        6.9026
  34        6.9026
  35        7.1094
  36        7.1376
  37        7.2622
  38        7.4502
  39        7.4684
  40        7.5533
  41        7.5533
  42        8.0644
  43        8.1417
  44        8.1871
  45        8.5466
  46        8.6688
  47        8.7614
  48        8.7832
  49        8.7833
  50        8.9074
  51        8.9924
  52        8.9946
  53        8.9954
  54        9.3536
  55        9.4734
  56        9.4735
  57        9.5100
  58        9.5101
  59        9.6279
  60       10.3492
  61       10.4413
  62       10.4413
  63       10.5673
  64       10.5812
  65       10.6097
  66       10.7511
  67       10.7512
  68       10.7591
 
  0.2500000E+00  0.8333333E-01  0.0000000E+00  0.4629630E-02
   1       -2.7375
   2       -1.5623
   3       -0.7848
   4       -0.3978
   5       -0.3977
   6       -0.0120
   7        0.3732
   8        0.7543
   9        0.7568
  10        0.7582
  11        1.1392
  12        1.5208
  13        1.5208
  14        2.2798
  15        2.2799
  16        2.6547
  17        2.6563
  18        2.6585
  19        3.0334
  20        3.0334
  21        3.3991
  22        3.3994
  23        3.4090
  24        4.1168
  25        4.9491
  26        4.9491
  27        5.4368
  28        5.6822
  29        5.6822
  30        5.7509
  31        5.9534
  32        6.3100
  33        6.3100
  34        6.5198
  35        6.6697
  36        6.8254
  37        7.2146
  38        7.5264
  39        7.5433
  40        7.6237
  41        7.6237
  42        8.1915
  43        8.1920
  44        8.1930
  45        8.2620
  46        8.5482
  47        8.6223
  48        8.7079
  49        8.7080
  50        8.8098
  51        8.8276
  52        8.9215
  53        8.9216
  54        8.9814
  55        9.1316
  56        9.3425
  57        9.6846
  58        9.6987
  59        9.6987
  60       10.3162
  61       10.7852
  62       10.8775
  63       10.8775
  64       10.9186
  65       10.9516
  66       10.9520
  67       11.0409
  68       11.0725
 
  0.3333333E+00  0.8333333E-01  0.0000000E+00  0.4629630E-02
   1       -2.6228
   2       -1.8389
   3       -0.6717
   4       -0.2851
   5       -0.2851
   6        0.0999
   7        0.1012
   8        0.4851
   9        0.4851
  10        0.8683
  11        1.2486
  12        1.6319
  13        1.6319
  14        2.3891
  15        2.3895
  16        2.3904
  17        2.3908
  18        3.1395
  19        3.1396
  20        3.1421
  21        3.4977
  22        3.5169
  23        3.5169
  24        3.8904
  25        5.3494
  26        5.4212
  27        5.4212
  28        5.5424
  29        5.7125
  30        5.7125
  31        5.8552
  32        6.0758
  33        6.1578
  34        6.1578
  35        6.2648
  36        6.5715
  37        7.3217
  38        7.5968
  39        7.5968
  40        7.6324
  41        7.6482
  42        7.7279
  43        7.7279
  44        8.0106
  45        8.3263
  46        8.3288
  47        8.3296
  48        8.3664
  49        8.3681
  50        8.4515
  51        8.4515
  52        9.0873
  53        9.2202
  54        9.2701
  55        9.4464
  56        9.6425
  57        9.8755
  58        9.8755
  59        9.9142
  60       10.0513
  61       10.6868
  62       10.6868
  63       10.7726
  64       11.2514
  65       11.3321
  66       11.3408
  67       11.3433
  68       11.3438
 
  0.4166667E+00  0.8333333E-01  0.0000000E+00  0.4629630E-02
   1       -2.4755
   2       -2.0833
   3       -0.5266
   4       -0.1417
   5       -0.1403
   6       -0.1388
   7        0.2434
   8        0.2449
   9        0.2462
  10        0.6288
  11        1.7700
  12        1.7745
  13        1.7749
  14        2.1537
  15        2.1537
  16        2.5315
  17        2.5315
  18        2.8969
  19        2.9070
  20        2.9072
  21        3.6554
  22        4.0282
  23        4.0282
  24        4.3998
  25        4.7615
  26        5.1288
  27        5.1289
  28        5.4954
  29        5.6781
  30        5.9253
  31        5.9253
  32        5.9894
  33        6.0394
  34        6.3475
  35        6.6621
  36        6.6621
  37        7.0164
  38        7.0164
  39        7.4577
  40        7.7503
  41        7.7504
  42        7.7675
  43        7.7829
  44        7.8083
  45        7.8632
  46        7.8632
  47        8.1181
  48        8.1425
  49        8.2251
  50        8.2251
  51        8.5020
  52        8.8621
  53        9.4262
  54        9.6993
  55        9.8150
  56        9.9416
  57       10.0489
  58       10.0489
  59       10.1114
  60       10.4493
  61       10.4493
  62       10.4946
  63       10.5307
  64       10.7648
  65       11.0220
  66       11.7485
  67       11.7869
  68       11.8393
 
  0.5000000E+00  0.8333333E-01  0.0000000E+00  0.2314815E-02
   1       -2.2971
   2       -2.2941
   3       -0.3508
   4       -0.3478
   5        0.0343
   6        0.0355
   7        0.0373
   8        0.0385
   9        0.4194
  10        0.4224
  11        1.9463
  12        1.9476
  13        1.9494
  14        1.9506
  15        2.3199
  16        2.3212
  17        2.7018
  18        2.7031
  19        2.7049
  20        2.7061
  21        4.1952
  22        4.1965
  23        4.5653
  24        4.5659
  25        4.5666
  26        4.5671
  27        4.9349
  28        4.9361
  29        5.8422
  30        5.8453
  31        6.1519
  32        6.1551
  33        6.4571
  34        6.4574
  35        6.4585
  36        6.4587
  37        7.1928
  38        7.1931
  39        7.1942
  40        7.1945
  41        7.6196
  42        7.6226
  43        7.9286
  44        7.9316
  45        7.9460
  46        7.9493
  47        8.0266
  48        8.0281
  49        8.0299
  50        8.0313
  51        8.6654
  52        8.6687
  53        9.6055
  54        9.6085
  55       10.2153
  56       10.2173
  57       10.2358
  58       10.2364
  59       10.2389
  60       10.2395
  61       10.3107
  62       10.3138
  63       10.4657
  64       10.4680
  65       11.3778
  66       11.3789
  67       12.2719
  68       12.2770
 
  0.0000000E+00  0.1666667E+00  0.0000000E+00  0.2314815E-02
   1       -2.8359
   2       -1.2702
   3       -0.4974
   4       -0.4944
   5       -0.4944
   6       -0.4915
   7        0.2764
   8        1.0409
   9        1.0439
  10        1.0439
  11        1.0468
  12        1.8039
  13        1.8049
  14        1.8072
  15        1.8082
  16        2.5601
  17        2.5631
  18        2.5631
  19        2.5661
  20        3.3042
  21        3.3051
  22        3.3074
  23        3.3084
  24        4.7247
  25        4.8542
  26        4.8551
  27        4.8575
  28        4.8584
  29        5.6614
  30        5.6615
  31        6.8964
  32        6.8997
  33        6.8997
  34        6.9029
  35        7.0945
  36        7.0945
  37        7.1222
  38        7.1222
  39        7.8099
  40        7.8127
  41        7.8127
  42        7.8155
  43        8.0494
  44        8.4665
  45        8.4665
  46        8.5316
  47        8.5317
  48        9.1291
  49        9.1305
  50        9.1329
  51        9.1343
  52        9.2177
  53        9.2205
  54        9.2205
  55        9.2232
  56        9.2497
  57        9.2525
  58        9.2526
  59        9.2554
  60       10.5283
  61       10.5283
  62       10.6884
  63       10.6891
  64       10.6902
  65       10.6915
  66       10.6931
  67       10.6950
  68       10.6972
 
  0.8333333E-01  0.1666667E+00  0.0000000E+00  0.4629630E-02
   1       -2.8195
   2       -1.2540
   3       -0.8656
   4       -0.4783
   5       -0.4783
   6       -0.0923
   7        0.2925
   8        0.6771
   9        1.0598
  10        1.0598
  11        1.4400
  12        1.4415
  13        1.4428
  14        2.1995
  15        2.2010
  16        2.2023
  17        2.5788
  18        2.5788
  19        2.9522
  20        2.9523
  21        2.9556
  22        3.6761
  23        3.6761
  24        4.5200
  25        4.5200
  26        4.7400
  27        5.2371
  28        5.2371
  29        5.3614
  30        5.6763
  31        6.5587
  32        6.8039
  33        6.9026
  34        6.9026
  35        7.1094
  36        7.1376
  37        7.2622
  38        7.4502
  39        7.4684
  40        7.5534
  41        7.5534
  42        8.0644
  43        8.1417
  44        8.1871
  45        8.5466
  46        8.6688
  47        8.7614
  48        8.7833
  49        8.7833
  50        8.9073
  51        8.9927
  52        8.9946
  53        8.9951
  54        9.3536
  55        9.4736
  56        9.4736
  57        9.5100
  58        9.5100
  59        9.6279
  60       10.3492
  61       10.4413
  62       10.4413
  63       10.5674
  64       10.5812
  65       10.6097
  66       10.7511
  67       10.7512
  68       10.7591
 
  0.1666667E+00  0.1666667E+00  0.0000000E+00  0.4629630E-02
   1       -2.7703
   2       -1.2066
   3       -1.2042
   4       -0.4300
   5       -0.4300
   6        0.3388
   7        0.3408
   8        0.3426
   9        1.1059
  10        1.1068
  11        1.1083
  12        1.1093
  13        1.8684
  14        1.8694
  15        2.6231
  16        2.6242
  17        2.6255
  18        2.6256
  19        2.6270
  20        2.6282
  21        3.3777
  22        3.9507
  23        3.9507
  24        4.3393
  25        4.3393
  26        4.7855
  27        4.7863
  28        5.6517
  29        5.6517
  30        5.7211
  31        6.2429
  32        6.2453
  33        6.8182
  34        6.8182
  35        7.1429
  36        7.1432
  37        7.1531
  38        7.1558
  39        7.1836
  40        7.6302
  41        7.6323
  42        8.1089
  43        8.1099
  44        8.4630
  45        8.4640
  46        8.4655
  47        8.4666
  48        8.5895
  49        8.5919
  50        8.5943
  51        8.7607
  52        8.7623
  53        9.3137
  54        9.3164
  55        9.9124
  56        9.9134
  57        9.9171
  58        9.9176
  59        9.9181
  60        9.9196
  61       10.0326
  62       10.0345
  63       10.2882
  64       10.7033
  65       10.7039
  66       10.9804
  67       10.9804
  68       11.3065
 
  0.2500000E+00  0.1666667E+00  0.0000000E+00  0.4629630E-02
   1       -2.6883
   2       -1.5136
   3       -1.1244
   4       -0.3495
   5       -0.3494
   6        0.0366
   7        0.4205
   8        0.8022
   9        0.8047
  10        0.8061
  11        1.1872
  12        1.1872
  13        1.5679
  14        2.3247
  15        2.3269
  16        2.3285
  17        2.7044
  18        2.7044
  19        3.0803
  20        3.0803
  21        3.7990
  22        3.7991
  23        3.8291
  24        4.1632
  25        4.6450
  26        4.6450
  27        4.8623
  28        5.6353
  29        5.7956
  30        5.9576
  31        6.0973
  32        6.0973
  33        6.3342
  34        6.3342
  35        6.8703
  36        7.0597
  37        7.1066
  38        7.1066
  39        7.2291
  40        7.2598
  41        7.8722
  42        7.8722
  43        7.9355
  44        8.1764
  45        8.1764
  46        8.1840
  47        8.3074
  48        8.6287
  49        8.6667
  50        8.8561
  51        8.8716
  52        9.0265
  53        9.1549
  54        9.3307
  55        9.3307
  56        9.7480
  57        9.8380
  58        9.9953
  59       10.2469
  60       10.2470
  61       10.3549
  62       10.3549
  63       10.4694
  64       11.0040
  65       11.0060
  66       11.4169
  67       11.4423
  68       11.4599
 
  0.3333333E+00  0.1666667E+00  0.0000000E+00  0.4629630E-02
   1       -2.5737
   2       -1.7900
   3       -1.0111
   4       -0.2381
   5       -0.2368
   6       -0.2353
   7        0.5314
   8        0.5331
   9        0.5343
  10        1.2950
  11        1.2980
  12        1.2985
  13        1.2997
  14        2.0590
  15        2.0590
  16        2.8126
  17        2.8140
  18        2.8143
  19        3.5442
  20        3.5544
  21        3.5544
  22        3.5634
  23        3.5636
  24        4.3086
  25        4.9693
  26        5.0283
  27        5.1034
  28        5.1034
  29        5.7002
  30        5.7511
  31        5.7512
  32        5.9000
  33        6.4768
  34        6.5724
  35        6.5724
  36        6.6163
  37        7.1971
  38        7.1971
  39        7.2761
  40        7.2761
  41        7.3339
  42        7.3652
  43        7.9184
  44        7.9184
  45        7.9738
  46        8.0527
  47        8.2877
  48        8.7393
  49        8.7394
  50        8.7718
  51        8.8090
  52        8.9565
  53        8.9732
  54        9.4902
  55        9.4939
  56        9.6852
  57        9.7314
  58       10.2085
  59       10.4680
  60       10.4680
  61       10.8207
  62       10.8209
  63       10.8274
  64       10.9354
  65       11.1702
  66       11.3012
  67       11.3012
  68       11.3970
 
  0.4166667E+00  0.1666667E+00  0.0000000E+00  0.4629630E-02
   1       -2.4264
   2       -2.0344
   3       -0.8655
   4       -0.4781
   5       -0.0921
   6       -0.0921
   7        0.2930
   8        0.2930
   9        0.6764
  10        1.0592
  11        1.4415
  12        1.4415
  13        1.8175
  14        1.8220
  15        1.8224
  16        2.9439
  17        2.9546
  18        2.9548
  19        3.3264
  20        3.3266
  21        3.3280
  22        4.0741
  23        4.0741
  24        4.4379
  25        4.8153
  26        5.1067
  27        5.1719
  28        5.1719
  29        5.4723
  30        5.6044
  31        5.6044
  32        5.9031
  33        6.0342
  34        6.3923
  35        6.6950
  36        6.6950
  37        7.0760
  38        7.0760
  39        7.3290
  40        7.3290
  41        7.4686
  42        7.4983
  43        7.6909
  44        7.6909
  45        7.8265
  46        7.8279
  47        8.1623
  48        8.1623
  49        8.4195
  50        8.7589
  51        8.9069
  52        9.1182
  53        9.2269
  54        9.2673
  55        9.4971
  56        9.9867
  57       10.2606
  58       10.4671
  59       10.5358
  60       10.6566
  61       10.6566
  62       10.9229
  63       11.0637
  64       11.0639
  65       11.0674
  66       11.3153
  67       11.3153
  68       11.4317
 
  0.5000000E+00  0.1666667E+00  0.0000000E+00  0.2314815E-02
   1       -2.2481
   2       -2.2451
   3       -0.6893
   4       -0.6863
   5        0.0824
   6        0.0837
   7        0.0854
   8        0.0867
   9        0.8505
  10        0.8535
  11        1.6140
  12        1.6152
  13        1.6170
  14        1.6182
  15        2.3671
  16        2.3684
  17        3.1236
  18        3.1249
  19        3.1267
  20        3.1280
  21        3.8695
  22        3.8707
  23        4.6102
  24        4.6108
  25        4.6115
  26        4.6120
  27        5.2729
  28        5.2760
  29        5.3471
  30        5.3483
  31        6.1355
  32        6.1358
  33        6.1369
  34        6.1370
  35        6.1967
  36        6.2000
  37        7.4920
  38        7.4933
  39        7.4952
  40        7.4964
  41        7.6057
  42        7.6060
  43        7.6071
  44        7.6074
  45        7.6317
  46        7.6349
  47        7.6539
  48        7.6568
  49        8.5761
  50        8.5792
  51        9.0704
  52        9.0737
  53        9.2912
  54        9.2941
  55        9.7225
  56        9.7243
  57       10.5109
  58       10.5132
  59       10.6915
  60       10.6947
  61       10.8487
  62       10.8495
  63       10.8520
  64       10.8527
  65       11.4166
  66       11.4177
  67       11.8374
  68       11.8405
 
  0.0000000E+00  0.2500000E+00  0.0000000E+00  0.2314815E-02
   1       -2.7539
   2       -1.5786
   3       -0.4168
   4       -0.4139
   5       -0.4139
   6       -0.4109
   7        0.7377
   8        0.7398
   9        0.7409
  10        0.7409
  11        0.7439
  12        1.8830
  13        1.8840
  14        1.8864
  15        1.8873
  16        3.0123
  17        3.0135
  18        3.0150
  19        3.0159
  20        3.0168
  21        3.0178
  22        3.0179
  23        3.0210
  24        4.1014
  25        5.2964
  26        5.2974
  27        5.2998
  28        5.3008
  29        5.7360
  30        5.7360
  31        6.2958
  32        6.2990
  33        6.2990
  34        6.3022
  35        6.8105
  36        6.8105
  37        7.1995
  38        7.1995
  39        7.8848
  40        7.8876
  41        7.8876
  42        7.8904
  43        8.2404
  44        8.2404
  45        8.5394
  46        8.5406
  47        8.5431
  48        8.5443
  49        8.8128
  50        8.9639
  51        8.9664
  52        8.9666
  53        8.9673
  54        8.9673
  55        8.9705
  56        9.4186
  57        9.4212
  58        9.4212
  59        9.4238
  60       10.6626
  61       10.6650
  62       10.6650
  63       10.6674
  64       10.8923
  65       10.8924
  66       11.1291
  67       11.1312
  68       11.1338
 