       N       E                     dE             d eps       ncg     rms          rms(c)
DAV:   1     0.135525427236E+03    0.13553E+03   -0.33361E+04 26656   0.111E+03
DAV:   2    -0.105733162204E+03   -0.24126E+03   -0.22558E+03 31340   0.147E+02
DAV:   3    -0.119785603364E+03   -0.14052E+02   -0.13328E+02 33000   0.286E+01
DAV:   4    -0.120081816836E+03   -0.29621E+00   -0.29267E+00 31416   0.426E+00
DAV:   5    -0.120085836226E+03   -0.40194E-02   -0.40125E-02 31688   0.556E-01    0.546E+00
DAV:   6    -0.119643736434E+03    0.44210E+00   -0.42181E-02 30672   0.673E-01    0.339E+00
DAV:   7    -0.119322042772E+03    0.32169E+00   -0.12761E-01 29196   0.109E+00    0.136E-01
DAV:   8    -0.119322237236E+03   -0.19446E-03   -0.11699E-03 31904   0.138E-01    0.483E-02
DAV:   9    -0.119322272298E+03   -0.35062E-04   -0.54885E-05 31012   0.208E-02    0.402E-03
DAV:  10    -0.119322274174E+03   -0.18758E-05   -0.32302E-06 31868   0.591E-03    0.204E-03
DAV:  11    -0.119322271740E+03    0.24341E-05   -0.23695E-07 31268   0.147E-03    0.795E-04
DAV:  12    -0.119322270843E+03    0.89655E-06   -0.22375E-08 21720   0.493E-04    0.133E-04
DAV:  13    -0.119322270688E+03    0.15549E-06   -0.29510E-09 17620   0.202E-04    0.357E-05
DAV:  14    -0.119322270678E+03    0.99972E-08   -0.49731E-10 17296   0.759E-05
   1 F= -.11932227E+03 E0= -.11932187E+03  d E =-.795713E-03
