<?xml version="1.0" encoding="ISO-8859-1"?>
<modeling>
 <generator>
  <i name="program" type="string">vasp</i>
  <i name="version" type="string">4.6.28 </i>
  <i name="subversion" type="string">25Jul05 complex  parallel</i>
  <i name="platform" type="string">LinuxIFC</i>
  <i name="date" type="string">2016 10 21</i>
  <i name="time" type="string">16:38:21</i>
 </generator>
 <incar>
  <i type="string" name="PREC">accurate</i>
  <i type="int" name="IALGO">    38</i>
  <i name="EDIFF">      0.00000001</i>
  <i type="int" name="IBRION">    -1</i>
  <i name="ENCUT">    500.00000000</i>
  <i type="logical" name="LREAL"> F  </i>
  <i type="int" name="ISMEAR">     0</i>
  <i name="SIGMA">      0.01000000</i>
  <i type="logical" name="LWAVE"> F  </i>
  <i type="logical" name="LCHARG"> F  </i>
 </incar>
 <kpoints>
  <generation param="Gamma">
   <v type="int" name="divisions">      12      12      12</v>
   <v name="usershift">      0.00000000      0.00000000      0.00000000</v>
   <v name="genvec1">      0.08333333      0.00000000      0.00000000</v>
   <v name="genvec2">      0.00000000      0.08333333      0.00000000</v>
   <v name="genvec3">      0.00000000      0.00000000      0.08333333</v>
   <v name="shift">      0.00000000      0.00000000      0.00000000</v>
  </generation>
  <varray name="kpointlist" >
   <v>       0.00000000      0.00000000      0.00000000</v>
   <v>       0.08333333      0.00000000      0.00000000</v>
   <v>       0.16666667      0.00000000      0.00000000</v>
   <v>       0.25000000      0.00000000      0.00000000</v>
   <v>       0.33333333      0.00000000      0.00000000</v>
   <v>       0.41666667      0.00000000      0.00000000</v>
   <v>       0.50000000      0.00000000      0.00000000</v>
   <v>       0.00000000      0.08333333      0.00000000</v>
   <v>       0.08333333      0.08333333      0.00000000</v>
   <v>       0.16666667      0.08333333      0.00000000</v>
   <v>       0.25000000      0.08333333      0.00000000</v>
   <v>       0.33333333      0.08333333      0.00000000</v>
   <v>       0.41666667      0.08333333      0.00000000</v>
   <v>       0.50000000      0.08333333      0.00000000</v>
   <v>       0.00000000      0.16666667      0.00000000</v>
   <v>       0.08333333      0.16666667      0.00000000</v>
   <v>       0.16666667      0.16666667      0.00000000</v>
   <v>       0.25000000      0.16666667      0.00000000</v>
   <v>       0.33333333      0.16666667      0.00000000</v>
   <v>       0.41666667      0.16666667      0.00000000</v>
   <v>       0.50000000      0.16666667      0.00000000</v>
   <v>       0.00000000      0.25000000      0.00000000</v>
   <v>       0.08333333      0.25000000      0.00000000</v>
   <v>       0.16666667      0.25000000      0.00000000</v>
   <v>       0.25000000      0.25000000      0.00000000</v>
   <v>       0.33333333      0.25000000      0.00000000</v>
   <v>       0.41666667      0.25000000      0.00000000</v>
   <v>       0.50000000      0.25000000      0.00000000</v>
   <v>       0.00000000      0.33333333      0.00000000</v>
   <v>       0.08333333      0.33333333      0.00000000</v>
   <v>       0.16666667      0.33333333      0.00000000</v>
   <v>       0.25000000      0.33333333      0.00000000</v>
   <v>       0.33333333      0.33333333      0.00000000</v>
   <v>       0.41666667      0.33333333      0.00000000</v>
   <v>       0.50000000      0.33333333      0.00000000</v>
   <v>       0.00000000      0.41666667      0.00000000</v>
   <v>       0.08333333      0.41666667      0.00000000</v>
   <v>       0.16666667      0.41666667      0.00000000</v>
   <v>       0.25000000      0.41666667      0.00000000</v>
   <v>       0.33333333      0.41666667      0.00000000</v>
   <v>       0.41666667      0.41666667      0.00000000</v>
   <v>       0.50000000      0.41666667      0.00000000</v>
   <v>       0.00000000      0.50000000      0.00000000</v>
   <v>       0.08333333      0.50000000      0.00000000</v>
   <v>       0.16666667      0.50000000      0.00000000</v>
   <v>       0.25000000      0.50000000      0.00000000</v>
   <v>       0.33333333      0.50000000      0.00000000</v>
   <v>       0.41666667      0.50000000      0.00000000</v>
   <v>       0.50000000      0.50000000      0.00000000</v>
   <v>       0.00000000      0.08333333      0.08333333</v>
   <v>       0.08333333      0.08333333      0.08333333</v>
   <v>       0.16666667      0.08333333      0.08333333</v>
   <v>       0.25000000      0.08333333      0.08333333</v>
   <v>       0.33333333      0.08333333      0.08333333</v>
   <v>       0.41666667      0.08333333      0.08333333</v>
   <v>       0.50000000      0.08333333      0.08333333</v>
   <v>       0.00000000      0.16666667      0.08333333</v>
   <v>       0.08333333      0.16666667      0.08333333</v>
   <v>       0.16666667      0.16666667      0.08333333</v>
   <v>       0.25000000      0.16666667      0.08333333</v>
   <v>       0.33333333      0.16666667      0.08333333</v>
   <v>       0.41666667      0.16666667      0.08333333</v>
   <v>       0.50000000      0.16666667      0.08333333</v>
   <v>       0.00000000      0.25000000      0.08333333</v>
   <v>       0.08333333      0.25000000      0.08333333</v>
   <v>       0.16666667      0.25000000      0.08333333</v>
   <v>       0.25000000      0.25000000      0.08333333</v>
   <v>       0.33333333      0.25000000      0.08333333</v>
   <v>       0.41666667      0.25000000      0.08333333</v>
   <v>       0.50000000      0.25000000      0.08333333</v>
   <v>       0.00000000      0.33333333      0.08333333</v>
   <v>       0.08333333      0.33333333      0.08333333</v>
   <v>       0.16666667      0.33333333      0.08333333</v>
   <v>       0.25000000      0.33333333      0.08333333</v>
   <v>       0.33333333      0.33333333      0.08333333</v>
   <v>       0.41666667      0.33333333      0.08333333</v>
   <v>       0.50000000      0.33333333      0.08333333</v>
   <v>       0.00000000      0.41666667      0.08333333</v>
   <v>       0.08333333      0.41666667      0.08333333</v>
   <v>       0.16666667      0.41666667      0.08333333</v>
   <v>       0.25000000      0.41666667      0.08333333</v>
   <v>       0.33333333      0.41666667      0.08333333</v>
   <v>       0.41666667      0.41666667      0.08333333</v>
   <v>       0.50000000      0.41666667      0.08333333</v>
   <v>       0.00000000      0.50000000      0.08333333</v>
   <v>       0.08333333      0.50000000      0.08333333</v>
   <v>       0.16666667      0.50000000      0.08333333</v>
   <v>       0.25000000      0.50000000      0.08333333</v>
   <v>       0.33333333      0.50000000      0.08333333</v>
   <v>       0.41666667      0.50000000      0.08333333</v>
   <v>       0.50000000      0.50000000      0.08333333</v>
   <v>       0.00000000      0.16666667      0.16666667</v>
   <v>       0.08333333      0.16666667      0.16666667</v>
   <v>       0.16666667      0.16666667      0.16666667</v>
   <v>       0.25000000      0.16666667      0.16666667</v>
   <v>       0.33333333      0.16666667      0.16666667</v>
   <v>       0.41666667      0.16666667      0.16666667</v>
   <v>       0.50000000      0.16666667      0.16666667</v>
   <v>       0.00000000      0.25000000      0.16666667</v>
   <v>       0.08333333      0.25000000      0.16666667</v>
   <v>       0.16666667      0.25000000      0.16666667</v>
   <v>       0.25000000      0.25000000      0.16666667</v>
   <v>       0.33333333      0.25000000      0.16666667</v>
   <v>       0.41666667      0.25000000      0.16666667</v>
   <v>       0.50000000      0.25000000      0.16666667</v>
   <v>       0.00000000      0.33333333      0.16666667</v>
   <v>       0.08333333      0.33333333      0.16666667</v>
   <v>       0.16666667      0.33333333      0.16666667</v>
   <v>       0.25000000      0.33333333      0.16666667</v>
   <v>       0.33333333      0.33333333      0.16666667</v>
   <v>       0.41666667      0.33333333      0.16666667</v>
   <v>       0.50000000      0.33333333      0.16666667</v>
   <v>       0.00000000      0.41666667      0.16666667</v>
   <v>       0.08333333      0.41666667      0.16666667</v>
   <v>       0.16666667      0.41666667      0.16666667</v>
   <v>       0.25000000      0.41666667      0.16666667</v>
   <v>       0.33333333      0.41666667      0.16666667</v>
   <v>       0.41666667      0.41666667      0.16666667</v>
   <v>       0.50000000      0.41666667      0.16666667</v>
   <v>       0.00000000      0.50000000      0.16666667</v>
   <v>       0.08333333      0.50000000      0.16666667</v>
   <v>       0.16666667      0.50000000      0.16666667</v>
   <v>       0.25000000      0.50000000      0.16666667</v>
   <v>       0.33333333      0.50000000      0.16666667</v>
   <v>       0.41666667      0.50000000      0.16666667</v>
   <v>       0.50000000      0.50000000      0.16666667</v>
   <v>       0.00000000      0.25000000      0.25000000</v>
   <v>       0.08333333      0.25000000      0.25000000</v>
   <v>       0.16666667      0.25000000      0.25000000</v>
   <v>       0.25000000      0.25000000      0.25000000</v>
   <v>       0.33333333      0.25000000      0.25000000</v>
   <v>       0.41666667      0.25000000      0.25000000</v>
   <v>       0.50000000      0.25000000      0.25000000</v>
   <v>       0.00000000      0.33333333      0.25000000</v>
   <v>       0.08333333      0.33333333      0.25000000</v>
   <v>       0.16666667      0.33333333      0.25000000</v>
   <v>       0.25000000      0.33333333      0.25000000</v>
   <v>       0.33333333      0.33333333      0.25000000</v>
   <v>       0.41666667      0.33333333      0.25000000</v>
   <v>       0.50000000      0.33333333      0.25000000</v>
   <v>       0.00000000      0.41666667      0.25000000</v>
   <v>       0.08333333      0.41666667      0.25000000</v>
   <v>       0.16666667      0.41666667      0.25000000</v>
   <v>       0.25000000      0.41666667      0.25000000</v>
   <v>       0.33333333      0.41666667      0.25000000</v>
   <v>       0.41666667      0.41666667      0.25000000</v>
   <v>       0.50000000      0.41666667      0.25000000</v>
   <v>       0.00000000      0.50000000      0.25000000</v>
   <v>       0.08333333      0.50000000      0.25000000</v>
   <v>       0.16666667      0.50000000      0.25000000</v>
   <v>       0.25000000      0.50000000      0.25000000</v>
   <v>       0.33333333      0.50000000      0.25000000</v>
   <v>       0.41666667      0.50000000      0.25000000</v>
   <v>       0.50000000      0.50000000      0.25000000</v>
   <v>       0.00000000      0.33333333      0.33333333</v>
   <v>       0.08333333      0.33333333      0.33333333</v>
   <v>       0.16666667      0.33333333      0.33333333</v>
   <v>       0.25000000      0.33333333      0.33333333</v>
   <v>       0.33333333      0.33333333      0.33333333</v>
   <v>       0.41666667      0.33333333      0.33333333</v>
   <v>       0.50000000      0.33333333      0.33333333</v>
   <v>       0.00000000      0.41666667      0.33333333</v>
   <v>       0.08333333      0.41666667      0.33333333</v>
   <v>       0.16666667      0.41666667      0.33333333</v>
   <v>       0.25000000      0.41666667      0.33333333</v>
   <v>       0.33333333      0.41666667      0.33333333</v>
   <v>       0.41666667      0.41666667      0.33333333</v>
   <v>       0.50000000      0.41666667      0.33333333</v>
   <v>       0.00000000      0.50000000      0.33333333</v>
   <v>       0.08333333      0.50000000      0.33333333</v>
   <v>       0.16666667      0.50000000      0.33333333</v>
   <v>       0.25000000      0.50000000      0.33333333</v>
   <v>       0.33333333      0.50000000      0.33333333</v>
   <v>       0.41666667      0.50000000      0.33333333</v>
   <v>       0.50000000      0.50000000      0.33333333</v>
   <v>       0.00000000      0.41666667      0.41666667</v>
   <v>       0.08333333      0.41666667      0.41666667</v>
   <v>       0.16666667      0.41666667      0.41666667</v>
   <v>       0.25000000      0.41666667      0.41666667</v>
   <v>       0.33333333      0.41666667      0.41666667</v>
   <v>       0.41666667      0.41666667      0.41666667</v>
   <v>       0.50000000      0.41666667      0.41666667</v>
   <v>       0.00000000      0.50000000      0.41666667</v>
   <v>       0.08333333      0.50000000      0.41666667</v>
   <v>       0.16666667      0.50000000      0.41666667</v>
   <v>       0.25000000      0.50000000      0.41666667</v>
   <v>       0.33333333      0.50000000      0.41666667</v>
   <v>       0.41666667      0.50000000      0.41666667</v>
   <v>       0.50000000      0.50000000      0.41666667</v>
   <v>       0.00000000      0.50000000      0.50000000</v>
   <v>       0.08333333      0.50000000      0.50000000</v>
   <v>       0.16666667      0.50000000      0.50000000</v>
   <v>       0.25000000      0.50000000      0.50000000</v>
   <v>       0.33333333      0.50000000      0.50000000</v>
   <v>       0.41666667      0.50000000      0.50000000</v>
   <v>       0.50000000      0.50000000      0.50000000</v>
  </varray>
  <varray name="weights" >
   <v>       0.00057870</v>
   <v>       0.00115741</v>
   <v>       0.00115741</v>
   <v>       0.00115741</v>
   <v>       0.00115741</v>
   <v>       0.00115741</v>
   <v>       0.00057870</v>
   <v>       0.00231481</v>
   <v>       0.00462963</v>
   <v>       0.00462963</v>
   <v>       0.00462963</v>
   <v>       0.00462963</v>
   <v>       0.00462963</v>
   <v>       0.00231481</v>
   <v>       0.00231481</v>
   <v>       0.00462963</v>
   <v>       0.00462963</v>
   <v>       0.00462963</v>
   <v>       0.00462963</v>
   <v>       0.00462963</v>
   <v>       0.00231481</v>
   <v>       0.00231481</v>
   <v>       0.00462963</v>
   <v>       0.00462963</v>
   <v>       0.00462963</v>
   <v>       0.00462963</v>
   <v>       0.00462963</v>
   <v>       0.00231481</v>
   <v>       0.00231481</v>
   <v>       0.00462963</v>
   <v>       0.00462963</v>
   <v>       0.00462963</v>
   <v>       0.00462963</v>
   <v>       0.00462963</v>
   <v>       0.00231481</v>
   <v>       0.00231481</v>
   <v>       0.00462963</v>
   <v>       0.00462963</v>
   <v>       0.00462963</v>
   <v>       0.00462963</v>
   <v>       0.00462963</v>
   <v>       0.00231481</v>
   <v>       0.00115741</v>
   <v>       0.00231481</v>
   <v>       0.00231481</v>
   <v>       0.00231481</v>
   <v>       0.00231481</v>
   <v>       0.00231481</v>
   <v>       0.00115741</v>
   <v>       0.00231481</v>
   <v>       0.00462963</v>
   <v>       0.00462963</v>
   <v>       0.00462963</v>
   <v>       0.00462963</v>
   <v>       0.00462963</v>
   <v>       0.00231481</v>
   <v>       0.00462963</v>
   <v>       0.00925926</v>
   <v>       0.00925926</v>
   <v>       0.00925926</v>
   <v>       0.00925926</v>
   <v>       0.00925926</v>
   <v>       0.00462963</v>
   <v>       0.00462963</v>
   <v>       0.00925926</v>
   <v>       0.00925926</v>
   <v>       0.00925926</v>
   <v>       0.00925926</v>
   <v>       0.00925926</v>
   <v>       0.00462963</v>
   <v>       0.00462963</v>
   <v>       0.00925926</v>
   <v>       0.00925926</v>
   <v>       0.00925926</v>
   <v>       0.00925926</v>
   <v>       0.00925926</v>
   <v>       0.00462963</v>
   <v>       0.00462963</v>
   <v>       0.00925926</v>
   <v>       0.00925926</v>
   <v>       0.00925926</v>
   <v>       0.00925926</v>
   <v>       0.00925926</v>
   <v>       0.00462963</v>
   <v>       0.00231481</v>
   <v>       0.00462963</v>
   <v>       0.00462963</v>
   <v>       0.00462963</v>
   <v>       0.00462963</v>
   <v>       0.00462963</v>
   <v>       0.00231481</v>
   <v>       0.00231481</v>
   <v>       0.00462963</v>
   <v>       0.00462963</v>
   <v>       0.00462963</v>
   <v>       0.00462963</v>
   <v>       0.00462963</v>
   <v>       0.00231481</v>
   <v>       0.00462963</v>
   <v>       0.00925926</v>
   <v>       0.00925926</v>
   <v>       0.00925926</v>
   <v>       0.00925926</v>
   <v>       0.00925926</v>
   <v>       0.00462963</v>
   <v>       0.00462963</v>
   <v>       0.00925926</v>
   <v>       0.00925926</v>
   <v>       0.00925926</v>
   <v>       0.00925926</v>
   <v>       0.00925926</v>
   <v>       0.00462963</v>
   <v>       0.00462963</v>
   <v>       0.00925926</v>
   <v>       0.00925926</v>
   <v>       0.00925926</v>
   <v>       0.00925926</v>
   <v>       0.00925926</v>
   <v>       0.00462963</v>
   <v>       0.00231481</v>
   <v>       0.00462963</v>
   <v>       0.00462963</v>
   <v>       0.00462963</v>
   <v>       0.00462963</v>
   <v>       0.00462963</v>
   <v>       0.00231481</v>
   <v>       0.00231481</v>
   <v>       0.00462963</v>
   <v>       0.00462963</v>
   <v>       0.00462963</v>
   <v>       0.00462963</v>
   <v>       0.00462963</v>
   <v>       0.00231481</v>
   <v>       0.00462963</v>
   <v>       0.00925926</v>
   <v>       0.00925926</v>
   <v>       0.00925926</v>
   <v>       0.00925926</v>
   <v>       0.00925926</v>
   <v>       0.00462963</v>
   <v>       0.00462963</v>
   <v>       0.00925926</v>
   <v>       0.00925926</v>
   <v>       0.00925926</v>
   <v>       0.00925926</v>
   <v>       0.00925926</v>
   <v>       0.00462963</v>
   <v>       0.00231481</v>
   <v>       0.00462963</v>
   <v>       0.00462963</v>
   <v>       0.00462963</v>
   <v>       0.00462963</v>
   <v>       0.00462963</v>
   <v>       0.00231481</v>
   <v>       0.00231481</v>
   <v>       0.00462963</v>
   <v>       0.00462963</v>
   <v>       0.00462963</v>
   <v>       0.00462963</v>
   <v>       0.00462963</v>
   <v>       0.00231481</v>
   <v>       0.00462963</v>
   <v>       0.00925926</v>
   <v>       0.00925926</v>
   <v>       0.00925926</v>
   <v>       0.00925926</v>
   <v>       0.00925926</v>
   <v>       0.00462963</v>
   <v>       0.00231481</v>
   <v>       0.00462963</v>
   <v>       0.00462963</v>
   <v>       0.00462963</v>
   <v>       0.00462963</v>
   <v>       0.00462963</v>
   <v>       0.00231481</v>
   <v>       0.00231481</v>
   <v>       0.00462963</v>
   <v>       0.00462963</v>
   <v>       0.00462963</v>
   <v>       0.00462963</v>
   <v>       0.00462963</v>
   <v>       0.00231481</v>
   <v>       0.00231481</v>
   <v>       0.00462963</v>
   <v>       0.00462963</v>
   <v>       0.00462963</v>
   <v>       0.00462963</v>
   <v>       0.00462963</v>
   <v>       0.00231481</v>
   <v>       0.00057870</v>
   <v>       0.00115741</v>
   <v>       0.00115741</v>
   <v>       0.00115741</v>
   <v>       0.00115741</v>
   <v>       0.00115741</v>
   <v>       0.00057870</v>
  </varray>
 </kpoints>
 <parameters>
  <separator name="general" >
   <i type="string" name="SYSTEM">unknown system</i>
   <i type="logical" name="LCOMPAT"> F  </i>
  </separator>
  <separator name="electronic" >
   <i type="string" name="PREC">accura</i>
   <i name="ENMAX">    500.00000000</i>
   <i name="ENAUG">    291.05200000</i>
   <i name="EDIFF">      0.00000001</i>
   <i type="int" name="IALGO">    38</i>
   <i type="int" name="IWAVPR">    10</i>
   <i type="int" name="NBANDS">    65</i>
   <i name="NELECT">     96.00000000</i>
   <separator name="electronic smearing" >
    <i type="int" name="ISMEAR">     0</i>
    <i name="SIGMA">      0.01000000</i>
   </separator>
   <separator name="electronic projectors" >
    <i type="logical" name="LREAL"> F  </i>
    <v name="ROPT">      0.00000000</v>
    <i type="int" name="LMAXPAW">  -100</i>
    <i type="int" name="LMAXMIX">     2</i>
   </separator>
   <separator name="electronic startup" >
    <i type="int" name="ISTART">     0</i>
    <i type="int" name="ICHARG">     2</i>
    <i type="int" name="INIWAV">     1</i>
   </separator>
   <separator name="electronic spin" >
    <i type="int" name="ISPIN">     1</i>
    <i type="logical" name="LNONCOLLINEAR"> F  </i>
    <v name="MAGMOM">      1.00000000      1.00000000      1.00000000      1.00000000      1.00000000      1.00000000      1.00000000      1.00000000      1.00000000      1.00000000      1.00000000      1.00000000      1.00000000      1.00000000      1.00000000      1.00000000      1.00000000      1.00000000      1.00000000      1.00000000
      1.00000000      1.00000000      1.00000000      1.00000000      1.00000000      1.00000000      1.00000000      1.00000000      1.00000000      1.00000000      1.00000000      1.00000000</v>
    <i name="NUPDOWN">     -1.00000000</i>
    <i type="logical" name="LSORBIT"> F  </i>
    <v name="SAXIS">      0.00000000      0.00000000      1.00000000</v>
    <i type="logical" name="LSPIRAL"> F  </i>
    <v name="QSPIRAL">      0.00000000      0.00000000      0.00000000</v>
    <i type="logical" name="LZEROZ"> F  </i>
   </separator>
   <separator name="electronic exchange-correlation" >
    <i type="string" name="GGA">--</i>
    <i type="int" name="VOSKOWN">     0</i>
    <i type="logical" name="LASPH"> F  </i>
    <i type="logical" name="LMETAGGA"> F  </i>
    <i type="string" name="GGA2">--</i>
   </separator>
   <separator name="electronic convergence" >
    <i type="int" name="NELM">    60</i>
    <i type="int" name="NELMDL">     0</i>
    <i type="int" name="NELMIN">     2</i>
    <i name="ENINI">    500.00000000</i>
    <separator name="electronic convergence detail" >
     <i type="logical" name="LDIAG"> T  </i>
     <i name="WEIMIN">      0.00000000</i>
     <i name="EBREAK">      0.00000000</i>
     <i name="DEPER">      0.30000000</i>
     <i type="int" name="NRMM">     4</i>
     <i name="TIME">      0.10000000</i>
    </separator>
   </separator>
   <separator name="electronic mixer" >
    <i name="AMIX">      0.40000000</i>
    <i name="BMIX">      1.00000000</i>
    <i name="AMIN">      0.10000000</i>
    <i name="AMIX_MAG">      1.60000000</i>
    <i name="BMIX_MAG">      1.00000000</i>
    <separator name="electronic mixer details" >
     <i type="int" name="IMIX">     4</i>
     <i type="int" name="MAXMIX">   -45</i>
     <i name="WC">    100.00000000</i>
     <i type="int" name="INIMIX">     1</i>
     <i type="int" name="MIXPRE">     1</i>
     <i type="int" name="MREMOVE">     5</i>
    </separator>
   </separator>
   <separator name="electronic dipolcorrection" >
    <i type="int" name="IDIPOL">     0</i>
    <i type="logical" name="LDIPOL"> F  </i>
    <v name="DIPOL">   -100.00000000</v>
    <i name="EFIELD">      0.00000000</i>
   </separator>
  </separator>
  <separator name="grids" >
   <i type="int" name="NGX">    60</i>
   <i type="int" name="NGY">    60</i>
   <i type="int" name="NGZ">    60</i>
   <i type="int" name="NGXF">   120</i>
   <i type="int" name="NGYF">   120</i>
   <i type="int" name="NGZF">   120</i>
   <i type="logical" name="ADDGRID"> F  </i>
  </separator>
  <separator name="ionic" >
   <i type="int" name="NSW">     0</i>
   <i type="int" name="IBRION">    -1</i>
   <i type="int" name="ISIF">     2</i>
   <i name="PSTRESS">      0.00000000</i>
   <i name="EDIFFG">      0.00000010</i>
   <i type="int" name="NFREE">     0</i>
   <i name="POTIM">      0.50000000</i>
   <i name="SMASS">     -3.00000000</i>
  </separator>
  <separator name="ionic md" >
   <i name="TEBEG">      0.00010000</i>
   <i name="TEEND">      0.00010000</i>
   <i type="int" name="NBLOCK">     1</i>
   <i type="int" name="KBLOCK">     1</i>
   <i type="int" name="NPACO">   256</i>
   <i name="APACO">     16.00000000</i>
  </separator>
  <separator name="symmetry" >
   <i type="int" name="ISYM">     2</i>
   <i name="SYMPREC">      0.00001000</i>
  </separator>
  <separator name="dos" >
   <i type="logical" name="LORBIT"> F  </i>
   <v name="RWIGS">     -1.00000000</v>
   <i type="int" name="NEDOS">   301</i>
   <i name="EMIN">     10.00000000</i>
   <i name="EMAX">    -10.00000000</i>
  </separator>
  <separator name="writing" >
   <i type="int" name="NWRITE">     2</i>
   <i type="logical" name="LWAVE"> F  </i>
   <i type="logical" name="LCHARG"> F  </i>
   <i type="logical" name="LPARD"> F  </i>
   <i type="logical" name="LVTOT"> F  </i>
   <i type="logical" name="LELF"> F  </i>
   <i type="logical" name="LOPTICS"> F  </i>
   <i name="STM">      0.00000000</i>
  </separator>
  <separator name="performance" >
   <i type="int" name="NPAR">     4</i>
   <i type="int" name="NSIM">     4</i>
   <i type="int" name="NBLK">   256</i>
   <i type="logical" name="LPLANE"> T  </i>
   <i type="logical" name="LCRITICAL_MEM"> F  </i>
   <i type="logical" name="LSCALAPACK"> F  </i>
   <i type="logical" name="LSCALU"> F  </i>
   <i type="logical" name="LASYNC"> F  </i>
  </separator>
  <separator name="miscellaneous" >
   <i type="int" name="IDIOT">     3</i>
   <i type="logical" name="LMUSIC"> F  </i>
   <v name="POMASS">     26.98200000</v>
   <i type="logical" name="LCORR"> T  </i>
  </separator>
  <i type="logical" name="LREAL_COMPAT"> F  </i>
  <i type="logical" name="GGA_COMPAT"> T  </i>
  <i type="logical" name="LBERRY"> F  </i>
  <i type="int" name="ICORELEVEL">     0</i>
  <i type="logical" name="LDAU"> F  </i>
  <i type="int" name="I_CONSTRAINED_M">     0</i>
 </parameters>
 <atominfo>
  <atoms>      32</atoms>
  <types>       1</types>
  <array name="atoms" >
   <dimension dim="1">ion</dimension>
   <field type="string">element</field>
   <field type="int">atomtype</field>
   <set>
    <rc><c>Al</c><c>   1</c></rc>
    <rc><c>Al</c><c>   1</c></rc>
    <rc><c>Al</c><c>   1</c></rc>
    <rc><c>Al</c><c>   1</c></rc>
    <rc><c>Al</c><c>   1</c></rc>
    <rc><c>Al</c><c>   1</c></rc>
    <rc><c>Al</c><c>   1</c></rc>
    <rc><c>Al</c><c>   1</c></rc>
    <rc><c>Al</c><c>   1</c></rc>
    <rc><c>Al</c><c>   1</c></rc>
    <rc><c>Al</c><c>   1</c></rc>
    <rc><c>Al</c><c>   1</c></rc>
    <rc><c>Al</c><c>   1</c></rc>
    <rc><c>Al</c><c>   1</c></rc>
    <rc><c>Al</c><c>   1</c></rc>
    <rc><c>Al</c><c>   1</c></rc>
    <rc><c>Al</c><c>   1</c></rc>
    <rc><c>Al</c><c>   1</c></rc>
    <rc><c>Al</c><c>   1</c></rc>
    <rc><c>Al</c><c>   1</c></rc>
    <rc><c>Al</c><c>   1</c></rc>
    <rc><c>Al</c><c>   1</c></rc>
    <rc><c>Al</c><c>   1</c></rc>
    <rc><c>Al</c><c>   1</c></rc>
    <rc><c>Al</c><c>   1</c></rc>
    <rc><c>Al</c><c>   1</c></rc>
    <rc><c>Al</c><c>   1</c></rc>
    <rc><c>Al</c><c>   1</c></rc>
    <rc><c>Al</c><c>   1</c></rc>
    <rc><c>Al</c><c>   1</c></rc>
    <rc><c>Al</c><c>   1</c></rc>
    <rc><c>Al</c><c>   1</c></rc>
   </set>
  </array>
  <array name="atomtypes" >
   <dimension dim="1">type</dimension>
   <field type="int">atomspertype</field>
   <field type="string">element</field>
   <field>mass</field>
   <field>valence</field>
   <field type="string">pseudopotential</field>
   <set>
    <rc><c>  32</c><c>Al</c><c>     26.98200000</c><c>      3.00000000</c><c> PAW_PBE Al 04Jan2001                   </c></rc>
   </set>
  </array>
 </atominfo>
 <structure name="initialpos" >
  <crystal>
   <varray name="basis" >
    <v>       7.91312048      0.00000000      0.00000000</v>
    <v>       0.00000000      7.91312048      0.00000000</v>
    <v>       0.00000000      0.00000000      7.91312048</v>
   </varray>
   <i name="volume">    495.49963047</i>
   <varray name="rec_basis" >
    <v>       0.12637240      0.00000000      0.00000000</v>
    <v>       0.00000000      0.12637240      0.00000000</v>
    <v>       0.00000000      0.00000000      0.12637240</v>
   </varray>
  </crystal>
  <varray name="positions" >
   <v>       0.25126372      0.25000000      0.00000000</v>
   <v>       0.75000000      0.25000000      0.00000000</v>
   <v>       0.25000000      0.75000000      0.00000000</v>
   <v>       0.75000000      0.75000000      0.00000000</v>
   <v>       0.25000000      0.25000000      0.50000000</v>
   <v>       0.75000000      0.25000000      0.50000000</v>
   <v>       0.25000000      0.75000000      0.50000000</v>
   <v>       0.75000000      0.75000000      0.50000000</v>
   <v>       0.25000000      0.00000000      0.25000000</v>
   <v>       0.75000000      0.00000000      0.25000000</v>
   <v>       0.25000000      0.50000000      0.25000000</v>
   <v>       0.75000000      0.50000000      0.25000000</v>
   <v>       0.25000000      0.00000000      0.75000000</v>
   <v>       0.75000000      0.00000000      0.75000000</v>
   <v>       0.25000000      0.50000000      0.75000000</v>
   <v>       0.75000000      0.50000000      0.75000000</v>
   <v>       0.00000000      0.25000000      0.25000000</v>
   <v>       0.50000000      0.25000000      0.25000000</v>
   <v>       0.00000000      0.75000000      0.25000000</v>
   <v>       0.50000000      0.75000000      0.25000000</v>
   <v>       0.00000000      0.25000000      0.75000000</v>
   <v>       0.50000000      0.25000000      0.75000000</v>
   <v>       0.00000000      0.75000000      0.75000000</v>
   <v>       0.50000000      0.75000000      0.75000000</v>
   <v>       0.00000000      0.00000000      0.00000000</v>
   <v>       0.50000000      0.00000000      0.00000000</v>
   <v>       0.00000000      0.50000000      0.00000000</v>
   <v>       0.50000000      0.50000000      0.00000000</v>
   <v>       0.00000000      0.00000000      0.50000000</v>
   <v>       0.50000000      0.00000000      0.50000000</v>
   <v>       0.00000000      0.50000000      0.50000000</v>
   <v>       0.50000000      0.50000000      0.50000000</v>
  </varray>
 </structure>
 <calculation>
  <scstep>
   <time name="dav">  129.26  129.24</time>
   <time name="total">  129.52  129.50</time>
   <energy>
    <i name="alphaZ">     -6.94132402</i>
    <i name="ewald">  -2402.85078487</i>
    <i name="hartreedc">     -2.61509261</i>
    <i name="XCdc">   -835.96870915</i>
    <i name="pawpsdc">   1137.73615723</i>
    <i name="pawaedc">   -115.16745734</i>
    <i name="eentropy">     -0.00028612</i>
    <i name="bandstr">    648.10379192</i>
    <i name="atom">   1713.22913220</i>
    <i name="e_fr_energy">    135.52542724</i>
    <i name="e_wo_entrp">    135.52571335</i>
    <i name="e_0_energy">    135.52557029</i>
   </energy>
  </scstep>
  <scstep>
   <time name="dav">  145.69  145.74</time>
   <time name="total">  145.71  145.76</time>
   <energy>
    <i name="e_fr_energy">   -105.73316220</i>
    <i name="e_wo_entrp">   -105.73255418</i>
    <i name="e_0_energy">   -105.73285819</i>
   </energy>
  </scstep>
  <scstep>
   <time name="dav">  151.51  151.55</time>
   <time name="total">  151.53  151.58</time>
   <energy>
    <i name="e_fr_energy">   -119.78560336</i>
    <i name="e_wo_entrp">   -119.78484306</i>
    <i name="e_0_energy">   -119.78522321</i>
   </energy>
  </scstep>
  <scstep>
   <time name="dav">  145.16  145.20</time>
   <time name="total">  145.19  145.23</time>
   <energy>
    <i name="e_fr_energy">   -120.08181684</i>
    <i name="e_wo_entrp">   -120.08103897</i>
    <i name="e_0_energy">   -120.08142790</i>
   </energy>
  </scstep>
  <scstep>
   <time name="dav">  146.32  146.37</time>
   <time name="total">  151.79  151.84</time>
   <energy>
    <i name="e_fr_energy">   -120.08583623</i>
    <i name="e_wo_entrp">   -120.08505789</i>
    <i name="e_0_energy">   -120.08544706</i>
   </energy>
  </scstep>
  <scstep>
   <time name="dav">  142.80  142.84</time>
   <time name="total">  148.51  148.55</time>
   <energy>
    <i name="e_fr_energy">   -119.64373643</i>
    <i name="e_wo_entrp">   -119.64279278</i>
    <i name="e_0_energy">   -119.64326461</i>
   </energy>
  </scstep>
  <scstep>
   <time name="dav">  137.01  137.05</time>
   <time name="total">  142.73  142.77</time>
   <energy>
    <i name="e_fr_energy">   -119.32204277</i>
    <i name="e_wo_entrp">   -119.32124164</i>
    <i name="e_0_energy">   -119.32164220</i>
   </energy>
  </scstep>
  <scstep>
   <time name="dav">  146.14  146.20</time>
   <time name="total">  151.89  151.96</time>
   <energy>
    <i name="e_fr_energy">   -119.32223724</i>
    <i name="e_wo_entrp">   -119.32143827</i>
    <i name="e_0_energy">   -119.32183775</i>
   </energy>
  </scstep>
  <scstep>
   <time name="dav">  143.83  143.80</time>
   <time name="total">  149.57  149.54</time>
   <energy>
    <i name="e_fr_energy">   -119.32227230</i>
    <i name="e_wo_entrp">   -119.32147632</i>
    <i name="e_0_energy">   -119.32187431</i>
   </energy>
  </scstep>
  <scstep>
   <time name="dav">  146.11  146.09</time>
   <time name="total">  151.86  151.83</time>
   <energy>
    <i name="e_fr_energy">   -119.32227417</i>
    <i name="e_wo_entrp">   -119.32147848</i>
    <i name="e_0_energy">   -119.32187632</i>
   </energy>
  </scstep>
  <scstep>
   <time name="dav">  143.88  143.91</time>
   <time name="total">  149.62  149.65</time>
   <energy>
    <i name="e_fr_energy">   -119.32227174</i>
    <i name="e_wo_entrp">   -119.32147601</i>
    <i name="e_0_energy">   -119.32187387</i>
   </energy>
  </scstep>
  <scstep>
   <time name="dav">  111.53  111.56</time>
   <time name="total">  117.27  117.30</time>
   <energy>
    <i name="e_fr_energy">   -119.32227084</i>
    <i name="e_wo_entrp">   -119.32147514</i>
    <i name="e_0_energy">   -119.32187299</i>
   </energy>
  </scstep>
  <scstep>
   <time name="dav">   97.38   97.41</time>
   <time name="total">  103.16  103.18</time>
   <energy>
    <i name="e_fr_energy">   -119.32227069</i>
    <i name="e_wo_entrp">   -119.32147497</i>
    <i name="e_0_energy">   -119.32187283</i>
   </energy>
  </scstep>
  <scstep>
   <time name="dav">   96.90   96.89</time>
   <time name="total">   97.16   97.14</time>
   <energy>
    <i name="alphaZ">     -6.94132402</i>
    <i name="ewald">  -2402.85078487</i>
    <i name="hartreedc">     -3.73870566</i>
    <i name="XCdc">   -832.01008063</i>
    <i name="pawpsdc">   1148.21972540</i>
    <i name="pawaedc">   -126.41546375</i>
    <i name="eentropy">     -0.00079571</i>
    <i name="bandstr">    391.18602636</i>
    <i name="atom">   1713.22913220</i>
    <i name="e_fr_energy">   -119.32227068</i>
    <i name="e_wo_entrp">   -119.32147497</i>
    <i name="e_0_energy">   -119.32187282</i>
   </energy>
  </scstep>
  <structure>
   <crystal>
    <varray name="basis" >
     <v>       7.91312048      0.00000000      0.00000000</v>
     <v>       0.00000000      7.91312048      0.00000000</v>
     <v>       0.00000000      0.00000000      7.91312048</v>
    </varray>
    <i name="volume">    495.49963047</i>
    <varray name="rec_basis" >
     <v>       0.12637240      0.00000000      0.00000000</v>
     <v>       0.00000000      0.12637240      0.00000000</v>
     <v>       0.00000000      0.00000000      0.12637240</v>
    </varray>
   </crystal>
   <varray name="positions" >
    <v>       0.25126372      0.25000000      0.00000000</v>
    <v>       0.75000000      0.25000000      0.00000000</v>
    <v>       0.25000000      0.75000000      0.00000000</v>
    <v>       0.75000000      0.75000000      0.00000000</v>
    <v>       0.25000000      0.25000000      0.50000000</v>
    <v>       0.75000000      0.25000000      0.50000000</v>
    <v>       0.25000000      0.75000000      0.50000000</v>
    <v>       0.75000000      0.75000000      0.50000000</v>
    <v>       0.25000000      0.00000000      0.25000000</v>
    <v>       0.75000000      0.00000000      0.25000000</v>
    <v>       0.25000000      0.50000000      0.25000000</v>
    <v>       0.75000000      0.50000000      0.25000000</v>
    <v>       0.25000000      0.00000000      0.75000000</v>
    <v>       0.75000000      0.00000000      0.75000000</v>
    <v>       0.25000000      0.50000000      0.75000000</v>
    <v>       0.75000000      0.50000000      0.75000000</v>
    <v>       0.00000000      0.25000000      0.25000000</v>
    <v>       0.50000000      0.25000000      0.25000000</v>
    <v>       0.00000000      0.75000000      0.25000000</v>
    <v>       0.50000000      0.75000000      0.25000000</v>
    <v>       0.00000000      0.25000000      0.75000000</v>
    <v>       0.50000000      0.25000000      0.75000000</v>
    <v>       0.00000000      0.75000000      0.75000000</v>
    <v>       0.50000000      0.75000000      0.75000000</v>
    <v>       0.00000000      0.00000000      0.00000000</v>
    <v>       0.50000000      0.00000000      0.00000000</v>
    <v>       0.00000000      0.50000000      0.00000000</v>
    <v>       0.50000000      0.50000000      0.00000000</v>
    <v>       0.00000000      0.00000000      0.50000000</v>
    <v>       0.50000000      0.00000000      0.50000000</v>
    <v>       0.00000000      0.50000000      0.50000000</v>
    <v>       0.50000000      0.50000000      0.50000000</v>
   </varray>
  </structure>
  <varray name="forces" >
   <v>      -0.05927887     -0.00000000      0.00000000</v>
   <v>       0.00257623      0.00000000     -0.00000000</v>
   <v>      -0.00003149      0.00000000      0.00000000</v>
   <v>       0.00091484      0.00000000     -0.00000000</v>
   <v>      -0.00003149      0.00000000      0.00000000</v>
   <v>       0.00091484      0.00000000     -0.00000000</v>
   <v>       0.00051583      0.00000000     -0.00000000</v>
   <v>      -0.00008539      0.00000000     -0.00000000</v>
   <v>      -0.00139012      0.00002898     -0.00002898</v>
   <v>      -0.00032331     -0.00000509      0.00000509</v>
   <v>      -0.00139012     -0.00002898     -0.00002898</v>
   <v>      -0.00032331      0.00000509      0.00000509</v>
   <v>      -0.00139012      0.00002898      0.00002898</v>
   <v>      -0.00032331     -0.00000509     -0.00000509</v>
   <v>      -0.00139012     -0.00002898      0.00002898</v>
   <v>      -0.00032331      0.00000509     -0.00000509</v>
   <v>       0.00776923      0.00000000     -0.00823337</v>
   <v>       0.00794213      0.00000000      0.00849194</v>
   <v>      -0.00019125     -0.00000000      0.00018313</v>
   <v>      -0.00018031     -0.00000000     -0.00017702</v>
   <v>       0.00776923      0.00000000      0.00823337</v>
   <v>       0.00794213      0.00000000     -0.00849194</v>
   <v>      -0.00019125     -0.00000000     -0.00018313</v>
   <v>      -0.00018031     -0.00000000      0.00017702</v>
   <v>       0.00776923      0.00823337      0.00000000</v>
   <v>       0.00794213     -0.00849194      0.00000000</v>
   <v>       0.00776923     -0.00823337     -0.00000000</v>
   <v>       0.00794213      0.00849194     -0.00000000</v>
   <v>      -0.00019125     -0.00018313     -0.00000000</v>
   <v>      -0.00018031      0.00017702      0.00000000</v>
   <v>      -0.00019125      0.00018313     -0.00000000</v>
   <v>      -0.00018031     -0.00017702      0.00000000</v>
  </varray>
  <varray name="stress" >
   <v>      55.85296940      0.00000000      0.00000000</v>
   <v>       0.00000000     55.85234883      0.00000000</v>
   <v>       0.00000000      0.00000000     55.85234883</v>
  </varray>
  <energy>
   <i name="e_fr_energy">   -119.32227068</i>
   <i name="e_wo_entrp">   -119.32187282</i>
   <i name="e_0_energy">     -0.00079571</i>
  </energy>
  <eigenvalues>
   <array>
    <dimension dim="1">band</dimension>
    <dimension dim="2">kpoint</dimension>
    <dimension dim="3">spin</dimension>
    <field>eigene</field>
    <field>occ</field>
    <set>
     <set comment="spin 1">
      <set comment="kpoint 1">
       <r>  -2.9016  1.0000</r>
       <r>  -0.5627  1.0000</r>
       <r>  -0.5589  1.0000</r>
       <r>  -0.5589  1.0000</r>
       <r>  -0.5589  1.0000</r>
       <r>  -0.5589  1.0000</r>
       <r>  -0.5551  1.0000</r>
       <r>   1.7363  1.0000</r>
       <r>   1.7408  1.0000</r>
       <r>   1.7408  1.0000</r>
       <r>   1.7426  1.0000</r>
       <r>   1.7427  1.0000</r>
       <r>   1.7427  1.0000</r>
       <r>   1.7427  1.0000</r>
       <r>   1.7427  1.0000</r>
       <r>   1.7428  1.0000</r>
       <r>   1.7446  1.0000</r>
       <r>   1.7446  1.0000</r>
       <r>   1.7491  1.0000</r>
       <r>   3.8298  1.0000</r>
       <r>   3.8298  1.0000</r>
       <r>   3.8298  1.0000</r>
       <r>   3.8298  1.0000</r>
       <r>   4.2119  1.0000</r>
       <r>   4.2119  1.0000</r>
       <r>   4.2119  1.0000</r>
       <r>   4.2119  1.0000</r>
       <r>   5.6018  1.0000</r>
       <r>   5.6018  1.0000</r>
       <r>   5.6019  1.0000</r>
       <r>   7.0601  1.0000</r>
       <r>   7.0601  1.0000</r>
       <r>   7.0601  1.0000</r>
       <r>   7.7481  1.0000</r>
       <r>   7.7481  1.0000</r>
       <r>   7.7526  1.0000</r>
       <r>   7.7526  1.0000</r>
       <r>   7.7527  1.0000</r>
       <r>   7.7528  1.0000</r>
       <r>   7.7528  1.0000</r>
       <r>   7.7528  1.0000</r>
       <r>   7.7529  1.0000</r>
       <r>   7.7529  1.0000</r>
       <r>   7.7574  1.0000</r>
       <r>   7.7574  1.0000</r>
       <r>   8.7294  0.0000</r>
       <r>   8.7337  0.0000</r>
       <r>   8.7337  0.0000</r>
       <r>   8.7337  0.0000</r>
       <r>   8.7337  0.0000</r>
       <r>   8.7381  0.0000</r>
       <r>   9.9092  0.0000</r>
       <r>   9.9092  0.0000</r>
       <r>   9.9107  0.0000</r>
       <r>   9.9133  0.0000</r>
       <r>   9.9134  0.0000</r>
       <r>   9.9134  0.0000</r>
       <r>   9.9134  0.0000</r>
       <r>   9.9134  0.0000</r>
       <r>   9.9135  0.0000</r>
       <r>   9.9161  0.0000</r>
       <r>   9.9176  0.0000</r>
       <r>   9.9176  0.0000</r>
       <r>  10.1491  0.0000</r>
       <r>  10.1500  0.0000</r>
       <r>  10.1500  0.0000</r>
       <r>  10.1500  0.0000</r>
       <r>  10.1509  0.0000</r>
      </set>
      <set comment="kpoint 2">
       <r>  -2.8852  1.0000</r>
       <r>  -0.9302  1.0000</r>
       <r>  -0.5428  1.0000</r>
       <r>  -0.5428  1.0000</r>
       <r>  -0.5428  1.0000</r>
       <r>  -0.5428  1.0000</r>
       <r>  -0.1565  1.0000</r>
       <r>   1.3779  1.0000</r>
       <r>   1.3779  1.0000</r>
       <r>   1.3779  1.0000</r>
       <r>   1.3779  1.0000</r>
       <r>   1.7585  1.0000</r>
       <r>   1.7585  1.0000</r>
       <r>   1.7585  1.0000</r>
       <r>   1.7585  1.0000</r>
       <r>   2.1379  1.0000</r>
       <r>   2.1379  1.0000</r>
       <r>   2.1379  1.0000</r>
       <r>   2.1380  1.0000</r>
       <r>   3.6145  1.0000</r>
       <r>   3.6145  1.0000</r>
       <r>   3.6145  1.0000</r>
       <r>   3.6145  1.0000</r>
       <r>   4.4574  1.0000</r>
       <r>   4.4574  1.0000</r>
       <r>   4.4575  1.0000</r>
       <r>   4.4575  1.0000</r>
       <r>   5.3010  1.0000</r>
       <r>   5.6167  1.0000</r>
       <r>   5.6167  1.0000</r>
       <r>   7.0757  1.0000</r>
       <r>   7.0757  1.0000</r>
       <r>   7.3889  1.0000</r>
       <r>   7.4085  1.0000</r>
       <r>   7.4085  1.0000</r>
       <r>   7.4548  1.0000</r>
       <r>   7.4548  1.0000</r>
       <r>   7.4548  1.0000</r>
       <r>   7.4549  1.0000</r>
       <r>   7.7677  1.0000</r>
       <r>   7.7677  1.0000</r>
       <r>   7.7677  1.0000</r>
       <r>   7.7677  1.0000</r>
       <r>   8.1271  1.0000</r>
       <r>   8.1271  1.0000</r>
       <r>   8.6544  1.0000</r>
       <r>   8.6544  1.0000</r>
       <r>   8.9412  0.0000</r>
       <r>   8.9412  0.0000</r>
       <r>   8.9412  0.0000</r>
       <r>   8.9412  0.0000</r>
       <r>   9.5678  0.0000</r>
       <r>   9.5678  0.0000</r>
       <r>   9.5679  0.0000</r>
       <r>   9.5679  0.0000</r>
       <r>   9.6581  0.0000</r>
       <r>   9.6581  0.0000</r>
       <r>   9.6581  0.0000</r>
       <r>   9.6581  0.0000</r>
       <r>  10.2570  0.0000</r>
       <r>  10.2579  0.0000</r>
       <r>  10.2833  0.0000</r>
       <r>  10.2835  0.0000</r>
       <r>  10.2838  0.0000</r>
       <r>  10.2864  0.0000</r>
       <r>  10.2891  0.0000</r>
       <r>  10.2892  0.0000</r>
       <r>  10.2896  0.0000</r>
      </set>
      <set comment="kpoint 3">
       <r>  -2.8359  1.0000</r>
       <r>  -1.2702  1.0000</r>
       <r>  -0.4944  1.0000</r>
       <r>  -0.4944  1.0000</r>
       <r>  -0.4944  1.0000</r>
       <r>  -0.4944  1.0000</r>
       <r>   0.2764  1.0000</r>
       <r>   1.0439  1.0000</r>
       <r>   1.0439  1.0000</r>
       <r>   1.0439  1.0000</r>
       <r>   1.0439  1.0000</r>
       <r>   1.8060  1.0000</r>
       <r>   1.8060  1.0000</r>
       <r>   1.8060  1.0000</r>
       <r>   1.8060  1.0000</r>
       <r>   2.5631  1.0000</r>
       <r>   2.5631  1.0000</r>
       <r>   2.5631  1.0000</r>
       <r>   2.5631  1.0000</r>
       <r>   3.3063  1.0000</r>
       <r>   3.3063  1.0000</r>
       <r>   3.3063  1.0000</r>
       <r>   3.3063  1.0000</r>
       <r>   4.7247  1.0000</r>
       <r>   4.8563  1.0000</r>
       <r>   4.8563  1.0000</r>
       <r>   4.8563  1.0000</r>
       <r>   4.8563  1.0000</r>
       <r>   5.6614  1.0000</r>
       <r>   5.6614  1.0000</r>
       <r>   6.8997  1.0000</r>
       <r>   6.8997  1.0000</r>
       <r>   6.8997  1.0000</r>
       <r>   6.8997  1.0000</r>
       <r>   7.0945  1.0000</r>
       <r>   7.0945  1.0000</r>
       <r>   7.1222  1.0000</r>
       <r>   7.1222  1.0000</r>
       <r>   7.8127  1.0000</r>
       <r>   7.8127  1.0000</r>
       <r>   7.8127  1.0000</r>
       <r>   7.8127  1.0000</r>
       <r>   8.0494  1.0000</r>
       <r>   8.4665  1.0000</r>
       <r>   8.4665  1.0000</r>
       <r>   8.5316  1.0000</r>
       <r>   8.5316  1.0000</r>
       <r>   9.1316  0.0000</r>
       <r>   9.1317  0.0000</r>
       <r>   9.1317  0.0000</r>
       <r>   9.1317  0.0000</r>
       <r>   9.2204  0.0000</r>
       <r>   9.2204  0.0000</r>
       <r>   9.2205  0.0000</r>
       <r>   9.2206  0.0000</r>
       <r>   9.2525  0.0000</r>
       <r>   9.2525  0.0000</r>
       <r>   9.2527  0.0000</r>
       <r>   9.2527  0.0000</r>
       <r>  10.5283  0.0000</r>
       <r>  10.5283  0.0000</r>
       <r>  10.6891  0.0000</r>
       <r>  10.6892  0.0000</r>
       <r>  10.6896  0.0000</r>
       <r>  10.6915  0.0000</r>
       <r>  10.6950  0.0000</r>
       <r>  10.6952  0.0000</r>
       <r>  10.6955  0.0000</r>
      </set>
      <set comment="kpoint 4">
       <r>  -2.7539  1.0000</r>
       <r>  -1.5786  1.0000</r>
       <r>  -0.4139  1.0000</r>
       <r>  -0.4139  1.0000</r>
       <r>  -0.4139  1.0000</r>
       <r>  -0.4139  1.0000</r>
       <r>   0.7376  1.0000</r>
       <r>   0.7409  1.0000</r>
       <r>   0.7409  1.0000</r>
       <r>   0.7409  1.0000</r>
       <r>   0.7429  1.0000</r>
       <r>   1.8852  1.0000</r>
       <r>   1.8852  1.0000</r>
       <r>   1.8852  1.0000</r>
       <r>   1.8852  1.0000</r>
       <r>   3.0127  1.0000</r>
       <r>   3.0142  1.0000</r>
       <r>   3.0142  1.0000</r>
       <r>   3.0148  1.0000</r>
       <r>   3.0178  1.0000</r>
       <r>   3.0184  1.0000</r>
       <r>   3.0184  1.0000</r>
       <r>   3.0199  1.0000</r>
       <r>   4.1014  1.0000</r>
       <r>   5.2986  1.0000</r>
       <r>   5.2986  1.0000</r>
       <r>   5.2986  1.0000</r>
       <r>   5.2986  1.0000</r>
       <r>   5.7360  1.0000</r>
       <r>   5.7360  1.0000</r>
       <r>   6.2990  1.0000</r>
       <r>   6.2990  1.0000</r>
       <r>   6.2990  1.0000</r>
       <r>   6.2990  1.0000</r>
       <r>   6.8105  1.0000</r>
       <r>   6.8105  1.0000</r>
       <r>   7.1995  1.0000</r>
       <r>   7.1995  1.0000</r>
       <r>   7.8876  1.0000</r>
       <r>   7.8876  1.0000</r>
       <r>   7.8876  1.0000</r>
       <r>   7.8876  1.0000</r>
       <r>   8.2404  1.0000</r>
       <r>   8.2404  1.0000</r>
       <r>   8.5419  1.0000</r>
       <r>   8.5419  1.0000</r>
       <r>   8.5419  1.0000</r>
       <r>   8.5419  1.0000</r>
       <r>   8.8129  0.0000</r>
       <r>   8.9644  0.0000</r>
       <r>   8.9644  0.0000</r>
       <r>   8.9673  0.0000</r>
       <r>   8.9673  0.0000</r>
       <r>   8.9693  0.0000</r>
       <r>   8.9693  0.0000</r>
       <r>   9.4212  0.0000</r>
       <r>   9.4212  0.0000</r>
       <r>   9.4212  0.0000</r>
       <r>   9.4212  0.0000</r>
       <r>  10.6649  0.0000</r>
       <r>  10.6650  0.0000</r>
       <r>  10.6650  0.0000</r>
       <r>  10.6650  0.0000</r>
       <r>  10.8924  0.0000</r>
       <r>  10.8924  0.0000</r>
       <r>  11.1311  0.0000</r>
       <r>  11.1311  0.0000</r>
       <r>  11.1312  0.0000</r>
      </set>
      <set comment="kpoint 5">
       <r>  -2.6392  1.0000</r>
       <r>  -1.8552  1.0000</r>
       <r>  -0.3012  1.0000</r>
       <r>  -0.3011  1.0000</r>
       <r>  -0.3011  1.0000</r>
       <r>  -0.3011  1.0000</r>
       <r>   0.4691  1.0000</r>
       <r>   0.4691  1.0000</r>
       <r>   0.4691  1.0000</r>
       <r>   0.4691  1.0000</r>
       <r>   1.2327  1.0000</r>
       <r>   1.9958  1.0000</r>
       <r>   1.9958  1.0000</r>
       <r>   1.9958  1.0000</r>
       <r>   1.9959  1.0000</r>
       <r>   2.7504  1.0000</r>
       <r>   2.7504  1.0000</r>
       <r>   2.7504  1.0000</r>
       <r>   2.7504  1.0000</r>
       <r>   3.4821  1.0000</r>
       <r>   3.5014  1.0000</r>
       <r>   3.5014  1.0000</r>
       <r>   3.5014  1.0000</r>
       <r>   3.5014  1.0000</r>
       <r>   5.6990  1.0000</r>
       <r>   5.6990  1.0000</r>
       <r>   5.6990  1.0000</r>
       <r>   5.6990  1.0000</r>
       <r>   5.7736  1.0000</r>
       <r>   5.7736  1.0000</r>
       <r>   5.7736  1.0000</r>
       <r>   5.7736  1.0000</r>
       <r>   5.8404  1.0000</r>
       <r>   5.8404  1.0000</r>
       <r>   6.5566  1.0000</r>
       <r>   6.5566  1.0000</r>
       <r>   7.3070  1.0000</r>
       <r>   7.3070  1.0000</r>
       <r>   7.9478  1.0000</r>
       <r>   7.9478  1.0000</r>
       <r>   7.9479  1.0000</r>
       <r>   7.9479  1.0000</r>
       <r>   7.9925  1.0000</r>
       <r>   7.9925  1.0000</r>
       <r>   7.9926  1.0000</r>
       <r>   7.9926  1.0000</r>
       <r>   8.0129  1.0000</r>
       <r>   8.0129  1.0000</r>
       <r>   8.7122  0.0240</r>
       <r>   8.7122  0.0240</r>
       <r>   8.7122  0.0240</r>
       <r>   8.7122  0.0239</r>
       <r>   9.4314  0.0000</r>
       <r>   9.4314  0.0000</r>
       <r>   9.5891  0.0000</r>
       <r>   9.5891  0.0000</r>
       <r>   9.5891  0.0000</r>
       <r>   9.5891  0.0000</r>
       <r>   9.6281  0.0000</r>
       <r>  10.3989  0.0000</r>
       <r>  10.3989  0.0000</r>
       <r>  10.3989  0.0000</r>
       <r>  10.3989  0.0000</r>
       <r>  11.3112  0.0000</r>
       <r>  11.3112  0.0000</r>
       <r>  11.5945  0.0000</r>
       <r>  11.5963  0.0000</r>
       <r>  11.5975  0.0000</r>
      </set>
      <set comment="kpoint 6">
       <r>  -2.4918  1.0000</r>
       <r>  -2.0997  1.0000</r>
       <r>  -0.1564  1.0000</r>
       <r>  -0.1564  1.0000</r>
       <r>  -0.1564  1.0000</r>
       <r>  -0.1564  1.0000</r>
       <r>   0.2289  1.0000</r>
       <r>   0.2289  1.0000</r>
       <r>   0.2289  1.0000</r>
       <r>   0.2289  1.0000</r>
       <r>   1.7546  1.0000</r>
       <r>   2.1379  1.0000</r>
       <r>   2.1379  1.0000</r>
       <r>   2.1379  1.0000</r>
       <r>   2.1380  1.0000</r>
       <r>   2.5156  1.0000</r>
       <r>   2.5156  1.0000</r>
       <r>   2.5156  1.0000</r>
       <r>   2.5156  1.0000</r>
       <r>   2.8815  1.0000</r>
       <r>   4.0129  1.0000</r>
       <r>   4.0129  1.0000</r>
       <r>   4.0129  1.0000</r>
       <r>   4.0129  1.0000</r>
       <r>   5.1143  1.0000</r>
       <r>   5.1143  1.0000</r>
       <r>   5.1143  1.0000</r>
       <r>   5.1143  1.0000</r>
       <r>   5.9745  1.0000</r>
       <r>   5.9745  1.0000</r>
       <r>   6.2782  1.0000</r>
       <r>   6.2782  1.0000</r>
       <r>   6.2783  1.0000</r>
       <r>   6.2783  1.0000</r>
       <r>   6.3327  1.0000</r>
       <r>   6.3327  1.0000</r>
       <r>   7.3683  1.0000</r>
       <r>   7.3684  1.0000</r>
       <r>   7.3684  1.0000</r>
       <r>   7.3684  1.0000</r>
       <r>   7.4439  1.0000</r>
       <r>   7.4440  1.0000</r>
       <r>   7.7999  1.0000</r>
       <r>   7.7999  1.0000</r>
       <r>   8.1274  1.0000</r>
       <r>   8.1274  1.0000</r>
       <r>   8.1274  1.0000</r>
       <r>   8.1274  1.0000</r>
       <r>   8.4872  1.0000</r>
       <r>   8.4872  1.0000</r>
       <r>   8.4872  1.0000</r>
       <r>   8.4872  1.0000</r>
       <r>   9.7597  0.0000</r>
       <r>   9.7597  0.0000</r>
       <r>   9.7597  0.0000</r>
       <r>   9.7597  0.0000</r>
       <r>   9.9265  0.0000</r>
       <r>   9.9265  0.0000</r>
       <r>  10.1603  0.0000</r>
       <r>  10.1603  0.0000</r>
       <r>  10.1603  0.0000</r>
       <r>  10.1603  0.0000</r>
       <r>  10.4808  0.0000</r>
       <r>  11.0069  0.0000</r>
       <r>  11.0069  0.0000</r>
       <r>  11.7664  0.0000</r>
       <r>  11.7665  0.0000</r>
       <r>  12.0939  0.0000</r>
      </set>
      <set comment="kpoint 7">
       <r>  -2.3134  1.0000</r>
       <r>  -2.3104  1.0000</r>
       <r>   0.0162  1.0000</r>
       <r>   0.0194  1.0000</r>
       <r>   0.0194  1.0000</r>
       <r>   0.0202  1.0000</r>
       <r>   0.0204  1.0000</r>
       <r>   0.0212  1.0000</r>
       <r>   0.0212  1.0000</r>
       <r>   0.0244  1.0000</r>
       <r>   2.3025  1.0000</r>
       <r>   2.3049  1.0000</r>
       <r>   2.3096  1.0000</r>
       <r>   2.3100  1.0000</r>
       <r>   2.3100  1.0000</r>
       <r>   2.3108  1.0000</r>
       <r>   2.3118  1.0000</r>
       <r>   2.3126  1.0000</r>
       <r>   2.3126  1.0000</r>
       <r>   2.3152  1.0000</r>
       <r>   4.5503  1.0000</r>
       <r>   4.5503  1.0000</r>
       <r>   4.5507  1.0000</r>
       <r>   4.5510  1.0000</r>
       <r>   4.5514  1.0000</r>
       <r>   4.5517  1.0000</r>
       <r>   4.5521  1.0000</r>
       <r>   4.5521  1.0000</r>
       <r>   6.1370  1.0000</r>
       <r>   6.1370  1.0000</r>
       <r>   6.1402  1.0000</r>
       <r>   6.1402  1.0000</r>
       <r>   6.8096  1.0000</r>
       <r>   6.8096  1.0000</r>
       <r>   6.8100  1.0000</r>
       <r>   6.8105  1.0000</r>
       <r>   6.8107  1.0000</r>
       <r>   6.8112  1.0000</r>
       <r>   6.8116  1.0000</r>
       <r>   6.8116  1.0000</r>
       <r>   7.6069  1.0000</r>
       <r>   7.6081  1.0000</r>
       <r>   7.6098  1.0000</r>
       <r>   7.6110  1.0000</r>
       <r>   8.2898  1.0000</r>
       <r>   8.2898  1.0000</r>
       <r>   8.2907  1.0000</r>
       <r>   8.2922  1.0000</r>
       <r>   8.2924  1.0000</r>
       <r>   8.2938  1.0000</r>
       <r>   8.2948  1.0000</r>
       <r>   8.2948  1.0000</r>
       <r>   9.9458  0.0000</r>
       <r>   9.9467  0.0000</r>
       <r>   9.9467  0.0000</r>
       <r>   9.9469  0.0000</r>
       <r>   9.9493  0.0000</r>
       <r>   9.9494  0.0000</r>
       <r>   9.9494  0.0000</r>
       <r>   9.9503  0.0000</r>
       <r>  10.4506  0.0000</r>
       <r>  10.4506  0.0000</r>
       <r>  10.4529  0.0000</r>
       <r>  10.4529  0.0000</r>
       <r>  11.3647  0.0000</r>
       <r>  11.3659  0.0000</r>
       <r>  12.2464  0.0000</r>
       <r>  12.2478  0.0000</r>
      </set>
      <set comment="kpoint 8">
       <r>  -2.8852  1.0000</r>
       <r>  -0.9302  1.0000</r>
       <r>  -0.5457  1.0000</r>
       <r>  -0.5428  1.0000</r>
       <r>  -0.5428  1.0000</r>
       <r>  -0.5398  1.0000</r>
       <r>  -0.1566  1.0000</r>
       <r>   1.3749  1.0000</r>
       <r>   1.3779  1.0000</r>
       <r>   1.3779  1.0000</r>
       <r>   1.3809  1.0000</r>
       <r>   1.7564  1.0000</r>
       <r>   1.7574  1.0000</r>
       <r>   1.7597  1.0000</r>
       <r>   1.7607  1.0000</r>
       <r>   2.1349  1.0000</r>
       <r>   2.1379  1.0000</r>
       <r>   2.1379  1.0000</r>
       <r>   2.1409  1.0000</r>
       <r>   3.6126  1.0000</r>
       <r>   3.6134  1.0000</r>
       <r>   3.6156  1.0000</r>
       <r>   3.6164  1.0000</r>
       <r>   4.4555  1.0000</r>
       <r>   4.4564  1.0000</r>
       <r>   4.4585  1.0000</r>
       <r>   4.4594  1.0000</r>
       <r>   5.3010  1.0000</r>
       <r>   5.6167  1.0000</r>
       <r>   5.6168  1.0000</r>
       <r>   7.0757  1.0000</r>
       <r>   7.0757  1.0000</r>
       <r>   7.3889  1.0000</r>
       <r>   7.4084  1.0000</r>
       <r>   7.4085  1.0000</r>
       <r>   7.4515  1.0000</r>
       <r>   7.4548  1.0000</r>
       <r>   7.4548  1.0000</r>
       <r>   7.4582  1.0000</r>
       <r>   7.7649  1.0000</r>
       <r>   7.7677  1.0000</r>
       <r>   7.7678  1.0000</r>
       <r>   7.7705  1.0000</r>
       <r>   8.1271  1.0000</r>
       <r>   8.1271  1.0000</r>
       <r>   8.6544  1.0000</r>
       <r>   8.6544  1.0000</r>
       <r>   8.9382  0.0000</r>
       <r>   8.9412  0.0000</r>
       <r>   8.9412  0.0000</r>
       <r>   8.9442  0.0000</r>
       <r>   9.5650  0.0000</r>
       <r>   9.5679  0.0000</r>
       <r>   9.5679  0.0000</r>
       <r>   9.5707  0.0000</r>
       <r>   9.6553  0.0000</r>
       <r>   9.6569  0.0000</r>
       <r>   9.6593  0.0000</r>
       <r>   9.6609  0.0000</r>
       <r>  10.2570  0.0000</r>
       <r>  10.2571  0.0000</r>
       <r>  10.2829  0.0000</r>
       <r>  10.2833  0.0000</r>
       <r>  10.2838  0.0000</r>
       <r>  10.2866  0.0000</r>
       <r>  10.2872  0.0000</r>
       <r>  10.2892  0.0000</r>
       <r>  10.2911  0.0000</r>
      </set>
      <set comment="kpoint 9">
       <r>  -2.8688  1.0000</r>
       <r>  -0.9153  1.0000</r>
       <r>  -0.9128  1.0000</r>
       <r>  -0.5267  1.0000</r>
       <r>  -0.5266  1.0000</r>
       <r>  -0.1417  1.0000</r>
       <r>  -0.1393  1.0000</r>
       <r>   1.0121  1.0000</r>
       <r>   1.3921  1.0000</r>
       <r>   1.3930  1.0000</r>
       <r>   1.3945  1.0000</r>
       <r>   1.3955  1.0000</r>
       <r>   1.7738  1.0000</r>
       <r>   1.7747  1.0000</r>
       <r>   2.1520  1.0000</r>
       <r>   2.1529  1.0000</r>
       <r>   2.1545  1.0000</r>
       <r>   2.1554  1.0000</r>
       <r>   2.5318  1.0000</r>
       <r>   3.2752  1.0000</r>
       <r>   3.2752  1.0000</r>
       <r>   3.8601  1.0000</r>
       <r>   3.8601  1.0000</r>
       <r>   4.2438  1.0000</r>
       <r>   4.2438  1.0000</r>
       <r>   4.8253  1.0000</r>
       <r>   4.8253  1.0000</r>
       <r>   5.3158  1.0000</r>
       <r>   5.3165  1.0000</r>
       <r>   5.6316  1.0000</r>
       <r>   7.0912  1.0000</r>
       <r>   7.1152  1.0000</r>
       <r>   7.1175  1.0000</r>
       <r>   7.3910  1.0000</r>
       <r>   7.3911  1.0000</r>
       <r>   7.4039  1.0000</r>
       <r>   7.4047  1.0000</r>
       <r>   7.4221  1.0000</r>
       <r>   7.4249  1.0000</r>
       <r>   7.5651  1.0000</r>
       <r>   7.5651  1.0000</r>
       <r>   7.8108  1.0000</r>
       <r>   7.8128  1.0000</r>
       <r>   8.1407  1.0000</r>
       <r>   8.1435  1.0000</r>
       <r>   8.8159  0.0000</r>
       <r>   8.8182  0.0000</r>
       <r>   8.9174  0.0000</r>
       <r>   8.9202  0.0000</r>
       <r>   9.1567  0.0000</r>
       <r>   9.1567  0.0000</r>
       <r>   9.2225  0.0000</r>
       <r>   9.3096  0.0000</r>
       <r>   9.3106  0.0000</r>
       <r>   9.3121  0.0000</r>
       <r>   9.3130  0.0000</r>
       <r>   9.9425  0.0000</r>
       <r>   9.9443  0.0000</r>
       <r>  10.0335  0.0000</r>
       <r>  10.0344  0.0000</r>
       <r>  10.0351  0.0000</r>
       <r>  10.0360  0.0000</r>
       <r>  10.3280  0.0000</r>
       <r>  10.3287  0.0000</r>
       <r>  10.3929  0.0000</r>
       <r>  10.3929  0.0000</r>
       <r>  10.4524  0.0000</r>
       <r>  10.4539  0.0000</r>
      </set>
      <set comment="kpoint 10">
       <r>  -2.8195  1.0000</r>
       <r>  -1.2540  1.0000</r>
       <r>  -0.8656  1.0000</r>
       <r>  -0.4783  1.0000</r>
       <r>  -0.4783  1.0000</r>
       <r>  -0.0923  1.0000</r>
       <r>   0.2925  1.0000</r>
       <r>   0.6771  1.0000</r>
       <r>   1.0598  1.0000</r>
       <r>   1.0598  1.0000</r>
       <r>   1.4407  1.0000</r>
       <r>   1.4415  1.0000</r>
       <r>   1.4421  1.0000</r>
       <r>   2.2002  1.0000</r>
       <r>   2.2010  1.0000</r>
       <r>   2.2016  1.0000</r>
       <r>   2.5788  1.0000</r>
       <r>   2.5788  1.0000</r>
       <r>   2.9522  1.0000</r>
       <r>   2.9523  1.0000</r>
       <r>   2.9556  1.0000</r>
       <r>   3.6760  1.0000</r>
       <r>   3.6761  1.0000</r>
       <r>   4.5200  1.0000</r>
       <r>   4.5201  1.0000</r>
       <r>   4.7400  1.0000</r>
       <r>   5.2371  1.0000</r>
       <r>   5.2371  1.0000</r>
       <r>   5.3614  1.0000</r>
       <r>   5.6763  1.0000</r>
       <r>   6.5588  1.0000</r>
       <r>   6.8039  1.0000</r>
       <r>   6.9026  1.0000</r>
       <r>   6.9026  1.0000</r>
       <r>   7.1094  1.0000</r>
       <r>   7.1376  1.0000</r>
       <r>   7.2622  1.0000</r>
       <r>   7.4502  1.0000</r>
       <r>   7.4684  1.0000</r>
       <r>   7.5533  1.0000</r>
       <r>   7.5533  1.0000</r>
       <r>   8.0644  1.0000</r>
       <r>   8.1417  1.0000</r>
       <r>   8.1871  1.0000</r>
       <r>   8.5466  1.0000</r>
       <r>   8.6688  1.0000</r>
       <r>   8.7614  0.0000</r>
       <r>   8.7832  0.0000</r>
       <r>   8.7833  0.0000</r>
       <r>   8.9074  0.0000</r>
       <r>   8.9924  0.0000</r>
       <r>   8.9946  0.0000</r>
       <r>   8.9954  0.0000</r>
       <r>   9.3536  0.0000</r>
       <r>   9.4734  0.0000</r>
       <r>   9.4735  0.0000</r>
       <r>   9.5100  0.0000</r>
       <r>   9.5101  0.0000</r>
       <r>   9.6279  0.0000</r>
       <r>  10.3492  0.0000</r>
       <r>  10.4413  0.0000</r>
       <r>  10.4413  0.0000</r>
       <r>  10.5673  0.0000</r>
       <r>  10.5812  0.0000</r>
       <r>  10.6097  0.0000</r>
       <r>  10.7511  0.0000</r>
       <r>  10.7512  0.0000</r>
       <r>  10.7591  0.0000</r>
      </set>
      <set comment="kpoint 11">
       <r>  -2.7375  1.0000</r>
       <r>  -1.5623  1.0000</r>
       <r>  -0.7848  1.0000</r>
       <r>  -0.3978  1.0000</r>
       <r>  -0.3977  1.0000</r>
       <r>  -0.0120  1.0000</r>
       <r>   0.3732  1.0000</r>
       <r>   0.7543  1.0000</r>
       <r>   0.7568  1.0000</r>
       <r>   0.7582  1.0000</r>
       <r>   1.1392  1.0000</r>
       <r>   1.5208  1.0000</r>
       <r>   1.5208  1.0000</r>
       <r>   2.2798  1.0000</r>
       <r>   2.2799  1.0000</r>
       <r>   2.6547  1.0000</r>
       <r>   2.6563  1.0000</r>
       <r>   2.6585  1.0000</r>
       <r>   3.0334  1.0000</r>
       <r>   3.0334  1.0000</r>
       <r>   3.3991  1.0000</r>
       <r>   3.3994  1.0000</r>
       <r>   3.4090  1.0000</r>
       <r>   4.1168  1.0000</r>
       <r>   4.9491  1.0000</r>
       <r>   4.9491  1.0000</r>
       <r>   5.4368  1.0000</r>
       <r>   5.6822  1.0000</r>
       <r>   5.6822  1.0000</r>
       <r>   5.7509  1.0000</r>
       <r>   5.9534  1.0000</r>
       <r>   6.3100  1.0000</r>
       <r>   6.3100  1.0000</r>
       <r>   6.5198  1.0000</r>
       <r>   6.6697  1.0000</r>
       <r>   6.8254  1.0000</r>
       <r>   7.2146  1.0000</r>
       <r>   7.5264  1.0000</r>
       <r>   7.5433  1.0000</r>
       <r>   7.6237  1.0000</r>
       <r>   7.6237  1.0000</r>
       <r>   8.1915  1.0000</r>
       <r>   8.1920  1.0000</r>
       <r>   8.1930  1.0000</r>
       <r>   8.2620  1.0000</r>
       <r>   8.5482  1.0000</r>
       <r>   8.6223  1.0000</r>
       <r>   8.7079  0.0854</r>
       <r>   8.7080  0.0843</r>
       <r>   8.8098  0.0000</r>
       <r>   8.8276  0.0000</r>
       <r>   8.9215  0.0000</r>
       <r>   8.9216  0.0000</r>
       <r>   8.9814  0.0000</r>
       <r>   9.1316  0.0000</r>
       <r>   9.3425  0.0000</r>
       <r>   9.6846  0.0000</r>
       <r>   9.6987  0.0000</r>
       <r>   9.6987  0.0000</r>
       <r>  10.3162  0.0000</r>
       <r>  10.7852  0.0000</r>
       <r>  10.8775  0.0000</r>
       <r>  10.8775  0.0000</r>
       <r>  10.9186  0.0000</r>
       <r>  10.9516  0.0000</r>
       <r>  10.9520  0.0000</r>
       <r>  11.0409  0.0000</r>
       <r>  11.0725  0.0000</r>
      </set>
      <set comment="kpoint 12">
       <r>  -2.6228  1.0000</r>
       <r>  -1.8389  1.0000</r>
       <r>  -0.6717  1.0000</r>
       <r>  -0.2851  1.0000</r>
       <r>  -0.2851  1.0000</r>
       <r>   0.0999  1.0000</r>
       <r>   0.1012  1.0000</r>
       <r>   0.4851  1.0000</r>
       <r>   0.4851  1.0000</r>
       <r>   0.8683  1.0000</r>
       <r>   1.2486  1.0000</r>
       <r>   1.6319  1.0000</r>
       <r>   1.6319  1.0000</r>
       <r>   2.3891  1.0000</r>
       <r>   2.3895  1.0000</r>
       <r>   2.3904  1.0000</r>
       <r>   2.3908  1.0000</r>
       <r>   3.1395  1.0000</r>
       <r>   3.1396  1.0000</r>
       <r>   3.1421  1.0000</r>
       <r>   3.4977  1.0000</r>
       <r>   3.5169  1.0000</r>
       <r>   3.5169  1.0000</r>
       <r>   3.8904  1.0000</r>
       <r>   5.3494  1.0000</r>
       <r>   5.4212  1.0000</r>
       <r>   5.4212  1.0000</r>
       <r>   5.5424  1.0000</r>
       <r>   5.7125  1.0000</r>
       <r>   5.7125  1.0000</r>
       <r>   5.8552  1.0000</r>
       <r>   6.0758  1.0000</r>
       <r>   6.1578  1.0000</r>
       <r>   6.1578  1.0000</r>
       <r>   6.2648  1.0000</r>
       <r>   6.5715  1.0000</r>
       <r>   7.3217  1.0000</r>
       <r>   7.5968  1.0000</r>
       <r>   7.5968  1.0000</r>
       <r>   7.6324  1.0000</r>
       <r>   7.6482  1.0000</r>
       <r>   7.7279  1.0000</r>
       <r>   7.7279  1.0000</r>
       <r>   8.0106  1.0000</r>
       <r>   8.3263  1.0000</r>
       <r>   8.3288  1.0000</r>
       <r>   8.3296  1.0000</r>
       <r>   8.3664  1.0000</r>
       <r>   8.3681  1.0000</r>
       <r>   8.4515  1.0000</r>
       <r>   8.4515  1.0000</r>
       <r>   9.0873  0.0000</r>
       <r>   9.2202  0.0000</r>
       <r>   9.2701  0.0000</r>
       <r>   9.4464  0.0000</r>
       <r>   9.6425  0.0000</r>
       <r>   9.8755  0.0000</r>
       <r>   9.8755  0.0000</r>
       <r>   9.9142  0.0000</r>
       <r>  10.0513  0.0000</r>
       <r>  10.6868  0.0000</r>
       <r>  10.6868  0.0000</r>
       <r>  10.7726  0.0000</r>
       <r>  11.2514  0.0000</r>
       <r>  11.3321  0.0000</r>
       <r>  11.3408  0.0000</r>
       <r>  11.3433  0.0000</r>
       <r>  11.3438  0.0000</r>
      </set>
      <set comment="kpoint 13">
       <r>  -2.4755  1.0000</r>
       <r>  -2.0833  1.0000</r>
       <r>  -0.5266  1.0000</r>
       <r>  -0.1417  1.0000</r>
       <r>  -0.1403  1.0000</r>
       <r>  -0.1388  1.0000</r>
       <r>   0.2434  1.0000</r>
       <r>   0.2449  1.0000</r>
       <r>   0.2462  1.0000</r>
       <r>   0.6288  1.0000</r>
       <r>   1.7700  1.0000</r>
       <r>   1.7745  1.0000</r>
       <r>   1.7749  1.0000</r>
       <r>   2.1537  1.0000</r>
       <r>   2.1537  1.0000</r>
       <r>   2.5315  1.0000</r>
       <r>   2.5315  1.0000</r>
       <r>   2.8969  1.0000</r>
       <r>   2.9070  1.0000</r>
       <r>   2.9072  1.0000</r>
       <r>   3.6554  1.0000</r>
       <r>   4.0282  1.0000</r>
       <r>   4.0282  1.0000</r>
       <r>   4.3998  1.0000</r>
       <r>   4.7615  1.0000</r>
       <r>   5.1288  1.0000</r>
       <r>   5.1289  1.0000</r>
       <r>   5.4954  1.0000</r>
       <r>   5.6781  1.0000</r>
       <r>   5.9253  1.0000</r>
       <r>   5.9253  1.0000</r>
       <r>   5.9894  1.0000</r>
       <r>   6.0394  1.0000</r>
       <r>   6.3475  1.0000</r>
       <r>   6.6621  1.0000</r>
       <r>   6.6621  1.0000</r>
       <r>   7.0164  1.0000</r>
       <r>   7.0164  1.0000</r>
       <r>   7.4577  1.0000</r>
       <r>   7.7503  1.0000</r>
       <r>   7.7504  1.0000</r>
       <r>   7.7675  1.0000</r>
       <r>   7.7829  1.0000</r>
       <r>   7.8083  1.0000</r>
       <r>   7.8632  1.0000</r>
       <r>   7.8632  1.0000</r>
       <r>   8.1181  1.0000</r>
       <r>   8.1425  1.0000</r>
       <r>   8.2251  1.0000</r>
       <r>   8.2251  1.0000</r>
       <r>   8.5020  1.0000</r>
       <r>   8.8621  0.0000</r>
       <r>   9.4262  0.0000</r>
       <r>   9.6993  0.0000</r>
       <r>   9.8150  0.0000</r>
       <r>   9.9416  0.0000</r>
       <r>  10.0489  0.0000</r>
       <r>  10.0489  0.0000</r>
       <r>  10.1114  0.0000</r>
       <r>  10.4493  0.0000</r>
       <r>  10.4493  0.0000</r>
       <r>  10.4946  0.0000</r>
       <r>  10.5307  0.0000</r>
       <r>  10.7648  0.0000</r>
       <r>  11.0220  0.0000</r>
       <r>  11.7485  0.0000</r>
       <r>  11.7869  0.0000</r>
       <r>  11.8393  0.0000</r>
      </set>
      <set comment="kpoint 14">
       <r>  -2.2971  1.0000</r>
       <r>  -2.2941  1.0000</r>
       <r>  -0.3508  1.0000</r>
       <r>  -0.3478  1.0000</r>
       <r>   0.0343  1.0000</r>
       <r>   0.0355  1.0000</r>
       <r>   0.0373  1.0000</r>
       <r>   0.0385  1.0000</r>
       <r>   0.4194  1.0000</r>
       <r>   0.4224  1.0000</r>
       <r>   1.9463  1.0000</r>
       <r>   1.9476  1.0000</r>
       <r>   1.9494  1.0000</r>
       <r>   1.9506  1.0000</r>
       <r>   2.3199  1.0000</r>
       <r>   2.3212  1.0000</r>
       <r>   2.7018  1.0000</r>
       <r>   2.7031  1.0000</r>
       <r>   2.7049  1.0000</r>
       <r>   2.7061  1.0000</r>
       <r>   4.1952  1.0000</r>
       <r>   4.1965  1.0000</r>
       <r>   4.5653  1.0000</r>
       <r>   4.5659  1.0000</r>
       <r>   4.5666  1.0000</r>
       <r>   4.5671  1.0000</r>
       <r>   4.9349  1.0000</r>
       <r>   4.9361  1.0000</r>
       <r>   5.8422  1.0000</r>
       <r>   5.8453  1.0000</r>
       <r>   6.1519  1.0000</r>
       <r>   6.1551  1.0000</r>
       <r>   6.4571  1.0000</r>
       <r>   6.4574  1.0000</r>
       <r>   6.4585  1.0000</r>
       <r>   6.4587  1.0000</r>
       <r>   7.1928  1.0000</r>
       <r>   7.1931  1.0000</r>
       <r>   7.1942  1.0000</r>
       <r>   7.1945  1.0000</r>
       <r>   7.6196  1.0000</r>
       <r>   7.6226  1.0000</r>
       <r>   7.9286  1.0000</r>
       <r>   7.9316  1.0000</r>
       <r>   7.9460  1.0000</r>
       <r>   7.9493  1.0000</r>
       <r>   8.0266  1.0000</r>
       <r>   8.0281  1.0000</r>
       <r>   8.0299  1.0000</r>
       <r>   8.0313  1.0000</r>
       <r>   8.6654  1.0000</r>
       <r>   8.6687  1.0000</r>
       <r>   9.6055  0.0000</r>
       <r>   9.6085  0.0000</r>
       <r>  10.2153  0.0000</r>
       <r>  10.2173  0.0000</r>
       <r>  10.2358  0.0000</r>
       <r>  10.2364  0.0000</r>
       <r>  10.2389  0.0000</r>
       <r>  10.2395  0.0000</r>
       <r>  10.3107  0.0000</r>
       <r>  10.3138  0.0000</r>
       <r>  10.4657  0.0000</r>
       <r>  10.4680  0.0000</r>
       <r>  11.3778  0.0000</r>
       <r>  11.3789  0.0000</r>
       <r>  12.2719  0.0000</r>
       <r>  12.2770  0.0000</r>
      </set>
      <set comment="kpoint 15">
       <r>  -2.8359  1.0000</r>
       <r>  -1.2702  1.0000</r>
       <r>  -0.4974  1.0000</r>
       <r>  -0.4944  1.0000</r>
       <r>  -0.4944  1.0000</r>
       <r>  -0.4915  1.0000</r>
       <r>   0.2764  1.0000</r>
       <r>   1.0409  1.0000</r>
       <r>   1.0439  1.0000</r>
       <r>   1.0439  1.0000</r>
       <r>   1.0468  1.0000</r>
       <r>   1.8039  1.0000</r>
       <r>   1.8049  1.0000</r>
       <r>   1.8072  1.0000</r>
       <r>   1.8082  1.0000</r>
       <r>   2.5601  1.0000</r>
       <r>   2.5631  1.0000</r>
       <r>   2.5631  1.0000</r>
       <r>   2.5661  1.0000</r>
       <r>   3.3042  1.0000</r>
       <r>   3.3051  1.0000</r>
       <r>   3.3074  1.0000</r>
       <r>   3.3084  1.0000</r>
       <r>   4.7247  1.0000</r>
       <r>   4.8542  1.0000</r>
       <r>   4.8551  1.0000</r>
       <r>   4.8575  1.0000</r>
       <r>   4.8584  1.0000</r>
       <r>   5.6614  1.0000</r>
       <r>   5.6615  1.0000</r>
       <r>   6.8964  1.0000</r>
       <r>   6.8997  1.0000</r>
       <r>   6.8997  1.0000</r>
       <r>   6.9029  1.0000</r>
       <r>   7.0945  1.0000</r>
       <r>   7.0945  1.0000</r>
       <r>   7.1222  1.0000</r>
       <r>   7.1222  1.0000</r>
       <r>   7.8099  1.0000</r>
       <r>   7.8127  1.0000</r>
       <r>   7.8127  1.0000</r>
       <r>   7.8155  1.0000</r>
       <r>   8.0494  1.0000</r>
       <r>   8.4665  1.0000</r>
       <r>   8.4665  1.0000</r>
       <r>   8.5316  1.0000</r>
       <r>   8.5317  1.0000</r>
       <r>   9.1291  0.0000</r>
       <r>   9.1305  0.0000</r>
       <r>   9.1329  0.0000</r>
       <r>   9.1343  0.0000</r>
       <r>   9.2177  0.0000</r>
       <r>   9.2205  0.0000</r>
       <r>   9.2205  0.0000</r>
       <r>   9.2232  0.0000</r>
       <r>   9.2497  0.0000</r>
       <r>   9.2525  0.0000</r>
       <r>   9.2526  0.0000</r>
       <r>   9.2554  0.0000</r>
       <r>  10.5283  0.0000</r>
       <r>  10.5283  0.0000</r>
       <r>  10.6884  0.0000</r>
       <r>  10.6891  0.0000</r>
       <r>  10.6902  0.0000</r>
       <r>  10.6915  0.0000</r>
       <r>  10.6931  0.0000</r>
       <r>  10.6950  0.0000</r>
       <r>  10.6972  0.0000</r>
      </set>
      <set comment="kpoint 16">
       <r>  -2.8195  1.0000</r>
       <r>  -1.2540  1.0000</r>
       <r>  -0.8656  1.0000</r>
       <r>  -0.4783  1.0000</r>
       <r>  -0.4783  1.0000</r>
       <r>  -0.0923  1.0000</r>
       <r>   0.2925  1.0000</r>
       <r>   0.6771  1.0000</r>
       <r>   1.0598  1.0000</r>
       <r>   1.0598  1.0000</r>
       <r>   1.4400  1.0000</r>
       <r>   1.4415  1.0000</r>
       <r>   1.4428  1.0000</r>
       <r>   2.1995  1.0000</r>
       <r>   2.2010  1.0000</r>
       <r>   2.2023  1.0000</r>
       <r>   2.5788  1.0000</r>
       <r>   2.5788  1.0000</r>
       <r>   2.9522  1.0000</r>
       <r>   2.9523  1.0000</r>
       <r>   2.9556  1.0000</r>
       <r>   3.6761  1.0000</r>
       <r>   3.6761  1.0000</r>
       <r>   4.5200  1.0000</r>
       <r>   4.5200  1.0000</r>
       <r>   4.7400  1.0000</r>
       <r>   5.2371  1.0000</r>
       <r>   5.2371  1.0000</r>
       <r>   5.3614  1.0000</r>
       <r>   5.6763  1.0000</r>
       <r>   6.5587  1.0000</r>
       <r>   6.8039  1.0000</r>
       <r>   6.9026  1.0000</r>
       <r>   6.9026  1.0000</r>
       <r>   7.1094  1.0000</r>
       <r>   7.1376  1.0000</r>
       <r>   7.2622  1.0000</r>
       <r>   7.4502  1.0000</r>
       <r>   7.4684  1.0000</r>
       <r>   7.5534  1.0000</r>
       <r>   7.5534  1.0000</r>
       <r>   8.0644  1.0000</r>
       <r>   8.1417  1.0000</r>
       <r>   8.1871  1.0000</r>
       <r>   8.5466  1.0000</r>
       <r>   8.6688  1.0000</r>
       <r>   8.7614  0.0000</r>
       <r>   8.7833  0.0000</r>
       <r>   8.7833  0.0000</r>
       <r>   8.9073  0.0000</r>
       <r>   8.9927  0.0000</r>
       <r>   8.9946  0.0000</r>
       <r>   8.9951  0.0000</r>
       <r>   9.3536  0.0000</r>
       <r>   9.4736  0.0000</r>
       <r>   9.4736  0.0000</r>
       <r>   9.5100  0.0000</r>
       <r>   9.5100  0.0000</r>
       <r>   9.6279  0.0000</r>
       <r>  10.3492  0.0000</r>
       <r>  10.4413  0.0000</r>
       <r>  10.4413  0.0000</r>
       <r>  10.5674  0.0000</r>
       <r>  10.5812  0.0000</r>
       <r>  10.6097  0.0000</r>
       <r>  10.7511  0.0000</r>
       <r>  10.7512  0.0000</r>
       <r>  10.7591  0.0000</r>
      </set>
      <set comment="kpoint 17">
       <r>  -2.7703  1.0000</r>
       <r>  -1.2066  1.0000</r>
       <r>  -1.2042  1.0000</r>
       <r>  -0.4300  1.0000</r>
       <r>  -0.4300  1.0000</r>
       <r>   0.3388  1.0000</r>
       <r>   0.3408  1.0000</r>
       <r>   0.3426  1.0000</r>
       <r>   1.1059  1.0000</r>
       <r>   1.1068  1.0000</r>
       <r>   1.1083  1.0000</r>
       <r>   1.1093  1.0000</r>
       <r>   1.8684  1.0000</r>
       <r>   1.8694  1.0000</r>
       <r>   2.6231  1.0000</r>
       <r>   2.6242  1.0000</r>
       <r>   2.6255  1.0000</r>
       <r>   2.6256  1.0000</r>
       <r>   2.6270  1.0000</r>
       <r>   2.6282  1.0000</r>
       <r>   3.3777  1.0000</r>
       <r>   3.9507  1.0000</r>
       <r>   3.9507  1.0000</r>
       <r>   4.3393  1.0000</r>
       <r>   4.3393  1.0000</r>
       <r>   4.7855  1.0000</r>
       <r>   4.7863  1.0000</r>
       <r>   5.6517  1.0000</r>
       <r>   5.6517  1.0000</r>
       <r>   5.7211  1.0000</r>
       <r>   6.2429  1.0000</r>
       <r>   6.2453  1.0000</r>
       <r>   6.8182  1.0000</r>
       <r>   6.8182  1.0000</r>
       <r>   7.1429  1.0000</r>
       <r>   7.1432  1.0000</r>
       <r>   7.1531  1.0000</r>
       <r>   7.1558  1.0000</r>
       <r>   7.1836  1.0000</r>
       <r>   7.6302  1.0000</r>
       <r>   7.6323  1.0000</r>
       <r>   8.1089  1.0000</r>
       <r>   8.1099  1.0000</r>
       <r>   8.4630  1.0000</r>
       <r>   8.4640  1.0000</r>
       <r>   8.4655  1.0000</r>
       <r>   8.4666  1.0000</r>
       <r>   8.5895  1.0000</r>
       <r>   8.5919  1.0000</r>
       <r>   8.5943  1.0000</r>
       <r>   8.7607  0.0000</r>
       <r>   8.7623  0.0000</r>
       <r>   9.3137  0.0000</r>
       <r>   9.3164  0.0000</r>
       <r>   9.9124  0.0000</r>
       <r>   9.9134  0.0000</r>
       <r>   9.9171  0.0000</r>
       <r>   9.9176  0.0000</r>
       <r>   9.9181  0.0000</r>
       <r>   9.9196  0.0000</r>
       <r>  10.0326  0.0000</r>
       <r>  10.0345  0.0000</r>
       <r>  10.2882  0.0000</r>
       <r>  10.7033  0.0000</r>
       <r>  10.7039  0.0000</r>
       <r>  10.9804  0.0000</r>
       <r>  10.9804  0.0000</r>
       <r>  11.3065  0.0000</r>
      </set>
      <set comment="kpoint 18">
       <r>  -2.6883  1.0000</r>
       <r>  -1.5136  1.0000</r>
       <r>  -1.1244  1.0000</r>
       <r>  -0.3495  1.0000</r>
       <r>  -0.3494  1.0000</r>
       <r>   0.0366  1.0000</r>
       <r>   0.4205  1.0000</r>
       <r>   0.8022  1.0000</r>
       <r>   0.8047  1.0000</r>
       <r>   0.8061  1.0000</r>
       <r>   1.1872  1.0000</r>
       <r>   1.1872  1.0000</r>
       <r>   1.5679  1.0000</r>
       <r>   2.3247  1.0000</r>
       <r>   2.3269  1.0000</r>
       <r>   2.3285  1.0000</r>
       <r>   2.7044  1.0000</r>
       <r>   2.7044  1.0000</r>
       <r>   3.0803  1.0000</r>
       <r>   3.0803  1.0000</r>
       <r>   3.7990  1.0000</r>
       <r>   3.7991  1.0000</r>
       <r>   3.8291  1.0000</r>
       <r>   4.1632  1.0000</r>
       <r>   4.6450  1.0000</r>
       <r>   4.6450  1.0000</r>
       <r>   4.8623  1.0000</r>
       <r>   5.6353  1.0000</r>
       <r>   5.7956  1.0000</r>
       <r>   5.9576  1.0000</r>
       <r>   6.0973  1.0000</r>
       <r>   6.0973  1.0000</r>
       <r>   6.3342  1.0000</r>
       <r>   6.3342  1.0000</r>
       <r>   6.8703  1.0000</r>
       <r>   7.0597  1.0000</r>
       <r>   7.1066  1.0000</r>
       <r>   7.1066  1.0000</r>
       <r>   7.2291  1.0000</r>
       <r>   7.2598  1.0000</r>
       <r>   7.8722  1.0000</r>
       <r>   7.8722  1.0000</r>
       <r>   7.9355  1.0000</r>
       <r>   8.1764  1.0000</r>
       <r>   8.1764  1.0000</r>
       <r>   8.1840  1.0000</r>
       <r>   8.3074  1.0000</r>
       <r>   8.6287  1.0000</r>
       <r>   8.6667  1.0000</r>
       <r>   8.8561  0.0000</r>
       <r>   8.8716  0.0000</r>
       <r>   9.0265  0.0000</r>
       <r>   9.1549  0.0000</r>
       <r>   9.3307  0.0000</r>
       <r>   9.3307  0.0000</r>
       <r>   9.7480  0.0000</r>
       <r>   9.8380  0.0000</r>
       <r>   9.9953  0.0000</r>
       <r>  10.2469  0.0000</r>
       <r>  10.2470  0.0000</r>
       <r>  10.3549  0.0000</r>
       <r>  10.3549  0.0000</r>
       <r>  10.4694  0.0000</r>
       <r>  11.0040  0.0000</r>
       <r>  11.0060  0.0000</r>
       <r>  11.4169  0.0000</r>
       <r>  11.4423  0.0000</r>
       <r>  11.4599  0.0000</r>
      </set>
      <set comment="kpoint 19">
       <r>  -2.5737  1.0000</r>
       <r>  -1.7900  1.0000</r>
       <r>  -1.0111  1.0000</r>
       <r>  -0.2381  1.0000</r>
       <r>  -0.2368  1.0000</r>
       <r>  -0.2353  1.0000</r>
       <r>   0.5314  1.0000</r>
       <r>   0.5331  1.0000</r>
       <r>   0.5343  1.0000</r>
       <r>   1.2950  1.0000</r>
       <r>   1.2980  1.0000</r>
       <r>   1.2985  1.0000</r>
       <r>   1.2997  1.0000</r>
       <r>   2.0590  1.0000</r>
       <r>   2.0590  1.0000</r>
       <r>   2.8126  1.0000</r>
       <r>   2.8140  1.0000</r>
       <r>   2.8143  1.0000</r>
       <r>   3.5442  1.0000</r>
       <r>   3.5544  1.0000</r>
       <r>   3.5544  1.0000</r>
       <r>   3.5634  1.0000</r>
       <r>   3.5636  1.0000</r>
       <r>   4.3086  1.0000</r>
       <r>   4.9693  1.0000</r>
       <r>   5.0283  1.0000</r>
       <r>   5.1034  1.0000</r>
       <r>   5.1034  1.0000</r>
[...]
       <r>   2.8918  1.0000</r>
       <r>   3.2577  1.0000</r>
       <r>   3.2595  1.0000</r>
       <r>   3.2613  1.0000</r>
       <r>   3.2617  1.0000</r>
       <r>   3.2618  1.0000</r>
       <r>   3.2621  1.0000</r>
       <r>   3.2639  1.0000</r>
       <r>   3.2657  1.0000</r>
       <r>   3.6311  1.0000</r>
       <r>   3.6329  1.0000</r>
       <r>   3.6347  1.0000</r>
       <r>   3.6351  1.0000</r>
       <r>   3.6352  1.0000</r>
       <r>   3.6355  1.0000</r>
       <r>   3.6373  1.0000</r>
       <r>   3.6391  1.0000</r>
       <r>   4.0000  1.0000</r>
       <r>   4.0025  1.0000</r>
       <r>   4.0030  1.0000</r>
       <r>   4.0056  1.0000</r>
       <r>   7.3612  1.0000</r>
       <r>   7.3630  1.0000</r>
       <r>   7.3651  1.0000</r>
       <r>   7.3653  1.0000</r>
       <r>   7.3654  1.0000</r>
       <r>   7.3657  1.0000</r>
       <r>   7.3677  1.0000</r>
       <r>   7.3696  1.0000</r>
       <r>   7.7191  1.0000</r>
       <r>   7.7205  1.0000</r>
       <r>   7.7205  1.0000</r>
       <r>   7.7218  1.0000</r>
       <r>   8.0905  1.0000</r>
       <r>   8.0919  1.0000</r>
       <r>   8.0920  1.0000</r>
       <r>   8.0933  1.0000</r>
       <r>   8.4377  1.0000</r>
       <r>   8.4397  1.0000</r>
       <r>   8.4418  1.0000</r>
       <r>   8.4421  1.0000</r>
       <r>   8.4421  1.0000</r>
       <r>   8.4424  1.0000</r>
       <r>   8.4445  1.0000</r>
       <r>   8.4465  1.0000</r>
       <r>  11.6272  0.0000</r>
       <r>  11.6295  0.0000</r>
       <r>  11.6303  0.0000</r>
       <r>  11.6326  0.0000</r>
       <r>  11.7276  0.0000</r>
       <r>  11.7289  0.0000</r>
       <r>  11.7292  0.0000</r>
       <r>  11.7305  0.0000</r>
       <r>  12.3331  0.0000</r>
       <r>  12.3341  0.0000</r>
       <r>  12.3349  0.0000</r>
       <r>  12.3365  0.0000</r>
      </set>
      <set comment="kpoint 190">
       <r>  -1.7250  1.0000</r>
       <r>  -1.7249  1.0000</r>
       <r>  -1.7249  1.0000</r>
       <r>  -1.7249  1.0000</r>
       <r>   0.5919  1.0000</r>
       <r>   0.5965  1.0000</r>
       <r>   0.5965  1.0000</r>
       <r>   0.5971  1.0000</r>
       <r>   0.5972  1.0000</r>
       <r>   0.5978  1.0000</r>
       <r>   0.5978  1.0000</r>
       <r>   0.6024  1.0000</r>
       <r>   2.8707  1.0000</r>
       <r>   2.8707  1.0000</r>
       <r>   2.8707  1.0000</r>
       <r>   2.8707  1.0000</r>
       <r>   2.8707  1.0000</r>
       <r>   2.8707  1.0000</r>
       <r>   2.8707  1.0000</r>
       <r>   2.8707  1.0000</r>
       <r>   4.9151  1.0000</r>
       <r>   4.9151  1.0000</r>
       <r>   4.9166  1.0000</r>
       <r>   4.9166  1.0000</r>
       <r>   4.9166  1.0000</r>
       <r>   4.9166  1.0000</r>
       <r>   4.9182  1.0000</r>
       <r>   4.9182  1.0000</r>
       <r>   5.3383  1.0000</r>
       <r>   5.3383  1.0000</r>
       <r>   5.3402  1.0000</r>
       <r>   5.3402  1.0000</r>
       <r>   5.3402  1.0000</r>
       <r>   5.3402  1.0000</r>
       <r>   5.3420  1.0000</r>
       <r>   5.3420  1.0000</r>
       <r>   6.6761  1.0000</r>
       <r>   6.6761  1.0000</r>
       <r>   6.6761  1.0000</r>
       <r>   6.6762  1.0000</r>
       <r>   7.1982  1.0000</r>
       <r>   7.1982  1.0000</r>
       <r>   7.1982  1.0000</r>
       <r>   7.1982  1.0000</r>
       <r>   8.4002  1.0000</r>
       <r>   8.4002  1.0000</r>
       <r>   8.4002  1.0000</r>
       <r>   8.4002  1.0000</r>
       <r>   9.5418  0.0000</r>
       <r>   9.5418  0.0000</r>
       <r>   9.5422  0.0000</r>
       <r>   9.5435  0.0000</r>
       <r>   9.5449  0.0000</r>
       <r>   9.5461  0.0000</r>
       <r>   9.5465  0.0000</r>
       <r>   9.5465  0.0000</r>
       <r>  10.9942  0.0000</r>
       <r>  10.9942  0.0000</r>
       <r>  10.9942  0.0000</r>
       <r>  10.9942  0.0000</r>
       <r>  10.9942  0.0000</r>
       <r>  10.9942  0.0000</r>
       <r>  10.9942  0.0000</r>
       <r>  10.9943  0.0000</r>
       <r>  11.7145  0.0000</r>
       <r>  11.7145  0.0000</r>
       <r>  11.7145  0.0000</r>
       <r>  11.7145  0.0000</r>
      </set>
      <set comment="kpoint 191">
       <r>  -1.7087  1.0000</r>
       <r>  -1.7087  1.0000</r>
       <r>  -1.7087  1.0000</r>
       <r>  -1.7087  1.0000</r>
       <r>   0.2290  1.0000</r>
       <r>   0.2291  1.0000</r>
       <r>   0.2291  1.0000</r>
       <r>   0.2291  1.0000</r>
       <r>   0.9959  1.0000</r>
       <r>   0.9959  1.0000</r>
       <r>   0.9959  1.0000</r>
       <r>   0.9960  1.0000</r>
       <r>   2.8864  1.0000</r>
       <r>   2.8864  1.0000</r>
       <r>   2.8864  1.0000</r>
       <r>   2.8864  1.0000</r>
       <r>   2.8864  1.0000</r>
       <r>   2.8864  1.0000</r>
       <r>   2.8864  1.0000</r>
       <r>   2.8864  1.0000</r>
       <r>   4.7145  1.0000</r>
       <r>   4.7145  1.0000</r>
       <r>   4.7152  1.0000</r>
       <r>   4.7152  1.0000</r>
       <r>   4.7152  1.0000</r>
       <r>   4.7152  1.0000</r>
       <r>   4.7159  1.0000</r>
       <r>   4.7159  1.0000</r>
       <r>   5.5705  1.0000</r>
       <r>   5.5705  1.0000</r>
       <r>   5.5715  1.0000</r>
       <r>   5.5715  1.0000</r>
       <r>   5.5715  1.0000</r>
       <r>   5.5715  1.0000</r>
       <r>   5.5725  1.0000</r>
       <r>   5.5725  1.0000</r>
       <r>   6.3723  1.0000</r>
       <r>   6.3723  1.0000</r>
       <r>   6.3723  1.0000</r>
       <r>   6.3723  1.0000</r>
       <r>   7.2794  1.0000</r>
       <r>   7.2794  1.0000</r>
       <r>   7.2794  1.0000</r>
       <r>   7.2794  1.0000</r>
       <r>   8.6661  1.0000</r>
       <r>   8.6662  1.0000</r>
       <r>   8.6662  1.0000</r>
       <r>   8.6662  1.0000</r>
       <r>   9.1940  0.0000</r>
       <r>   9.1940  0.0000</r>
       <r>   9.1940  0.0000</r>
       <r>   9.1941  0.0000</r>
       <r>   9.9237  0.0000</r>
       <r>   9.9237  0.0000</r>
       <r>   9.9237  0.0000</r>
       <r>   9.9237  0.0000</r>
       <r>  10.7137  0.0000</r>
       <r>  10.7137  0.0000</r>
       <r>  10.7144  0.0000</r>
       <r>  10.7144  0.0000</r>
       <r>  10.7144  0.0000</r>
       <r>  10.7144  0.0000</r>
       <r>  10.7151  0.0000</r>
       <r>  10.7151  0.0000</r>
       <r>  11.8247  0.0000</r>
       <r>  11.8254  0.0000</r>
       <r>  11.8260  0.0000</r>
       <r>  11.8261  0.0000</r>
      </set>
      <set comment="kpoint 192">
       <r>  -1.6599  1.0000</r>
       <r>  -1.6599  1.0000</r>
       <r>  -1.6599  1.0000</r>
       <r>  -1.6599  1.0000</r>
       <r>  -0.1080  1.0000</r>
       <r>  -0.1080  1.0000</r>
       <r>  -0.1080  1.0000</r>
       <r>  -0.1080  1.0000</r>
       <r>   1.4250  1.0000</r>
       <r>   1.4250  1.0000</r>
       <r>   1.4250  1.0000</r>
       <r>   1.4250  1.0000</r>
       <r>   2.9334  1.0000</r>
       <r>   2.9334  1.0000</r>
       <r>   2.9334  1.0000</r>
       <r>   2.9334  1.0000</r>
       <r>   2.9334  1.0000</r>
       <r>   2.9334  1.0000</r>
       <r>   2.9334  1.0000</r>
       <r>   2.9334  1.0000</r>
       <r>   4.4145  1.0000</r>
       <r>   4.4145  1.0000</r>
       <r>   4.4148  1.0000</r>
       <r>   4.4148  1.0000</r>
       <r>   4.4148  1.0000</r>
       <r>   4.4148  1.0000</r>
       <r>   4.4152  1.0000</r>
       <r>   4.4152  1.0000</r>
       <r>   5.8114  1.0000</r>
       <r>   5.8114  1.0000</r>
       <r>   5.8114  1.0000</r>
       <r>   5.8115  1.0000</r>
       <r>   5.9609  1.0000</r>
       <r>   5.9609  1.0000</r>
       <r>   5.9616  1.0000</r>
       <r>   5.9616  1.0000</r>
       <r>   5.9616  1.0000</r>
       <r>   5.9616  1.0000</r>
       <r>   5.9622  1.0000</r>
       <r>   5.9622  1.0000</r>
       <r>   7.3703  1.0000</r>
       <r>   7.3703  1.0000</r>
       <r>   7.3703  1.0000</r>
       <r>   7.3703  1.0000</r>
       <r>   8.8736  0.0000</r>
       <r>   8.8736  0.0000</r>
       <r>   8.8736  0.0000</r>
       <r>   8.8736  0.0000</r>
       <r>   9.2657  0.0000</r>
       <r>   9.2657  0.0000</r>
       <r>   9.2657  0.0000</r>
       <r>   9.2657  0.0000</r>
       <r>  10.1820  0.0000</r>
       <r>  10.1820  0.0000</r>
       <r>  10.1827  0.0000</r>
       <r>  10.1827  0.0000</r>
       <r>  10.1827  0.0000</r>
       <r>  10.1828  0.0000</r>
       <r>  10.1834  0.0000</r>
       <r>  10.1834  0.0000</r>
       <r>  10.3325  0.0000</r>
       <r>  10.3325  0.0000</r>
       <r>  10.3325  0.0000</r>
       <r>  10.3325  0.0000</r>
       <r>  11.9572  0.0000</r>
       <r>  11.9580  0.0000</r>
       <r>  11.9582  0.0000</r>
       <r>  11.9586  0.0000</r>
      </set>
      <set comment="kpoint 193">
       <r>  -1.5786  1.0000</r>
       <r>  -1.5786  1.0000</r>
       <r>  -1.5786  1.0000</r>
       <r>  -1.5786  1.0000</r>
       <r>  -0.4136  1.0000</r>
       <r>  -0.4136  1.0000</r>
       <r>  -0.4136  1.0000</r>
       <r>  -0.4136  1.0000</r>
       <r>   1.8840  1.0000</r>
       <r>   1.8840  1.0000</r>
       <r>   1.8840  1.0000</r>
       <r>   1.8840  1.0000</r>
       <r>   3.0116  1.0000</r>
       <r>   3.0116  1.0000</r>
       <r>   3.0116  1.0000</r>
       <r>   3.0117  1.0000</r>
       <r>   3.0117  1.0000</r>
       <r>   3.0117  1.0000</r>
       <r>   3.0117  1.0000</r>
       <r>   3.0117  1.0000</r>
       <r>   4.1278  1.0000</r>
       <r>   4.1278  1.0000</r>
       <r>   4.1280  1.0000</r>
       <r>   4.1280  1.0000</r>
       <r>   4.1280  1.0000</r>
       <r>   4.1280  1.0000</r>
       <r>   4.1282  1.0000</r>
       <r>   4.1282  1.0000</r>
       <r>   5.2028  1.0000</r>
       <r>   5.2028  1.0000</r>
       <r>   5.2028  1.0000</r>
       <r>   5.2029  1.0000</r>
       <r>   6.3970  1.0000</r>
       <r>   6.3970  1.0000</r>
       <r>   6.3976  1.0000</r>
       <r>   6.3976  1.0000</r>
       <r>   6.3976  1.0000</r>
       <r>   6.3976  1.0000</r>
       <r>   6.3981  1.0000</r>
       <r>   6.3981  1.0000</r>
       <r>   7.4638  1.0000</r>
       <r>   7.4638  1.0000</r>
       <r>   7.4638  1.0000</r>
       <r>   7.4638  1.0000</r>
       <r>   8.5831  1.0000</r>
       <r>   8.5831  1.0000</r>
       <r>   8.5831  1.0000</r>
       <r>   8.5831  1.0000</r>
       <r>   9.5990  0.0000</r>
       <r>   9.5990  0.0000</r>
       <r>   9.5995  0.0000</r>
       <r>   9.5996  0.0000</r>
       <r>   9.5996  0.0000</r>
       <r>   9.5996  0.0000</r>
       <r>   9.6001  0.0000</r>
       <r>   9.6001  0.0000</r>
       <r>   9.9968  0.0000</r>
       <r>   9.9968  0.0000</r>
       <r>   9.9968  0.0000</r>
       <r>   9.9968  0.0000</r>
       <r>  10.7700  0.0000</r>
       <r>  10.7700  0.0000</r>
       <r>  10.7700  0.0000</r>
       <r>  10.7700  0.0000</r>
       <r>  12.0706  0.0000</r>
       <r>  12.0710  0.0000</r>
       <r>  12.0715  0.0000</r>
       <r>  12.0717  0.0000</r>
      </set>
      <set comment="kpoint 194">
       <r>  -1.4649  1.0000</r>
       <r>  -1.4649  1.0000</r>
       <r>  -1.4649  1.0000</r>
       <r>  -1.4649  1.0000</r>
       <r>  -0.6878  1.0000</r>
       <r>  -0.6878  1.0000</r>
       <r>  -0.6878  1.0000</r>
       <r>  -0.6878  1.0000</r>
       <r>   2.3723  1.0000</r>
       <r>   2.3723  1.0000</r>
       <r>   2.3723  1.0000</r>
       <r>   2.3723  1.0000</r>
       <r>   3.1211  1.0000</r>
       <r>   3.1211  1.0000</r>
       <r>   3.1211  1.0000</r>
       <r>   3.1212  1.0000</r>
       <r>   3.1212  1.0000</r>
       <r>   3.1212  1.0000</r>
       <r>   3.1212  1.0000</r>
       <r>   3.1212  1.0000</r>
       <r>   3.8670  1.0000</r>
       <r>   3.8670  1.0000</r>
       <r>   3.8671  1.0000</r>
       <r>   3.8671  1.0000</r>
       <r>   3.8671  1.0000</r>
       <r>   3.8671  1.0000</r>
       <r>   3.8672  1.0000</r>
       <r>   3.8672  1.0000</r>
       <r>   4.5948  1.0000</r>
       <r>   4.5948  1.0000</r>
       <r>   4.5948  1.0000</r>
       <r>   4.5948  1.0000</r>
       <r>   6.8662  1.0000</r>
       <r>   6.8662  1.0000</r>
       <r>   6.8667  1.0000</r>
       <r>   6.8667  1.0000</r>
       <r>   6.8667  1.0000</r>
       <r>   6.8667  1.0000</r>
       <r>   6.8672  1.0000</r>
       <r>   6.8672  1.0000</r>
       <r>   7.5786  1.0000</r>
       <r>   7.5786  1.0000</r>
       <r>   7.5786  1.0000</r>
       <r>   7.5786  1.0000</r>
       <r>   8.3225  1.0000</r>
       <r>   8.3225  1.0000</r>
       <r>   8.3225  1.0000</r>
       <r>   8.3225  1.0000</r>
       <r>   9.0134  0.0000</r>
       <r>   9.0134  0.0000</r>
       <r>   9.0139  0.0000</r>
       <r>   9.0139  0.0000</r>
       <r>   9.0139  0.0000</r>
       <r>   9.0139  0.0000</r>
       <r>   9.0144  0.0000</r>
       <r>   9.0144  0.0000</r>
       <r>  10.7920  0.0000</r>
       <r>  10.7921  0.0000</r>
       <r>  10.7921  0.0000</r>
       <r>  10.7921  0.0000</r>
       <r>  11.2357  0.0000</r>
       <r>  11.2357  0.0000</r>
       <r>  11.2358  0.0000</r>
       <r>  11.2358  0.0000</r>
       <r>  12.1923  0.0000</r>
       <r>  12.1925  0.0000</r>
       <r>  12.1930  0.0000</r>
       <r>  12.1933  0.0000</r>
      </set>
      <set comment="kpoint 195">
       <r>  -1.3189  1.0000</r>
       <r>  -1.3189  1.0000</r>
       <r>  -1.3189  1.0000</r>
       <r>  -1.3188  1.0000</r>
       <r>  -0.9301  1.0000</r>
       <r>  -0.9301  1.0000</r>
       <r>  -0.9301  1.0000</r>
       <r>  -0.9301  1.0000</r>
       <r>   2.8890  1.0000</r>
       <r>   2.8890  1.0000</r>
       <r>   2.8890  1.0000</r>
       <r>   2.8890  1.0000</r>
       <r>   3.2616  1.0000</r>
       <r>   3.2616  1.0000</r>
       <r>   3.2617  1.0000</r>
       <r>   3.2617  1.0000</r>
       <r>   3.2617  1.0000</r>
       <r>   3.2617  1.0000</r>
       <r>   3.2617  1.0000</r>
       <r>   3.2617  1.0000</r>
       <r>   3.6350  1.0000</r>
       <r>   3.6350  1.0000</r>
       <r>   3.6351  1.0000</r>
       <r>   3.6351  1.0000</r>
       <r>   3.6351  1.0000</r>
       <r>   3.6351  1.0000</r>
       <r>   3.6352  1.0000</r>
       <r>   3.6352  1.0000</r>
       <r>   4.0028  1.0000</r>
       <r>   4.0028  1.0000</r>
       <r>   4.0028  1.0000</r>
       <r>   4.0029  1.0000</r>
       <r>   7.3649  1.0000</r>
       <r>   7.3649  1.0000</r>
       <r>   7.3654  1.0000</r>
       <r>   7.3654  1.0000</r>
       <r>   7.3654  1.0000</r>
       <r>   7.3654  1.0000</r>
       <r>   7.3658  1.0000</r>
       <r>   7.3658  1.0000</r>
       <r>   7.7204  1.0000</r>
       <r>   7.7204  1.0000</r>
       <r>   7.7204  1.0000</r>
       <r>   7.7205  1.0000</r>
       <r>   8.0919  1.0000</r>
       <r>   8.0919  1.0000</r>
       <r>   8.0919  1.0000</r>
       <r>   8.0919  1.0000</r>
       <r>   8.4417  1.0000</r>
       <r>   8.4417  1.0000</r>
       <r>   8.4421  1.0000</r>
       <r>   8.4421  1.0000</r>
       <r>   8.4421  1.0000</r>
       <r>   8.4421  1.0000</r>
       <r>   8.4426  1.0000</r>
       <r>   8.4426  1.0000</r>
       <r>  11.6299  0.0000</r>
       <r>  11.6299  0.0000</r>
       <r>  11.6299  0.0000</r>
       <r>  11.6299  0.0000</r>
       <r>  11.7290  0.0000</r>
       <r>  11.7290  0.0000</r>
       <r>  11.7290  0.0000</r>
       <r>  11.7291  0.0000</r>
       <r>  12.3345  0.0000</r>
       <r>  12.3347  0.0000</r>
       <r>  12.3348  0.0000</r>
       <r>  12.3354  0.0000</r>
      </set>
      <set comment="kpoint 196">
       <r>  -1.1455  1.0000</r>
       <r>  -1.1411  1.0000</r>
       <r>  -1.1411  1.0000</r>
       <r>  -1.1406  1.0000</r>
       <r>  -1.1405  1.0000</r>
       <r>  -1.1401  1.0000</r>
       <r>  -1.1401  1.0000</r>
       <r>  -1.1356  1.0000</r>
       <r>   3.4227  1.0000</r>
       <r>   3.4288  1.0000</r>
       <r>   3.4288  1.0000</r>
       <r>   3.4322  1.0000</r>
       <r>   3.4325  1.0000</r>
       <r>   3.4326  1.0000</r>
       <r>   3.4330  1.0000</r>
       <r>   3.4330  1.0000</r>
       <r>   3.4331  1.0000</r>
       <r>   3.4331  1.0000</r>
       <r>   3.4331  1.0000</r>
       <r>   3.4331  1.0000</r>
       <r>   3.4331  1.0000</r>
       <r>   3.4331  1.0000</r>
       <r>   3.4332  1.0000</r>
       <r>   3.4332  1.0000</r>
       <r>   3.4332  1.0000</r>
       <r>   3.4332  1.0000</r>
       <r>   3.4336  1.0000</r>
       <r>   3.4337  1.0000</r>
       <r>   3.4340  1.0000</r>
       <r>   3.4374  1.0000</r>
       <r>   3.4374  1.0000</r>
       <r>   3.4435  1.0000</r>
       <r>   7.8850  1.0000</r>
       <r>   7.8850  1.0000</r>
       <r>   7.8873  1.0000</r>
       <r>   7.8889  1.0000</r>
       <r>   7.8905  1.0000</r>
       <r>   7.8909  1.0000</r>
       <r>   7.8910  1.0000</r>
       <r>   7.8910  1.0000</r>
       <r>   7.8913  1.0000</r>
       <r>   7.8913  1.0000</r>
       <r>   7.8913  1.0000</r>
       <r>   7.8913  1.0000</r>
       <r>   7.8913  1.0000</r>
       <r>   7.8914  1.0000</r>
       <r>   7.8914  1.0000</r>
       <r>   7.8914  1.0000</r>
       <r>   7.8916  1.0000</r>
       <r>   7.8916  1.0000</r>
       <r>   7.8917  1.0000</r>
       <r>   7.8921  1.0000</r>
       <r>   7.8938  1.0000</r>
       <r>   7.8954  1.0000</r>
       <r>   7.8977  1.0000</r>
       <r>   7.8977  1.0000</r>
       <r>  12.2470  0.0000</r>
       <r>  12.2474  0.0000</r>
       <r>  12.2474  0.0000</r>
       <r>  12.2478  0.0000</r>
       <r>  12.2496  0.0000</r>
       <r>  12.2500  0.0000</r>
       <r>  12.2500  0.0000</r>
       <r>  12.2505  0.0000</r>
       <r>  12.4989  0.0000</r>
       <r>  12.5003  0.0000</r>
       <r>  12.5014  0.0000</r>
       <r>  12.5023  0.0000</r>
      </set>
     </set>
    </set>
   </array>
  </eigenvalues>
 </calculation>
 <structure name="finalpos" >
  <crystal>
   <varray name="basis" >
    <v>       7.91312048      0.00000000      0.00000000</v>
    <v>       0.00000000      7.91312048      0.00000000</v>
    <v>       0.00000000      0.00000000      7.91312048</v>
   </varray>
   <i name="volume">    495.49963047</i>
   <varray name="rec_basis" >
    <v>       0.12637240      0.00000000      0.00000000</v>
    <v>       0.00000000      0.12637240      0.00000000</v>
    <v>       0.00000000      0.00000000      0.12637240</v>
   </varray>
  </crystal>
  <varray name="positions" >
   <v>       0.25126372      0.25000000      0.00000000</v>
   <v>       0.75000000      0.25000000      0.00000000</v>
   <v>       0.25000000      0.75000000      0.00000000</v>
   <v>       0.75000000      0.75000000      0.00000000</v>
   <v>       0.25000000      0.25000000      0.50000000</v>
   <v>       0.75000000      0.25000000      0.50000000</v>
   <v>       0.25000000      0.75000000      0.50000000</v>
   <v>       0.75000000      0.75000000      0.50000000</v>
   <v>       0.25000000      0.00000000      0.25000000</v>
   <v>       0.75000000      0.00000000      0.25000000</v>
   <v>       0.25000000      0.50000000      0.25000000</v>
   <v>       0.75000000      0.50000000      0.25000000</v>
   <v>       0.25000000      0.00000000      0.75000000</v>
   <v>       0.75000000      0.00000000      0.75000000</v>
   <v>       0.25000000      0.50000000      0.75000000</v>
   <v>       0.75000000      0.50000000      0.75000000</v>
   <v>       0.00000000      0.25000000      0.25000000</v>
   <v>       0.50000000      0.25000000      0.25000000</v>
   <v>       0.00000000      0.75000000      0.25000000</v>
   <v>       0.50000000      0.75000000      0.25000000</v>
   <v>       0.00000000      0.25000000      0.75000000</v>
   <v>       0.50000000      0.25000000      0.75000000</v>
   <v>       0.00000000      0.75000000      0.75000000</v>
   <v>       0.50000000      0.75000000      0.75000000</v>
   <v>       0.00000000      0.00000000      0.00000000</v>
   <v>       0.50000000      0.00000000      0.00000000</v>
   <v>       0.00000000      0.50000000      0.00000000</v>
   <v>       0.50000000      0.50000000      0.00000000</v>
   <v>       0.00000000      0.00000000      0.50000000</v>
   <v>       0.50000000      0.00000000      0.50000000</v>
   <v>       0.00000000      0.50000000      0.50000000</v>
   <v>       0.50000000      0.50000000      0.50000000</v>
  </varray>
 </structure>
</modeling>
