32   
1    

1    
  0.0100000000000000   0.0000000000000000   0.0000000000000000
  -0.1209942800    0.0000000000   -0.0000000000
   0.0011455600    0.0000000000   -0.0000000000
  -0.0006233700   -0.0000000000   -0.0000000000
   0.0006887100    0.0000000000    0.0000000000
  -0.0006233700    0.0000000000    0.0000000000
   0.0006887100   -0.0000000000   -0.0000000000
   0.0000617400    0.0000000000   -0.0000000000
  -0.0003264800    0.0000000000   -0.0000000000
   0.0157143900    0.0185628800   -0.0000000000
   0.0153058600   -0.0179422400    0.0000000000
   0.0157143900   -0.0185628800    0.0000000000
   0.0153058600    0.0179422400    0.0000000000
   0.0002165900    0.0002418600    0.0000000000
   0.0002173500   -0.0002427000    0.0000000000
   0.0002165900   -0.0002418600    0.0000000000
   0.0002173500    0.0002427000   -0.0000000000
   0.0157143900    0.0000000000    0.0185628800
   0.0153058600    0.0000000000   -0.0179422400
   0.0002165900   -0.0000000000    0.0002418600
   0.0002173500   -0.0000000000   -0.0002427000
   0.0157143900    0.0000000000   -0.0185628800
   0.0153058600   -0.0000000000    0.0179422400
   0.0002165900   -0.0000000000   -0.0002418600
   0.0002173500   -0.0000000000    0.0002427000
  -0.0021006600   -0.0000421000   -0.0000421000
   0.0006421600    0.0000024700    0.0000024700
  -0.0021006600    0.0000421000   -0.0000421000
   0.0006421600   -0.0000024700    0.0000024700
  -0.0021006600   -0.0000421000    0.0000421000
   0.0006421600    0.0000024700   -0.0000024700
  -0.0021006600    0.0000421000    0.0000421000
   0.0006421600   -0.0000024700   -0.0000024700
