mesh: [    48,    48,    48 ]
nqpoint: 2600   
reciprocal_lattice:
- [   0.28946953,   0.00000000,   0.00000000 ] # a*
- [   0.00000000,   0.28946953,   0.00000000 ] # b*
- [   0.00000000,   0.00000000,   0.28946953 ] # c*
natom:   4      
lattice:
- [     3.454595021146399,     0.000000000000000,     0.000000000000000 ] # a
- [     0.000000000000000,     3.454595021146399,     0.000000000000000 ] # b
- [     0.000000000000000,     0.000000000000000,     3.454595021146399 ] # c
points:
- symbol: Cu # 1
  coordinates: [  0.000000000000000,  0.000000000000000,  0.000000000000000 ]
  mass: 63.546000
- symbol: Cu # 2
  coordinates: [  0.500000000000000,  0.500000000000000,  0.000000000000000 ]
  mass: 63.546000
- symbol: Cu # 3
  coordinates: [  0.500000000000000,  0.000000000000000,  0.500000000000000 ]
  mass: 63.546000
- symbol: Cu # 4
  coordinates: [  0.000000000000000,  0.500000000000000,  0.500000000000000 ]
  mass: 63.546000
phonon:
- q-position: [    0.0104167,    0.0104167,    0.0104167 ]
  weight: 8    
  band:
  - # 1
    frequency:     0.1548222166
  - # 2
    frequency:     0.1548222166
  - # 3
    frequency:     0.3396270674
  - # 4
    frequency:     6.6236946049
  - # 5
    frequency:     6.6236946049
  - # 6
    frequency:     6.6236946049
  - # 7
    frequency:     6.6282888307
  - # 8
    frequency:     6.6282888307
  - # 9
    frequency:     6.6282888307
  - # 10
    frequency:     9.8349954415
  - # 11
    frequency:     9.8349954415
  - # 12
    frequency:     9.8349954415

- q-position: [    0.0312500,    0.0104167,    0.0104167 ]
  weight: 24   
  band:
  - # 1
    frequency:     0.3126181623
  - # 2
    frequency:     0.3496337020
  - # 3
    frequency:     0.6148923271
  - # 4
    frequency:     6.6169354185
  - # 5
    frequency:     6.6215121028
  - # 6
    frequency:     6.6218862345
  - # 7
    frequency:     6.6218862345
  - # 8
    frequency:     6.6378975872
  - # 9
    frequency:     6.6378975872
  - # 10
    frequency:     9.8260722032
  - # 11
    frequency:     9.8288948282
  - # 12
    frequency:     9.8288948282

- q-position: [    0.0520833,    0.0104167,    0.0104167 ]
  weight: 24   
  band:
  - # 1
    frequency:     0.5330094061
  - # 2
    frequency:     0.5641934186
  - # 3
    frequency:     0.9288907237
  - # 4
    frequency:     6.6034210447
  - # 5
    frequency:     6.6079627092
  - # 6
    frequency:     6.6209109475
  - # 7
    frequency:     6.6209109475
  - # 8
    frequency:     6.6544207045
  - # 9
    frequency:     6.6544207045
  - # 10
    frequency:     9.8082191819
  - # 11
    frequency:     9.8167129725
  - # 12
    frequency:     9.8167129725

- q-position: [    0.0729167,    0.0104167,    0.0104167 ]
  weight: 24   
  band:
  - # 1
    frequency:     0.7570774455
  - # 2
    frequency:     0.7818120860
  - # 3
    frequency:     1.2552740036
  - # 4
    frequency:     6.5831595098
  - # 5
    frequency:     6.5876488013
  - # 6
    frequency:     6.6201127558
  - # 7
    frequency:     6.6201127558
  - # 8
    frequency:     6.6784092364
  - # 9
    frequency:     6.6784092364
  - # 10
    frequency:     9.7814234743
  - # 11
    frequency:     9.7984885857
  - # 12
    frequency:     9.7984885857

- q-position: [    0.0937500,    0.0104167,    0.0104167 ]
  weight: 24   
  band:
  - # 1
    frequency:     0.9798074332
  - # 2
    frequency:     0.9997860361
  - # 3
    frequency:     1.5861889890
  - # 4
    frequency:     6.5561629238
  - # 5
    frequency:     6.5605826731
  - # 6
    frequency:     6.6192824759
  - # 7
    frequency:     6.6192824759
  - # 8
    frequency:     6.7099172923
  - # 9
    frequency:     6.7099172923
  - # 10
    frequency:     9.7456661868
  - # 11
    frequency:     9.7742796610
  - # 12
    frequency:     9.7742796610

- q-position: [    0.1145833,    0.0104167,    0.0104167 ]
  weight: 24   
  band:
  - # 1
    frequency:     1.2006479763
  - # 2
    frequency:     1.2171530472
  - # 3
    frequency:     1.9181669069
  - # 4
    frequency:     6.5224475643
  - # 5
    frequency:     6.5267808404
  - # 6
    frequency:     6.6183570810
  - # 7
    frequency:     6.6183570810
  - # 8
    frequency:     6.7488053523
  - # 9
    frequency:     6.7488053523
  - # 10
    frequency:     9.7009229831
  - # 11
    frequency:     9.7441633850
  - # 12
    frequency:     9.7441633850

- q-position: [    0.1354167,    0.0104167,    0.0104167 ]
  weight: 24   
  band:
  - # 1
    frequency:     1.4194896862
  - # 2
    frequency:     1.4333779309
  - # 3
    frequency:     2.2493237668
  - # 4
    frequency:     6.4820339859
  - # 5
    frequency:     6.4862641456
  - # 6
    frequency:     6.6173218222
  - # 7
    frequency:     6.6173218222
  - # 8
    frequency:     6.7948415033
  - # 9
    frequency:     6.7948415033
  - # 10
    frequency:     9.6471648006
  - # 11
    frequency:     9.7082360221
  - # 12
    frequency:     9.7082360221

- q-position: [    0.1562500,    0.0104167,    0.0104167 ]
  weight: 24   
  band:
  - # 1
    frequency:     1.6362249330
  - # 2
    frequency:     1.6480731836
  - # 3
    frequency:     2.5784510682
  - # 4
    frequency:     6.4349471552
  - # 5
    frequency:     6.4390578848
  - # 6
    frequency:     6.6161806539
  - # 7
    frequency:     6.6161806539
  - # 8
    frequency:     6.8477349166
  - # 9
    frequency:     6.8477349166
  - # 10
    frequency:     9.5843587286
  - # 11
    frequency:     9.6666127732
  - # 12
    frequency:     9.6666127732

- q-position: [    0.1770833,    0.0104167,    0.0104167 ]
  weight: 24   
  band:
  - # 1
    frequency:     1.8507068641
  - # 2
    frequency:     1.8609151377
  - # 3
    frequency:     2.9046662132
  - # 4
    frequency:     6.3812166079
  - # 5
    frequency:     6.3851919575
  - # 6
    frequency:     6.6149462153
  - # 7
    frequency:     6.6149462153
  - # 8
    frequency:     6.9071501488
  - # 9
    frequency:     6.9071501488
  - # 10
    frequency:     9.5124690332
  - # 11
    frequency:     9.6194276091
  - # 12
    frequency:     9.6194276091

- q-position: [    0.1979167,    0.0104167,    0.0104167 ]
  weight: 24   
  band:
  - # 1
    frequency:     2.0627584897
  - # 2
    frequency:     2.0716129851
  - # 3
    frequency:     3.2272619831
  - # 4
    frequency:     6.3208766267
  - # 5
    frequency:     6.3247010354
  - # 6
    frequency:     6.6136358714
  - # 7
    frequency:     6.6136358714
  - # 8
    frequency:     6.9727156071
  - # 9
    frequency:     6.9727156071
  - # 10
    frequency:     9.4314583176
  - # 11
    frequency:     9.5668330827
  - # 12
    frequency:     9.5668330827

- q-position: [    0.2187500,    0.0104167,    0.0104167 ]
  weight: 24   
  band:
  - # 1
    frequency:     2.2721842682
  - # 2
    frequency:     2.2798956664
  - # 3
    frequency:     3.5456357450
  - # 4
    frequency:     6.2539664380
  - # 5
    frequency:     6.2576247491
  - # 6
    frequency:     6.6122698466
  - # 7
    frequency:     6.6122698466
  - # 8
    frequency:     7.0440299865
  - # 9
    frequency:     7.0440299865
  - # 10
    frequency:     9.3412888003
  - # 11
    frequency:     9.5090001203
  - # 12
    frequency:     9.5090001203

- q-position: [    0.2395833,    0.0104167,    0.0104167 ]
  weight: 24   
  band:
  - # 1
    frequency:     2.4787784834
  - # 2
    frequency:     2.4855057968
  - # 3
    frequency:     3.8592537697
  - # 4
    frequency:     6.1805304238
  - # 5
    frequency:     6.1840078897
  - # 6
    frequency:     6.6108701599
  - # 7
    frequency:     6.6108701599
  - # 8
    frequency:     7.1206678380
  - # 9
    frequency:     7.1206678380
  - # 10
    frequency:     9.2419236954
  - # 11
    frequency:     9.4461177954
  - # 12
    frequency:     9.4461177954

- q-position: [    0.2604167,    0.0104167,    0.0104167 ]
  weight: 24   
  band:
  - # 1
    frequency:     2.6823308096
  - # 2
    frequency:     2.6881966881
  - # 3
    frequency:     4.1676322578
  - # 4
    frequency:     6.1006183471
  - # 5
    frequency:     6.1039006216
  - # 6
    frequency:     6.6094598916
  - # 7
    frequency:     6.6094598916
  - # 8
    frequency:     7.2021846207
  - # 9
    frequency:     7.2021846207
  - # 10
    frequency:     9.1333286758
  - # 11
    frequency:     9.3783930871
  - # 12
    frequency:     9.3783930871

- q-position: [    0.2812500,    0.0104167,    0.0104167 ]
  weight: 24   
  band:
  - # 1
    frequency:     2.8826299952
  - # 2
    frequency:     2.8877308519
  - # 3
    frequency:     4.4703268353
  - # 4
    frequency:     6.0142855857
  - # 5
    frequency:     6.0173587056
  - # 6
    frequency:     6.6080626002
  - # 7
    frequency:     6.6080626002
  - # 8
    frequency:     7.2881213334
  - # 9
    frequency:     7.2881213334
  - # 10
    frequency:     9.0154734026
  - # 11
    frequency:     9.3060506251
  - # 12
    frequency:     9.3060506251

- q-position: [    0.3020833,    0.0104167,    0.0104167 ]
  weight: 24   
  band:
  - # 1
    frequency:     3.0794663528
  - # 2
    frequency:     3.0838792540
  - # 3
    frequency:     4.7669265630
  - # 4
    frequency:     5.9215933746
  - # 5
    frequency:     5.9244437270
  - # 6
    frequency:     6.6067018135
  - # 7
    frequency:     6.6067018135
  - # 8
    frequency:     7.3780087377
  - # 9
    frequency:     7.3780087377
  - # 10
    frequency:     8.8883330991
  - # 11
    frequency:     9.2293324246
  - # 12
    frequency:     9.2293324246

- q-position: [    0.3229167,    0.0104167,    0.0104167 ]
  weight: 24   
  band:
  - # 1
    frequency:     3.2726334890
  - # 2
    frequency:     3.2764209659
  - # 3
    frequency:     5.0570504421
  - # 4
    frequency:     5.8226090496
  - # 5
    frequency:     5.8252233263
  - # 6
    frequency:     6.6054005633
  - # 7
    frequency:     6.6054005633
  - # 8
    frequency:     7.4713711663
  - # 9
    frequency:     7.4713711663
  - # 10
    frequency:     8.7518901519
  - # 11
    frequency:     9.1484976120
  - # 12
    frequency:     9.1484976120

- q-position: [    0.3437500,    0.0104167,    0.0104167 ]
  weight: 24   
  band:
  - # 1
    frequency:     3.4619295411
  - # 2
    frequency:     3.4651430293
  - # 3
    frequency:     5.3403453352
  - # 4
    frequency:     5.7174062926
  - # 5
    frequency:     5.7197714296
  - # 6
    frequency:     6.6041809523
  - # 7
    frequency:     6.6041809523
  - # 8
    frequency:     7.5677299127
  - # 9
    frequency:     7.5677299127
  - # 10
    frequency:     8.6061357199
  - # 11
    frequency:     9.0638221451
  - # 12
    frequency:     9.0638221451

- q-position: [    0.3645833,    0.0104167,    0.0104167 ]
  weight: 24   
  band:
  - # 1
    frequency:     3.6471580823
  - # 2
    frequency:     3.6498404337
  - # 3
    frequency:     5.6060653723
  - # 4
    frequency:     5.6081684736
  - # 5
    frequency:     5.6164846932
  - # 6
    frequency:     6.6030637487
  - # 7
    frequency:     6.6030637487
  - # 8
    frequency:     7.6666062051
  - # 9
    frequency:     7.6666062051
  - # 10
    frequency:     8.4510713320
  - # 11
    frequency:     8.9755985321
  - # 12
    frequency:     8.9755985321

- q-position: [    0.3854167,    0.0104167,    0.0104167 ]
  weight: 24   
  band:
  - # 1
    frequency:     3.8281287956
  - # 2
    frequency:     3.8303161502
  - # 3
    frequency:     5.4886733786
  - # 4
    frequency:     5.4905016234
  - # 5
    frequency:     5.8851677345
  - # 6
    frequency:     6.6020680128
  - # 7
    frequency:     6.6020680128
  - # 8
    frequency:     7.7675237707
  - # 9
    frequency:     7.7675237707
  - # 10
    frequency:     8.2867104562
  - # 11
    frequency:     8.8841355582
  - # 12
    frequency:     8.8841355582

- q-position: [    0.4062500,    0.0104167,    0.0104167 ]
  weight: 24   
  band:
  - # 1
    frequency:     4.0046579819
  - # 2
    frequency:     4.0063811866
  - # 3
    frequency:     5.3653244471
  - # 4
    frequency:     5.3668649775
  - # 5
    frequency:     6.1461188613
  - # 6
    frequency:     6.6012107569
  - # 7
    frequency:     6.6012107569
  - # 8
    frequency:     7.8700109887
  - # 9
    frequency:     7.8700109887
  - # 10
    frequency:     8.1130800232
  - # 11
    frequency:     8.7897580468
  - # 12
    frequency:     8.7897580468

- q-position: [    0.4270833,    0.0104167,    0.0104167 ]
  weight: 24   
  band:
  - # 1
    frequency:     4.1765689408
  - # 2
    frequency:     4.1778546442
  - # 3
    frequency:     5.2361199699
  - # 4
    frequency:     5.2373597585
  - # 5
    frequency:     6.3990871809
  - # 6
    frequency:     6.6005066431
  - # 7
    frequency:     6.6005066431
  - # 8
    frequency:     7.9302218888
  - # 9
    frequency:     7.9736025664
  - # 10
    frequency:     7.9736025664
  - # 11
    frequency:     8.6928067489
  - # 12
    frequency:     8.6928067489

- q-position: [    0.4479167,    0.0104167,    0.0104167 ]
  weight: 24   
  band:
  - # 1
    frequency:     4.3436922544
  - # 2
    frequency:     4.3445637640
  - # 3
    frequency:     5.1011687906
  - # 4
    frequency:     5.1020944836
  - # 5
    frequency:     6.5999677243
  - # 6
    frequency:     6.5999677243
  - # 7
    frequency:     6.6438460460
  - # 8
    frequency:     7.7381942217
  - # 9
    frequency:     8.0778403683
  - # 10
    frequency:     8.0778403683
  - # 11
    frequency:     8.5936387608
  - # 12
    frequency:     8.5936387608

- q-position: [    0.4687500,    0.0104167,    0.0104167 ]
  weight: 24   
  band:
  - # 1
    frequency:     4.5058659893
  - # 2
    frequency:     4.5063439531
  - # 3
    frequency:     4.9605873800
  - # 4
    frequency:     4.9611851127
  - # 5
    frequency:     6.5996032310
  - # 6
    frequency:     6.5996032310
  - # 7
    frequency:     6.8801925602
  - # 8
    frequency:     7.5370728036
  - # 9
    frequency:     8.1822708560
  - # 10
    frequency:     8.1822708560
  - # 11
    frequency:     8.4926310414
  - # 12
    frequency:     8.4926310414

- q-position: [    0.4895833,    0.0104167,    0.0104167 ]
  weight: 24   
  band:
  - # 1
    frequency:     4.6629358325
  - # 2
    frequency:     4.6630387879
  - # 3
    frequency:     4.8144999909
  - # 4
    frequency:     4.8147551697
  - # 5
    frequency:     6.5994194091
  - # 6
    frequency:     6.5994194091
  - # 7
    frequency:     7.1079470146
  - # 8
    frequency:     7.3269522315
  - # 9
    frequency:     8.2863954423
  - # 10
    frequency:     8.2863954423
  - # 11
    frequency:     8.3902307513
  - # 12
    frequency:     8.3902307513

- q-position: [    0.0312500,    0.0312500,    0.0104167 ]
  weight: 24   
  band:
  - # 1
    frequency:     0.3420724875
  - # 2
    frequency:     0.4625749262
  - # 3
    frequency:     0.8370893092
  - # 4
    frequency:     6.6131469952
  - # 5
    frequency:     6.6151041264
  - # 6
    frequency:     6.6151041264
  - # 7
    frequency:     6.6311000670
  - # 8
    frequency:     6.6311000670
  - # 9
    frequency:     6.6543286728
  - # 10
    frequency:     9.8200413120
  - # 11
    frequency:     9.8200413120
  - # 12
    frequency:     9.8227966307

- q-position: [    0.0520833,    0.0312500,    0.0104167 ]
  weight: 48   
  band:
  - # 1
    frequency:     0.4978583733
  - # 2
    frequency:     0.6399983414
  - # 3
    frequency:     1.1131761515
  - # 4
    frequency:     6.6015434894
  - # 5
    frequency:     6.6062618078
  - # 6
    frequency:     6.6140436133
  - # 7
    frequency:     6.6175097843
  - # 8
    frequency:     6.6476209669
  - # 9
    frequency:     6.6765464246
  - # 10
    frequency:     9.8023276788
  - # 11
    frequency:     9.8079988904
  - # 12
    frequency:     9.8106195687

- q-position: [    0.0729167,    0.0312500,    0.0104167 ]
  weight: 48   
  band:
  - # 1
    frequency:     0.7053367468
  - # 2
    frequency:     0.8380970501
  - # 3
    frequency:     1.4100302590
  - # 4
    frequency:     6.5812115092
  - # 5
    frequency:     6.5971362769
  - # 6
    frequency:     6.6011077839
  - # 7
    frequency:     6.6131017715
  - # 8
    frequency:     6.6716219519
  - # 9
    frequency:     6.7045723572
  - # 10
    frequency:     9.7757409175
  - # 11
    frequency:     9.7899836283
  - # 12
    frequency:     9.7924022797

- q-position: [    0.0937500,    0.0312500,    0.0104167 ]
  weight: 48   
  band:
  - # 1
    frequency:     0.9261612803
  - # 2
    frequency:     1.0443759365
  - # 3
    frequency:     1.7177288735
  - # 4
    frequency:     6.5541190333
  - # 5
    frequency:     6.5699939072
  - # 6
    frequency:     6.5972009012
  - # 7
    frequency:     6.6120738765
  - # 8
    frequency:     6.7031526530
  - # 9
    frequency:     6.7387405981
  - # 10
    frequency:     9.7402619863
  - # 11
    frequency:     9.7660534823
  - # 12
    frequency:     9.7682026465

- q-position: [    0.1145833,    0.0312500,    0.0104167 ]
  weight: 48   
  band:
  - # 1
    frequency:     1.1495631637
  - # 2
    frequency:     1.2540407585
  - # 3
    frequency:     2.0313080102
  - # 4
    frequency:     6.5202806554
  - # 5
    frequency:     6.5361019259
  - # 6
    frequency:     6.5941546072
  - # 7
    frequency:     6.6108994965
  - # 8
    frequency:     6.7420709591
  - # 9
    frequency:     6.7792417681
  - # 10
    frequency:     9.6958663738
  - # 11
    frequency:     9.7362855828
  - # 12
    frequency:     9.7380977121

- q-position: [    0.1354167,    0.0312500,    0.0104167 ]
  weight: 48   
  band:
  - # 1
    frequency:     1.3721887424
  - # 2
    frequency:     1.4648419123
  - # 3
    frequency:     2.3476952813
  - # 4
    frequency:     6.4797148309
  - # 5
    frequency:     6.4954845499
  - # 6
    frequency:     6.5916955146
  - # 7
    frequency:     6.6095655581
  - # 8
    frequency:     6.7881433329
  - # 9
    frequency:     6.8261104196
  - # 10
    frequency:     9.6425248359
  - # 11
    frequency:     9.7007761126
  - # 12
    frequency:     9.7021835656

- q-position: [    0.1562500,    0.0312500,    0.0104167 ]
  weight: 48   
  band:
  - # 1
    frequency:     1.5928284849
  - # 2
    frequency:     1.6755273795
  - # 3
    frequency:     2.6647825336
  - # 4
    frequency:     6.4324440270
  - # 5
    frequency:     6.4481710510
  - # 6
    frequency:     6.5896398696
  - # 7
    frequency:     6.6080773779
  - # 8
    frequency:     6.8410777072
  - # 9
    frequency:     6.8792522156
  - # 10
    frequency:     9.5802042976
  - # 11
    frequency:     9.6596401564
  - # 12
    frequency:     9.6605752047

- q-position: [    0.1770833,    0.0312500,    0.0104167 ]
  weight: 48   
  band:
  - # 1
    frequency:     1.8109660065
  - # 2
    frequency:     1.8852948056
  - # 3
    frequency:     2.9810257225
  - # 4
    frequency:     6.3784949087
  - # 5
    frequency:     6.3941958490
  - # 6
    frequency:     6.5878682390
  - # 7
    frequency:     6.6064489115
  - # 8
    frequency:     6.9005375477
  - # 9
    frequency:     6.9384732572
  - # 10
    frequency:     9.5088689067
  - # 11
    frequency:     9.6130115261
  - # 12
    frequency:     9.6134063736

- q-position: [    0.1979167,    0.0312500,    0.0104167 ]
  weight: 48   
  band:
  - # 1
    frequency:     2.0263219478
  - # 2
    frequency:     2.0935683720
  - # 3
    frequency:     3.2952354521
  - # 4
    frequency:     6.3178985652
  - # 5
    frequency:     6.3335986017
  - # 6
    frequency:     6.5863055078
  - # 7
    frequency:     6.6046989122
  - # 8
    frequency:     6.9661502272
  - # 9
    frequency:     7.0035043194
  - # 10
    frequency:     9.4284812261
  - # 11
    frequency:     9.5608293803
  - # 12
    frequency:     9.5610425615

- q-position: [    0.2187500,    0.0312500,    0.0104167 ]
  weight: 48   
  band:
  - # 1
    frequency:     2.2386972491
  - # 2
    frequency:     2.2998973380
  - # 3
    frequency:     3.6064564412
  - # 4
    frequency:     6.2506907767
  - # 5
    frequency:     6.2664242886
  - # 6
    frequency:     6.5849065873
  - # 7
    frequency:     6.6028491226
  - # 8
    frequency:     7.0375134322
  - # 9
    frequency:     7.0740194525
  - # 10
    frequency:     9.3390035489
  - # 11
    frequency:     9.5030148956
  - # 12
    frequency:     9.5039039102

- q-position: [    0.2395833,    0.0312500,    0.0104167 ]
  weight: 48   
  band:
  - # 1
    frequency:     2.4479170503
  - # 2
    frequency:     2.5039057304
  - # 3
    frequency:     3.9138946424
  - # 4
    frequency:     6.1769123207
  - # 5
    frequency:     6.1927232827
  - # 6
    frequency:     6.5836466049
  - # 7
    frequency:     6.6009232397
  - # 8
    frequency:     7.1142007232
  - # 9
    frequency:     7.1496500515
  - # 10
    frequency:     9.2403993190
  - # 11
    frequency:     9.4401517364
  - # 12
    frequency:     9.4417842888

- q-position: [    0.2604167,    0.0312500,    0.0104167 ]
  weight: 48   
  band:
  - # 1
    frequency:     2.6538109425
  - # 2
    frequency:     2.7052656253
  - # 3
    frequency:     4.2168717756
  - # 4
    frequency:     6.0966093132
  - # 5
    frequency:     6.1125514120
  - # 6
    frequency:     6.5825142451
  - # 7
    frequency:     6.5989462018
  - # 8
    frequency:     7.1957665849
  - # 9
    frequency:     7.2299956155
  - # 10
    frequency:     9.1326346392
  - # 11
    frequency:     9.3724466373
  - # 12
    frequency:     9.3748902295

- q-position: [    0.2812500,    0.0312500,    0.0104167 ]
  weight: 48   
  band:
  - # 1
    frequency:     2.8562068740
  - # 2
    frequency:     2.9036821580
  - # 3
    frequency:     4.5147962826
  - # 4
    frequency:     6.0098335715
  - # 5
    frequency:     6.0259700169
  - # 6
    frequency:     6.5815072022
  - # 7
    frequency:     6.5969436181
  - # 8
    frequency:     7.2817510545
  - # 9
    frequency:     7.3146321512
  - # 10
    frequency:     9.0156798494
  - # 11
    frequency:     9.3001240151
  - # 12
    frequency:     9.3034458154

- q-position: [    0.3020833,    0.0312500,    0.0104167 ]
  weight: 48   
  band:
  - # 1
    frequency:     3.0549301978
  - # 2
    frequency:     3.0988847350
  - # 3
    frequency:     4.8071443874
  - # 4
    frequency:     5.9166429841
  - # 5
    frequency:     5.9330460131
  - # 6
    frequency:     6.5806290248
  - # 7
    frequency:     6.5949412705
  - # 8
    frequency:     7.3716839319
  - # 9
    frequency:     7.4031188763
  - # 10
    frequency:     8.8895111543
  - # 11
    frequency:     9.2234257319
  - # 12
    frequency:     9.2276924110

- q-position: [    0.3229167,    0.0312500,    0.0104167 ]
  weight: 48   
  band:
  - # 1
    frequency:     3.2498045497
  - # 2
    frequency:     3.2906216930
  - # 3
    frequency:     5.0934475105
  - # 4
    frequency:     5.8171018641
  - # 5
    frequency:     5.8338519766
  - # 6
    frequency:     6.5798868740
  - # 7
    frequency:     6.5929646565
  - # 8
    frequency:     7.4650885593
  - # 9
    frequency:     7.4950036555
  - # 10
    frequency:     8.7541122851
  - # 11
    frequency:     9.1426108685
  - # 12
    frequency:     9.1478883961

- q-position: [    0.3437500,    0.0312500,    0.0104167 ]
  weight: 48   
  band:
  - # 1
    frequency:     3.4406532509
  - # 2
    frequency:     3.4786569560
  - # 3
    frequency:     5.3732837460
  - # 4
    frequency:     5.7112812653
  - # 5
    frequency:     5.7284662648
  - # 6
    frequency:     6.5792898892
  - # 7
    frequency:     6.5910385629
  - # 8
    frequency:     7.5614851493
  - # 9
    frequency:     7.5898274420
  - # 10
    frequency:     8.6094761743
  - # 11
    frequency:     9.0579555252
  - # 12
    frequency:     9.0643089210

- q-position: [    0.3645833,    0.0312500,    0.0104167 ]
  weight: 48   
  band:
  - # 1
    frequency:     3.6273007331
  - # 2
    frequency:     3.6627678894
  - # 3
    frequency:     5.5992592414
  - # 4
    frequency:     5.6169731884
  - # 5
    frequency:     5.6462719704
  - # 6
    frequency:     6.5788479645
  - # 7
    frequency:     6.5891866670
  - # 8
    frequency:     7.6603936330
  - # 9
    frequency:     7.6871278796
  - # 10
    frequency:     8.4556066287
  - # 11
    frequency:     8.9697526928
  - # 12
    frequency:     8.9772457172

- q-position: [    0.3854167,    0.0312500,    0.0104167 ]
  weight: 48   
  band:
  - # 1
    frequency:     3.8095738099
  - # 2
    frequency:     3.8427438887
  - # 3
    frequency:     5.4811210358
  - # 4
    frequency:     5.4994632377
  - # 5
    frequency:     5.9120676721
  - # 6
    frequency:     6.5785708115
  - # 7
    frequency:     6.5874311689
  - # 8
    frequency:     7.7613359580
  - # 9
    frequency:     7.7864421054
  - # 10
    frequency:     8.2925199843
  - # 11
    frequency:     8.8783122944
  - # 12
    frequency:     8.8870070517

- q-position: [    0.4062500,    0.0312500,    0.0104167 ]
  weight: 48   
  band:
  - # 1
    frequency:     3.9873027472
  - # 2
    frequency:     4.0183854288
  - # 3
    frequency:     5.3569591979
  - # 4
    frequency:     5.3760333607
  - # 5
    frequency:     6.1703599096
  - # 6
    frequency:     6.5784672294
  - # 7
    frequency:     6.5857924560
  - # 8
    frequency:     7.8638376217
  - # 9
    frequency:     7.8873085693
  - # 10
    frequency:     8.1202467283
  - # 11
    frequency:     8.7839616827
  - # 12
    frequency:     8.7939180624

- q-position: [    0.4270833,    0.0312500,    0.0104167 ]
  weight: 48   
  band:
  - # 1
    frequency:     4.1603221404
  - # 2
    frequency:     4.1895034021
  - # 3
    frequency:     5.2268736323
  - # 4
    frequency:     5.2467872810
  - # 5
    frequency:     6.4208690060
  - # 6
    frequency:     6.5785445313
  - # 7
    frequency:     6.5842888071
  - # 8
    frequency:     7.9388330783
  - # 9
    frequency:     7.9674276915
  - # 10
    frequency:     7.9892669961
  - # 11
    frequency:     8.6870475470
  - # 12
    frequency:     8.6983222502

- q-position: [    0.4479167,    0.0312500,    0.0104167 ]
  weight: 48   
  band:
  - # 1
    frequency:     4.3284716198
  - # 2
    frequency:     4.3559186382
  - # 3
    frequency:     5.0909715891
  - # 4
    frequency:     5.1118358396
  - # 5
    frequency:     6.5788080942
  - # 6
    frequency:     6.5829361396
  - # 7
    frequency:     6.6633447182
  - # 8
    frequency:     7.7483425065
  - # 9
    frequency:     8.0716341524
  - # 10
    frequency:     8.0918524384
  - # 11
    frequency:     8.5879433440
  - # 12
    frequency:     8.6005873194

- q-position: [    0.4687500,    0.0312500,    0.0104167 ]
  weight: 48   
  band:
  - # 1
    frequency:     4.4915964131
  - # 2
    frequency:     4.5174615334
  - # 3
    frequency:     4.9493676059
  - # 4
    frequency:     4.9712973422
  - # 5
    frequency:     6.5792610132
  - # 6
    frequency:     6.5817478040
  - # 7
    frequency:     6.8975647005
  - # 8
    frequency:     7.5488572051
  - # 9
    frequency:     8.1759552956
  - # 10
    frequency:     8.1945562737
  - # 11
    frequency:     8.4870894489
  - # 12
    frequency:     8.5011346789

- q-position: [    0.4895833,    0.0312500,    0.0104167 ]
  weight: 48   
  band:
  - # 1
    frequency:     4.6495477897
  - # 2
    frequency:     4.6739717420
  - # 3
    frequency:     4.8021834109
  - # 4
    frequency:     4.8252978981
  - # 5
    frequency:     6.5799038452
  - # 6
    frequency:     6.5807344329
  - # 7
    frequency:     7.1233331418
  - # 8
    frequency:     7.3404794897
  - # 9
    frequency:     8.2795262017
  - # 10
    frequency:     8.2962259195
  - # 11
    frequency:     8.3855942922
  - # 12
    frequency:     8.4007735775

- q-position: [    0.0520833,    0.0520833,    0.0104167 ]
  weight: 24   
  band:
  - # 1
    frequency:     0.5494524374
  - # 2
    frequency:     0.7779518931
  - # 3
    frequency:     1.3601111515
  - # 4
    frequency:     6.5921163208
  - # 5
    frequency:     6.6003120315
  - # 6
    frequency:     6.6003120315
  - # 7
    frequency:     6.6340273328
  - # 8
    frequency:     6.6340273328
  - # 9
    frequency:     6.7055974854
  - # 10
    frequency:     9.7905639722
  - # 11
    frequency:     9.7905639722
  - # 12
    frequency:     9.7984520201

- q-position: [    0.0729167,    0.0520833,    0.0104167 ]
  weight: 48   
  band:
  - # 1
    frequency:     0.6922360324
  - # 2
    frequency:     0.9476924751
  - # 3
    frequency:     1.6323028585
  - # 4
    frequency:     6.5797224633
  - # 5
    frequency:     6.5800800704
  - # 6
    frequency:     6.5990830078
  - # 7
    frequency:     6.6136514354
  - # 8
    frequency:     6.6580540914
  - # 9
    frequency:     6.7398738858
  - # 10
    frequency:     9.7643949103
  - # 11
    frequency:     9.7729666262
  - # 12
    frequency:     9.7802488161

- q-position: [    0.0937500,    0.0520833,    0.0104167 ]
  weight: 48   
  band:
  - # 1
    frequency:     0.8819883546
  - # 2
    frequency:     1.1342830612
  - # 3
    frequency:     1.9181443729
  - # 4
    frequency:     6.5522845189
  - # 5
    frequency:     6.5700799584
  - # 6
    frequency:     6.5865106049
  - # 7
    frequency:     6.5976607322
  - # 8
    frequency:     6.6896307364
  - # 9
    frequency:     6.7793089547
  - # 10
    frequency:     9.7294722430
  - # 11
    frequency:     9.7495933984
  - # 12
    frequency:     9.7560676214

- q-position: [    0.1145833,    0.0520833,    0.0104167 ]
  weight: 48   
  band:
  - # 1
    frequency:     1.0915579775
  - # 2
    frequency:     1.3299269316
  - # 3
    frequency:     2.2121799137
  - # 4
    frequency:     6.5180114120
  - # 5
    frequency:     6.5526277308
  - # 6
    frequency:     6.5618498321
  - # 7
    frequency:     6.5959900320
  - # 8
    frequency:     6.7286100732
  - # 9
    frequency:     6.8239858604
  - # 10
    frequency:     9.6857709463
  - # 11
    frequency:     9.7205211349
  - # 12
    frequency:     9.7259851930

- q-position: [    0.1354167,    0.0520833,    0.0104167 ]
  weight: 48   
  band:
  - # 1
    frequency:     1.3088273718
  - # 2