# Thermal properties / unit cell (natom)

unit:
  temperature:   K
  free_energy:   kJ/mol
  entropy:       J/K/mol
  heat_capacity: J/K/mol

natom:     4
num_modes: 1327104
num_integrated_modes: 1327104

zero_point_energy:      15.6139573
high_T_entropy:        365.9872768

thermal_properties:
- temperature:         0.0000000
  free_energy:        15.6139573
  entropy:             0.0000000
  heat_capacity:       0.0000000
  energy:             15.6139573

- temperature:        10.0000000
  free_energy:        15.6138982
  entropy:             0.0239294
  heat_capacity:       0.0731969
  energy:             15.6141375

- temperature:        20.0000000
  free_energy:        15.6129481
  entropy:             0.2110285
  heat_capacity:       0.6923559
  energy:             15.6171686

- temperature:        30.0000000
  free_energy:        15.6082422
  entropy:             0.8319119
  heat_capacity:       2.8648181
  energy:             15.6331995

- temperature:        40.0000000
  free_energy:        15.5937677
  entropy:             2.2077324
  heat_capacity:       7.2765188
  energy:             15.6820770

- temperature:        50.0000000
  free_energy:        15.5610891
  entropy:             4.4760155
  heat_capacity:      13.5239040
  energy:             15.7848899

- temperature:        60.0000000
  free_energy:        15.5014744
  entropy:             7.5731749
  heat_capacity:      20.7692305
  energy:             15.9558649

- temperature:        70.0000000
  free_energy:        15.4073955
  entropy:            11.3388943
  heat_capacity:      28.2761482
  energy:             16.2011181

- temperature:        80.0000000
  free_energy:        15.2730679
  entropy:            15.5938715
  heat_capacity:      35.5473317
  energy:             16.5205777

- temperature:        90.0000000
  free_energy:        15.0944290
  entropy:            20.1766256
  heat_capacity:      42.3018215
  energy:             16.9103253

- temperature:       100.0000000
  free_energy:        14.8688842
  entropy:            24.9557786
  heat_capacity:      48.4139024
  energy:             17.3644621

- temperature:       110.0000000
  free_energy:        14.5949975
  entropy:            29.8305923
  heat_capacity:      53.8555522
  energy:             17.8763627

- temperature:       120.0000000
  free_energy:        14.2722033
  entropy:            34.7268511
  heat_capacity:      58.6537306
  energy:             18.4394254

- temperature:       130.0000000
  free_energy:        13.9005674
  entropy:            39.5915665
  heat_capacity:      62.8623565
  energy:             19.0474711

- temperature:       140.0000000
  free_energy:        13.4806009
  entropy:            44.3879988
  heat_capacity:      66.5454420
  energy:             19.6949207

- temperature:       150.0000000
  free_energy:        13.0131182
  entropy:            49.0915076
  heat_capacity:      69.7676975
  energy:             20.3768443

- temperature:       160.0000000
  free_energy:        12.4991338
  entropy:            53.6862974
  heat_capacity:      72.5897662
  energy:             21.0889414

- temperature:       170.0000000
  free_energy:        11.9397865
  entropy:            58.1629508
  heat_capacity:      75.0661649
  energy:             21.8274882

- temperature:       180.0000000
  free_energy:        11.3362852
  entropy:            62.5165969
  heat_capacity:      77.2447207
  energy:             22.5892726

- temperature:       190.0000000
  free_energy:        10.6898704
  entropy:            66.7455676
  heat_capacity:      79.1667817
  energy:             23.3715282

- temperature:       200.0000000
  free_energy:        10.0017877
  entropy:            70.8504213
  heat_capacity:      80.8677865
  energy:             24.1718720

- temperature:       210.0000000
  free_energy:         9.2732689
  entropy:            74.8332357
  heat_capacity:      82.3779623
  energy:             24.9882484

- temperature:       220.0000000
  free_energy:         8.5055196
  entropy:            78.6970987
  heat_capacity:      83.7230336
  energy:             25.8188813

- temperature:       230.0000000
  free_energy:         7.6997110
  entropy:            82.4457434
  heat_capacity:      84.9248805
  energy:             26.6622320

- temperature:       240.0000000
  free_energy:         6.8569751
  entropy:            86.0832867
  heat_capacity:      86.0021263
  energy:             27.5169639

- temperature:       250.0000000
  free_energy:         5.9784012
  entropy:            89.6140445
  heat_capacity:      86.9706452
  energy:             28.3819124

- temperature:       260.0000000
  free_energy:         5.0650355
  entropy:            93.0424010
  heat_capacity:      87.8439959
  energy:             29.2560598

- temperature:       270.0000000
  free_energy:         4.1178800
  entropy:            96.3727182
  heat_capacity:      88.6337876
  energy:             30.1385139

- temperature:       280.0000000
  free_energy:         3.1378937
  entropy:            99.6092739
  heat_capacity:      89.3499870
  energy:             31.0284904

- temperature:       290.0000000
  free_energy:         2.1259932
  entropy:           102.7562203
  heat_capacity:      90.0011747
  energy:             31.9252971

- temperature:       300.0000000
  free_energy:         1.0830546
  entropy:           105.8175578
  heat_capacity:      90.5947599
  energy:             32.8283220

- temperature:       310.0000000
  free_energy:         0.0099146
  entropy:           108.7971198
  heat_capacity:      91.1371589
  energy:             33.7370218

- temperature:       320.0000000
  free_energy:        -1.0926274
  entropy:           111.6985643
  heat_capacity:      91.6339454
  energy:             34.6509132

- temperature:       330.0000000
  free_energy:        -2.2238079
  entropy:           114.5253720
  heat_capacity:      92.0899749
  energy:             35.5695649

- temperature:       340.0000000
  free_energy:        -3.3828971
  entropy:           117.2808474
  heat_capacity:      92.5094895
  energy:             36.4925910

- temperature:       350.0000000
  free_energy:        -4.5691975
  entropy:           119.9681226
  heat_capacity:      92.8962066
  energy:             37.4196454

- temperature:       360.0000000
  free_energy:        -5.7820421
  entropy:           122.5901635
  heat_capacity:      93.2533922
  energy:             38.3504167

- temperature:       370.0000000
  free_energy:        -7.0207927
  entropy:           125.1497761
  heat_capacity:      93.5839242
  energy:             39.2846244

- temperature:       380.0000000
  free_energy:        -8.2848384
  entropy:           127.6496140
  heat_capacity:      93.8903447
  energy:             40.2220149

- temperature:       390.0000000
  free_energy:        -9.5735941
  entropy:           130.0921862
  heat_capacity:      94.1749052
  energy:             41.1623585

- temperature:       400.0000000
  free_energy:       -10.8864992
  entropy:           132.4798650
  heat_capacity:      94.4396049
  energy:             42.1054468

- temperature:       410.0000000
  free_energy:       -12.2230159
  entropy:           134.8148933
  heat_capacity:      94.6862232
  energy:             43.0510903

- temperature:       420.0000000
  free_energy:       -13.5826286
  entropy:           137.0993927
  heat_capacity:      94.9163475
  energy:             43.9991163

- temperature:       430.0000000
  free_energy:       -14.9648421
  entropy:           139.3353700
  heat_capacity:      95.1313972
  energy:             44.9493670

- temperature:       440.0000000
  free_energy:       -16.3691806
  entropy:           141.5247248
  heat_capacity:      95.3326445
  energy:             45.9016983

- temperature:       450.0000000
  free_energy:       -17.7951872
  entropy:           143.6692554
  heat_capacity:      95.5212316
  energy:             46.8559778

- temperature:       460.0000000
  free_energy:       -19.2424220
  entropy:           145.7706655
  heat_capacity:      95.6981866
  energy:             47.8120841

- temperature:       470.0000000
  free_energy:       -20.7104621
  entropy:           147.8305701
  heat_capacity:      95.8644363
  energy:             48.7699058

- temperature:       480.0000000
  free_energy:       -22.1989002
  entropy:           149.8505003
  heat_capacity:      96.0208183
  energy:             49.7293400

- temperature:       490.0000000
  free_energy:       -23.7073437
  entropy:           151.8319093
  heat_capacity:      96.1680906
  energy:             50.6902918

- temperature:       500.0000000
  free_energy:       -25.2354146
  entropy:           153.7761766
  heat_capacity:      96.3069404
  energy:             51.6526737

- temperature:       510.0000000
  free_energy:       -26.7827478
  entropy:           155.6846127
  heat_capacity:      96.4379920
  energy:             52.6164046

- temperature:       520.0000000
  free_energy:       -28.3489915
  entropy:           157.5584635
  heat_capacity:      96.5618136
  energy:             53.5814095

- temperature:       530.0000000
  free_energy:       -29.9338058
  entropy:           159.3989138
  heat_capacity:      96.6789228
  energy:             54.5476185

- temperature:       540.0000000
  free_energy:       -31.5368622
  entropy:           161.2070914
  heat_capacity:      96.7897924
  energy:             55.5149671

- temperature:       550.0000000
  free_energy:       -33.1578436
  entropy:           162.9840703
  heat_capacity:      96.8948542
  energy:             56.4833950

- temperature:       560.0000000
  free_energy:       -34.7964431
  entropy:           164.7308736
  heat_capacity:      96.9945039
  energy:             57.4528462

- temperature:       570.0000000
  free_energy:       -36.4523638
  entropy:           166.4484773
  heat_capacity:      97.0891044
  energy:             58.4232683

- temperature:       580.0000000
  free_energy:       -38.1253184
  entropy:           168.1378120
  heat_capacity:      97.1789885
  energy:             59.3946125

- temperature:       590.0000000
  free_energy:       -39.8150287
  entropy:           169.7997663
  heat_capacity:      97.2644626
  energy:             60.3668334

- temperature:       600.0000000
  free_energy:       -41.5212253
  entropy:           171.4351889
  heat_capacity:      97.3458087
  energy:             61.3398880

- temperature:       610.0000000
  free_energy:       -43.2436468
  entropy:           173.0448909
  heat_capacity:      97.4232866
  energy:             62.3137366

- temperature:       620.0000000
  free_energy:       -44.9820399
  entropy:           174.6296478
  heat_capacity:      97.4971362
  energy:             63.2883417

- temperature:       630.0000000
  free_energy:       -46.7361591
  entropy:           176.1902017
  heat_capacity:      97.5675794
  energy:             64.2636680

- temperature:       640.0000000
  free_energy:       -48.5057657
  entropy:           177.7272629
  heat_capacity:      97.6348212
  energy:             65.2396826

- temperature:       650.0000000
  free_energy:       -50.2906283
  entropy:           179.2415118
  heat_capacity:      97.6990516
  energy:             66.2163544

- temperature:       660.0000000
  free_energy:       -52.0905220
  entropy:           180.7336003
  heat_capacity:      97.7604468
  energy:             67.1936542

- temperature:       670.0000000
  free_energy:       -53.9052285
  entropy:           182.2041536
  heat_capacity:      97.8191704
  energy:             68.1715544

- temperature:       680.0000000
  free_energy:       -55.7345353
  entropy:           183.6537714
  heat_capacity:      97.8753744
  energy:             69.1500292

- temperature:       690.0000000
  free_energy:       -57.5782361
  entropy:           185.0830291
  heat_capacity:      97.9292003
  energy:             70.1290540

- temperature:       700.0000000
  free_energy:       -59.4361299
  entropy:           186.4924794
  heat_capacity:      97.9807795
  energy:             71.1086057

- temperature:       710.0000000
  free_energy:       -61.3080214
  entropy:           187.8826534
  heat_capacity:      98.0302350
  energy:             72.0886625

- temperature:       720.0000000
  free_energy:       -63.1937204
  entropy:           189.2540613
  heat_capacity:      98.0776811
  energy:             73.0692037

- temperature:       730.0000000
  free_energy:       -65.0930417
  entropy:           190.6071938
  heat_capacity:      98.1232248
  energy:             74.0502098

- temperature:       740.0000000
  free_energy:       -67.0058050
  entropy:           191.9425232
  heat_capacity:      98.1669660
  energy:             75.0316622

- temperature:       750.0000000
  free_energy:       -68.9318344
  entropy:           193.2605037
  heat_capacity:      98.2089982
  energy:             76.0135434

- temperature:       760.0000000
  free_energy:       -70.8709587
  entropy:           194.5615729
  heat_capacity:      98.2494089
  energy:             76.9958368

- temperature:       770.0000000
  free_energy:       -72.8230109
  entropy:           195.8461523
  heat_capacity:      98.2882802
  energy:             77.9785265

- temperature:       780.0000000
  free_energy:       -74.7878281
  entropy:           197.1146482
  heat_capacity:      98.3256888
  energy:             78.9615975

- temperature:       790.0000000
  free_energy:       -76.7652515
  entropy:           198.3674520
  heat_capacity:      98.3617072
  energy:             79.9450356

- temperature:       800.0000000
  free_energy:       -78.7551261
  entropy:           199.6049416
  heat_capacity:      98.3964029
  energy:             80.9288272

- temperature:       810.0000000
  free_energy:       -80.7573005
  entropy:           200.8274814
  heat_capacity:      98.4298399
  energy:             81.9129595

- temperature:       820.0000000
  free_energy:       -82.7716271
  entropy:           202.0354233
  heat_capacity:      98.4620780
  energy:             82.8974200

- temperature:       830.0000000
  free_energy:       -84.7979614
  entropy:           203.2291068
  heat_capacity:      98.4931736
  energy:             83.8821972

- temperature:       840.0000000
  free_energy:       -86.8361628
  entropy:           204.4088603
  heat_capacity:      98.5231800
  energy:             84.8672799

- temperature:       850.0000000
  free_energy:       -88.8860933
  entropy:           205.5750007
  heat_capacity:      98.5521472
  energy:             85.8526573

- temperature:       860.0000000
  free_energy:       -90.9476184
  entropy:           206.7278348
  heat_capacity:      98.5801226
  energy:             86.8383195

- temperature:       870.0000000
  free_energy:       -93.0206066
  entropy:           207.8676589
  heat_capacity:      98.6071508
  energy:             87.8242566

- temperature:       880.0000000
  free_energy:       -95.1049292
  entropy:           208.9947599
  heat_capacity:      98.6332739
  energy:             88.8104595

- temperature:       890.0000000
  free_energy:       -97.2004603
  entropy:           210.1094152
  heat_capacity:      98.6585318
  energy:             89.7969192

- temperature:       900.0000000
  free_energy:       -99.3070769
  entropy:           211.2118937
  heat_capacity:      98.6829622
  energy:             90.7836274

- temperature:       910.0000000
  free_energy:      -101.4246585
  entropy:           212.3024553
  heat_capacity:      98.7066006
  energy:             91.7705758

- temperature:       920.0000000
  free_energy:      -103.5530871
  entropy:           213.3813522
  heat_capacity:      98.7294810
  energy:             92.7577569

- temperature:       930.0000000
  free_energy:      -105.6922475
  entropy:           214.4488285
  heat_capacity:      98.7516352
  energy:             93.7451630

- temperature:       940.0000000
  free_energy:      -107.8420264
  entropy:           215.5051209
  heat_capacity:      98.7730936
  energy:             94.7327873

- temperature:       950.0000000
  free_energy:      -110.0023134
  entropy:           216.5504590
  heat_capacity:      98.7938849
  energy:             95.7206227

- temperature:       960.0000000
  free_energy:      -112.1729998
  entropy:           217.5850653
  heat_capacity:      98.8140365
  energy:             96.7086628

- temperature:       970.0000000
  free_energy:      -114.3539796
  entropy:           218.6091557
  heat_capacity:      98.8335743
  energy:             97.6969014

- temperature:       980.0000000
  free_energy:      -116.5451486
  entropy:           219.6229397
  heat_capacity:      98.8525228
  energy:             98.6853323

- temperature:       990.0000000
  free_energy:      -118.7464047
  entropy:           220.6266209
  heat_capacity:      98.8709056
  energy:             99.6739499

- temperature:      1000.0000000
  free_energy:      -120.9576480
  entropy:           221.6203966
  heat_capacity:      98.8887447
  energy:            100.6627486

- temperature:      1010.0000000
  free_energy:      -123.1787803
  entropy:           222.6044588
  heat_capacity:      98.9060615
  energy:            101.6517231

- temperature:      1020.0000000
  free_energy:      -125.4097054
  entropy:           223.5789937
  heat_capacity:      98.9228760
  energy:            102.6408682

- temperature:      1030.0000000
  free_energy:      -127.6503290
  entropy:           224.5441825
  heat_capacity:      98.9392075
  energy:            103.6301790

- temperature:      1040.0000000
  free_energy:      -129.9005585
  entropy:           225.5002012
  heat_capacity:      98.9550742
  energy:            104.6196508

- temperature:      1050.0000000
  free_energy:      -132.1603030
  entropy:           226.4472210
  heat_capacity:      98.9704936
  energy:            105.6092790

- temperature:      1060.0000000
  free_energy:      -134.4294735
  entropy:           227.3854082
  heat_capacity:      98.9854823
  energy:            106.5990592

- temperature:      1070.0000000
  free_energy:      -136.7079823
  entropy:           228.3149248
  heat_capacity:      99.0000561
  energy:            107.5889873

- temperature:      1080.0000000
  free_energy:      -138.9957436
  entropy:           229.2359283
  heat_capacity:      99.0142303
  energy:            108.5790590

- temperature:      1090.0000000
  free_energy:      -141.2926730
  entropy:           230.1485721
  heat_capacity:      99.0280192
  energy:            109.5692706

- temperature:      1100.0000000
  free_energy:      -143.5986877
  entropy:           231.0530053
  heat_capacity:      99.0414366
  energy:            110.5596182

- temperature:      1110.0000000
  free_energy:      -145.9137062
  entropy:           231.9493733
  heat_capacity:      99.0544958
  energy:            111.5500981

- temperature:      1120.0000000
  free_energy:      -148.2376487
  entropy:           232.8378175
  heat_capacity:      99.0672094
  energy:            112.5407069

- temperature:      1130.0000000
  free_energy:      -150.5704366
  entropy:           233.7184759
  heat_capacity:      99.0795894
  energy:            113.5314412

- temperature:      1140.0000000
  free_energy:      -152.9119927
  entropy:           234.5914828
  heat_capacity:      99.0916474
  energy:            114.5222976

- temperature:      1150.0000000
  free_energy:      -155.2622412
  entropy:           235.4569690
  heat_capacity:      99.1033945
  energy:            115.5132731

- temperature:      1160.0000000
  free_energy:      -157.6211075
  entropy:           236.3150621
  heat_capacity:      99.1148411
  energy:            116.5043645

- temperature:      1170.0000000
  free_energy:      -159.9885182
  entropy:           237.1658865
  heat_capacity:      99.1259975
  energy:            117.4955690

- temperature:      1180.0000000
  free_energy:      -162.3644014
  entropy:           238.0095635
  heat_capacity:      99.1368734
  energy:            118.4868836

- temperature:      1190.0000000
  free_energy:      -164.7486861
  entropy:           238.8462114
  heat_capacity:      99.1474781
  energy:            119.4783055

- temperature:      1200.0000000
  free_energy:      -167.1413026
  entropy:           239.6759457
  heat_capacity:      99.1578205
  energy:            120.4698322

- temperature:      1210.0000000
  free_energy:      -169.5421823
  entropy:           240.4988788
  heat_capacity:      99.1679092
  energy:            121.4614611

- temperature:      1220.0000000
  free_energy:      -171.9512578
  entropy:           241.3151208
  heat_capacity:      99.1777523
  energy:            122.4531896

- temperature:      1230.0000000
  free_energy:      -174.3684628
  entropy:           242.1247790
  heat_capacity:      99.1873579
  energy:            123.4450154

- temperature:      1240.0000000
  free_energy:      -176.7937318
  entropy:           242.9279579
  heat_capacity:      99.1967334
  energy:            124.4369360

- temperature:      1250.0000000
  free_energy:      -179.2270007
  entropy:           243.7247600
  heat_capacity:      99.2058862
  energy:            125.4289493

- temperature:      1260.0000000
  free_energy:      -181.6682061
  entropy:           244.5152850
  heat_capacity:      99.2148231
  energy:            126.4210530

- temperature:      1270.0000000
  free_energy:      -184.1172858
  entropy:           245.2996306
  heat_capacity:      99.2235511
  energy:            127.4132450

- temperature:      1280.0000000
  free_energy:      -186.5741784
  entropy:           246.0778920
  heat_capacity:      99.2320764
  energy:            128.4055233

- temperature:      1290.0000000
  free_energy:      -189.0388236
  entropy:           246.8501625
  heat_capacity:      99.2404053
  energy:            129.3978859

- temperature:      1300.0000000
  free_energy:      -191.5111620
  entropy:           247.6165329
  heat_capacity:      99.2485439
  energy:            130.3903308

- temperature:      1310.0000000
  free_energy:      -193.9911349
  entropy:           248.3770925
  heat_capacity:      99.2564978
  energy:            131.3828562

- temperature:      1320.0000000
  free_energy:      -196.4786848
  entropy:           249.1319280
  heat_capacity:      99.2642726
  energy:            132.3754602

- temperature:      1330.0000000
  free_energy:      -198.9737547
  entropy:           249.8811246
  heat_capacity:      99.2718736
  energy:            133.3681411

- temperature:      1340.0000000
  free_energy:      -201.4762887
  entropy:           250.6247655
  heat_capacity:      99.2793060
  energy:            134.3608971

- temperature:      1350.0000000
  free_energy:      -203.9862318
  entropy:           251.3629321
  heat_capacity:      99.2865746
  energy:            135.3537266

- temperature:      1360.0000000
  free_energy:      -206.5035294
  entropy:           252.0957040
  heat_capacity:      99.2936844
  energy:            136.3466281

- temperature:      1370.0000000
  free_energy:      -209.0281281
  entropy:           252.8231591
  heat_capacity:      99.3006397
  energy:            137.3395998

- temperature:      1380.0000000
  free_energy:      -211.5599751
  entropy:           253.5453735
  heat_capacity:      99.3074452
  energy:            138.3326403

- temperature:      1390.0000000
  free_energy:      -214.0990184
  entropy:           254.2624220
  heat_capacity:      99.3141050
  energy:            139.3257482

- temperature:      1400.0000000
  free_energy:      -216.6452066
  entropy:           254.9743775
  heat_capacity:      99.3206234
  energy:            140.3189220

- temperature:      1410.0000000
  free_energy:      -219.1984892
  entropy:           255.6813116
  heat_capacity:      99.3270041
  energy:            141.3121602

- temperature:      1420.0000000
  free_energy:      -221.7588163
  entropy:           256.3832943
  heat_capacity:      99.3332512
  energy:            142.3054616

- temperature:      1430.0000000
  free_energy:      -224.3261388
  entropy:           257.0803941
  heat_capacity:      99.3393683
  energy:            143.2988248

- temperature:      1440.0000000
  free_energy:      -226.9004081
  entropy:           257.7726783
  heat_capacity:      99.3453589
  energy:            144.2922486

- temperature:      1450.0000000
  free_energy:      -229.4815765
  entropy:           258.4602125
  heat_capacity:      99.3512266
  energy:            145.2857316

- temperature:      1460.0000000
  free_energy:      -232.0695968
  entropy:           259.1430613
  heat_capacity:      99.3569747
  energy:            146.2792727

- temperature:      1470.0000000
  free_energy:      -234.6644223
  entropy:           259.8212878
  heat_capacity:      99.3626063
  energy:            147.2728707

- temperature:      1480.0000000
  free_energy:      -237.2660073
  entropy:           260.4949539
  heat_capacity:      99.3681247
  energy:            148.2665244

- temperature:      1490.0000000
  free_energy:      -239.8743064
  entropy:           261.1641203
  heat_capacity:      99.3735328
  energy:            149.2602328

- temperature:      1500.0000000
  free_energy:      -242.4892749
  entropy:           261.8288464
  heat_capacity:      99.3788336
  energy:            150.2539947

- temperature:      1510.0000000
  free_energy:      -245.1108687
  entropy:           262.4891907
  heat_capacity:      99.3840298
  energy:            151.2478091

- temperature:      1520.0000000
  free_energy:      -247.7390443
  entropy:           263.1452101
  heat_capacity:      99.3891243
  energy:            152.2416750

- temperature:      1530.0000000
  free_energy:      -250.3737587
  entropy:           263.7969608
  heat_capacity:      99.3941195
  energy:            153.2355913

- temperature:      1540.0000000
  free_energy:      -253.0149695
  entropy:           264.4444978
  heat_capacity:      99.3990182
  energy:            154.2295571

- temperature:      1550.0000000
  free_energy:      -255.6626348
  entropy:           265.0878749
  heat_capacity:      99.4038227
  energy:            155.2235713

- temperature:      1560.0000000
  free_energy:      -258.3167133
  entropy:           265.7271452
  heat_capacity:      99.4085355
  energy:            156.2176332

- temperature:      1570.0000000
  free_energy:      -260.9771642
  entropy:           266.3623605
  heat_capacity:      99.4131588
  energy:            157.2117418

- temperature:      1580.0000000
  free_energy:      -263.6439472
  entropy:           266.9935717
  heat_capacity:      99.4176950
  energy:            158.2058961

- temperature:      1590.0000000
  free_energy:      -266.3170224
  entropy:           267.6208288
  heat_capacity:      99.4221462
  energy:            159.2000954

- temperature:      1600.0000000
  free_energy:      -268.9963507
  entropy:           268.2441809
  heat_capacity:      99.4265145
  energy:            160.1943387

- temperature:      1610.0000000
  free_energy:      -271.6818932
  entropy:           268.8636762
  heat_capacity:      99.4308019
  energy:            161.1886254

- temperature:      1620.0000000
  free_energy:      -274.3736116
  entropy:           269.4793618
  heat_capacity:      99.4350105
  energy:            162.1829545

- temperature:      1630.0000000
  free_energy:      -277.0714679
  entropy:           270.0912842
  heat_capacity:      99.4391421
  energy:            163.1773253

- temperature:      1640.0000000
  free_energy:      -279.7754248
  entropy:           270.6994890
  heat_capacity:      99.4431986
  energy:            164.1717371

- temperature:      1650.0000000
  free_energy:      -282.4854454
  entropy:           271.3040209
  heat_capacity:      99.4471819
  energy:            165.1661891

- temperature:      1660.0000000
  free_energy:      -285.2014932
  entropy:           271.9049239
  heat_capacity:      99.4510936
  energy:            166.1606805

- temperature:      1670.0000000
  free_energy:      -287.9235320
  entropy:           272.5022411
  heat_capacity:      99.4549355
  energy:            167.1552107

- temperature:      1680.0000000
  free_energy:      -290.6515262
  entropy:           273.0960150
  heat_capacity:      99.4587092
  energy:            168.1497790

- temperature:      1690.0000000
  free_energy:      -293.3854406
  entropy:           273.6862871
  heat_capacity:      99.4624164
  energy:            169.1443847

- temperature:      1700.0000000
  free_energy:      -296.1252404
  entropy:           274.2730985
  heat_capacity:      99.4660586
  energy:            170.1390271

- temperature:      1710.0000000
  free_energy:      -298.8708912
  entropy:           274.8564894
  heat_capacity:      99.4696372
  energy:            171.1337056

- temperature:      1720.0000000
  free_energy:      -301.6223589
  entropy:           275.4364992
  heat_capacity:      99.4731538
  energy:            172.1284196

- temperature:      1730.0000000
  free_energy:      -304.3796100
  entropy:           276.0131668
  heat_capacity:      99.4766098
  energy:            173.1231685

- temperature:      1740.0000000
  free_energy:      -307.1426112
  entropy:           276.5865304
  heat_capacity:      99.4800066
  energy:            174.1179516

- temperature:      1750.0000000
  free_energy:      -309.9113297
  entropy:           277.1566275
  heat_capacity:      99.4833454
  energy:            175.1127684

- temperature:      1760.0000000
  free_energy:      -312.6857330
  entropy:           277.7234951
  heat_capacity:      99.4866277
  energy:            176.1076184

- temperature:      1770.0000000
  free_energy:      -315.4657890
  entropy:           278.2871694
  heat_capacity:      99.4898547
  energy:            177.1025008

- temperature:      1780.0000000
  free_energy:      -318.2514659
  entropy:           278.8476860
  heat_capacity:      99.4930276