mesh: [    48,    48,    48 ]
nqpoint: 2600   
reciprocal_lattice:
- [   0.22823263,   0.00000000,   0.00000000 ] # a*
- [   0.00000000,   0.22823263,   0.00000000 ] # b*
- [   0.00000000,   0.00000000,   0.22823263 ] # c*
natom:   4      
lattice:
- [     4.381494497430611,     0.000000000000000,     0.000000000000000 ] # a
- [     0.000000000000000,     4.381494497430611,     0.000000000000000 ] # b
- [     0.000000000000000,     0.000000000000000,     4.381494497430611 ] # c
points:
- symbol: Au # 1
  coordinates: [  0.000000000000000,  0.000000000000000,  0.000000000000000 ]
  mass: 196.966569
- symbol: Au # 2
  coordinates: [  0.500000000000000,  0.500000000000000,  0.000000000000000 ]
  mass: 196.966569
- symbol: Au # 3
  coordinates: [  0.500000000000000,  0.000000000000000,  0.500000000000000 ]
  mass: 196.966569
- symbol: Au # 4
  coordinates: [  0.000000000000000,  0.500000000000000,  0.500000000000000 ]
  mass: 196.966569
phonon:
- q-position: [    0.0104167,    0.0104167,    0.0104167 ]
  weight: 8    
  band:
  - # 1
    frequency:     0.0176043421
  - # 2
    frequency:     0.0176043421
  - # 3
    frequency:     0.0714049990
  - # 4
    frequency:     1.1078263038
  - # 5
    frequency:     1.1078263038
  - # 6
    frequency:     1.1078263038
  - # 7
    frequency:     1.1092655908
  - # 8
    frequency:     1.1092655908
  - # 9
    frequency:     1.1092655908
  - # 10
    frequency:     2.1641014507
  - # 11
    frequency:     2.1641014507
  - # 12
    frequency:     2.1641014507

- q-position: [    0.0312500,    0.0104167,    0.0104167 ]
  weight: 24   
  band:
  - # 1
    frequency:     0.0195413667
  - # 2
    frequency:     0.0275170657
  - # 3
    frequency:     0.1407453982
  - # 4
    frequency:     1.1045796955
  - # 5
    frequency:     1.1045796955
  - # 6
    frequency:     1.1054849620
  - # 7
    frequency:     1.1069218748
  - # 8
    frequency:     1.1099643280
  - # 9
    frequency:     1.1099643280
  - # 10
    frequency:     2.1608555047
  - # 11
    frequency:     2.1608555047
  - # 12
    frequency:     2.1629577921

- q-position: [    0.0520833,    0.0104167,    0.0104167 ]
  weight: 24   
  band:
  - # 1
    frequency:     0.0236270635
  - # 2
    frequency:     0.0317153549
  - # 3
    frequency:     0.2231126520
  - # 4
    frequency:     1.0987323517
  - # 5
    frequency:     1.0987323517
  - # 6
    frequency:     1.1008123055
  - # 7
    frequency:     1.1022445214
  - # 8
    frequency:     1.1107795401
  - # 9
    frequency:     1.1107795401
  - # 10
    frequency:     2.1543826868
  - # 11
    frequency:     2.1543826868
  - # 12
    frequency:     2.1606584977

- q-position: [    0.0729167,    0.0104167,    0.0104167 ]
  weight: 24   
  band:
  - # 1
    frequency:     0.0300544502
  - # 2
    frequency:     0.0371367305
  - # 3
    frequency:     0.3073959255
  - # 4
    frequency:     1.0901526154
  - # 5
    frequency:     1.0901526154
  - # 6
    frequency:     1.0938283462
  - # 7
    frequency:     1.0952536436
  - # 8
    frequency:     1.1119693206
  - # 9
    frequency:     1.1119693206
  - # 10
    frequency:     2.1447210913
  - # 11
    frequency:     2.1447210913
  - # 12
    frequency:     2.1571798196

- q-position: [    0.0937500,    0.0104167,    0.0104167 ]
  weight: 24   
  band:
  - # 1
    frequency:     0.0388790451
  - # 2
    frequency:     0.0447958690
  - # 3
    frequency:     0.3918306120
  - # 4
    frequency:     1.0788760991
  - # 5
    frequency:     1.0788760991
  - # 6
    frequency:     1.0845629944
  - # 7
    frequency:     1.0859792987
  - # 8
    frequency:     1.1136857376
  - # 9
    frequency:     1.1136857376
  - # 10
    frequency:     2.1319277241
  - # 11
    frequency:     2.1319277241
  - # 12
    frequency:     2.1524866487

- q-position: [    0.1145833,    0.0104167,    0.0104167 ]
  weight: 24   
  band:
  - # 1
    frequency:     0.0500611690
  - # 2
    frequency:     0.0549451553
  - # 3
    frequency:     0.4758013738
  - # 4
    frequency:     1.0649993247
  - # 5
    frequency:     1.0649993247
  - # 6
    frequency:     1.0730559312
  - # 7
    frequency:     1.0744613555
  - # 8
    frequency:     1.1160788027
  - # 9
    frequency:     1.1160788027
  - # 10
    frequency:     2.1160783397
  - # 11
    frequency:     2.1160783397
  - # 12
    frequency:     2.1465331156

- q-position: [    0.1354167,    0.0104167,    0.0104167 ]
  weight: 24   
  band:
  - # 1
    frequency:     0.0635255936
  - # 2
    frequency:     0.0675798247
  - # 3
    frequency:     0.5589651851
  - # 4
    frequency:     1.0486565330
  - # 5
    frequency:     1.0486565330
  - # 6
    frequency:     1.0593564387
  - # 7
    frequency:     1.0607493185
  - # 8
    frequency:     1.1193164496
  - # 9
    frequency:     1.1193164496
  - # 10
    frequency:     2.0972672213
  - # 11
    frequency:     2.0972672213
  - # 12
    frequency:     2.1392633699

- q-position: [    0.1562500,    0.0104167,    0.0104167 ]
  weight: 24   
  band:
  - # 1
    frequency:     0.0791879825
  - # 2
    frequency:     0.0826004999
  - # 3
    frequency:     0.6410735103
  - # 4
    frequency:     1.0300149887
  - # 5
    frequency:     1.0300149887
  - # 6
    frequency:     1.0435231888
  - # 7
    frequency:     1.0449021098
  - # 8
    frequency:     1.1235852144
  - # 9
    frequency:     1.1235852144
  - # 10
    frequency:     2.0756069042
  - # 11
    frequency:     2.0756069042
  - # 12
    frequency:     2.1306125189

- q-position: [    0.1770833,    0.0104167,    0.0104167 ]
  weight: 24   
  band:
  - # 1
    frequency:     0.0969612166
  - # 2
    frequency:     0.0998825821
  - # 3
    frequency:     0.7219205015
  - # 4
    frequency:     1.0092746771
  - # 5
    frequency:     1.0092746771
  - # 6
    frequency:     1.0256239923
  - # 7
    frequency:     1.0269878111
  - # 8
    frequency:     1.1290857755
  - # 9
    frequency:     1.1290857755
  - # 10
    frequency:     2.0512278376
  - # 11
    frequency:     2.0512278376
  - # 12
    frequency:     2.1205077066

- q-position: [    0.1979167,    0.0104167,    0.0104167 ]
  weight: 24   
  band:
  - # 1
    frequency:     0.1167552503
  - # 2
    frequency:     0.1192998036
  - # 3
    frequency:     0.8013244218
  - # 4
    frequency:     0.9866693975
  - # 5
    frequency:     0.9866693975
  - # 6
    frequency:     1.0057355087
  - # 7
    frequency:     1.0070833671
  - # 8
    frequency:     1.1360264572
  - # 9
    frequency:     1.1360264572
  - # 10
    frequency:     2.0242779835
  - # 11
    frequency:     2.0242779835
  - # 12
    frequency:     2.1088693073

- q-position: [    0.2187500,    0.0104167,    0.0104167 ]
  weight: 24   
  band:
  - # 1
    frequency:     0.1384758226
  - # 2
    frequency:     0.1407290306
  - # 3
    frequency:     0.8791201185
  - # 4
    frequency:     0.9624684737
  - # 5
    frequency:     0.9624684737
  - # 6
    frequency:     0.9839429178
  - # 7
    frequency:     0.9852742508
  - # 8
    frequency:     1.1446156497
  - # 9
    frequency:     1.1446156497
  - # 10
    frequency:     1.9949223448
  - # 11
    frequency:     1.9949223448
  - # 12
    frequency:     2.0956122120

- q-position: [    0.2395833,    0.0104167,    0.0104167 ]
  weight: 24   
  band:
  - # 1
    frequency:     0.1620234257
  - # 2
    frequency:     0.1640492329
  - # 3
    frequency:     0.9369787890
  - # 4
    frequency:     0.9369787890
  - # 5
    frequency:     0.9551557911
  - # 6
    frequency:     0.9603395559
  - # 7
    frequency:     0.9616540946
  - # 8
    frequency:     1.1550536563
  - # 9
    frequency:     1.1550536563
  - # 10
    frequency:     1.9633424181
  - # 11
    frequency:     1.9633424181
  - # 12
    frequency:     2.0806471813

- q-position: [    0.2604167,    0.0104167,    0.0104167 ]
  weight: 24   
  band:
  - # 1
    frequency:     0.1872927235
  - # 2
    frequency:     0.1891393930
  - # 3
    frequency:     0.9105469308
  - # 4
    frequency:     0.9105469308
  - # 5
    frequency:     0.9350265156
  - # 6
    frequency:     0.9363242866
  - # 7
    frequency:     1.0292916206
  - # 8
    frequency:     1.1675244171
  - # 9
    frequency:     1.1675244171
  - # 10
    frequency:     1.9297355584
  - # 11
    frequency:     1.9297355584
  - # 12
    frequency:     2.0638822409

- q-position: [    0.2812500,    0.0104167,    0.0104167 ]
  weight: 24   
  band:
  - # 1
    frequency:     0.2141723375
  - # 2
    frequency:     0.2158767468
  - # 3
    frequency:     0.8835611615
  - # 4
    frequency:     0.8835611615
  - # 5
    frequency:     0.9081122138
  - # 6
    frequency:     0.9093935353
  - # 7
    frequency:     1.1013992659
  - # 8
    frequency:     1.1821875732
  - # 9
    frequency:     1.1821875732
  - # 10
    frequency:     1.8943142450
  - # 11
    frequency:     1.8943142450
  - # 12
    frequency:     2.0452240956

- q-position: [    0.3020833,    0.0104167,    0.0104167 ]
  weight: 24   
  band:
  - # 1
    frequency:     0.2425448905
  - # 2
    frequency:     0.2441356072
  - # 3
    frequency:     0.8564527820
  - # 4
    frequency:     0.8564527820
  - # 5
    frequency:     0.8797119280
  - # 6
    frequency:     0.8809774049
  - # 7
    frequency:     1.1713617795
  - # 8
    frequency:     1.1991713395
  - # 9
    frequency:     1.1991713395
  - # 10
    frequency:     1.8573052303
  - # 11
    frequency:     1.8573052303
  - # 12
    frequency:     2.0245795401

- q-position: [    0.3229167,    0.0104167,    0.0104167 ]
  weight: 24   
  band:
  - # 1
    frequency:     0.2722872263
  - # 2
    frequency:     0.2737866951
  - # 3
    frequency:     0.8296962247
  - # 4
    frequency:     0.8296962247
  - # 5
    frequency:     0.8499473026
  - # 6
    frequency:     0.8511978218
  - # 7
    frequency:     1.2185666169
  - # 8
    frequency:     1.2185666169
  - # 9
    frequency:     1.2390737229
  - # 10
    frequency:     1.8189485491
  - # 11
    frequency:     1.8189485491
  - # 12
    frequency:     2.0018568468

- q-position: [    0.3437500,    0.0104167,    0.0104167 ]
  weight: 24   
  band:
  - # 1
    frequency:     0.3032707511
  - # 2
    frequency:     0.3046968535
  - # 3
    frequency:     0.8038069266
  - # 4
    frequency:     0.8038069266
  - # 5
    frequency:     0.8189458294
  - # 6
    frequency:     0.8201825563
  - # 7
    frequency:     1.2404226855
  - # 8
    frequency:     1.2404226855
  - # 9
    frequency:     1.3044413673
  - # 10
    frequency:     1.7794963636
  - # 11
    frequency:     1.7794963636
  - # 12
    frequency:     1.9769671112

- q-position: [    0.3645833,    0.0104167,    0.0104167 ]
  weight: 24   
  band:
  - # 1
    frequency:     0.3353618591
  - # 2
    frequency:     0.3367290352
  - # 3
    frequency:     0.7793357232
  - # 4
    frequency:     0.7793357232
  - # 5
    frequency:     0.7868403016
  - # 6
    frequency:     0.7880646794
  - # 7
    frequency:     1.2647446877
  - # 8
    frequency:     1.2647446877
  - # 9
    frequency:     1.3673829143
  - # 10
    frequency:     1.7392116097
  - # 11
    frequency:     1.7392116097
  - # 12
    frequency:     1.9498255412

- q-position: [    0.3854167,    0.0104167,    0.0104167 ]
  weight: 24   
  band:
  - # 1
    frequency:     0.3684224198
  - # 2
    frequency:     0.3697424826
  - # 3
    frequency:     0.7537682472
  - # 4
    frequency:     0.7549819997
  - # 5
    frequency:     0.7568582759
  - # 6
    frequency:     0.7568582759
  - # 7
    frequency:     1.2914929546
  - # 8
    frequency:     1.2914929546
  - # 9
    frequency:     1.4278286988
  - # 10
    frequency:     1.6983664084
  - # 11
    frequency:     1.6983664084
  - # 12
    frequency:     1.9203526749

- q-position: [    0.4062500,    0.0104167,    0.0104167 ]
  weight: 24   
  band:
  - # 1
    frequency:     0.4023103111
  - # 2
    frequency:     0.4035930438
  - # 3
    frequency:     0.7198713404
  - # 4
    frequency:     0.7210764809
  - # 5
    frequency:     0.7369580745
  - # 6
    frequency:     0.7369580745
  - # 7
    frequency:     1.3205840675
  - # 8
    frequency:     1.3205840675
  - # 9
    frequency:     1.4857213483
  - # 10
    frequency:     1.6572402029
  - # 11
    frequency:     1.6572402029
  - # 12
    frequency:     1.8884755177

- q-position: [    0.4270833,    0.0104167,    0.0104167 ]
  weight: 24   
  band:
  - # 1
    frequency:     0.4368799862
  - # 2
    frequency:     0.4381335857
  - # 3
    frequency:     0.6852947970
  - # 4
    frequency:     0.6864936437
  - # 5
    frequency:     0.7202020922
  - # 6
    frequency:     0.7202020922
  - # 7
    frequency:     1.3518934042
  - # 8
    frequency:     1.3518934042
  - # 9
    frequency:     1.5410158835
  - # 10
    frequency:     1.6161175915
  - # 11
    frequency:     1.6161175915
  - # 12
    frequency:     1.8541285894

- q-position: [    0.4479167,    0.0104167,    0.0104167 ]
  weight: 24   
  band:
  - # 1
    frequency:     0.4719830681
  - # 2
    frequency:     0.4732144763
  - # 3
    frequency:     0.6501867542
  - # 4
    frequency:     0.6513819538
  - # 5
    frequency:     0.7071094347
  - # 6
    frequency:     0.7071094347
  - # 7
    frequency:     1.3852587687
  - # 8
    frequency:     1.3852587687
  - # 9
    frequency:     1.5752858839
  - # 10
    frequency:     1.5752858839
  - # 11
    frequency:     1.5936797463
  - # 12
    frequency:     1.8172548745

- q-position: [    0.4687500,    0.0104167,    0.0104167 ]
  weight: 24   
  band:
  - # 1
    frequency:     0.5074689634
  - # 2
    frequency:     0.5086841177
  - # 3
    frequency:     0.6146976388
  - # 4
    frequency:     0.6158922011
  - # 5
    frequency:     0.6981153459
  - # 6
    frequency:     0.6981153459
  - # 7
    frequency:     1.4204842442
  - # 8
    frequency:     1.4204842442
  - # 9
    frequency:     1.5350328349
  - # 10
    frequency:     1.5350328349
  - # 11
    frequency:     1.6436927487
  - # 12
    frequency:     1.7778066713

- q-position: [    0.4895833,    0.0104167,    0.0104167 ]
  weight: 24   
  band:
  - # 1
    frequency:     0.5431854917
  - # 2
    frequency:     0.5443895149
  - # 3
    frequency:     0.5789795258
  - # 4
    frequency:     0.5801768712
  - # 5
    frequency:     0.6935352551
  - # 6
    frequency:     0.6935352551
  - # 7
    frequency:     1.4573354369
  - # 8
    frequency:     1.4573354369
  - # 9
    frequency:     1.4956529908
  - # 10
    frequency:     1.4956529908
  - # 11
    frequency:     1.6910469327
  - # 12
    frequency:     1.7357463380

- q-position: [    0.0312500,    0.0312500,    0.0104167 ]
  weight: 24   
  band:
  - # 1
    frequency:     0.0235673645
  - # 2
    frequency:     0.0524867827
  - # 3
    frequency:     0.1813496633
  - # 4
    frequency:     1.0995482419
  - # 5
    frequency:     1.1022559668
  - # 6
    frequency:     1.1022559668
  - # 7
    frequency:     1.1076183495
  - # 8
    frequency:     1.1076183495
  - # 9
    frequency:     1.1124942950
  - # 10
    frequency:     2.1576099968
  - # 11
    frequency:     2.1597387297
  - # 12
    frequency:     2.1597387297

- q-position: [    0.0520833,    0.0312500,    0.0104167 ]
  weight: 48   
  band:
  - # 1
    frequency:     0.0267467921
  - # 2
    frequency:     0.0644212147
  - # 3
    frequency:     0.2485275031
  - # 4
    frequency:     1.0922979752
  - # 5
    frequency:     1.0964494552
  - # 6
    frequency:     1.0976184954
  - # 7
    frequency:     1.1029366417
  - # 8
    frequency:     1.1084232353
  - # 9
    frequency:     1.1148043792
  - # 10
    frequency:     2.1511380542
  - # 11
    frequency:     2.1533195761
  - # 12
    frequency:     2.1574928651

- q-position: [    0.0729167,    0.0312500,    0.0104167 ]
  weight: 48   
  band:
  - # 1
    frequency:     0.0320841909
  - # 2
    frequency:     0.0712254588
  - # 3
    frequency:     0.3255988385
  - # 4
    frequency:     1.0828213066
  - # 5
    frequency:     1.0879323378
  - # 6
    frequency:     1.0906871965
  - # 7
    frequency:     1.0959396652
  - # 8
    frequency:     1.1095956616
  - # 9
    frequency:     1.1170269806
  - # 10
    frequency:     2.1414777694
  - # 11
    frequency:     2.1437382198
  - # 12
    frequency:     2.1540934999

- q-position: [    0.0937500,    0.0312500,    0.0104167 ]
  weight: 48   
  band:
  - # 1
    frequency:     0.0399484866
  - # 2
    frequency:     0.0776087905
  - # 3
    frequency:     0.4060042073
  - # 4
    frequency:     1.0710144735
  - # 5
    frequency:     1.0767386878
  - # 6
    frequency:     1.0814918018
  - # 7
    frequency:     1.0866580157
  - # 8
    frequency:     1.1112886270
  - # 9
    frequency:     1.1194511449
  - # 10
    frequency:     2.1286861462
  - # 11
    frequency:     2.1310513567
  - # 12
    frequency:     2.1495045572

- q-position: [    0.1145833,    0.0312500,    0.0104167 ]
  weight: 48   
  band:
  - # 1
    frequency:     0.0503897315
  - # 2
    frequency:     0.0852790006
  - # 3
    frequency:     0.4874250109
  - # 4
    frequency:     1.0568570650
  - # 5
    frequency:     1.0629635457
  - # 6
    frequency:     1.0700716899
  - # 7
    frequency:     1.0751323147
  - # 8
    frequency:     1.1136527842
  - # 9
    frequency:     1.1223406979
  - # 10
    frequency:     2.1128389374
  - # 11
    frequency:     2.1153343260
  - # 12
    frequency:     2.1436789261

- q-position: [    0.1354167,    0.0312500,    0.0104167 ]
  weight: 48   
  band:
  - # 1
    frequency:     0.0633153480
  - # 2
    frequency:     0.0949903382
  - # 3
    frequency:     0.5688325069
  - # 4
    frequency:     1.0404061141
  - # 5
    frequency:     1.0467394656
  - # 6
    frequency:     1.0564756595
  - # 7
    frequency:     1.0614130669
  - # 8
    frequency:     1.1168566544
  - # 9
    frequency:     1.1259370168
  - # 10
    frequency:     2.0940304256
  - # 11
    frequency:     2.0966808890
  - # 12
    frequency:     2.1365592789

- q-position: [    0.1562500,    0.0312500,    0.0104167 ]
  weight: 48   
  band:
  - # 1
    frequency:     0.0785950410
  - # 2
    frequency:     0.1070795636
  - # 3
    frequency:     0.6496559652
  - # 4
    frequency:     1.0217803851
  - # 5
    frequency:     1.0282316895
  - # 6
    frequency:     1.0407616469
  - # 7
    frequency:     1.0455604913
  - # 8
    frequency:     1.1210873979
  - # 9
    frequency:     1.1304708283
  - # 10
    frequency:     2.0723731479
  - # 11
    frequency:     2.0752029490
  - # 12
    frequency:     2.1280790528

- q-position: [    0.1770833,    0.0312500,    0.0104167 ]
  weight: 48   
  band:
  - # 1
    frequency:     0.0960993388
  - # 2
    frequency:     0.1216450312
  - # 3
    frequency:     0.7295190557
  - # 4
    frequency:     1.0011494322
  - # 5
    frequency:     1.0076377661
  - # 6
    frequency:     1.0229963842
  - # 7
    frequency:     1.0276443290
  - # 8
    frequency:     1.1265463783
  - # 9
    frequency:     1.1361685126
  - # 10
    frequency:     2.0479975592
  - # 11
    frequency:     2.0510302111
  - # 12
    frequency:     2.1181635746

- q-position: [    0.1979167,    0.0312500,    0.0104167 ]
  weight: 48   
  band:
  - # 1
    frequency:     0.1157063994
  - # 2
    frequency:     0.1386453570
  - # 3
    frequency:     0.8081414353
  - # 4
    frequency:     0.9787276035
  - # 5
    frequency:     0.9851885761
  - # 6
    frequency:     1.0032550011
  - # 7
    frequency:     1.0077436334
  - # 8
    frequency:     1.1334426658
  - # 9
    frequency:     1.1432528468
  - # 10
    frequency:     2.0210516328
  - # 11
    frequency:     2.0243097761
  - # 12
    frequency:     2.1067313012

- q-position: [    0.2187500,    0.0312500,    0.0104167 ]
  weight: 48   
  band:
  - # 1
    frequency:     0.1372995542
  - # 2
    frequency:     0.1579650360
  - # 3
    frequency:     0.8852968907
  - # 4
    frequency:     0.9547714196
  - # 5
    frequency:     0.9611499716
  - # 6
    frequency:     0.9816205715
  - # 7
    frequency:     0.9859465431
  - # 8
    frequency:     1.1419854424
  - # 9
    frequency:     1.1519399216
  - # 10
    frequency:     1.9917003915
  - # 11
    frequency:     1.9952056647
  - # 12
    frequency:     2.0936951515

- q-position: [    0.2395833,    0.0312500,    0.0104167 ]
  weight: 48   
  band:
  - # 1
    frequency:     0.1607637061
  - # 2
    frequency:     0.1794549020
  - # 3
    frequency:     0.9295789982
  - # 4
    frequency:     0.9358247346
  - # 5
    frequency:     0.9581836150
  - # 6
    frequency:     0.9607937253
  - # 7
    frequency:     0.9623500332
  - # 8
    frequency:     1.1523758249
  - # 9
    frequency:     1.1624337638
  - # 10
    frequency:     1.9601253624
  - # 11
    frequency:     1.9638982635
  - # 12
    frequency:     2.0789639022

- q-position: [    0.2604167,    0.0312500,    0.0104167 ]
  weight: 48   
  band:
  - # 1
    frequency:     0.1859825727
  - # 2
    frequency:     0.2029538276
  - # 3
    frequency:     0.9034905953
  - # 4
    frequency:     0.9095546416
  - # 5
    frequency:     0.9330415767
  - # 6
    frequency:     0.9370596256
  - # 7
    frequency:     1.0344649034
  - # 8
    frequency:     1.1647985591
  - # 9
    frequency:     1.1749198076
  - # 10
    frequency:     1.9265239468
  - # 11
    frequency:     1.9305836840
  - # 12
    frequency:     2.0624436226

- q-position: [    0.2812500,    0.0312500,    0.0104167 ]
  weight: 48   
  band:
  - # 1
    frequency:     0.2128369295
  - # 2
    frequency:     0.2282986714
  - # 3
    frequency:     0.8768895406
  - # 4
    frequency:     0.8827223587
  - # 5
    frequency:     0.9062983350
  - # 6
    frequency:     0.9101890133
  - # 7
    frequency:     1.1061628532
  - # 8
    frequency:     1.1794140494
  - # 9
    frequency:     1.1895580905
  - # 10
    frequency:     1.8911086903
  - # 11
    frequency:     1.8954730205
  - # 12
    frequency:     2.0440391244

- q-position: [    0.3020833,    0.0312500,    0.0104167 ]
  weight: 48   
  band:
  - # 1
    frequency:     0.2412036191
  - # 2
    frequency:     0.2553279241
  - # 3
    frequency:     0.8502028749
  - # 4
    frequency:     0.8557527482
  - # 5
    frequency:     0.8780638167
  - # 6
    frequency:     0.8818595222
  - # 7
    frequency:     1.1757566424
  - # 8
    frequency:     1.1963511958
  - # 9
    frequency:     1.2064768708
  - # 10
    frequency:     1.8541064395
  - # 11
    frequency:     1.8587914915
  - # 12
    frequency:     2.0236554029

- q-position: [    0.3229167,    0.0312500,    0.0104167 ]
  weight: 48   
  band:
  - # 1
    frequency:     0.2709550848
  - # 2
    frequency:     0.2838824194
  - # 3
    frequency:     0.8239008730
  - # 4
    frequency:     0.8291129486
  - # 5
    frequency:     0.8484538206
  - # 6
    frequency:     0.8521993150
  - # 7
    frequency:     1.2157014708
  - # 8
    frequency:     1.2257672215
  - # 9
    frequency:     1.2431304212
  - # 10
    frequency:     1.8157573620
  - # 11
    frequency:     1.8207774436
  - # 12
    frequency:     2.0011990514

- q-position: [    0.3437500,    0.0312500,    0.0104167 ]
  weight: 48   
  band:
  - # 1
    frequency:     0.3019592534
  - # 2
    frequency:     0.3138049038
  - # 3
    frequency:     0.7984944144
  - # 4
    frequency:     0.8033103137
  - # 5
    frequency:     0.8175901129
  - # 6
    frequency:     0.8213422780
  - # 7
    frequency:     1.2375145774
  - # 8
    frequency:     1.2474790120
  - # 9
    frequency:     1.3081825639
  - # 10
    frequency:     1.7763138095
  - # 11
    frequency:     1.7816811948
  - # 12
    frequency:     1.9765796294

- q-position: [    0.3645833,    0.0312500,    0.0104167 ]
  weight: 48   
  band:
  - # 1
    frequency:     0.3340796461
  - # 2
    frequency:     0.3449393173
  - # 3
    frequency:     0.7745289030
  - # 4
    frequency:     0.7788870009
  - # 5
    frequency:     0.7856007216
  - # 6
    frequency:     0.7894266674
  - # 7
    frequency:     1.2617958946
  - # 8
    frequency:     1.2716185214
  - # 9
    frequency:     1.3708251966
  - # 10
    frequency:     1.7360389954
  - # 11
    frequency:     1.7417636901
  - # 12
    frequency:     1.9497109711

- q-position: [    0.3854167,    0.0312500,    0.0104167 ]
  weight: 48   
  band:
  - # 1
    frequency:     0.3671756444
  - # 2
    frequency:     0.3771301471
  - # 3
    frequency:     0.7525732517
  - # 4
    frequency:     0.7526201652
  - # 5
    frequency:     0.7564097727
  - # 6
    frequency:     0.7565937865
  - # 7
    frequency:     1.2885057478
  - # 8
    frequency:     1.2981477518
  - # 9
    frequency:     1.4309839351
  - # 10
    frequency:     1.6952054706
  - # 11
    frequency:     1.7012949487
  - # 12
    frequency:     1.9205124200

- q-position: [    0.4062500,    0.0312500,    0.0104167 ]
  weight: 48   
  band:
  - # 1
    frequency:     0.4011028578
  - # 2
    frequency:     0.4102219789
  - # 3
    frequency:     0.7187892763
  - # 4
    frequency:     0.7229870380
  - # 5
    frequency:     0.7332025238
  - # 6
    frequency:     0.7364535977
  - # 7
    frequency:     1.3175603586
  - # 8
    frequency:     1.3269853090
  - # 9
    frequency:     1.4885977237
  - # 10
    frequency:     1.6540934084
  - # 11
    frequency:     1.6605523047
  - # 12
    frequency:     1.8889099809

- q-position: [    0.4270833,    0.0312500,    0.0104167 ]
  weight: 48   
  band:
  - # 1
    frequency:     0.4357135611
  - # 2
    frequency:     0.4440592682
  - # 3
    frequency:     0.6842544482
  - # 4
    frequency:     0.6887515295
  - # 5
    frequency:     0.7169734103
  - # 6
    frequency:     0.7195781310
  - # 7
    frequency:     1.3488340918
  - # 8
    frequency:     1.3580084527
  - # 9
    frequency:     1.5436187118
  - # 10
    frequency:     1.6129888432
  - # 11
    frequency:     1.6198185407
  - # 12
    frequency:     1.8548373809

- q-position: [    0.4479167,    0.0312500,    0.0104167 ]
  weight: 48   
  band:
  - # 1
    frequency:     0.4708571783
  - # 2
    frequency:     0.4784863107
  - # 3
    frequency:     0.6491664440
  - # 4
    frequency:     0.6540341022
  - # 5
    frequency:     0.7043930145
  - # 6
    frequency:     0.7062973470
  - # 7
    frequency:     1.3821620794
  - # 8
    frequency:     1.3910551770
  - # 9
    frequency:     1.5721826505
  - # 10
    frequency:     1.5793804637
  - # 11
    frequency:     1.5960121219
  - # 12
    frequency:     1.8182370338

- q-position: [    0.4687500,    0.0312500,    0.0104167 ]
  weight: 48   
  band:
  - # 1
    frequency:     0.5063807986
  - # 2
    frequency:     0.5133473810
  - # 3
    frequency:     0.6136790743
  - # 4
    frequency:     0.6189834824
  - # 5
    frequency:     0.6958834185
  - # 6
    frequency:     0.6970445164
  - # 7
    frequency:     1.4173392918
  - # 8
    frequency:     1.4259203411
  - # 9
    frequency:     1.5319758641
  - # 10
    frequency:     1.5395314439
  - # 11
    frequency:     1.6457560821
  - # 12
    frequency:     1.7790609051

- q-position: [    0.4895833,    0.0312500,    0.0104167 ]
  weight: 48   
  band:
  - # 1
    frequency:     0.5421297161
  - # 2
    frequency:     0.5484870034
  - # 3
    frequency:     0.5779479950
  - # 4
    frequency:     0.5837503155
  - # 5
    frequency:     0.6917467439
  - # 6
    frequency:     0.6921369644
  - # 7
    frequency:     1.4540655457
  - # 8
    frequency:     1.4622273791
  - # 9
    frequency:     1.4928094178
  - # 10
    frequency:     1.5006280360
  - # 11
    frequency:     1.6928414017
  - # 12
    frequency:     1.7372712752

- q-position: [    0.0520833,    0.0520833,    0.0104167 ]
  weight: 24   
  band:
  - # 1
    frequency:     0.0287823370
  - # 2
    frequency:     0.0886397240
  - # 3
    frequency:     0.2974115078
  - # 4
    frequency:     1.0832155768
  - # 5
    frequency:     1.0918937195
  - # 6
    frequency:     1.0918937195
  - # 7
    frequency:     1.1037210640
  - # 8
    frequency:     1.1037210640
  - # 9
    frequency:     1.1191288815
  - # 10
    frequency:     2.1446678601
  - # 11
    frequency:     2.1511803600
  - # 12
    frequency:     2.1511803600

- q-position: [    0.0729167,    0.0520833,    0.0104167 ]
  weight: 48   
  band:
  - # 1
    frequency:     0.0327428603
  - # 2
    frequency:     0.1032444252
  - # 3
    frequency:     0.3619366459
  - # 4
    frequency:     1.0721055203
  - # 5
    frequency:     1.0835020843
  - # 6
    frequency:     1.0850851717
  - # 7
    frequency:     1.0966938800
  - # 8
    frequency:     1.1048589330
  - # 9
    frequency:     1.1232543019
  - # 10
    frequency:     2.1350101933
  - # 11
    frequency:     2.1417584474
  - # 12
    frequency:     2.1479392901

- q-position: [    0.0937500,    0.0520833,    0.0104167 ]
  weight: 48   
  band:
  - # 1
    frequency:     0.0393276412
  - # 2
    frequency:     0.1134348937
  - # 3
    frequency:     0.4344940488
  - # 4
    frequency:     1.0589992659
  - # 5
    frequency:     1.0724745679
  - # 6
    frequency:     1.0760536316
  - # 7
    frequency:     1.0873729136
  - # 8
    frequency:     1.1065051331
  - # 9
    frequency:     1.1273297550
  - # 10
    frequency:     2.1222220532
  - # 11
    frequency:     2.1292831857
  - # 12
    frequency:     2.1435583393

- q-position: [    0.1145833,    0.0520833,    0.0104167 ]
  weight: 48   
  band:
  - # 1
    frequency:     0.0487670275
  - # 2
    frequency:     0.1224576630
  - # 3
    frequency:     0.5107868566
  - # 4
    frequency:     1.0438863841
  - # 5
    frequency:     1.0589032445
  - # 6
    frequency:     1.0648384389
  - # 7
    frequency:     1.0757997240
  - # 8
    frequency:     1.1088116164
  - # 9
    frequency:     1.1316029654
  - # 10
    frequency:     2.1063791885
  - # 11
    frequency:     2.1138290597
  - # 12
    frequency:     2.1379878963

- q-position: [    0.1354167,    0.0520833,    0.0104167 ]
  weight: 48   
  band:
  - # 1
    frequency:     0.0609804333