    4    4    1    1
  0.1645186E+02  0.4037306E-09  0.4037306E-09  0.4037306E-09  0.5000000E-15
  1.000000000000000E-004
  CAR 
 unknown system                          
   12   84   16
 
  0.0000000E+00  0.0000000E+00  0.0000000E+00  0.5787037E-03
   1       -3.1243
   2        5.0993
   3        5.0993
   4        5.0993
   5        6.4292
   6        6.4292
   7        6.4292
   8       13.2887
   9       13.2887
  10       13.2887
  11       13.6383
  12       13.6383
  13       13.6383
  14       13.6383
  15       13.6383
  16       13.6383
 
  0.8333333E-01  0.0000000E+00  0.0000000E+00  0.3472222E-02
   1       -3.0612
   2        4.2309
   3        5.1570
   4        5.1570
   5        6.4901
   6        6.4901
   7        7.4068
   8       12.1124
   9       12.1124
  10       13.2020
  11       13.2020
  12       13.3509
  13       13.6918
  14       13.6918
  15       14.9312
  16       14.9312
 
  0.1666667E+00  0.0000000E+00  0.0000000E+00  0.3472222E-02
   1       -2.8722
   2        3.0251
   3        5.3301
   4        5.3301
   5        6.6720
   6        6.6720
   7        8.9398
   8       10.8948
   9       10.8948
  10       12.3022
  11       12.3022
  12       13.5375
  13       13.8523
  14       13.8523
  15       16.4982
  16       16.4982
 
  0.2500000E+00  0.0000000E+00  0.0000000E+00  0.3472222E-02
   1       -2.5578
   2        1.8876
   3        5.6188
   4        5.6188
   5        6.9715
   6        6.9715
   7        9.7911
   8        9.7911
   9       10.6220
  10       11.3243
  11       11.3243
  12       13.8480
  13       14.1199
  14       14.1199
  15       17.6394
  16       17.9627
 
  0.3333333E+00  0.0000000E+00  0.0000000E+00  0.3472222E-02
   1       -2.1187
   2        0.8536
   3        6.0232
   4        6.0232
   5        7.3797
   6        7.3797
   7        8.8040
   8        8.8040
   9       10.3972
  10       10.3972
  11       12.4171
  12       14.2817
  13       14.4946
  14       14.4946
  15       17.0616
  16       17.0618
 
  0.4166667E+00  0.0000000E+00  0.0000000E+00  0.3472222E-02
   1       -1.5562
   2       -0.0676
   3        6.5437
   4        6.5437
   5        7.8641
   6        7.8641
   7        7.9338
   8        7.9338
   9        9.5924
  10        9.5924
  11       14.3137
  12       14.8373
  13       14.9767
  14       14.9767
  15       16.2613
  16       16.2639
 
  0.5000000E+00  0.0000000E+00  0.0000000E+00  0.1736111E-02
   1       -0.8718
   2       -0.8718
   3        7.1804
   4        7.1804
   5        7.1804
   6        7.1804
   7        8.1954
   8        8.1954
   9        9.1531
  10        9.1531
  11       15.5127
  12       15.5127
  13       15.5658
  14       15.5658
  15       15.5658
  16       15.5658
 
  0.8333333E-01  0.8333333E-01  0.0000000E+00  0.6944444E-02
   1       -2.9982
   2        4.2902
   3        4.2902
   4        5.2147
   5        6.5507
   6        7.4658
   7        7.4658
   8       11.2633
   9       12.1709
  10       12.1709
  11       13.2569
  12       13.2569
  13       13.7461
  14       14.8549
  15       14.9884
  16       14.9884
 
  0.1666667E+00  0.8333333E-01  0.0000000E+00  0.1388889E-01
   1       -2.8093
   2        3.0853
   3        4.4679
   4        5.3879
   5        6.7310
   6        7.6420
   7        8.9969
   8       10.1080
   9       10.9531
  10       12.3462
  11       12.3599
  12       13.1429
  13       13.4219
  14       15.1599
  15       15.9999
  16       16.5554
 
  0.2500000E+00  0.8333333E-01  0.0000000E+00  0.1388889E-01
   1       -2.4949
   2        1.9484
   3        4.7636
   4        5.6766
   5        7.0247
   6        7.9316
   7        9.0283
   8        9.8493
   9       10.6761
  10       11.3859
  11       12.1863
  12       12.6380
  13       13.6973
  14       15.4458
  15       16.7755
  16       17.5420
 
  0.3333333E+00  0.8333333E-01  0.0000000E+00  0.1388889E-01
   1       -2.0561
   2        0.9149
   3        5.1765
   4        6.0810
   5        7.3866
   6        8.0980
   7        8.3211
   8        8.8620
   9       10.4698
  10       11.2588
  11       12.4632
  12       13.0457
  13       14.0860
  14       15.8127
  15       15.8458
  16       16.6478
 
  0.4166667E+00  0.8333333E-01  0.0000000E+00  0.1388889E-01
   1       -1.4938
   2       -0.0059
   3        5.7052
   4        6.6015
   5        7.0759
   6        7.9918
   7        8.0538
   8        8.7276
   9        9.7349
  10       10.4265
  11       13.5686
  12       14.2817
  13       14.6521
  14       14.9544
  15       15.8443
  16       16.3593
 
  0.5000000E+00  0.8333333E-01  0.0000000E+00  0.6944444E-02
   1       -0.8098
   2       -0.8098
   3        6.3457
   4        6.3457
   5        7.2384
   6        7.2384
   7        8.5883
   8        8.5883
   9        9.7621
  10        9.7621
  11       14.2054
  12       14.2054
  13       15.1334
  14       15.1334
  15       16.3835
  16       16.3835
 
  0.1666667E+00  0.1666667E+00  0.0000000E+00  0.6944444E-02
   1       -2.6206
   2        3.2658
   3        3.2658
   4        5.5611
   5        6.9036
   6        8.9744
   7        9.1664
   8        9.1664
   9       11.1277
  10       11.1277
  11       12.5335
  12       12.5335
  13       14.0697
  14       15.5487
  15       16.6590
  16       16.7268
 
  0.2500000E+00  0.1666667E+00  0.0000000E+00  0.1388889E-01
   1       -2.3067
   2        2.1307
   3        3.5660
   4        5.8499
   5        7.1446
   6        7.9482
   7        9.4380
   8       10.0236
   9       10.8315
  10       11.4186
  11       11.5762
  12       12.8282
  13       13.5647
  14       15.5781
  15       16.6764
  16       16.6796
 
  0.3333333E+00  0.1666667E+00  0.0000000E+00  0.1388889E-01
   1       -1.8684
   2        1.0986
   3        3.9851
   4        6.2545
   5        6.7732
   6        7.7501
   7        9.0362
   8        9.7455
   9       10.7377
  10       11.8256
  11       12.5483
  12       12.6980
  13       13.2943
  14       14.6030
  15       15.7893
  16       17.4106
 
  0.4166667E+00  0.1666667E+00  0.0000000E+00  0.1388889E-01
   1       -1.3069
   2        0.1790
   3        4.5219
   4        5.9349
   5        6.7751
   6        8.1658
   7        8.2403
   8        9.5383
   9       10.6089
  10       11.8751
  11       12.3483
  12       13.6078
  13       13.7382
  14       14.6262
  15       14.9790
  16       17.9203
 
  0.5000000E+00  0.1666667E+00  0.0000000E+00  0.6944444E-02
   1       -0.6237
   2       -0.6237
   3        5.1738
   4        5.1738
   5        7.4121
   6        7.4121
   7        8.8664
   8        8.8664
   9       11.1556
  10       11.1556
  11       12.9862
  12       12.9862
  13       14.2583
  14       14.2583
  15       16.5618
  16       16.5618
 
  0.2500000E+00  0.2500000E+00  0.0000000E+00  0.6944444E-02
   1       -1.9935
   2        2.4340
   3        2.4340
   4        6.1388
   5        6.6647
   6        7.6382
   7       10.3142
   8       10.3142
   9       11.0278
  10       11.0278
  11       11.9479
  12       11.9479
  13       14.4859
  14       14.6097
  15       15.7448
  16       16.2514
 
  0.3333333E+00  0.2500000E+00  0.0000000E+00  0.1388889E-01
   1       -1.5562
   2        1.4043
   3        2.8574
   4        5.7133
   5        6.5437
   6        8.0148
   7        9.3265
   8       10.7098
   9       10.7210
  10       11.7329
  11       12.0832
  12       13.0781
  13       13.5044
  14       14.2303
  15       14.8497
  16       17.4458
 
  0.4166667E+00  0.2500000E+00  0.0000000E+00  0.1388889E-01
   1       -0.9959
   2        0.4868
   3        3.3999
   4        4.8330
   5        7.0646
   6        8.4558
   7        8.5436
   8        9.9300
   9       11.2437
  10       12.1702
  11       12.6360
  12       12.6670
  13       13.4799
  14       14.0310
  15       14.8866
  16       18.8337
 
  0.5000000E+00  0.2500000E+00  0.0000000E+00  0.6944444E-02
   1       -0.3142
   2       -0.3142
   3        4.0595
   4        4.0595
   5        7.7019
   6        7.7019
   7        9.1881
   8        9.1881
   9       11.8822
  10       11.8822
  11       12.7733
  12       12.7733
  13       13.3030
  14       13.3030
  15       16.8308
  16       16.8308
 
  0.3333333E+00  0.3333333E+00  0.0000000E+00  0.6944444E-02
   1       -1.1202
   2        1.8312
   3        1.8312
   4        4.7177
   5        6.9488
   6        8.4291
   7        9.7330
   8        9.7330
   9       11.2062
  10       11.2062
  11       12.5192
  12       13.4195
  13       13.4195
  14       13.9464
  15       15.3666
  16       17.1332
 
  0.4166667E+00  0.3333333E+00  0.0000000E+00  0.1388889E-01
   1       -0.5616
   2        0.9165
   3        2.3782
   4        3.8247
   5        7.4700
   6        8.8619
   7        8.9647
   8       10.2556
   9       10.3655
  10       11.6490
  11       11.7471
  12       13.1189
  13       13.9078
  14       15.1211
  15       15.2636
  16       18.4020
 
  0.5000000E+00  0.3333333E+00  0.0000000E+00  0.6944444E-02
   1        0.1180
   2        0.1180
   3        3.0434
   4        3.0434
   5        8.1077
   6        8.1077
   7        9.6131
   8        9.6131
   9       10.8943
  10       10.8943
  11       12.3837
  12       12.3837
  13       14.4953
  14       14.4953
  15       17.1821
  16       17.1821
 
  0.4166667E+00  0.4166667E+00  0.0000000E+00  0.6944444E-02
   1       -0.0053
   2        1.4671
   3        1.4671
   4        2.9240
   5        7.9916
   6        9.3843
   7        9.3843
   8        9.5011
   9       10.7779
  10       10.9007
  11       10.9007
  12       12.2832
  13       15.7322
  14       15.7322
  15       16.3406
  16       18.2178
 
  0.5000000E+00  0.4166667E+00  0.0000000E+00  0.6944444E-02
   1        0.6717
   2        0.6717
   3        2.1370
   4        2.1370
   5        8.6297
   6        8.6297
   7       10.0229
   8       10.0229
   9       10.1485
  10       10.1485
  11       11.5410
  12       11.5410
  13       16.2310
  14       16.2310
  15       17.5544
  16       17.5544
 
  0.5000000E+00  0.5000000E+00  0.0000000E+00  0.1736111E-02
   1        1.3454
   2        1.3454
   3        1.3454
   4        1.3454
   5        9.2680
   6        9.2680
   7        9.2680
   8        9.2680
   9       10.7928
  10       10.7928
  11       10.7928
  12       10.7928
  13       17.5305
  14       17.5305
  15       17.5305
  16       17.5305
 
  0.8333333E-01  0.8333333E-01  0.8333333E-01  0.4629630E-02
   1       -2.9352
   2        4.3494
   3        4.3494
   4        4.3494
   5        7.5244
   6        7.5244
   7        7.5244
   8       11.3221
   9       11.3221
  10       11.3221
  11       13.7996
  12       13.7996
  13       13.7996
  14       14.9145
  15       14.9145
  16       14.9145
 
  0.1666667E+00  0.8333333E-01  0.8333333E-01  0.1388889E-01
   1       -2.7464
   2        3.1455
   3        4.5270
   4        4.5270
   5        7.6981
   6        7.6981
   7        9.0526
   8       10.1685
   9       10.1685
  10       11.4988
  11       13.1990
  12       13.1990
  13       13.9602
  14       15.0931
  15       16.0579
  16       16.0579
 
  0.2500000E+00  0.8333333E-01  0.8333333E-01  0.1388889E-01
   1       -2.4322
   2        2.0092
   3        4.8225
   4        4.8225
   5        7.9738
   6        7.9738
   7        9.0991
   8        9.0991
   9       10.7221
  10       11.7994
  11       12.2449
  12       12.2449
  13       14.2279
  14       15.3898
  15       15.8899
  16       17.6609
 
  0.3333333E+00  0.8333333E-01  0.8333333E-01  0.1388889E-01
   1       -1.9935
   2        0.9762
   3        5.2348
   4        5.2348
   5        7.9836
   6        7.9836
   7        8.5095
   8        8.5095
   9       11.3216
  10       11.3216
  11       12.1351
  12       12.5836
  13       14.6029
  14       14.9330
  15       15.8036
  16       17.1717
 
  0.4166667E+00  0.8333333E-01  0.8333333E-01  0.1388889E-01
   1       -1.4315
   2        0.0558
   3        5.7608
   4        5.7608
   5        7.1788
   6        7.1788
   7        8.9381
   8        8.9381
   9       10.5054
  10       10.5054
  11       12.6939
  12       14.0789
  13       14.4346
  14       15.0853
  15       16.3334
  16       16.3708
 
  0.5000000E+00  0.8333333E-01  0.8333333E-01  0.6944444E-02
   1       -0.7477
   2       -0.7477
   3        6.3023
   4        6.3023
   5        6.5280
   6        6.5280
   7        9.3091
   8        9.3091
   9       10.0201
  10       10.0201
  11       13.3322
  12       13.3322
  13       15.6748
  14       15.6748
  15       16.3911
  16       16.3911
 
  0.1666667E+00  0.1666667E+00  0.8333333E-01  0.1388889E-01
   1       -2.5578
   2        3.3258
   3        3.3258
   4        4.7042
   5        7.8549
   6        9.0472
   7        9.2110
   8        9.2110
   9       10.3570
  10       10.3570
  11       13.3674
  12       13.3674
  13       14.1233
  14       15.6090
  15       15.8112
  16       16.2318
 
  0.2500000E+00  0.1666667E+00  0.8333333E-01  0.2777778E-01
   1       -2.2440
   2        2.1914
   3        3.6259
   4        4.9988
   5        7.7842
   6        8.3269
   7        9.1468
   8        9.6184
   9       10.5398
  10       10.9936
  11       12.4218
  12       13.6208
  13       13.6487
  14       14.7514
  15       16.5205
  16       16.7341
 
  0.3333333E+00  0.1666667E+00  0.8333333E-01  0.2777778E-01
   1       -1.8059
   2        1.1598
   3        4.0447
   4        5.4076
   5        6.8912
   6        8.2295
   7        8.6452
   8        9.9306
   9       11.0091
  10       11.5193
  11       12.7093
  12       12.7563
  13       13.7870
  14       14.0484
  15       16.6327
  16       16.9224
 
  0.4166667E+00  0.1666667E+00  0.8333333E-01  0.2777778E-01
   1       -1.2446
   2        0.2406
   3        4.5807
   4        5.8493
   5        6.1083
   6        7.3627
   7        9.1556
   8       10.2285
   9       10.8861
  10       11.5387
  11       11.9371
  12       12.9276
  13       14.3860
  14       14.7494
  15       15.8224
  16       17.4341
 
  0.5000000E+00  0.1666667E+00  0.8333333E-01  0.1388889E-01
   1       -0.5618
   2       -0.5618
   3        5.2290
   4        5.2290
   5        6.6080
   6        6.6080
   7        9.7626
   8        9.7626
   9       11.2329
  10       11.2329
  11       12.1776
  12       12.1776
  13       15.1045
  14       15.1045
  15       16.6065
  16       16.6065
 
  0.2500000E+00  0.2500000E+00  0.8333333E-01  0.1388889E-01
   1       -1.9309
   2        2.4945
   3        2.4945
   4        5.2897
   5        6.7856
   6        8.5341
   7        9.5100
   8        9.5100
   9       11.2010
  10       11.2010
  11       12.7260
  12       12.7260
  13       13.6825
  14       14.6634
  15       16.3107
  16       16.6133
 
  0.3333333E+00  0.2500000E+00  0.8333333E-01  0.2777778E-01
   1       -1.4938
   2        1.4654
   3        2.9178
   4        5.6181
   5        5.8839
   6        8.5312
   7        8.9370
   8        9.9270
   9       11.3957
  10       12.0004
  11       12.7117
  12       12.7939
  13       13.3056
  14       14.2861
  15       15.7187
  16       17.5022
 
  0.4166667E+00  0.2500000E+00  0.8333333E-01  0.2777778E-01
   1       -0.9338
   2        0.5483
   3        3.4599
   4        4.8885
   5        6.2575
   6        7.6583
   7        9.4615
   8       10.4542
   9       10.8156
  10       11.8477
  11       12.2444
  12       13.5372
  13       13.5377
  14       14.9009
  15       14.9469
  16       18.8890
 
  0.5000000E+00  0.2500000E+00  0.8333333E-01  0.1388889E-01
   1       -0.2524
   2       -0.2524
   3        4.1186
   4        4.1186
   5        6.8985
   6        6.8985
   7       10.0953
   8       10.0953
   9       11.0945
  10       11.0945
  11       12.8341
  12       12.8341
  13       14.1749
  14       14.1749
  15       16.8830
  16       16.8830
 
  0.3333333E+00  0.3333333E+00  0.8333333E-01  0.1388889E-01
   1       -1.0580
   2        1.8921
   3        1.8921
   4        4.7732
   5        6.1402
   6        8.9438
   7        8.9438
   8        9.3498
   9       11.7360
  10       12.0826
  11       12.0826
  12       13.4884
  13       13.4884
  14       14.8187
  15       15.4205
  16       17.1904
 
  0.4166667E+00  0.3333333E+00  0.8333333E-01  0.2777778E-01
   1       -0.4997
   2        0.9778
   3        2.4388
   4        3.8840
   5        6.6645
   6        8.0698
   7        9.4709
   8        9.8781
   9       10.8685
  10       11.2590
  11       12.6287
  12       13.9669
  13       13.9937
  14       15.1765
  15       15.3201
  16       18.4561
 
  0.5000000E+00  0.3333333E+00  0.8333333E-01  0.1388889E-01
   1        0.1796
   2        0.1796
   3        3.1036
   4        3.1036
   5        7.3091
   6        7.3091
   7       10.1128
   8       10.1128
   9       10.5171
  10       10.5171
  11       13.2619
  12       13.2619
  13       14.5521
  14       14.5521
  15       17.2356
  16       17.2356
 
  0.4166667E+00  0.4166667E+00  0.8333333E-01  0.1388889E-01
   1        0.0564
   2        1.5282
   3        1.5282
   4        2.9843
   5        7.1923
   6        8.5974
   7        8.5974
   8        9.9983
   9       10.4071
  10       11.7902
  11       11.7902
  12       13.1620
  13       15.7877
  14       15.7877
  15       16.3947
  16       18.2714
 
  0.5000000E+00  0.4166667E+00  0.8333333E-01  0.1388889E-01
   1        0.7331
   2        0.7331
   3        2.1978
   4        2.1978
   5        7.8372
   6        7.8372
   7        9.2406
   8        9.2406
   9       11.0462
  10       11.0462
  11       12.4249
  12       12.4249
  13       16.2858
  14       16.2858
  15       17.6083
  16       17.6083
 
  0.5000000E+00  0.5000000E+00  0.8333333E-01  0.3472222E-02
   1        1.4065
   2        1.4065
   3        1.4065
   4        1.4065
   5        8.4814
   6        8.4814
   7        8.4814
   8        8.4814
   9       11.6834
  10       11.6834
  11       11.6834
  12       11.6834
  13       17.5848
  14       17.5848
  15       17.5848
  16       17.5848
 
  0.1666667E+00  0.1666667E+00  0.1666667E+00  0.4629630E-02
   1       -2.3694
   2        3.5059
   3        3.5059
   4        3.5059
   5        9.0580
   6        9.0580
   7        9.0580
   8        9.5441
   9        9.5441
  10        9.5441
  11       14.2842
  12       14.2842
  13       14.2842
  14       14.6833
  15       15.7892
  16       15.7892
 
  0.2500000E+00  0.1666667E+00  0.1666667E+00  0.1388889E-01
   1       -2.0561
   2        2.3734
   3        3.8054
   4        3.8054
   5        8.0588
   6        8.0588
   7        9.4456
   8        9.7466
   9        9.7466
  10       11.1235
  11       13.6195
  12       13.7891
  13       13.7891
  14       14.5523
  15       16.0877
  16       16.9068
 
  0.3333333E+00  0.1666667E+00  0.1666667E+00  0.1388889E-01
   1       -1.6186
   2        1.3433
   3        4.2229
   4        4.2229
   5        7.0794
   6        7.0794
   7        9.8659
   8       10.1383
   9       10.1383
  10       12.6513
  11       12.8972
  12       12.9322
  13       12.9322
  14       14.9280
  15       16.5012
  16       17.5019
 
  0.4166667E+00  0.1666667E+00  0.1666667E+00  0.1388889E-01
   1       -1.0581
   2        0.4253
   3        4.7543
   4        4.7543
   5        6.2055
   6        6.2055
   7       10.3944
   8       10.6320
   9       10.6320
  10       11.7885
  11       12.1319
  12       12.1319
  13       14.7737
  14       15.4111
  15       16.6992
  16       17.0246
 
  0.5000000E+00  0.1666667E+00  0.1666667E+00  0.6944444E-02
   1       -0.3761
   2       -0.3761
   3        5.2842
   4        5.2842
   5        5.5608
   6        5.5608
   7       11.0315
   8       11.0315
   9       11.0354
  10       11.0354
  11       11.6276
  12       11.6276
  13       16.0017
  14       16.0017
  15       16.7258
  16       16.7258
 
  0.2500000E+00  0.2500000E+00  0.1666667E+00  0.1388889E-01
   1       -1.7434
   2        2.6761
   3        2.6761
   4        4.1035
   5        6.9746
   6        8.3651
   7        8.3651
   8       10.0335
   9       11.4016
  10       11.4016
  11       12.5498
  12       14.0702
  13       14.0702
  14       14.8247
  15       16.4878
  16       17.1925
 
  0.3333333E+00  0.2500000E+00  0.1666667E+00  0.2777778E-01
   1       -1.3069
   2        1.6485
   3        3.0986
   4        4.5164
   5        5.9854
   6        7.3775
   7        8.7801
   8       10.4386
   9       11.5764
  10       11.7806
  11       13.1680
  12       13.2340
  13       14.4536
  14       14.4688
  15       17.0427
  16       17.5874
 
  0.4166667E+00  0.2500000E+00  0.1666667E+00  0.2777778E-01
   1       -0.7476
   2        0.7325
   3        3.6393
   4        4.9374
   5        5.2128
   6        6.4977
   7        9.3092
   8       10.7091
   9       10.9540
  10       12.0794
  11       12.6247
  12       13.7116
  13       14.8285
  14       15.1787
  15       16.2424
  16       18.0844
 
  0.5000000E+00  0.2500000E+00  0.1666667E+00  0.1388889E-01
   1       -0.0671
   2       -0.0671
   3        4.2935
   4        4.2935
   5        5.7347
   6        5.7347
   7        9.9526
   8        9.9526
   9       11.5632
  10       11.5632
  11       13.0242
  12       13.0242
  13       15.5287
  14       15.5287
  15       17.0339
  16       17.0339
 
  0.3333333E+00  0.3333333E+00  0.1666667E+00  0.1388889E-01
   1       -0.8717
   2        2.0746
   3        2.0746
   4        4.8213
   5        5.0949
   6        7.7915
   7        7.7915
   8       10.5983
   9       10.8488
  10       13.3571
  11       13.3571
  12       13.8243
  13       13.8243
  14       15.5822
  15       16.2088
  16       17.3606
 
  0.4166667E+00  0.3333333E+00  0.1666667E+00  0.2777778E-01
   1       -0.3141
   2        1.1616
   3        2.6204
   4        4.0595
   5        5.4976
   6        6.9112
   7        8.3218
   8        9.7271
   9       11.3694
  10       12.7121
  11       14.0565
  12       14.1496
  13       15.3426
  14       15.4066
  15       15.4911
  16       18.6167
 
  0.5000000E+00  0.3333333E+00  0.1666667E+00  0.1388889E-01
   1        0.3644
   2        0.3644
   3        3.2838
   4        3.2838
   5        6.1446
   6        6.1446
   7        8.9675
   8        8.9675
   9       11.9957
  10       11.9957
  11       14.6874
  12       14.6874
  13       14.7230
  14       14.7230
  15       17.3943
  16       17.3943
 
  0.4166667E+00  0.4166667E+00  0.1666667E+00  0.1388889E-01
   1        0.2414
   2        1.7112
   3        1.7112
   4        3.1647
   5        6.0265
   6        7.4426
   7        7.4426
   8        8.8527
   9       11.8919
  10       13.2487
  11       13.2487
  12       14.5995
  13       15.9539
  14       15.9539
  15       16.5569
  16       18.4295
 
  0.5000000E+00  0.4166667E+00  0.1666667E+00  0.1388889E-01
   1        0.9172
   2        0.9172
   3        2.3798
   4        2.3798
   5        6.6764
   6        6.6764
   7        8.0903
   8        8.0903
   9       12.5206
  10       12.5206
  11       13.8758
  12       13.8758
  13       16.4498
  14       16.4498
  15       17.7692
  16       17.7692
 
  0.5000000E+00  0.5000000E+00  0.1666667E+00  0.3472222E-02
   1        1.5897
   2        1.5897
   3        1.5897
   4        1.5897
   5        7.3258
   6        7.3258
   7        7.3258
   8        7.3258
   9       13.1486
  10       13.1486
  11       13.1486
  12       13.1486
  13       17.7476
  14       17.7476
  15       17.7476
  16       17.7476
 
  0.2500000E+00  0.2500000E+00  0.2500000E+00  0.4629630E-02
   1       -1.4315
   2        2.9780
   3        2.9780
   4        2.9780
   5        7.2733
   6        7.2733
   7        7.2733
   8       11.4754
   9       11.6952
  10       11.6952
  11       11.6952
  12       15.0935
  13       15.0935
  14       15.0935
  15       16.7798
  16       16.7798
 
  0.3333333E+00  0.2500000E+00  0.2500000E+00  0.1388889E-01
   1       -0.9959
   2        1.9530
   3        3.3990
   4        3.3990
   5        6.2785
   6        6.2785
   7        7.6879
   8       10.4972
   9       12.0945
  10       12.0945
  11       13.4684
  12       14.7330
  13       14.7330
  14       15.4701
  15       17.1810
  16       17.9481
 
  0.4166667E+00  0.2500000E+00  0.2500000E+00  0.1388889E-01
   1       -0.4378
   2        1.0391
   3        3.9351
   4        3.9351
   5        5.3956
   6        5.3956
   7        8.2189
   8        9.6256
   9       12.5891
  10       12.5891
  11       14.0086
  12       14.0086
  13       15.3334
  14       15.9545
  15       17.2464
  16       17.6810
 
  0.5000000E+00  0.2500000E+00  0.2500000E+00  0.6944444E-02
   1        0.2412
   2        0.2412
   3        4.4741
   4        4.4741
   5        4.7407
   6        4.7407
   7        8.8653
   8        8.8653
   9       13.0064
  10       13.0064
  11       13.5013
  12       13.5013
  13       16.5468
  14       16.5468
  15       17.2661
  16       17.2661
 
  0.3333333E+00  0.3333333E+00  0.2500000E+00  0.1388889E-01
   1       -0.5616
   2        2.3781
   3        2.3781
   4        3.8155
   5        5.2805
   6        6.6930
   7        6.6930
   8        9.5143
   9       12.5020
  10       13.8526
  11       13.8526
  12       15.1281
  13       15.1281
  14       15.8518
  15       17.6391
  16       17.6397
 
  0.4166667E+00  0.3333333E+00  0.2500000E+00  0.2777778E-01
   1       -0.0052
   2        1.4673
   3        2.9222
   4        4.2415
   5        4.5005
   6        5.8073
   7        7.2257
   8        8.6387
   9       13.0124
  10       14.1609
  11       14.5822
  12       15.5051
  13       15.6193
  14       15.8234
  15       16.8874
  16       18.7935
 
  0.5000000E+00  0.3333333E+00  0.2500000E+00  0.1388889E-01
   1        0.6718
   2        0.6718
   3        3.5811
   4        3.5811
   5        5.0385
   6        5.0385
   7        7.8749
   8        7.8749
   9       13.6150
  10       13.6150
  11       15.0121
  12       15.0121
  13       16.1875
  14       16.1875
  15       17.6508
  16       17.6508
 
  0.4166667E+00  0.4166667E+00  0.2500000E+00  0.1388889E-01
   1        0.5491
   2        2.0157
   3        2.0157
   4        3.4625
   5        4.9190
   6        6.3411
   7        6.3411
   8        7.7594
   9       13.5279
  10       14.8366
  11       14.8366
  12       16.1537
  13       16.2309
  14       16.2309
  15       16.8274
  16       18.6833
 
  0.5000000E+00  0.4166667E+00  0.2500000E+00  0.1388889E-01
   1        1.2235
   2        1.2235
   3        2.6824
   4        2.6824
   5        5.5703
   6        5.5703
   7        6.9925
   8        6.9925
   9       14.1412
  10       14.1412
  11       15.4555
  12       15.4555
  13       16.7223
  14       16.7223
  15       18.0342
  16       18.0342
 
  0.5000000E+00  0.5000000E+00  0.2500000E+00  0.3472222E-02
   1        1.8945
   2        1.8945
   3        1.8945
   4        1.8945
   5        6.2233
   6        6.2233
   7        6.2233
   8        6.2233
   9       14.7560
  10       14.7560
  11       14.7560
  12       14.7560
  13       18.0191
  14       18.0191
  15       18.0191
  16       18.0191
 
  0.3333333E+00  0.3333333E+00  0.3333333E+00  0.4629630E-02
   1       -0.1286
   2        2.8015
   3        2.8015
   4        2.8015
   5        5.6927
   6        5.6927
   7        5.6927
   8        8.5268
   9       14.2608
  10       14.2608
  11       14.2608
  12       16.2296
  13       16.2296
  14       16.2296
  15       18.0157
  16       18.0157
 
  0.4166667E+00  0.3333333E+00  0.3333333E+00  0.1388889E-01
   1        0.4262
   2        1.8941
   3        3.3412
   4        3.3412
   5        4.8046
   6        4.8046
   7        6.2271
   8        7.6468
   9       14.7516
  10       14.7516
  11       16.0084
  12       16.0084
  13       16.1010
  14       16.7156
  15       18.0121
  16       18.4673
 
  0.5000000E+00  0.3333333E+00  0.3333333E+00  0.6944444E-02
   1        1.1011
   2        1.1011
   3        3.8923
   4        3.8923
   5        4.1370
   6        4.1370
   7        6.8792
   8        6.8792
   9       15.1888
  10       15.1888
  11       15.5407
  12       15.5407
  13       17.3099
  14       17.3099
  15       17.9865
  16       17.9865
 
  0.4166667E+00  0.4166667E+00  0.3333333E+00  0.1388889E-01
   1        0.9788
   2        2.4404
   3        2.4404
   4        3.7757
   5        4.0149
   6        5.3379
   7        5.3379
   8        6.7629
   9       15.2597
  10       16.4012
  11       16.4012
  12       16.6593
  13       16.6593
  14       17.2065
  15       17.7062
  16       19.0102
 
  0.5000000E+00  0.4166667E+00  0.3333333E+00  0.1388889E-01
   1        1.6511
   2        1.6511
   3        3.1025
   4        3.1025
   5        4.5653
   6        4.5653
   7        5.9922
   8        5.9922
   9       15.8421
  10       15.8421
  11       17.0581
  12       17.0581
  13       17.1013
  14       17.1013
  15       18.3940
  16       18.3940
 
  0.5000000E+00  0.5000000E+00  0.3333333E+00  0.3472222E-02
   1        2.3197
   2        2.3197
   3        2.3197
   4        2.3197
   5        5.2191
   6        5.2191
   7        5.2191
   8        5.2191
   9       16.4345
  10       16.4345
  11       16.4345
  12       16.4345
  13       18.3995
  14       18.3995
  15       18.3995
  16       18.3995
 
  0.4166667E+00  0.4166667E+00  0.4166667E+00  0.4629630E-02
   1        1.5293
   2        2.9823
   3        2.9823
   4        2.9823
   5        4.4466
   6        4.4466
   7        4.4466
   8        5.8751
   9       17.0477
  10       17.0477
  11       17.0477
  12       17.6942
  13       17.6942
  14       17.6942
  15       18.9953
  16       18.9953
 
  0.5000000E+00  0.4166667E+00  0.4166667E+00  0.6944444E-02
   1        2.1985