 vasp.4.6.28 25Jul05 complex 
 executed on             LinuxIFC date 2016.10.19  17:41:43
 running on    8 nodes
 distr:  one band on    1 nodes,    8 groups


--------------------------------------------------------------------------------------------------------


 INCAR:
 POTCAR:   PAW_PBE Al 04Jan2001                   
 POTCAR:   PAW_PBE Al 04Jan2001                   
   VRHFIN =Al: s2p1                                                             
   LEXCH  = PE                                                                  
   EATOM  =    53.5387 eV,    3.9350 Ry                                         
                                                                                
   TITEL  = PAW_PBE Al 04Jan2001                                                
   LULTRA =        F    use ultrasoft PP ?                                      
   IUNSCR =        1    unscreen: 0-lin 1-nonlin 2-no                           
   RPACOR =    1.500    partial core radius                                     
   POMASS =   26.982; ZVAL   =    3.000    mass and valenz                      
   RCORE  =    1.900    outmost cutoff radius                                   
   RWIGS  =    2.650; RWIGS  =    1.402    wigner-seitz radius (au A)           
   ENMAX  =  240.300; ENMIN  =  180.225 eV                                      
   ICORE  =        2    local potential                                         
   LCOR   =        T    correct aug charges                                     
   LPAW   =        T    paw PP                                                  
   EAUG   =  291.052                                                            
   DEXC   =    -.041                                                            
   RMAX   =    2.974    core radius for proj-oper                               
   RAUG   =    1.300    factor for augmentation sphere                          
   RDEP   =    1.966    radius for radial grids                                 
   QCUT   =   -4.203; QGAM   =    8.405    optimization parameters              
                                                                                
   Description                                                                  
     l     E      TYP  RCUT    TYP  RCUT                                        
     0   .000     23  1.900                                                     
     0   .000     23  1.900                                                     
     1   .000     23  1.900                                                     
     1  1.000     23  1.900                                                     
     2   .000      7  1.900                                                     
  local pseudopotential read in
  partial core-charges read in
  atomic valenz-charges read in
  non local Contribution for L=           0  read in
    real space projection operators read in
  non local Contribution for L=           0  read in
    real space projection operators read in
  non local Contribution for L=           1  read in
    real space projection operators read in
  non local Contribution for L=           1  read in
    real space projection operators read in
    PAW grid and wavefunctions read in
 
   number of l-projection  operators is LMAX  =           4
   number of lm-projection operators is LMMAX =           8
 
 PAW_PBE Al 04Jan2001                   :
 energy of atom  1       EATOM=  -53.5387
 kinetic energy error for atom=    0.0003 (will be added to EATOM!!)
 
 EXHCAR: internal setup
 exchange correlation table for  LEXCH =        8
   RHO(1)=    0.500       N(1)  =     2000
   RHO(2)=  100.500       N(2)  =     4000
 
 POSCAR: Al                                      
  positions in direct lattice
  No initial velocities read in
 


--------------------------------------------------------------------------------------------------------


 ion  position               nearest neighbor table
   1  0.500  0.500  0.000-   2 2.88   3 2.88   4 2.88   2 2.88   3 2.88   2 2.88   4 2.88   2 2.88
                             3 2.88   4 2.88   3 2.88   4 2.88
   2  0.500  0.000  0.500-   1 2.88   3 2.88   4 2.88   1 2.88   4 2.88   1 2.88   3 2.88   1 2.88
                             3 2.88   4 2.88   4 2.88   3 2.88
   3  0.000  0.500  0.500-   1 2.88   2 2.88   4 2.88   1 2.88   4 2.88   2 2.88   4 2.88   4 2.88
                             1 2.88   2 2.88   1 2.88   2 2.88
   4  0.000  0.000  0.000-   1 2.88   2 2.88   3 2.88   2 2.88   3 2.88   1 2.88   3 2.88   3 2.88
                             1 2.88   2 2.88   2 2.88   1 2.88
 
  LATTYP: Found a simple cubic cell.
 ALAT       =     4.0776794334
  
  Lattice vectors:
  
 A1 = (   4.0776794334,   0.0000000000,   0.0000000000)
 A2 = (   0.0000000000,   4.0776794334,   0.0000000000)
 A3 = (   0.0000000000,   0.0000000000,   4.0776794334)
 Subroutine PRICEL returns following result:
 
  LATTYP: Found a face centered cubic cell.
 ALAT       =     4.0776794334
  
  Lattice vectors:
  
 A1 = (   2.0388397167,   2.0388397167,  -0.0000000000)
 A2 = (   2.0388397167,   0.0000000000,  -2.0388397167)
 A3 = (   0.0000000000,   2.0388397167,  -2.0388397167)
 
   4 primitive cells build up your supercell.
 

Analysis of symmetry for initial positions (statically):

 Routine SETGRP: Setting up the symmetry group for a 
 simple cubic supercell.


 Subroutine GETGRP returns: Found 48 space group operations
 (whereof 48 operations were pure point group operations)
 out of a pool of 48 trial point group operations.


The static configuration has the point symmetry O_h .

Analysis of symmetry for dynamics (positions and initial velocities):

 Subroutine DYNSYM returns: Found 48 space group operations
 (whereof 48 operations were pure point group operations)
 out of a pool of 48 trial space group operations
 (whereof 48 operations were pure point group operations)
 and found also     4 'primitive' translations


The dynamic configuration has the point symmetry O_h .
 
 
 KPOINTS: Automatic mesh                          

Automatic generation of k-mesh.
 generate k-points for:  12  12  12
 
 Subroutine IBZKPT returns following result:
 ===========================================
 
 Found     84 irreducible k-points:
 
 Following reciprocal coordinates:
            Coordinates               Weight
  0.000000  0.000000  0.000000      1.000000
  0.083333  0.000000  0.000000      6.000000
  0.166667  0.000000  0.000000      6.000000
  0.250000  0.000000  0.000000      6.000000
  0.333333  0.000000  0.000000      6.000000
  0.416667  0.000000  0.000000      6.000000
  0.500000  0.000000  0.000000      3.000000
  0.083333  0.083333  0.000000     12.000000
  0.166667  0.083333  0.000000     24.000000
  0.250000  0.083333  0.000000     24.000000
  0.333333  0.083333  0.000000     24.000000
  0.416667  0.083333  0.000000     24.000000
  0.500000  0.083333  0.000000     12.000000
  0.166667  0.166667  0.000000     12.000000
  0.250000  0.166667  0.000000     24.000000
  0.333333  0.166667  0.000000     24.000000
  0.416667  0.166667  0.000000     24.000000
  0.500000  0.166667  0.000000     12.000000
  0.250000  0.250000  0.000000     12.000000
  0.333333  0.250000  0.000000     24.000000
  0.416667  0.250000  0.000000     24.000000
  0.500000  0.250000  0.000000     12.000000
  0.333333  0.333333  0.000000     12.000000
  0.416667  0.333333  0.000000     24.000000
  0.500000  0.333333  0.000000     12.000000
  0.416667  0.416667  0.000000     12.000000
  0.500000  0.416667  0.000000     12.000000
  0.500000  0.500000  0.000000      3.000000
  0.083333  0.083333  0.083333      8.000000
  0.166667  0.083333  0.083333     24.000000
  0.250000  0.083333  0.083333     24.000000
  0.333333  0.083333  0.083333     24.000000
  0.416667  0.083333  0.083333     24.000000
  0.500000  0.083333  0.083333     12.000000
  0.166667  0.166667  0.083333     24.000000
  0.250000  0.166667  0.083333     48.000000
  0.333333  0.166667  0.083333     48.000000
  0.416667  0.166667  0.083333     48.000000
  0.500000  0.166667  0.083333     24.000000
  0.250000  0.250000  0.083333     24.000000
  0.333333  0.250000  0.083333     48.000000
  0.416667  0.250000  0.083333     48.000000
  0.500000  0.250000  0.083333     24.000000
  0.333333  0.333333  0.083333     24.000000
  0.416667  0.333333  0.083333     48.000000
  0.500000  0.333333  0.083333     24.000000
  0.416667  0.416667  0.083333     24.000000
  0.500000  0.416667  0.083333     24.000000
  0.500000  0.500000  0.083333      6.000000
  0.166667  0.166667  0.166667      8.000000
  0.250000  0.166667  0.166667     24.000000
  0.333333  0.166667  0.166667     24.000000
  0.416667  0.166667  0.166667     24.000000
  0.500000  0.166667  0.166667     12.000000
  0.250000  0.250000  0.166667     24.000000
  0.333333  0.250000  0.166667     48.000000
  0.416667  0.250000  0.166667     48.000000
  0.500000  0.250000  0.166667     24.000000
  0.333333  0.333333  0.166667     24.000000
  0.416667  0.333333  0.166667     48.000000
  0.500000  0.333333  0.166667     24.000000
  0.416667  0.416667  0.166667     24.000000
  0.500000  0.416667  0.166667     24.000000
  0.500000  0.500000  0.166667      6.000000
  0.250000  0.250000  0.250000      8.000000
  0.333333  0.250000  0.250000     24.000000
  0.416667  0.250000  0.250000     24.000000
  0.500000  0.250000  0.250000     12.000000
  0.333333  0.333333  0.250000     24.000000
  0.416667  0.333333  0.250000     48.000000
  0.500000  0.333333  0.250000     24.000000
  0.416667  0.416667  0.250000     24.000000
  0.500000  0.416667  0.250000     24.000000
  0.500000  0.500000  0.250000      6.000000
  0.333333  0.333333  0.333333      8.000000
  0.416667  0.333333  0.333333     24.000000
  0.500000  0.333333  0.333333     12.000000
  0.416667  0.416667  0.333333     24.000000
  0.500000  0.416667  0.333333     24.000000
  0.500000  0.500000  0.333333      6.000000
  0.416667  0.416667  0.416667      8.000000
  0.500000  0.416667  0.416667     12.000000
  0.500000  0.500000  0.416667      6.000000
  0.500000  0.500000  0.500000      1.000000
 
 Following cartesian coordinates:
            Coordinates               Weight
  0.000000  0.000000  0.000000      1.000000
  0.020641  0.000000  0.000000      6.000000
  0.041282  0.000000  0.000000      6.000000
  0.061922  0.000000  0.000000      6.000000
  0.082563  0.000000  0.000000      6.000000
  0.103204  0.000000  0.000000      6.000000
  0.123845  0.000000  0.000000      3.000000
  0.020641  0.020641  0.000000     12.000000
  0.041282  0.020641  0.000000     24.000000
  0.061922  0.020641  0.000000     24.000000
  0.082563  0.020641  0.000000     24.000000
  0.103204  0.020641  0.000000     24.000000
  0.123845  0.020641  0.000000     12.000000
  0.041282  0.041282  0.000000     12.000000
  0.061922  0.041282  0.000000     24.000000
  0.082563  0.041282  0.000000     24.000000
  0.103204  0.041282  0.000000     24.000000
  0.123845  0.041282  0.000000     12.000000
  0.061922  0.061922  0.000000     12.000000
  0.082563  0.061922  0.000000     24.000000
  0.103204  0.061922  0.000000     24.000000
  0.123845  0.061922  0.000000     12.000000
  0.082563  0.082563  0.000000     12.000000
  0.103204  0.082563  0.000000     24.000000
  0.123845  0.082563  0.000000     12.000000
  0.103204  0.103204  0.000000     12.000000
  0.123845  0.103204  0.000000     12.000000
  0.123845  0.123845  0.000000      3.000000
  0.020641  0.020641  0.020641      8.000000
  0.041282  0.020641  0.020641     24.000000
  0.061922  0.020641  0.020641     24.000000
  0.082563  0.020641  0.020641     24.000000
  0.103204  0.020641  0.020641     24.000000
  0.123845  0.020641  0.020641     12.000000
  0.041282  0.041282  0.020641     24.000000
  0.061922  0.041282  0.020641     48.000000
  0.082563  0.041282  0.020641     48.000000
  0.103204  0.041282  0.020641     48.000000
  0.123845  0.041282  0.020641     24.000000
  0.061922  0.061922  0.020641     24.000000
  0.082563  0.061922  0.020641     48.000000
  0.103204  0.061922  0.020641     48.000000
  0.123845  0.061922  0.020641     24.000000
  0.082563  0.082563  0.020641     24.000000
  0.103204  0.082563  0.020641     48.000000
  0.123845  0.082563  0.020641     24.000000
  0.103204  0.103204  0.020641     24.000000
  0.123845  0.103204  0.020641     24.000000
  0.123845  0.123845  0.020641      6.000000
  0.041282  0.041282  0.041282      8.000000
  0.061922  0.041282  0.041282     24.000000
  0.082563  0.041282  0.041282     24.000000
  0.103204  0.041282  0.041282     24.000000
  0.123845  0.041282  0.041282     12.000000
  0.061922  0.061922  0.041282     24.000000
  0.082563  0.061922  0.041282     48.000000
  0.103204  0.061922  0.041282     48.000000
  0.123845  0.061922  0.041282     24.000000
  0.082563  0.082563  0.041282     24.000000
  0.103204  0.082563  0.041282     48.000000
  0.123845  0.082563  0.041282     24.000000
  0.103204  0.103204  0.041282     24.000000
  0.123845  0.103204  0.041282     24.000000
  0.123845  0.123845  0.041282      6.000000
  0.061922  0.061922  0.061922      8.000000
  0.082563  0.061922  0.061922     24.000000
  0.103204  0.061922  0.061922     24.000000
  0.123845  0.061922  0.061922     12.000000
  0.082563  0.082563  0.061922     24.000000
  0.103204  0.082563  0.061922     48.000000
  0.123845  0.082563  0.061922     24.000000
  0.103204  0.103204  0.061922     24.000000
  0.123845  0.103204  0.061922     24.000000
  0.123845  0.123845  0.061922      6.000000
  0.082563  0.082563  0.082563      8.000000
  0.103204  0.082563  0.082563     24.000000
  0.123845  0.082563  0.082563     12.000000
  0.103204  0.103204  0.082563     24.000000
  0.123845  0.103204  0.082563     24.000000
  0.123845  0.123845  0.082563      6.000000
  0.103204  0.103204  0.103204      8.000000
  0.123845  0.103204  0.103204     12.000000
  0.123845  0.123845  0.103204      6.000000
  0.123845  0.123845  0.123845      1.000000
 


--------------------------------------------------------------------------------------------------------




 Dimension of arrays:
   k-Points           NKPTS =     84   number of bands    NBANDS=     16
   number of dos      NEDOS =    301   number of ions     NIONS =      4
   non local maximal  LDIM  =      4   non local SUM 2l+1 LMDIM =      8
   total plane-waves  NPLWV =  27000
   max r-space proj   IRMAX =      1   max aug-charges    IRDMAX=  15696
   dimension x,y,z NGX =    30 NGY =   30 NGZ =   30
   dimension x,y,z NGXF=    60 NGYF=   60 NGZF=   60
   support grid    NGXF=    60 NGYF=   60 NGZF=   60
   ions per type =               4
 NGX,Y,Z   is equivalent  to a cutoff of  12.23, 12.23, 12.23 a.u.
 NGXF,Y,Z  is equivalent  to a cutoff of  24.46, 24.46, 24.46 a.u.


 I would recommend the setting:
   dimension x,y,z NGX =    30 NGY =   30 NGZ =   30
 SYSTEM =  unknown system                          
 POSCAR =  Al                                      

 Startparameter for this run:
   NWRITE =      2    write-flag & timer
   PREC   = accura    medium, high low
   ISTART =      0    job   : 0-new  1-cont  2-samecut
   ICHARG =      2    charge: 1-file 2-atom 10-const
   ISPIN  =      1    spin polarized calculation?
   LNONCOLLINEAR =      F non collinear calculations
   LSORBIT =      F    spin-orbit coupling
   INIWAV =      1    electr: 0-lowe 1-rand  2-diag
   LASPH  =      F    aspherical Exc in radial PAW
   METAGGA=      F    non-selfconsistent MetaGGA calc.

 Electronic Relaxation 1
   ENCUT  =  500.0 eV  36.75 Ry    6.06 a.u.   7.43  7.43  7.43*2*pi/ulx,y,z
   ENINI  =  500.0     initial cutoff
   ENAUG  =  291.1 eV  augmentation charge cutoff
   NELM   =     60;   NELMIN=  2; NELMDL=  0     # of ELM steps 
   EDIFF  = 0.1E-07   stopping-criterion for ELM
   LREAL  =      F    real-space projection
   LCOMPAT=      F    compatible to vasp.4.4
   LREAL_COMPAT= F    compatible to vasp.4.5.1-3
   GGA_COMPAT  = T    GGA compatible to vasp.4.4-vasp.4.6
   LMAXPAW     = -100 max onsite density
   LMAXMIX     =    2 max onsite mixed and CHGCAR
   VOSKOWN=      0    Vosko Wilk Nusair interpolation
   ROPT   =    0.00000
 Ionic relaxation
   EDIFFG = 0.1E-06   stopping-criterion for IOM
   NSW    =      0    number of steps for IOM
   NBLOCK =      1;   KBLOCK =      1    inner block; outer block 
   IBRION =     -1    ionic relax: 0-MD 1-quasi-New 2-CG
   NFREE  =      0    steps in history (QN), initial steepest desc. (CG)
   ISIF   =      2    stress and relaxation
   IWAVPR =     10    prediction:  0-non 1-charg 2-wave 3-comb
   ISYM   =      2    0-nonsym 1-usesym 2-fastsym
   LCORR  =      T    Harris-Foulkes like correction to forces

   POTIM  =   0.50    time-step for ionic-motion
   TEIN   =    0.0    initial temperature
   TEBEG  =    0.0;   TEEND  =   0.0 temperature during run
   SMASS  =  -3.00    Nose mass-parameter (am)
   estimated Nose-frequenzy (Omega)   =  0.10E-29 period in steps =****** mass=  -0.380E-27a.u.
   NPACO  =    256;   APACO  = 16.0  distance and # of slots for P.C.
   PSTRESS=    0.0 pullay stress

  Mass of Ions in am
   POMASS =  26.98
  Ionic Valenz
   ZVAL   =   3.00
  Atomic Wigner-Seitz radii
   RWIGS  =  -1.00
   NELECT =      12.0000    total number of electrons
   NUPDOWN=      -1.0000    fix difference up-down

 DOS related values:
   EMIN   =  10.00;   EMAX   =-10.00  energy-range for DOS
   ISMEAR =     0;   SIGMA  =   0.01  broadening in eV -4-tet -1-fermi 0-gaus

 Electronic relaxation 2 (details)
   IALGO  =     38    algorithm
   LDIAG  =      T    sub-space diagonalisation
   IMIX   =      4    mixing-type and parameters
     AMIX     =   0.40;   BMIX     =  1.00
     AMIX_MAG =   1.60;   BMIX_MAG =  1.00
     AMIN     =   0.10
     WC   =   100.;   INIMIX=   1;  MIXPRE=   1

 Intra band minimization:
   WEIMIN = 0.0000     energy-eigenvalue tresh-hold
   EBREAK =  0.25E-09  absolut break condition
   DEPER  =   0.30     relativ break condition  

   TIME   =   0.10     timestep for ELM

  volume/ion in A,a.u.               =      16.95       114.39
  Fermi-wavevector in a.u.,eV,Ry     =   0.919155 11.494831  0.844846

 Second variation
   LSECVAR=     F    do a second variation
 
 Write flags
   LWAVE  =      F    write WAVECAR
   LCHARG =      F    write CHGCAR
   LVTOT  =      F    write LOCPOT, local potential
   LELF   =      F    write electronic localiz. function (ELF)
   LORBIT =      0    0 simple, 1 ext, 2 COOP (PROOUT)


 Dipole corrections
   IDIPOL =      0    1-x, 2-y, 3-z
   LDIPOL =      F    correct potential



--------------------------------------------------------------------------------------------------------


 Static calculation
 charge density will be updated during run
 non-spin polarized calculation
 Variant of blocked Davidson
 Davidson routine will perform the subspace rotation
 performe sub-space diagonalisation
    after iterative eigenvector-optimisation
 modified Broyden-mixing scheme, WC =      100.0
 initial mixing is a Kerker type mixing with AMIX =  0.4000 and BMIX =      1.0000
 Hartree-type preconditioning will be used
 using additional bands           10
 reciprocal scheme for non local part
 use partial core corrections
 calculate Harris-corrections to forces 
   (improved forces if not selfconsistent)
 use gradient corrections 
 use of overlap-Matrix (Vanderbilt PP)
 Gauss-broadening in eV      SIGMA  =   0.01


--------------------------------------------------------------------------------------------------------


  energy-cutoff  :      500.00
  volume of cell :       67.80
      direct lattice vectors                 reciprocal lattice vectors
     4.077679433  0.000000000  0.000000000     0.245237522  0.000000000  0.000000000
     0.000000000  4.077679433  0.000000000     0.000000000  0.245237522  0.000000000
     0.000000000  0.000000000  4.077679433     0.000000000  0.000000000  0.245237522

  length of vectors
     4.077679433  4.077679433  4.077679433     0.245237522  0.245237522  0.245237522


 
 k-points in units of 2pi/SCALE and weight: Automatic mesh                          
   0.00000000  0.00000000  0.00000000       0.001
   0.02064082  0.00000000  0.00000000       0.003
   0.04128165  0.00000000  0.00000000       0.003
   0.06192247  0.00000000  0.00000000       0.003
   0.08256330  0.00000000  0.00000000       0.003
   0.10320412  0.00000000  0.00000000       0.003
   0.12384495  0.00000000  0.00000000       0.002
   0.02064082  0.02064082  0.00000000       0.007
   0.04128165  0.02064082  0.00000000       0.014
   0.06192247  0.02064082  0.00000000       0.014
   0.08256330  0.02064082  0.00000000       0.014
   0.10320412  0.02064082  0.00000000       0.014
   0.12384495  0.02064082  0.00000000       0.007
   0.04128165  0.04128165  0.00000000       0.007
   0.06192247  0.04128165  0.00000000       0.014
   0.08256330  0.04128165  0.00000000       0.014
   0.10320412  0.04128165  0.00000000       0.014
   0.12384495  0.04128165  0.00000000       0.007
   0.06192247  0.06192247  0.00000000       0.007
   0.08256330  0.06192247  0.00000000       0.014
   0.10320412  0.06192247  0.00000000       0.014
   0.12384495  0.06192247  0.00000000       0.007
   0.08256330  0.08256330  0.00000000       0.007
   0.10320412  0.08256330  0.00000000       0.014
   0.12384495  0.08256330  0.00000000       0.007
   0.10320412  0.10320412  0.00000000       0.007
   0.12384495  0.10320412  0.00000000       0.007
   0.12384495  0.12384495  0.00000000       0.002
   0.02064082  0.02064082  0.02064082       0.005
   0.04128165  0.02064082  0.02064082       0.014
   0.06192247  0.02064082  0.02064082       0.014
   0.08256330  0.02064082  0.02064082       0.014
   0.10320412  0.02064082  0.02064082       0.014
   0.12384495  0.02064082  0.02064082       0.007
   0.04128165  0.04128165  0.02064082       0.014
   0.06192247  0.04128165  0.02064082       0.028
   0.08256330  0.04128165  0.02064082       0.028
   0.10320412  0.04128165  0.02064082       0.028
   0.12384495  0.04128165  0.02064082       0.014
   0.06192247  0.06192247  0.02064082       0.014
   0.08256330  0.06192247  0.02064082       0.028
   0.10320412  0.06192247  0.02064082       0.028
   0.12384495  0.06192247  0.02064082       0.014
   0.08256330  0.08256330  0.02064082       0.014
   0.10320412  0.08256330  0.02064082       0.028
   0.12384495  0.08256330  0.02064082       0.014
   0.10320412  0.10320412  0.02064082       0.014
   0.12384495  0.10320412  0.02064082       0.014
   0.12384495  0.12384495  0.02064082       0.003
   0.04128165  0.04128165  0.04128165       0.005
   0.06192247  0.04128165  0.04128165       0.014
   0.08256330  0.04128165  0.04128165       0.014
   0.10320412  0.04128165  0.04128165       0.014
   0.12384495  0.04128165  0.04128165       0.007
   0.06192247  0.06192247  0.04128165       0.014
   0.08256330  0.06192247  0.04128165       0.028
   0.10320412  0.06192247  0.04128165       0.028
   0.12384495  0.06192247  0.04128165       0.014
   0.08256330  0.08256330  0.04128165       0.014
   0.10320412  0.08256330  0.04128165       0.028
   0.12384495  0.08256330  0.04128165       0.014
   0.10320412  0.10320412  0.04128165       0.014
   0.12384495  0.10320412  0.04128165       0.014
   0.12384495  0.12384495  0.04128165       0.003
   0.06192247  0.06192247  0.06192247       0.005
   0.08256330  0.06192247  0.06192247       0.014
   0.10320412  0.06192247  0.06192247       0.014
   0.12384495  0.06192247  0.06192247       0.007
   0.08256330  0.08256330  0.06192247       0.014
   0.10320412  0.08256330  0.06192247       0.028
   0.12384495  0.08256330  0.06192247       0.014
   0.10320412  0.10320412  0.06192247       0.014
   0.12384495  0.10320412  0.06192247       0.014
   0.12384495  0.12384495  0.06192247       0.003
   0.08256330  0.08256330  0.08256330       0.005
   0.10320412  0.08256330  0.08256330       0.014
   0.12384495  0.08256330  0.08256330       0.007
   0.10320412  0.10320412  0.08256330       0.014
   0.12384495  0.10320412  0.08256330       0.014
   0.12384495  0.12384495  0.08256330       0.003
   0.10320412  0.10320412  0.10320412       0.005
   0.12384495  0.10320412  0.10320412       0.007
   0.12384495  0.12384495  0.10320412       0.003
   0.12384495  0.12384495  0.12384495       0.001
 
 k-points in reciprocal lattice and weights: Automatic mesh                          
   0.00000000  0.00000000  0.00000000       0.001
   0.08333333  0.00000000  0.00000000       0.003
   0.16666667  0.00000000  0.00000000       0.003
   0.25000000  0.00000000  0.00000000       0.003
   0.33333333  0.00000000  0.00000000       0.003
   0.41666667  0.00000000  0.00000000       0.003
   0.50000000  0.00000000  0.00000000       0.002
   0.08333333  0.08333333  0.00000000       0.007
   0.16666667  0.08333333  0.00000000       0.014
   0.25000000  0.08333333  0.00000000       0.014
   0.33333333  0.08333333  0.00000000       0.014
   0.41666667  0.08333333  0.00000000       0.014
   0.50000000  0.08333333  0.00000000       0.007
   0.16666667  0.16666667  0.00000000       0.007
   0.25000000  0.16666667  0.00000000       0.014
   0.33333333  0.16666667  0.00000000       0.014
   0.41666667  0.16666667  0.00000000       0.014
   0.50000000  0.16666667  0.00000000       0.007
   0.25000000  0.25000000  0.00000000       0.007
   0.33333333  0.25000000  0.00000000       0.014
   0.41666667  0.25000000  0.00000000       0.014
   0.50000000  0.25000000  0.00000000       0.007
   0.33333333  0.33333333  0.00000000       0.007
   0.41666667  0.33333333  0.00000000       0.014
   0.50000000  0.33333333  0.00000000       0.007
   0.41666667  0.41666667  0.00000000       0.007
   0.50000000  0.41666667  0.00000000       0.007
   0.50000000  0.50000000  0.00000000       0.002
   0.08333333  0.08333333  0.08333333       0.005
   0.16666667  0.08333333  0.08333333       0.014
   0.25000000  0.08333333  0.08333333       0.014
   0.33333333  0.08333333  0.08333333       0.014
   0.41666667  0.08333333  0.08333333       0.014
   0.50000000  0.08333333  0.08333333       0.007
   0.16666667  0.16666667  0.08333333       0.014
   0.25000000  0.16666667  0.08333333       0.028
   0.33333333  0.16666667  0.08333333       0.028
   0.41666667  0.16666667  0.08333333       0.028
   0.50000000  0.16666667  0.08333333       0.014
   0.25000000  0.25000000  0.08333333       0.014
   0.33333333  0.25000000  0.08333333       0.028
   0.41666667  0.25000000  0.08333333       0.028
   0.50000000  0.25000000  0.08333333       0.014
   0.33333333  0.33333333  0.08333333       0.014
   0.41666667  0.33333333  0.08333333       0.028
   0.50000000  0.33333333  0.08333333       0.014
   0.41666667  0.41666667  0.08333333       0.014
   0.50000000  0.41666667  0.08333333       0.014
   0.50000000  0.50000000  0.08333333       0.003
   0.16666667  0.16666667  0.16666667       0.005
   0.25000000  0.16666667  0.16666667       0.014
   0.33333333  0.16666667  0.16666667       0.014
   0.41666667  0.16666667  0.16666667       0.014
   0.50000000  0.16666667  0.16666667       0.007
   0.25000000  0.25000000  0.16666667       0.014
   0.33333333  0.25000000  0.16666667       0.028
   0.41666667  0.25000000  0.16666667       0.028
   0.50000000  0.25000000  0.16666667       0.014
   0.33333333  0.33333333  0.16666667       0.014
   0.41666667  0.33333333  0.16666667       0.028
   0.50000000  0.33333333  0.16666667       0.014
   0.41666667  0.41666667  0.16666667       0.014
   0.50000000  0.41666667  0.16666667       0.014
   0.50000000  0.50000000  0.16666667       0.003
   0.25000000  0.25000000  0.25000000       0.005
   0.33333333  0.25000000  0.25000000       0.014
   0.41666667  0.25000000  0.25000000       0.014
   0.50000000  0.25000000  0.25000000       0.007
   0.33333333  0.33333333  0.25000000       0.014
   0.41666667  0.33333333  0.25000000       0.028
   0.50000000  0.33333333  0.25000000       0.014
   0.41666667  0.41666667  0.25000000       0.014
   0.50000000  0.41666667  0.25000000       0.014
   0.50000000  0.50000000  0.25000000       0.003
   0.33333333  0.33333333  0.33333333       0.005
   0.41666667  0.33333333  0.33333333       0.014
   0.50000000  0.33333333  0.33333333       0.007
   0.41666667  0.41666667  0.33333333       0.014
   0.50000000  0.41666667  0.33333333       0.014
   0.50000000  0.50000000  0.33333333       0.003
   0.41666667  0.41666667  0.41666667       0.005
   0.50000000  0.41666667  0.41666667       0.007
   0.50000000  0.50000000  0.41666667       0.003
   0.50000000  0.50000000  0.50000000       0.001
 
 position of ions in fractional coordinates (direct lattice) 
   0.50000000  0.50000000  0.00000000
   0.50000000  0.00000000  0.50000000
   0.00000000  0.50000000  0.50000000
   0.00000000  0.00000000  0.00000000
 
 position of ions in cartesian coordinates  (Angst):
   2.03883972  2.03883972  0.00000000
   2.03883972  0.00000000  2.03883972
   0.00000000  2.03883972  2.03883972
   0.00000000  0.00000000  0.00000000
 


--------------------------------------------------------------------------------------------------------


 k-point  1 :  0.00000.00000.0000  plane waves:   1743
 k-point  2 :  0.08330.00000.0000  plane waves:   1751
 k-point  3 :  0.16670.00000.0000  plane waves:   1739
 k-point  4 :  0.25000.00000.0000  plane waves:   1747
 k-point  5 :  0.33330.00000.0000  plane waves:   1727
 k-point  6 :  0.41670.00000.0000  plane waves:   1719
 k-point  7 :  0.50000.00000.0000  plane waves:   1750
 k-point  8 :  0.08330.08330.0000  plane waves:   1741
 k-point  9 :  0.16670.08330.0000  plane waves:   1739
 k-point 10 :  0.25000.08330.0000  plane waves:   1738
 k-point 11 :  0.33330.08330.0000  plane waves:   1728
 k-point 12 :  0.41670.08330.0000  plane waves:   1722
 k-point 13 :  0.50000.08330.0000  plane waves:   1728
 k-point 14 :  0.16670.16670.0000  plane waves:   1727
 k-point 15 :  0.25000.16670.0000  plane waves:   1732
 k-point 16 :  0.33330.16670.0000  plane waves:   1725
 k-point 17 :  0.41670.16670.0000  plane waves:   1719
 k-point 18 :  0.50000.16670.0000  plane waves:   1708
 k-point 19 :  0.25000.25000.0000  plane waves:   1735
 k-point 20 :  0.33330.25000.0000  plane waves:   1724
 k-point 21 :  0.41670.25000.0000  plane waves:   1722
 k-point 22 :  0.50000.25000.0000  plane waves:   1700
 k-point 23 :  0.33330.33330.0000  plane waves:   1734
 k-point 24 :  0.41670.33330.0000  plane waves:   1708
 k-point 25 :  0.50000.33330.0000  plane waves:   1698
 k-point 26 :  0.41670.41670.0000  plane waves:   1710
 k-point 27 :  0.50000.41670.0000  plane waves:   1704
 k-point 28 :  0.50000.50000.0000  plane waves:   1692
 k-point 29 :  0.08330.08330.0833  plane waves:   1740
 k-point 30 :  0.16670.08330.0833  plane waves:   1737
 k-point 31 :  0.25000.08330.0833  plane waves:   1739
 k-point 32 :  0.33330.08330.0833  plane waves:   1730
 k-point 33 :  0.41670.08330.0833  plane waves:   1723
 k-point 34 :  0.50000.08330.0833  plane waves:   1728
 k-point 35 :  0.16670.16670.0833  plane waves:   1728
 k-point 36 :  0.25000.16670.0833  plane waves:   1731
 k-point 37 :  0.33330.16670.0833  plane waves:   1723
 k-point 38 :  0.41670.16670.0833  plane waves:   1727
 k-point 39 :  0.50000.16670.0833  plane waves:   1718
 k-point 40 :  0.25000.25000.0833  plane waves:   1726
 k-point 41 :  0.33330.25000.0833  plane waves:   1718
 k-point 42 :  0.41670.25000.0833  plane waves:   1719
 k-point 43 :  0.50000.25000.0833  plane waves:   1714
 k-point 44 :  0.33330.33330.0833  plane waves:   1719
 k-point 45 :  0.41670.33330.0833  plane waves:   1708
 k-point 46 :  0.50000.33330.0833  plane waves:   1714
 k-point 47 :  0.41670.41670.0833  plane waves:   1705
 k-point 48 :  0.50000.41670.0833  plane waves:   1710
 k-point 49 :  0.50000.50000.0833  plane waves:   1700
 k-point 50 :  0.16670.16670.1667  plane waves:   1719
 k-point 51 :  0.25000.16670.1667  plane waves:   1725
 k-point 52 :  0.33330.16670.1667  plane waves:   1728
 k-point 53 :  0.41670.16670.1667  plane waves:   1726
 k-point 54 :  0.50000.16670.1667  plane waves:   1734
 k-point 55 :  0.25000.25000.1667  plane waves:   1719
 k-point 56 :  0.33330.25000.1667  plane waves:   1720
 k-point 57 :  0.41670.25000.1667  plane waves:   1726
 k-point 58 :  0.50000.25000.1667  plane waves:   1718
 k-point 59 :  0.33330.33330.1667  plane waves:   1727
 k-point 60 :  0.41670.33330.1667  plane waves:   1719
 k-point 61 :  0.50000.33330.1667  plane waves:   1712
 k-point 62 :  0.41670.41670.1667  plane waves:   1713
 k-point 63 :  0.50000.41670.1667  plane waves:   1710
 k-point 64 :  0.50000.50000.1667  plane waves:   1724
 k-point 65 :  0.25000.25000.2500  plane waves:   1722
 k-point 66 :  0.33330.25000.2500  plane waves:   1723
 k-point 67 :  0.41670.25000.2500  plane waves:   1713
 k-point 68 :  0.50000.25000.2500  plane waves:   1710
 k-point 69 :  0.33330.33330.2500  plane waves:   1717
 k-point 70 :  0.41670.33330.2500  plane waves:   1720
 k-point 71 :  0.50000.33330.2500  plane waves:   1722
 k-point 72 :  0.41670.41670.2500  plane waves:   1725
 k-point 73 :  0.50000.41670.2500  plane waves:   1718
 k-point 74 :  0.50000.50000.2500  plane waves:   1732
 k-point 75 :  0.33330.33330.3333  plane waves:   1709
 k-point 76 :  0.41670.33330.3333  plane waves:   1720
 k-point 77 :  0.50000.33330.3333  plane waves:   1718
 k-point 78 :  0.41670.41670.3333  plane waves:   1717
 k-point 79 :  0.50000.41670.3333  plane waves:   1724
 k-point 80 :  0.50000.50000.3333  plane waves:   1716
 k-point 81 :  0.41670.41670.4167  plane waves:   1712
 k-point 82 :  0.50000.41670.4167  plane waves:   1712
 k-point 83 :  0.50000.50000.4167  plane waves:   1704
 k-point 84 :  0.50000.50000.5000  plane waves:   1736

 maximum and minimum number of plane-waves per node :   1751  1692

 maximum number of plane-waves:   1751
 maximal index in each direction: 
   IXMAX=  7   IYMAX=  7   IZMAX=  7
   IXMIN= -7   IYMIN= -7   IZMIN= -7

 NGX is ok and might be reduce to  30
 NGY is ok and might be reduce to  30
 NGZ is ok and might be reduce to  30

 parallel 3dFFT wavefunction:
    minimum data exchange during FFTs selected (reduces bandwidth)
 parallel 3dFFT charge:
    minimum data exchange during FFTs selected (reduces bandwidth)

 For storing wavefunctions   37.03 MBYTES are necessary
 For predicting wavefunctions    1.27 MBYTES are necessary
Broyden mixing: mesh for mixing (old mesh)
   NGX = 15   NGY = 15   NGZ = 15
  (NGX  = 60   NGY  = 60   NGZ  = 60)
 gives a total of   3375 points
 initial charge density was supplied:
 charge density of overlapping atoms calculated
 number of electron   12.0000000 magnetization 
 keeping initial charge density in first step


--------------------------------------------------------------------------------------------------------


 Maximum index for augmentation-charges         2268 (set IRDMAX)


--------------------------------------------------------------------------------------------------------


 First call to EWALD:  gamma=   0.435
 Maximum number of real-space cells 3x 3x 3
 Maximum number of reciprocal cells 3x 3x 3

    FEWALD:  VPU time    0.00: CPU time    0.00


----------------------------------------- Iteration    1(   1)  ---------------------------------------


    POTLOK:  VPU time    0.03: CPU time    0.03
    SETDIJ:  VPU time    0.00: CPU time    0.00
    EDDAV :  VPU time    1.72: CPU time    1.77
    DOS   :  VPU time    0.00: CPU time   -0.00
    ------------------------------------------
      LOOP:  VPU time    1.77: CPU time    1.82

 eigenvalue-minimisations  :  2688
 total energy-change (2. order) : 0.5059385E+01  (-0.3894413E+03)
 number of electron   12.0000000 magnetization 
 augmentation part    12.0000000 magnetization 

 Free energy of the ion-electron system (eV)
  ---------------------------------------------------
  alpha Z        PSCENC =        -0.79262257
  Ewald energy   TEWEN  =      -291.43504708
  -1/2 Hartree   DENC   =        -0.44887268
  -V(xc)+E(xc)   XCENC  =      -105.15191713
  PAW double counting   =       142.21701965      -14.39593217
  entropy T*S    EENTRO =        -0.00003619
  eigenvalues    EBANDS =        60.91315158
  atomic energy  EATOM  =       214.15364153
  ---------------------------------------------------
  free energy    TOTEN  =         5.05938494 eV

  energy without entropy =        5.05942113  energy(sigma->0) =        5.05940303


--------------------------------------------------------------------------------------------------------




----------------------------------------- Iteration    1(   2)  ---------------------------------------


    EDDAV :  VPU time    1.69: CPU time    1.69
    DOS   :  VPU time    0.00: CPU time   -0.00
    ------------------------------------------
      LOOP:  VPU time    1.69: CPU time    1.70

 eigenvalue-minimisations  :  3608
 total energy-change (2. order) :-0.1944677E+02  (-0.1838808E+02)
 number of electron   12.0000000 magnetization 
 augmentation part    12.0000000 magnetization 

 Free energy of the ion-electron system (eV)
  ---------------------------------------------------
  alpha Z        PSCENC =        -0.79262257
  Ewald energy   TEWEN  =      -291.43504708
  -1/2 Hartree   DENC   =        -0.44887268
  -V(xc)+E(xc)   XCENC  =      -105.15191713
  PAW double counting   =       142.21701965      -14.39593217
  entropy T*S    EENTRO =        -0.00022562
  eigenvalues    EBANDS =        41.46657278
  atomic energy  EATOM  =       214.15364153
  ---------------------------------------------------
  free energy    TOTEN  =       -14.38738330 eV

  energy without entropy =      -14.38715768  energy(sigma->0) =      -14.38727049


--------------------------------------------------------------------------------------------------------




----------------------------------------- Iteration    1(   3)  ---------------------------------------


    EDDAV :  VPU time    1.59: CPU time    1.59
    DOS   :  VPU time    0.00: CPU time   -0.00
    ------------------------------------------
      LOOP:  VPU time    1.59: CPU time    1.59

 eigenvalue-minimisations  :  3512
 total energy-change (2. order) :-0.6551766E+00  (-0.6503485E+00)
 number of electron   12.0000000 magnetization 
 augmentation part    12.0000000 magnetization 

 Free energy of the ion-electron system (eV)
  ---------------------------------------------------
  alpha Z        PSCENC =        -0.79262257
  Ewald energy   TEWEN  =      -291.43504708
  -1/2 Hartree   DENC   =        -0.44887268
  -V(xc)+E(xc)   XCENC  =      -105.15191713
  PAW double counting   =       142.21701965      -14.39593217
  entropy T*S    EENTRO =        -0.00019765
  eigenvalues    EBANDS =        40.81136820
  atomic energy  EATOM  =       214.15364153
  ---------------------------------------------------
  free energy    TOTEN  =       -15.04255991 eV

  energy without entropy =      -15.04236226  energy(sigma->0) =      -15.04246108


--------------------------------------------------------------------------------------------------------




----------------------------------------- Iteration    1(   4)  ---------------------------------------


    EDDAV :  VPU time    1.23: CPU time    1.23
    DOS   :  VPU time    0.00: CPU time   -0.00
    ------------------------------------------
      LOOP:  VPU time    1.23: CPU time    1.23

 eigenvalue-minimisations  :  3304
 total energy-change (2. order) :-0.4240024E-02  (-0.4239729E-02)
 number of electron   12.0000000 magnetization 
 augmentation part    12.0000000 magnetization 

 Free energy of the ion-electron system (eV)
  ---------------------------------------------------
  alpha Z        PSCENC =        -0.79262257
  Ewald energy   TEWEN  =      -291.43504708
  -1/2 Hartree   DENC   =        -0.44887268
  -V(xc)+E(xc)   XCENC  =      -105.15191713
  PAW double counting   =       142.21701965      -14.39593217
  entropy T*S    EENTRO =        -0.00019567
  eigenvalues    EBANDS =        40.80712620
  atomic energy  EATOM  =       214.15364153
  ---------------------------------------------------
  free energy    TOTEN  =       -15.04679993 eV

  energy without entropy =      -15.04660426  energy(sigma->0) =      -15.04670209


--------------------------------------------------------------------------------------------------------




----------------------------------------- Iteration    1(   5)  ---------------------------------------


    EDDAV :  VPU time    1.32: CPU time    1.32
    DOS   :  VPU time    0.00: CPU time   -0.00
    CHARGE:  VPU time    0.03: CPU time    0.03
    MIXING:  VPU time    0.00: CPU time    0.00
    ------------------------------------------
      LOOP:  VPU time    1.35: CPU time    1.36

 eigenvalue-minimisations  :  3576
 total energy-change (2. order) :-0.5319328E-04  (-0.5319205E-04)
 number of electron   12.0000000 magnetization 
 augmentation part    -0.1508749 magnetization 

 Broyden mixing:
  rms(total) = 0.18447E+00    rms(broyden)= 0.18447E+00
  rms(prec ) = 0.42961E+00
  weight for this iteration     100.00

 Free energy of the ion-electron system (eV)
  ---------------------------------------------------
  alpha Z        PSCENC =        -0.79262257
  Ewald energy   TEWEN  =      -291.43504708
  -1/2 Hartree   DENC   =        -0.44887268
  -V(xc)+E(xc)   XCENC  =      -105.15191713
  PAW double counting   =       142.21701965      -14.39593217
  entropy T*S    EENTRO =        -0.00019566
  eigenvalues    EBANDS =        40.80707300
  atomic energy  EATOM  =       214.15364153
  ---------------------------------------------------
  free energy    TOTEN  =       -15.04685312 eV

  energy without entropy =      -15.04665746  energy(sigma->0) =      -15.04675529


--------------------------------------------------------------------------------------------------------




----------------------------------------- Iteration    1(   6)  ---------------------------------------


    POTLOK:  VPU time    0.03: CPU time    0.03
    SETDIJ:  VPU time    0.00: CPU time    0.00
    EDDAV :  VPU time    0.95: CPU time    0.95
    DOS   :  VPU time    0.00: CPU time   -0.00
    CHARGE:  VPU time    0.03: CPU time    0.04
    MIXING:  VPU time    0.00: CPU time    0.00
    ------------------------------------------
      LOOP:  VPU time    1.02: CPU time    1.02

 eigenvalue-minimisations  :  3184
 total energy-change (2. order) : 0.5192351E-01  (-0.6593735E-03)
 number of electron   12.0000000 magnetization 
 augmentation part    -0.1531565 magnetization 

 Broyden mixing:
  rms(total) = 0.11450E+00    rms(broyden)= 0.11449E+00
  rms(prec ) = 0.26816E+00
  weight for this iteration     100.00

 eigenvalues of (default mixing * dielectric matrix)
  average eigenvalue GAMMA=   2.6267
  2.6267

 Free energy of the ion-electron system (eV)
  ---------------------------------------------------
  alpha Z        PSCENC =        -0.79262257
  Ewald energy   TEWEN  =      -291.43504708
  -1/2 Hartree   DENC   =        -0.36002380
  -V(xc)+E(xc)   XCENC  =      -105.02031974
  PAW double counting   =       142.21235608      -14.39704630
  entropy T*S    EENTRO =        -0.00025976
  eigenvalues    EBANDS =        40.64439204
  atomic energy  EATOM  =       214.15364153
  ---------------------------------------------------
  free energy    TOTEN  =       -14.99492961 eV

  energy without entropy =      -14.99466985  energy(sigma->0) =      -14.99479973


--------------------------------------------------------------------------------------------------------




----------------------------------------- Iteration    1(   7)  ---------------------------------------


    POTLOK:  VPU time    0.02: CPU time    0.02
    SETDIJ:  VPU time    0.00: CPU time    0.00
    EDDAV :  VPU time    0.98: CPU time    0.98
    DOS   :  VPU time    0.00: CPU time   -0.00
    CHARGE:  VPU time    0.03: CPU time    0.03
    MIXING:  VPU time    0.00: CPU time    0.00
    ------------------------------------------
      LOOP:  VPU time    1.04: CPU time    1.04

 eigenvalue-minimisations  :  3104
 total energy-change (2. order) : 0.3765892E-01  (-0.2009530E-02)
 number of electron   12.0000000 magnetization 
 augmentation part    -0.1576602 magnetization 

 Broyden mixing:
  rms(total) = 0.50328E-02    rms(broyden)= 0.50328E-02
  rms(prec ) = 0.81037E-02
  weight for this iteration     100.00

 eigenvalues of (default mixing * dielectric matrix)
  average eigenvalue GAMMA=   2.4768
  2.4768  2.4768

 Free energy of the ion-electron system (eV)
  ---------------------------------------------------
  alpha Z        PSCENC =        -0.79262257
  Ewald energy   TEWEN  =      -291.43504708
  -1/2 Hartree   DENC   =        -0.38916007
  -V(xc)+E(xc)   XCENC  =      -104.74870250
  PAW double counting   =       142.18895834      -14.39003844
  entropy T*S    EENTRO =        -0.00034535
  eigenvalues    EBANDS =        40.45604545
  atomic energy  EATOM  =       214.15364153
  ---------------------------------------------------
  free energy    TOTEN  =       -14.95727069 eV

  energy without entropy =      -14.95692533  energy(sigma->0) =      -14.95709801


--------------------------------------------------------------------------------------------------------




----------------------------------------- Iteration    1(   8)  ---------------------------------------


    POTLOK:  VPU time    0.02: CPU time    0.02
    SETDIJ:  VPU time    0.00: CPU time    0.00
    EDDAV :  VPU time    1.17: CPU time    1.17
    DOS   :  VPU time    0.00: CPU time   -0.00
    CHARGE:  VPU time    0.03: CPU time    0.03
    MIXING:  VPU time    0.00: CPU time    0.00
    ------------------------------------------
      LOOP:  VPU time    1.22: CPU time    1.23

 eigenvalue-minimisations  :  3520
 total energy-change (2. order) :-0.1647182E-04  (-0.1506118E-04)
 number of electron   12.0000000 magnetization 
 augmentation part    -0.1578642 magnetization 

 Broyden mixing:
  rms(total) = 0.13763E-02    rms(broyden)= 0.13763E-02
  rms(prec ) = 0.28855E-02
  weight for this iteration     100.00

 eigenvalues of (default mixing * dielectric matrix)
  average eigenvalue GAMMA=   2.0715
  0.9905  2.6642  2.5597

 Free energy of the ion-electron system (eV)
  ---------------------------------------------------
  alpha Z        PSCENC =        -0.79262257
  Ewald energy   TEWEN  =      -291.43504708
  -1/2 Hartree   DENC   =        -0.39459521
  -V(xc)+E(xc)   XCENC  =      -104.74488747
  PAW double counting   =       142.32253250      -14.53208110
  entropy T*S    EENTRO =        -0.00034597
  eigenvalues    EBANDS =        40.46611821
  atomic energy  EATOM  =       214.15364153
  ---------------------------------------------------
  free energy    TOTEN  =       -14.95728716 eV

  energy without entropy =      -14.95694118  energy(sigma->0) =      -14.95711417


--------------------------------------------------------------------------------------------------------




----------------------------------------- Iteration    1(   9)  ---------------------------------------


    POTLOK:  VPU time    0.02: CPU time    0.02
    SETDIJ:  VPU time    0.00: CPU time    0.00
    EDDAV :  VPU time    2.32: CPU time    2.32
    DOS   :  VPU time    0.00: CPU time   -0.00
    CHARGE:  VPU time    0.06: CPU time    0.06
    MIXING:  VPU time    0.00: CPU time    0.00
    ------------------------------------------
      LOOP:  VPU time    2.41: CPU time    2.41

 eigenvalue-minimisations  :  3384
 total energy-change (2. order) :-0.1883494E-05  (-0.4596194E-06)
 number of electron   12.0000000 magnetization 
 augmentation part    -0.1579809 magnetization 

 Broyden mixing:
  rms(total) = 0.11480E-03    rms(broyden)= 0.11480E-03
  rms(prec ) = 0.15938E-03
  weight for this iteration     100.00

 eigenvalues of (default mixing * dielectric matrix)
  average eigenvalue GAMMA=   2.0540
  0.9971  2.6066  2.6066  2.0057

 Free energy of the ion-electron system (eV)
  ---------------------------------------------------
  alpha Z        PSCENC =        -0.79262257
  Ewald energy   TEWEN  =      -291.43504708
  -1/2 Hartree   DENC   =        -0.39837109
  -V(xc)+E(xc)   XCENC  =      -104.73977552
  PAW double counting   =       142.36179153      -14.57448305
  entropy T*S    EENTRO =        -0.00034666
  eigenvalues    EBANDS =        40.46792388
  atomic energy  EATOM  =       214.15364153
  ---------------------------------------------------
  free energy    TOTEN  =       -14.95728904 eV

  energy without entropy =      -14.95694238  energy(sigma->0) =      -14.95711571


--------------------------------------------------------------------------------------------------------




----------------------------------------- Iteration    1(  10)  ---------------------------------------


    POTLOK:  VPU time    0.03: CPU time    0.03
    SETDIJ:  VPU time    0.01: CPU time    0.01
    EDDAV :  VPU time    1.39: CPU time    1.39
    DOS   :  VPU time   -0.00: CPU time   -0.00
    CHARGE:  VPU time    0.04: CPU time    0.04
    MIXING:  VPU time    0.01: CPU time    0.01
    ------------------------------------------
      LOOP:  VPU time    1.48: CPU time    1.48

 eigenvalue-minimisations  :  3640
 total energy-change (2. order) : 0.9543594E-06  (-0.5753469E-08)
 number of electron   12.0000000 magnetization 
 augmentation part    -0.1579837 magnetization 

 Broyden mixing:
  rms(total) = 0.34216E-04    rms(broyden)= 0.34216E-04
  rms(prec ) = 0.60071E-04
  weight for this iteration     100.00

 eigenvalues of (default mixing * dielectric matrix)
  average eigenvalue GAMMA=   1.9754
  1.0164  0.9708  2.7007  2.7007  2.4886

 Free energy of the ion-electron system (eV)
  ---------------------------------------------------
  alpha Z        PSCENC =        -0.79262257
  Ewald energy   TEWEN  =      -291.43504708
  -1/2 Hartree   DENC   =        -0.39835995
  -V(xc)+E(xc)   XCENC  =      -104.73980536
  PAW double counting   =       142.34969035      -14.56198121
  entropy T*S    EENTRO =        -0.00034667
  eigenvalues    EBANDS =        40.46754288
  atomic energy  EATOM  =       214.15364153
  ---------------------------------------------------
  free energy    TOTEN  =       -14.95728809 eV

  energy without entropy =      -14.95694141  energy(sigma->0) =      -14.95711475


--------------------------------------------------------------------------------------------------------




----------------------------------------- Iteration    1(  11)  ---------------------------------------


    POTLOK:  VPU time    0.02: CPU time    0.02
    SETDIJ:  VPU time    0.00: CPU time    0.00
    EDDAV :  VPU time    0.91: CPU time    0.91
    DOS   :  VPU time    0.00: CPU time   -0.00
    CHARGE:  VPU time    0.04: CPU time    0.04
    MIXING:  VPU time    0.00: CPU time    0.00
    ------------------------------------------
      LOOP:  VPU time    0.97: CPU time    0.98

 eigenvalue-minimisations  :  2352
 total energy-change (2. order) : 0.1916263E-06  (-0.2155764E-09)
 number of electron   12.0000000 magnetization 
 augmentation part    -0.1579853 magnetization 

 Broyden mixing:
  rms(total) = 0.25772E-05    rms(broyden)= 0.25768E-05
  rms(prec ) = 0.30700E-05
  weight for this iteration     100.00

 eigenvalues of (default mixing * dielectric matrix)
  average eigenvalue GAMMA=   1.9129
  2.6778  2.6778  2.4571  1.0018  1.0018  1.6612

 Free energy of the ion-electron system (eV)
  ---------------------------------------------------
  alpha Z        PSCENC =        -0.79262257
  Ewald energy   TEWEN  =      -291.43504708
  -1/2 Hartree   DENC   =        -0.39842352
  -V(xc)+E(xc)   XCENC  =      -104.73973311
  PAW double counting   =       142.34556500      -14.55775527
  entropy T*S    EENTRO =        -0.00034669
  eigenvalues    EBANDS =        40.46743382
  atomic energy  EATOM  =       214.15364153
  ---------------------------------------------------
  free energy    TOTEN  =       -14.95728789 eV

  energy without entropy =      -14.95694120  energy(sigma->0) =      -14.95711455


--------------------------------------------------------------------------------------------------------




----------------------------------------- Iteration    1(  12)  ---------------------------------------


    POTLOK:  VPU time    0.03: CPU time    0.03
    SETDIJ:  VPU time    0.00: CPU time    0.00
    EDDAV :  VPU time    0.74: CPU time    0.74
    DOS   :  VPU time    0.00: CPU time   -0.00
    CHARGE:  VPU time    0.05: CPU time    0.05
    MIXING:  VPU time    0.00: CPU time    0.00
    ------------------------------------------
      LOOP:  VPU time    0.82: CPU time    0.83

 eigenvalue-minimisations  :  2016
 total energy-change (2. order) :-0.2686386E-07  (-0.2204361E-10)
 number of electron   12.0000000 magnetization 
 augmentation part    -0.1579853 magnetization 

 Broyden mixing:
  rms(total) = 0.10999E-05    rms(broyden)= 0.10999E-05
  rms(prec ) = 0.20283E-05
  weight for this iteration     100.00

 eigenvalues of (default mixing * dielectric matrix)
  average eigenvalue GAMMA=   1.8914
  2.6698  2.6334  2.6334  2.4187  0.9936  0.9936  0.8971

 Free energy of the ion-electron system (eV)
  ---------------------------------------------------
  alpha Z        PSCENC =        -0.79262257
  Ewald energy   TEWEN  =      -291.43504708
  -1/2 Hartree   DENC   =        -0.39842366
  -V(xc)+E(xc)   XCENC  =      -104.73973525
  PAW double counting   =       142.34607097      -14.55827718
  entropy T*S    EENTRO =        -0.00034669
  eigenvalues    EBANDS =        40.46745200
  atomic energy  EATOM  =       214.15364153
  ---------------------------------------------------
  free energy    TOTEN  =       -14.95728792 eV

  energy without entropy =      -14.95694123  energy(sigma->0) =      -14.95711458


--------------------------------------------------------------------------------------------------------




----------------------------------------- Iteration    1(  13)  ---------------------------------------


    POTLOK:  VPU time    0.04: CPU time    0.04
    SETDIJ:  VPU time    0.00: CPU time    0.00
    EDDAV :  VPU time    0.90: CPU time    0.90
    DOS   :  VPU time    0.00: CPU time   -0.00
    ------------------------------------------
      LOOP:  VPU time    0.94: CPU time    0.95

 eigenvalue-minimisations  :  1768
 total energy-change (2. order) :-0.3767866E-08  (-0.5090069E-11)
 number of electron   12.0000000 magnetization 
 augmentation part    -0.1579853 magnetization 

 Free energy of the ion-electron system (eV)
  ---------------------------------------------------
  alpha Z        PSCENC =        -0.79262257
  Ewald energy   TEWEN  =      -291.43504708
  -1/2 Hartree   DENC   =        -0.39842497
  -V(xc)+E(xc)   XCENC  =      -104.73973381
  PAW double counting   =       142.34619671      -14.55840700
  entropy T*S    EENTRO =        -0.00034669
  eigenvalues    EBANDS =        40.46745596
  atomic energy  EATOM  =       214.15364153
  ---------------------------------------------------
  free energy    TOTEN  =       -14.95728793 eV

  energy without entropy =      -14.95694124  energy(sigma->0) =      -14.95711458


--------------------------------------------------------------------------------------------------------




 average (electrostatic) potential at core
  the test charge radii are     1.0406
  (the norm of the test charge is              1.0000)
       1 -72.9452       2 -72.9452       3 -72.9452       4 -72.9452
 
 
 
 E-fermi :   7.7084     XC(G=0): -10.1000     alpha+bet :-14.4811
   add alpha+bet to get absolut eigen values

 k-point   1 :       0.0000    0.0000    0.0000
  band No.  band energies     occupation 
      1      -3.2279      2.00000
      2       4.8628      2.00000
      3       4.8628      2.00000
      4       4.8628      2.00000
      5       6.1243      2.00000
      6       6.1243      2.00000
      7       6.1243      2.00000
      8      12.9725      0.00000
      9      12.9725      0.00000
     10      12.9725      0.00000
     11      13.1918      0.00000
     12      13.1918      0.00000
     13      13.1918      0.00000
     14      13.1918      0.00000
     15      13.1918      0.00000
     16      13.1918      0.00000

 k-point   2 :       0.0833    0.0000    0.0000
  band No.  band energies     occupation 
      1      -3.1661      2.00000
      2       3.9968      2.00000
      3       4.9196      2.00000
      4       4.9196      2.00000
      5       6.1845      2.00000
      6       6.1845      2.00000
      7       7.0979      2.00000
      8      11.7614      0.00000
      9      11.7614      0.00000
     10      12.7545      0.00000
     11      12.7545      0.00000
     12      13.0335      0.00000
     13      13.2446      0.00000
     14      13.2446      0.00000
     15      14.5171      0.00000
     16      14.5171      0.00000

 k-point   3 :       0.1667    0.0000    0.0000
  band No.  band energies     occupation 
      1      -2.9808      2.00000
      2       2.8085      2.00000
      3       5.0899      2.00000
      4       5.0899      2.00000
      5       6.3644      2.00000
      6       6.3644      2.00000
      7       8.6086      0.00000
      8      10.5622      0.00000
      9      10.5622      0.00000
     10      11.8603      0.00000
     11      11.8603      0.00000
     12      13.2163      0.00000
     13      13.4028      0.00000
     14      13.4028      0.00000
     15      16.0587      0.00000
     16      16.0587      0.00000

 k-point   4 :       0.2500    0.0000    0.0000
  band No.  band energies     occupation 
      1      -2.6725      2.00000
      2       1.6903      2.00000
      3       5.3738      2.00000
      4       5.3738      2.00000
      5       6.6615      2.00000
      6       6.6615      2.00000
      7       9.4767      0.00000
      8       9.4767      0.00000
      9      10.2636      0.00000
     10      10.8918      0.00000
     11      10.8918      0.00000
     12      13.5205      0.00000
     13      13.6667      0.00000
     14      13.6667      0.00000
     15      17.0435      0.00000
     16      17.4582      0.00000

 k-point   5 :       0.3333    0.0000    0.0000
  band No.  band energies     occupation 
      1      -2.2419      2.00000
      2       0.6747      2.00000
      3       5.7716      2.00000
      4       5.7716      2.00000
      5       7.0696      2.00000
      6       7.0696      2.00000
      7       8.5061      0.00000
      8       8.5061      0.00000
      9       9.9716      0.00000
     10       9.9716      0.00000
     11      12.0289      0.00000
     12      13.9455      0.00000
     13      14.0364      0.00000
     14      14.0364      0.00000
     15      16.5682      0.00000
     16      16.5682      0.00000

 k-point   6 :       0.4167    0.0000    0.0000
  band No.  band energies     occupation 
      1      -1.6902      2.00000
      2      -0.2297      2.00000
      3       6.2835      2.00000
      4       6.2835      2.00000
      5       7.5660      2.00000
      6       7.5660      2.00000
      7       7.6504      2.00000
      8       7.6504      2.00000
      9       9.1594      0.00000
     10       9.1594      0.00000
     11      13.8935      0.00000
     12      14.4899      0.00000
     13      14.5117      0.00000
     14      14.5117      0.00000
     15      15.7786      0.00000
     16      15.7786      0.00000

 k-point   7 :       0.5000    0.0000    0.0000
  band No.  band energies     occupation 
      1      -1.0188      2.00000
      2      -1.0188      2.00000
      3       6.9096      2.00000
      4       6.9096      2.00000
      5       6.9096      2.00000
      6       6.9096      2.00000
      7       7.9387      0.00000
      8       7.9387      0.00000
      9       8.6801      0.00000
     10       8.6801      0.00000
     11      15.0926      0.00000
     12      15.0926      0.00000
     13      15.0926      0.00000
     14      15.0926      0.00000
     15      15.1516      0.00000
     16      15.1516      0.00000

 k-point   8 :       0.0833    0.0833    0.0000
  band No.  band energies     occupation 
      1      -3.1043      2.00000
      2       4.0551      2.00000
      3       4.0551      2.00000
      4       4.9763      2.00000
      5       6.2444      2.00000
      6       7.1563      2.00000
      7       7.1563      2.00000
      8      10.9069      0.00000
      9      11.8187      0.00000
     10      11.8187      0.00000
     11      12.8086      0.00000
     12      12.8086      0.00000
     13      13.2980      0.00000
     14      14.4382      0.00000
     15      14.5735      0.00000
     16      14.5735      0.00000

 k-point   9 :       0.1667    0.0833    0.0000
  band No.  band energies     occupation 
      1      -2.9191      2.00000
      2       2.8677      2.00000
      3       4.2299      2.00000
      4       5.1467      2.00000
      5       6.4233      2.00000
      6       7.3309      2.00000
      7       8.6655      0.00000
      8       9.7656      0.00000
      9      10.6193      0.00000
     10      11.9165      0.00000
     11      11.9904      0.00000
     12      12.7065      0.00000
     13      12.9707      0.00000
     14      14.7427      0.00000
     15      15.5523      0.00000
     16      16.1150      0.00000

 k-point  10 :       0.2500    0.0833    0.0000
  band No.  band energies     occupation 
      1      -2.6109      2.00000
      2       1.7500      2.00000
      3       4.5209      2.00000
      4       5.4306      2.00000
      5       6.7169      2.00000
      6       7.6190      2.00000
      7       8.6995      0.00000
      8       9.5338      0.00000
      9      10.3182      0.00000
     10      10.9510      0.00000
     11      11.7628      0.00000
     12      12.2762      0.00000
     13      13.2410      0.00000
     14      15.0246      0.00000
     15      16.3325      0.00000
     16      17.0364      0.00000

 k-point  11 :       0.3333    0.0833    0.0000
  band No.  band energies     occupation 
      1      -2.1805      2.00000
      2       0.7349      2.00000
      3       4.9275      2.00000
      4       5.8285      2.00000
      5       7.0959      2.00000
      6       7.7642      0.00000
      7       8.0114      0.00000
      8       8.5631      0.00000
      9      10.0384      0.00000
     10      10.8465      0.00000
     11      12.0782      0.00000
     12      12.6757      0.00000
     13      13.6211      0.00000
     14      15.3878      0.00000
     15      15.4190      0.00000
     16      16.1552      0.00000

 k-point  12 :       0.4167    0.0833    0.0000
  band No.  band energies     occupation 
      1      -1.6290      2.00000
      2      -0.1691      2.00000
      3       5.4484      2.00000
      4       6.3403      2.00000
      5       6.8092      2.00000
      6       7.7074      1.10831
      7       7.7101      0.80390
      8       8.4435      0.00000
      9       9.2815      0.00000
     10      10.0193      0.00000
     11      13.1881      0.00000
     12      13.8832      0.00000
     13      14.1609      0.00000
     14      14.5462      0.00000
     15      15.3646      0.00000
     16      15.9253      0.00000

 k-point  13 :       0.5000    0.0833    0.0000
  band No.  band energies     occupation 
      1      -0.9579      2.00000
      2      -0.9579      2.00000
      3       6.0808      2.00000
      4       6.0808      2.00000
      5       6.9666      2.00000
      6       6.9666      2.00000
      7       8.2764      0.00000
      8       8.2764      0.00000
      9       9.3355      0.00000
     10       9.3355      0.00000
     11      13.8121      0.00000
     12      13.8121      0.00000
     13      14.6690      0.00000
     14      14.6690      0.00000
     15      15.9137      0.00000
     16      15.9137      0.00000

 k-point  14 :       0.1667    0.1667    0.0000
  band No.  band energies     occupation 
      1      -2.7341      2.00000
      2       3.0451      2.00000
      3       3.0451      2.00000
      4       5.3170      2.00000
      5       6.5975      2.00000
      6       8.6395      0.00000
      7       8.8348      0.00000
      8       8.8348      0.00000
      9      10.7907      0.00000
     10      10.7907      0.00000
     11      12.0855      0.00000
     12      12.0855      0.00000
     13      13.6168      0.00000
     14      15.1030      0.00000
     15      16.2191      0.00000
     16      16.2839      0.00000

 k-point  15 :       0.2500    0.1667    0.0000
  band No.  band energies     occupation 
      1      -2.4263      2.00000
      2       1.9291      2.00000
      3       3.3402      2.00000
      4       5.6011      2.00000
      5       6.8580      2.00000
      6       7.6052      2.00000
      7       9.1096      0.00000
      8       9.7050      0.00000
      9      10.4776      0.00000
     10      11.0762      0.00000
     11      11.1320      0.00000
     12      12.3703      0.00000
     13      13.1242      0.00000
     14      15.1584      0.00000
     15      16.1813      0.00000
     16      16.2027      0.00000

 k-point  16 :       0.3333    0.1667    0.0000
  band No.  band energies     occupation 
      1      -1.9965      2.00000
      2       0.9153      2.00000
      3       3.7525      2.00000
      4       5.9990      2.00000
      5       6.5135      2.00000
      6       7.3900      2.00000
      7       8.7342      0.00000
      8       9.4391      0.00000
      9      10.2781      0.00000
     10      11.4756      0.00000
     11      12.1861      0.00000
     12      12.2717      0.00000
     13      12.8078      0.00000
     14      14.2014      0.00000
     15      15.3050      0.00000
     16      16.9570      0.00000

 k-point  17 :       0.4167    0.1667    0.0000
  band No.  band energies     occupation 
      1      -1.4457      2.00000
      2       0.0124      2.00000
      3       4.2806      2.00000
      4       5.6747      2.00000
      5       6.5110      2.00000
      6       7.8784      0.00000
      7       7.8888      0.00000
      8       9.2081      0.00000
      9      10.1773      0.00000
     10      11.4600      0.00000
     11      11.9886      0.00000
     12      13.1817      0.00000
     13      13.3526      0.00000
     14      14.1624      0.00000
     15      14.5092      0.00000
     16      17.4588      0.00000

 k-point  18 :       0.5000    0.1667    0.0000
  band No.  band energies     occupation 
      1      -0.7754      2.00000
      2      -0.7754      2.00000
      3       4.9228      2.00000
      4       4.9228      2.00000
      5       7.1374      2.00000
      6       7.1374      2.00000
      7       8.5157      0.00000
      8       8.5157      0.00000
      9      10.7449      0.00000
     10      10.7449      0.00000
     11      12.6146      0.00000
     12      12.6146      0.00000
     13      13.8043      0.00000
     14      13.8043      0.00000
     15      16.0797      0.00000
     16      16.0797      0.00000

 k-point  19 :       0.2500    0.2500    0.0000
  band No.  band energies     occupation 
      1      -2.1192      2.00000
      2       2.2270      2.00000
      3       2.2270      2.00000
      4       5.8853      2.00000
      5       6.4072      2.00000
      6       7.2764      2.00000
      7       9.9904      0.00000
      8       9.9904      0.00000
      9      10.6959      0.00000
     10      10.6959      0.00000
     11      11.4746      0.00000
     12      11.4746      0.00000
     13      14.0864      0.00000
     14      14.1486      0.00000
     15      15.2594      0.00000
     16      15.7850      0.00000

 k-point  20 :       0.3333    0.2500    0.0000
  band No.  band energies     occupation 
      1      -1.6902      2.00000
      2       1.2155      2.00000
      3       2.6432      2.00000
      4       5.4563      2.00000
      5       6.2834      2.00000
      6       7.6612      2.00000
      7       9.0194      0.00000
      8      10.3551      0.00000
      9      10.3898      0.00000
     10      11.2890      0.00000
     11      11.6965      0.00000
     12      12.6219      0.00000
     13      13.1228      0.00000
     14      13.7794      0.00000
     15      14.3787      0.00000
     16      16.9522      0.00000

 k-point  21 :       0.4167    0.2500    0.0000
  band No.  band energies     occupation 
      1      -1.1406      2.00000
      2       0.3145      2.00000
      3       3.1764      2.00000
      4       4.5870      2.00000
      5       6.7956      2.00000
      6       8.1634      0.00000
      7       8.1855      0.00000
      8       9.5600      0.00000
      9      10.9031      0.00000
     10      11.7460      0.00000
     11      12.2435      0.00000
     12      12.2703      0.00000
     13      13.0423      0.00000
     14      13.5747      0.00000
     15      14.4253      0.00000
     16      18.3045      0.00000

 k-point  22 :       0.5000    0.2500    0.0000
  band No.  band energies     occupation 
      1      -0.4717      2.00000
      2      -0.4717      2.00000
      3       3.8252      2.00000
      4       3.8252      2.00000
      5       7.4222      2.00000
      6       7.4222      2.00000
      7       8.8229      0.00000
      8       8.8229      0.00000
      9      11.5301      0.00000
     10      11.5301      0.00000
     11      12.3456      0.00000
     12      12.3456      0.00000
     13      12.8617      0.00000
     14      12.8617      0.00000
     15      16.3403      0.00000
     16      16.3403      0.00000

 k-point  23 :       0.3333    0.3333    0.0000
  band No.  band energies     occupation 
      1      -1.2626      2.00000
      2       1.6347      2.00000
      3       1.6347      2.00000
      4       4.4734      2.00000
      5       6.6817      2.00000
      6       8.0710      0.00000
      7       9.4188      0.00000
      8       9.4188      0.00000
      9      10.8115      0.00000
     10      10.8115      0.00000
     11      12.1555      0.00000
     12      12.9778      0.00000
     13      12.9778      0.00000
     14      13.4901      0.00000
     15      14.8937      0.00000
     16      16.6464      0.00000

 k-point  24 :       0.4167    0.3333    0.0000
  band No.  band energies     occupation 
      1      -0.7145      2.00000
      2       0.7364      2.00000
      3       2.1720      2.00000
      4       3.5941      2.00000
      5       7.1942      2.00000
      6       8.5625      0.00000
      7       8.5985      0.00000
      8       9.9322      0.00000
      9       9.9788      0.00000
     10      11.3008      0.00000
     11      11.3345      0.00000
     12      12.6774      0.00000
     13      13.4625      0.00000
     14      14.6555      0.00000
     15      14.7973      0.00000
     16      17.8881      0.00000

 k-point  25 :       0.5000    0.3333    0.0000
  band No.  band energies     occupation 
      1      -0.0476      2.00000
      2      -0.0476      2.00000
      3       2.8259      2.00000
      4       2.8259      2.00000
      5       7.8211      0.00000
      6       7.8211      0.00000
      7       9.2369      0.00000
      8       9.2369      0.00000
      9      10.5596      0.00000
     10      10.5596      0.00000
     11      11.9564      0.00000
     12      11.9564      0.00000
     13      14.0413      0.00000
     14      14.0413      0.00000
     15      16.6834      0.00000
     16      16.6834      0.00000

 k-point  26 :       0.4167    0.4167    0.0000
  band No.  band energies     occupation 
      1      -0.1685      2.00000
      2       1.2771      2.00000
      3       1.2771      2.00000
      4       2.7084      2.00000
      5       7.7070      1.15322
      6       9.0758      0.00000
      7       9.0758      0.00000
      8       9.1249      0.00000
      9      10.4451      0.00000
     10      10.5007      0.00000
     11      10.5007      0.00000
     12      11.8561      0.00000
     13      15.2579      0.00000
     14      15.2579      0.00000
     15      15.8518      0.00000
     16      17.7089      0.00000

 k-point  27 :       0.5000    0.4167    0.0000
  band No.  band energies     occupation 
      1       0.4960      2.00000
      2       0.4960      2.00000
      3       1.9351      2.00000
      4       1.9351      2.00000
      5       8.3342      0.00000
      6       8.3342      0.00000
      7       9.7034      0.00000
      8       9.7034      0.00000
      9       9.7610      0.00000
     10       9.7610      0.00000
     11      11.1278      0.00000
     12      11.1278      0.00000
     13      15.7467      0.00000
     14      15.7467      0.00000
     15      17.0469      0.00000
     16      17.0469      0.00000

 k-point  28 :       0.5000    0.5000    0.0000
  band No.  band energies     occupation 
      1       1.1575      2.00000
      2       1.1575      2.00000
      3       1.1575      2.00000
      4       1.1575      2.00000
      5       8.9616      0.00000
      6       8.9616      0.00000
      7       8.9616      0.00000
      8       8.9616      0.00000
      9      10.3930      0.00000
     10      10.3930      0.00000
     11      10.3930      0.00000
     12      10.3930      0.00000
     13      17.0210      0.00000
     14      17.0210      0.00000
     15      17.0210      0.00000
     16      17.0210      0.00000

 k-point  29 :       0.0833    0.0833    0.0833
  band No.  band energies     occupation 
      1      -3.0426      2.00000
      2       4.1134      2.00000
      3       4.1134      2.00000
      4       4.1134      2.00000
      5       7.2144      2.00000
      6       7.2144      2.00000
      7       7.2144      2.00000
      8      10.9643      0.00000
      9      10.9643      0.00000
     10      10.9643      0.00000
     11      13.3508      0.00000
     12      13.3508      0.00000
     13      13.3508      0.00000
     14      14.4967      0.00000
     15      14.4967      0.00000
     16      14.4967      0.00000

 k-point  30 :       0.1667    0.0833    0.0833
  band No.  band energies     occupation 
      1      -2.8574      2.00000
      2       2.9268      2.00000
      3       4.2882      2.00000
      4       4.2882      2.00000
      5       7.3875      2.00000
      6       7.3875      2.00000
      7       8.7214      0.00000
      8       9.8243      0.00000
      9       9.8243      0.00000
     10      11.1369      0.00000
     11      12.7615      0.00000
     12      12.7615      0.00000
     13      13.5092      0.00000
     14      14.6719      0.00000
     15      15.6093      0.00000
     16      15.6093      0.00000

 k-point  31 :       0.2500    0.0833    0.0833
  band No.  band energies     occupation 
      1      -2.5493      2.00000
      2       1.8097      2.00000
      3       4.5790      2.00000
      4       4.5790      2.00000
      5       7.6669      2.00000
      6       7.6669      2.00000
      7       8.7648      0.00000
      8       8.7648      0.00000
      9      10.3678      0.00000
     10      11.4280      0.00000
     11      11.8197      0.00000
     12      11.8197      0.00000
     13      13.7732      0.00000
     14      14.9630      0.00000
     15      15.4494      0.00000
     16      17.1806      0.00000

 k-point  32 :       0.3333    0.0833    0.0833
  band No.  band energies     occupation 
      1      -2.1191      2.00000
      2       0.7951      2.00000
      3       4.9851      2.00000
      4       4.9851      2.00000
      5       7.7072      1.13059
      6       7.7072      1.13059
      7       8.1576      0.00000
      8       8.1576      0.00000
      9      10.9064      0.00000
     10      10.9064      0.00000
     11      11.7793      0.00000
     12      12.1767      0.00000
     13      14.1430      0.00000
     14      14.5105      0.00000
     15      15.3686      0.00000
     16      16.6764      0.00000

 k-point  33 :       0.4167    0.0833    0.0833
  band No.  band energies     occupation 
      1      -1.5679      2.00000
      2      -0.1086      2.00000
      3       5.5044      2.00000
      4       5.5044      2.00000
      5       6.8960      2.00000
      6       6.8960      2.00000
      7       8.6102      0.00000
      8       8.6102      0.00000
      9      10.0898      0.00000
     10      10.0898      0.00000
     11      12.3163      0.00000
     12      13.6727      0.00000
     13      14.0094      0.00000
     14      14.6186      0.00000
     15      15.8863      0.00000
     16      15.8864      0.00000

 k-point  34 :       0.5000    0.0833    0.0833
  band No.  band energies     occupation 
      1      -0.8971      2.00000
      2      -0.8971      2.00000
      3       6.0579      2.00000
      4       6.0579      2.00000
      5       6.2329      2.00000
      6       6.2329      2.00000
      7       9.0212      0.00000
      8       9.0212      0.00000
      9       9.5683      0.00000
     10       9.5683      0.00000
     11      12.9408      0.00000
     12      12.9408      0.00000
     13      15.1999      0.00000
     14      15.1999      0.00000
     15      15.9469      0.00000
     16      15.9469      0.00000

 k-point  35 :       0.1667    0.1667    0.0833
  band No.  band energies     occupation 
      1      -2.6725      2.00000
      2       3.1041      2.00000
      3       3.1041      2.00000
      4       4.4627      2.00000
      5       7.5500      2.00000
      6       8.7061      0.00000
      7       8.8838      0.00000
      8       8.8838      0.00000
      9      10.0046      0.00000
     10      10.0046      0.00000
     11      12.9266      0.00000
     12      12.9266      0.00000
     13      13.6697      0.00000
     14      15.1619      0.00000
     15      15.3706      0.00000
     16      15.7800      0.00000

 k-point  36 :       0.2500    0.1667    0.0833
  band No.  band energies     occupation 
      1      -2.3648      2.00000
      2       1.9887      2.00000
      3       3.3992      2.00000
      4       4.7529      2.00000
      5       7.5147      2.00000
      6       7.9613      0.00000
      7       8.8497      0.00000
      8       9.2516      0.00000
      9      10.2162      0.00000
     10      10.6065      0.00000
     11      11.9913      0.00000
     12      13.1792      0.00000
     13      13.2019      0.00000
     14      14.3299      0.00000
     15      16.0635      0.00000
     16      16.2593      0.00000

 k-point  37 :       0.3333    0.1667    0.0833
  band No.  band energies     occupation 
      1      -1.9352      2.00000
      2       0.9754      2.00000
      3       3.8112      2.00000
      4       5.1569      2.00000
      5       6.6101      2.00000
      6       7.9296      0.00000
      7       8.2995      0.00000
      8       9.5866      0.00000
      9      10.6605      0.00000
     10      11.0919      0.00000
     11      12.3147      0.00000
     12      12.3285      0.00000
     13      13.3833      0.00000
     14      13.5902      0.00000
     15      16.1481      0.00000
     16      16.4579      0.00000

 k-point  38 :       0.4167    0.1667    0.0833
  band No.  band energies     occupation 
      1      -1.3846      2.00000
      2       0.0729      2.00000
      3       4.3388      2.00000
      4       5.6134      2.00000
      5       5.8138      2.00000
      6       7.0739      2.00000
      7       8.8092      0.00000
      8       9.9217      0.00000
      9      10.4290      0.00000
     10      11.1779      0.00000
     11      11.5192      0.00000
     12      12.5400      0.00000
     13      13.9822      0.00000
     14      14.2627      0.00000
     15      15.3515      0.00000
     16      16.9598      0.00000

 k-point  39 :       0.5000    0.1667    0.0833
  band No.  band energies     occupation 
      1      -0.7146      2.00000
      2      -0.7146      2.00000
      3       4.9789      2.00000
      4       4.9789      2.00000
[...]
     16      17.2584      0.00000

 k-point  64 :       0.5000    0.5000    0.1667
  band No.  band energies     occupation 
      1       1.3975      2.00000
      2       1.3975      2.00000
      3       1.3975      2.00000
      4       1.3975      2.00000
      5       7.0302      2.00000
      6       7.0302      2.00000
      7       7.0302      2.00000
      8       7.0302      2.00000
      9      12.7301      0.00000
     10      12.7301      0.00000
     11      12.7301      0.00000
     12      12.7301      0.00000
     13      17.2348      0.00000
     14      17.2348      0.00000
     15      17.2348      0.00000
     16      17.2348      0.00000

 k-point  65 :       0.2500    0.2500    0.2500
  band No.  band energies     occupation 
      1      -1.5679      2.00000
      2       2.7618      2.00000
      3       2.7618      2.00000
      4       2.7618      2.00000
      5       6.9791      2.00000
      6       6.9791      2.00000
      7       6.9791      2.00000
      8      11.1062      0.00000
      9      11.3084      0.00000
     10      11.3084      0.00000
     11      11.3084      0.00000
     12      14.6256      0.00000
     13      14.6256      0.00000
     14      14.6256      0.00000
     15      16.3007      0.00000
     16      16.3007      0.00000

 k-point  66 :       0.3333    0.2500    0.2500
  band No.  band energies     occupation 
      1      -1.1406      2.00000
      2       1.7544      2.00000
      3       3.1761      2.00000
      4       3.1761      2.00000
      5       5.9996      2.00000
      6       5.9996      2.00000
      7       7.3859      2.00000
      8      10.1449      0.00000
      9      11.7022      0.00000
     10      11.7022      0.00000
     11      13.0533      0.00000
     12      14.2720      0.00000
     13      14.2720      0.00000
     14      14.9968      0.00000
     15      16.6922      0.00000
     16      17.4448      0.00000

 k-point  67 :       0.4167    0.2500    0.2500
  band No.  band energies     occupation 
      1      -0.5930      2.00000
      2       0.8568      2.00000
      3       3.7055      2.00000
      4       3.7055      2.00000
      5       5.1289      2.00000
      6       5.1289      2.00000
      7       7.9072      0.00000
      8       9.2887      0.00000
      9      12.1955      0.00000
     10      12.1955      0.00000
     11      13.5531      0.00000
     12      13.5531      0.00000
     13      14.8885      0.00000
     14      15.4743      0.00000
     15      16.7470      0.00000
     16      17.1792      0.00000

 k-point  68 :       0.5000    0.2500    0.2500
  band No.  band energies     occupation 
      1       0.0734      2.00000
      2       0.0734      2.00000
      3       4.2654      2.00000
      4       4.2654      2.00000
      5       4.4549      2.00000
      6       4.4549      2.00000
      7       8.5420      0.00000
      8       8.5420      0.00000
      9      12.6440      0.00000
     10      12.6440      0.00000
     11      13.0161      0.00000
     12      13.0161      0.00000
     13      16.0579      0.00000
     14      16.0579      0.00000
     15      16.7944      0.00000
     16      16.7944      0.00000

 k-point  69 :       0.3333    0.3333    0.2500
  band No.  band energies     occupation 
      1      -0.7145      2.00000
      2       2.1721      2.00000
      3       2.1721      2.00000
      4       3.5878      2.00000
      5       5.0155      2.00000
      6       6.4072      2.00000
      7       6.4072      2.00000
      8       9.1789      0.00000
      9      12.1002      0.00000
     10      13.4350      0.00000
     11      13.4350      0.00000
     12      14.6565      0.00000
     13      14.6565      0.00000
     14      15.3720      0.00000
     15      17.1375      0.00000
     16      17.1406      0.00000

 k-point  70 :       0.4167    0.3333    0.2500
  band No.  band energies     occupation 
      1      -0.1685      2.00000
      2       1.2772      2.00000
      3       2.7073      2.00000
      4       4.0370      2.00000
      5       4.2182      2.00000
      6       5.5358      2.00000
      7       6.9305      2.00000
      8       8.3185      0.00000
      9      12.6023      0.00000
     10      13.7740      0.00000
     11      14.0833      0.00000
     12      15.0772      0.00000
     13      15.1443      0.00000
     14      15.3218      0.00000
     15      16.3993      0.00000
     16      18.2725      0.00000

 k-point  71 :       0.5000    0.3333    0.2500
  band No.  band energies     occupation 
      1       0.4961      2.00000
      2       0.4961      2.00000
      3       3.3570      2.00000
      4       3.3570      2.00000
      5       4.7777      2.00000
      6       4.7777      2.00000
      7       7.5682      2.00000
      8       7.5682      2.00000
      9      13.2000      0.00000
     10      13.2000      0.00000
     11      14.5426      0.00000
     12      14.5426      0.00000
     13      15.7143      0.00000
     14      15.7143      0.00000
     15      17.1497      0.00000
     16      17.1497      0.00000

 k-point  72 :       0.4167    0.4167    0.2500
  band No.  band energies     occupation 
      1       0.3756      2.00000
      2       1.8159      2.00000
      3       1.8159      2.00000
      4       3.2403      2.00000
      5       4.6603      2.00000
      6       6.0608      2.00000
      7       6.0608      2.00000
      8       7.4545      2.00000
      9      13.1063      0.00000
     10      14.3950      0.00000
     11      14.3950      0.00000
     12      15.6805      0.00000
     13      15.7452      0.00000
     14      15.7452      0.00000
     15      16.3316      0.00000
     16      18.1642      0.00000

 k-point  73 :       0.5000    0.4167    0.2500
  band No.  band energies     occupation 
      1       1.0377      2.00000
      2       1.0377      2.00000
      3       2.4714      2.00000
      4       2.4714      2.00000
      5       5.3028      2.00000
      6       5.3028      2.00000
      7       6.7010      2.00000
      8       6.7010      2.00000
      9      13.7088      0.00000
     10      13.7088      0.00000
     11      14.9967      0.00000
     12      14.9967      0.00000
     13      16.2295      0.00000
     14      16.2295      0.00000
     15      17.5194      0.00000
     16      17.5194      0.00000

 k-point  74 :       0.5000    0.5000    0.2500
  band No.  band energies     occupation 
      1       1.6969      2.00000
      2       1.6969      2.00000
      3       1.6969      2.00000
      4       1.6969      2.00000
      5       5.9449      2.00000
      6       5.9449      2.00000
      7       5.9449      2.00000
      8       5.9449      2.00000
      9      14.3104      0.00000
     10      14.3104      0.00000
     11      14.3104      0.00000
     12      14.3104      0.00000
     13      17.5020      0.00000
     14      17.5020      0.00000
     15      17.5020      0.00000
     16      17.5020      0.00000

 k-point  75 :       0.3333    0.3333    0.3333
  band No.  band energies     occupation 
      1      -0.2896      2.00000
      2       2.5886      2.00000
      3       2.5886      2.00000
      4       2.5886      2.00000
      5       5.4229      2.00000
      6       5.4229      2.00000
      7       5.4229      2.00000
      8       8.2081      0.00000
      9      13.8298      0.00000
     10      13.8298      0.00000
     11      13.8298      0.00000
     12      15.7442      0.00000
     13      15.7442      0.00000
     14      15.7442      0.00000
     15      17.5084      0.00000
     16      17.5084      0.00000

 k-point  76 :       0.4167    0.3333    0.3333
  band No.  band energies     occupation 
      1       0.2549      2.00000
      2       1.6965      2.00000
      3       3.1210      2.00000
      4       3.1210      2.00000
      5       4.5476      2.00000
      6       4.5476      2.00000
      7       5.9485      2.00000
      8       7.3434      2.00000
      9      14.3148      0.00000
     10      14.3148      0.00000
     11      15.5238      0.00000
     12      15.5238      0.00000
     13      15.6388      0.00000
     14      16.2231      0.00000
     15      17.4991      0.00000
     16      17.9493      0.00000

 k-point  77 :       0.5000    0.3333    0.3333
  band No.  band energies     occupation 
      1       0.9176      2.00000
      2       0.9176      2.00000
      3       3.6940      2.00000
      4       3.6940      2.00000
      5       3.8601      2.00000
      6       3.8601      2.00000
      7       6.5893      2.00000
      8       6.5893      2.00000
      9      14.7803      0.00000
     10      14.7803      0.00000
     11      15.0282      0.00000
     12      15.0282      0.00000
     13      16.8083      0.00000
     14      16.8083      0.00000
     15      17.4923      0.00000
     16      17.4923      0.00000

 k-point  78 :       0.4167    0.4167    0.3333
  band No.  band energies     occupation 
      1       0.7975      2.00000
      2       2.2336      2.00000
      3       2.2336      2.00000
      4       3.5795      2.00000
      5       3.7399      2.00000
      6       5.0739      2.00000
      7       5.0739      2.00000
      8       6.4748      2.00000
      9      14.8080      0.00000
     10      15.9554      0.00000
     11      15.9554      0.00000
     12      16.1430      0.00000
     13      16.1430      0.00000
     14      16.7049      0.00000
     15      17.2023      0.00000
     16      18.4842      0.00000

 k-point  79 :       0.5000    0.4167    0.3333
  band No.  band energies     occupation 
      1       1.4577      2.00000
      2       1.4577      2.00000
      3       2.8862      2.00000
      4       2.8862      2.00000
      5       4.3126      2.00000
      6       4.3126      2.00000
      7       5.7174      2.00000
      8       5.7174      2.00000
      9      15.3811      0.00000
     10      15.3811      0.00000
     11      16.5685      0.00000
     12      16.5685      0.00000
     13      16.6009      0.00000
     14      16.6009      0.00000
     15      17.8745      0.00000
     16      17.8745      0.00000

 k-point  80 :       0.5000    0.5000    0.3333
  band No.  band energies     occupation 
      1       2.1149      2.00000
      2       2.1149      2.00000
      3       2.1149      2.00000
      4       2.1149      2.00000
      5       4.9572      2.00000
      6       4.9572      2.00000
      7       4.9572      2.00000
      8       4.9572      2.00000
      9      15.9582      0.00000
     10      15.9582      0.00000
     11      15.9582      0.00000
     12      15.9582      0.00000
     13      17.8758      0.00000
     14      17.8758      0.00000
     15      17.8758      0.00000
     16      17.8758      0.00000

 k-point  81 :       0.4167    0.4167    0.4167
  band No.  band energies     occupation 
      1       1.3381      2.00000
      2       2.7679      2.00000
      3       2.7679      2.00000
      4       2.7679      2.00000
      5       4.1960      2.00000
      6       4.1960      2.00000
      7       4.1960      2.00000
      8       5.6022      2.00000
      9      16.5634      0.00000
     10      16.5634      0.00000
     11      16.5634      0.00000
     12      17.1850      0.00000
     13      17.1850      0.00000
     14      17.1850      0.00000
     15      18.4598      0.00000
     16      18.4598      0.00000

 k-point  82 :       0.5000    0.4167    0.4167
  band No.  band energies     occupation 
      1       1.9959      2.00000
      2       1.9959      2.00000
      3       3.3505      2.00000
      4       3.3505      2.00000
      5       3.4986      2.00000
      6       3.4986      2.00000
      7       4.8413      2.00000
      8       4.8413      2.00000
      9      17.0216      0.00000
     10      17.0216      0.00000
     11      17.1022      0.00000
     12      17.1022      0.00000
     13      17.7713      0.00000
     14      17.7713      0.00000
     15      18.2844      0.00000
     16      18.2844      0.00000

 k-point  83 :       0.5000    0.5000    0.4167
  band No.  band energies     occupation 
      1       2.6498      2.00000
      2       2.6498      2.00000
      3       2.6498      2.00000
      4       2.6498      2.00000
      5       4.0784      2.00000
      6       4.0784      2.00000
      7       4.0784      2.00000
      8       4.0784      2.00000
      9      17.5856      0.00000
     10      17.5856      0.00000
     11      17.5856      0.00000
     12      17.5856      0.00000
     13      18.3542      0.00000
     14      18.3542      0.00000
     15      18.3542      0.00000
     16      18.3542      0.00000

 k-point  84 :       0.5000    0.5000    0.5000
  band No.  band energies     occupation 
      1       3.2359      2.00000
      2       3.2359      2.00000
      3       3.2359      2.00000
      4       3.2359      2.00000
      5       3.3774      2.00000
      6       3.3774      2.00000
      7       3.3774      2.00000
      8       3.3774      2.00000
      9      18.8473      0.00000
     10      18.8473      0.00000
     11      18.8473      0.00000
     12      18.8473      0.00000
     13      18.8473      0.00000
     14      18.8473      0.00000
     15      18.8473      0.00000
     16      18.8474      0.00000


--------------------------------------------------------------------------------------------------------


 soft charge-density along one line, spin component           1
         0         1         2         3         4         5         6         7         8         9
 total charge-density along one line
 
 pseudopotential strength for first ion, spin component:           1
  8.453  -0.006  -0.000   0.000  -0.000  -0.000   0.000  -0.000
 -0.006   0.000  -0.000   0.000  -0.000   0.000  -0.000   0.000
 -0.000  -0.000   1.987  -0.000   0.000  -0.026   0.000  -0.000
  0.000   0.000  -0.000   1.987   0.000   0.000  -0.026  -0.000
 -0.000  -0.000   0.000   0.000   1.987  -0.000  -0.000  -0.026
 -0.000   0.000  -0.026   0.000  -0.000  -0.012   0.000  -0.000
  0.000  -0.000   0.000  -0.026  -0.000   0.000  -0.012  -0.000
 -0.000   0.000  -0.000  -0.000  -0.026  -0.000  -0.000  -0.012
 total augmentation occupancy for first ion, spin component:           1
  1.341  -0.445  -0.000   0.000   0.000   0.000  -0.000   0.000
 -0.445   0.446  -0.000  -0.000   0.000   0.000   0.000  -0.000
 -0.000  -0.000   0.710  -0.071   0.027  -0.147   0.014   0.003
  0.000  -0.000  -0.071   0.785  -0.012   0.014  -0.122   0.006
  0.000   0.000   0.027  -0.012   0.634   0.003   0.006  -0.152
  0.000   0.000  -0.147   0.014   0.003   0.034  -0.002  -0.002
 -0.000   0.000   0.014  -0.122   0.006  -0.002   0.021  -0.001
  0.000  -0.000   0.003   0.006  -0.152  -0.002  -0.001   0.041


------------------------ aborting loop because EDIFF is reached ----------------------------------------




--------------------------------------------------------------------------------------------------------


    CHARGE:  VPU time    0.03: CPU time    0.03
    FORLOC:  VPU time    0.00: CPU time    0.00
    FORNL :  VPU time    0.06: CPU time    0.06
    STRESS:  VPU time    0.43: CPU time    0.44
    FORCOR:  VPU time    0.05: CPU time    0.05
    FORHAR:  VPU time    0.00: CPU time    0.00
    MIXING:  VPU time    0.00: CPU time    0.00


--------------------------------------------------------------------------------------------------------



  FREE ENERGIE OF THE ION-ELECTRON SYSTEM (eV)
  ---------------------------------------------------
  free  energy   TOTEN  =       -14.957288 eV

  energy  without entropy=      -14.956941  energy(sigma->0) =      -14.957115
 

  FORCE on cell =-STRESS in cart. coord.  units (eV/reduce length):
  Direction    X        Y        Z        XY       YZ       ZX
  --------------------------------------------------------------------------------------
  Alpha Z     -0.79     -0.79     -0.79
  Ewald      -97.15    -97.15    -97.15      0.00     -0.00      0.00
  Hartree      0.13      0.13      0.13     -0.00     -0.00     -0.00
  E(xc)      -33.97    -33.97    -33.97      0.00      0.00      0.00
  Local        0.92      0.92      0.92      0.00      0.00     -0.00
  n-local     74.15     74.83     76.59      0.20      0.86      0.37
  augment     -4.22     -4.22     -4.22      0.00      0.00      0.00
  Kinetic     56.09     59.27     61.69      1.92     -7.79     -1.82
  -------------------------------------------------------------------------------------
  Total       -0.86     -0.86     -0.86     -0.00     -0.00     -0.00
  in kB      -20.26    -20.26    -20.26     -0.00     -0.00     -0.00
  external pressure =      -20.26 kB  Pullay stress =        0.00 kB


 VOLUME and BASIS-vectors are now :
 -----------------------------------------------------------------------------
  energy-cutoff  :      500.00
  volume of cell :       67.80
      direct lattice vectors                 reciprocal lattice vectors
     4.077679433  0.000000000  0.000000000     0.245237522  0.000000000  0.000000000
     0.000000000  4.077679433  0.000000000     0.000000000  0.245237522  0.000000000
     0.000000000  0.000000000  4.077679433     0.000000000  0.000000000  0.245237522

  length of vectors
     4.077679433  4.077679433  4.077679433     0.245237522  0.245237522  0.245237522


 FORCES acting on ions
    electron-ion (+dipol)            ewald-force                    non-local-force                 convergence-correction
 -----------------------------------------------------------------------------------------------
   -.279E-14 -.529E-14 -.184E-13   -.867E-15 0.661E-15 -.328E-15   -.275E-26 0.263E-26 -.643E-26   -.406E-15 0.157E-16 0.725E-16
   -.331E-14 -.955E-15 0.220E-13   -.788E-15 -.260E-15 0.275E-15   -.272E-26 -.305E-26 -.114E-26   -.397E-15 -.195E-16 -.772E-16
   -.423E-15 -.146E-14 -.468E-15   0.687E-15 0.202E-15 0.283E-15   -.316E-26 -.914E-26 0.552E-26   0.402E-15 0.295E-16 -.792E-16
   -.733E-16 -.223E-15 -.454E-15   0.765E-15 -.719E-15 -.431E-15   -.157E-25 0.520E-26 -.597E-26   0.391E-15 -.277E-16 0.770E-16
 -----------------------------------------------------------------------------------------------
   -.660E-14 -.794E-14 0.271E-14   -.204E-15 -.115E-15 -.200E-15   -.243E-25 -.436E-26 -.803E-26   -.102E-16 -.197E-17 -.679E-17
 
 
 POSITION                                       TOTAL-FORCE (eV/Angst)
 -----------------------------------------------------------------------------------
      2.03884      2.03884      0.00000         0.000000      0.000000      0.000000
      2.03884      0.00000      2.03884         0.000000      0.000000      0.000000
      0.00000      2.03884      2.03884        -0.000000      0.000000      0.000000
      0.00000      0.00000      0.00000         0.000000      0.000000      0.000000
 -----------------------------------------------------------------------------------
    total drift:                               -0.000000     -0.000000      0.000000


--------------------------------------------------------------------------------------------------------



 mean value of Nose-termostat <S>:     1.000 mean value of <T> :     0.000
 mean temperature <T/S>/<1/S>  :     0.000

     LOOP+:  VPU time   18.15: CPU time   18.23
  
  
 General timing and accounting informations for this job:
 ========================================================
  
                  Total CPU time used (sec):       19.074
                            User time (sec):       11.124
                          System time (sec):        7.950
                         Elapsed time (sec):       19.157
  
                   Maximum memory used (kb):      176840.
                   Average memory used (kb):           0.
  
                          Minor page faults:        37884
                          Major page faults:            0
                 Voluntary context switches:          823
