32   
1    

1    
  0.0100000000000000   0.0000000000000000   0.0000000000000000
  -0.0842554200   -0.0000000000    0.0000000000
   0.0010899600    0.0000000000   -0.0000000000
  -0.0003832500    0.0000000000    0.0000000000
   0.0002585700    0.0000000000   -0.0000000000
  -0.0003832500   -0.0000000000   -0.0000000000
   0.0002585700    0.0000000000   -0.0000000000
  -0.0001353100   -0.0000000000    0.0000000000
   0.0000010100    0.0000000000   -0.0000000000
   0.0105663300    0.0123209600    0.0000000000
   0.0102562300   -0.0118805200    0.0000000000
   0.0105663300   -0.0123209600    0.0000000000
   0.0102562300    0.0118805200    0.0000000000
   0.0001803400    0.0001366300    0.0000000000
   0.0001777600   -0.0001394300    0.0000000000
   0.0001803400   -0.0001366300   -0.0000000000
   0.0001777600    0.0001394300    0.0000000000
   0.0105663300    0.0000000000    0.0123209600
   0.0102562300   -0.0000000000   -0.0118805200
   0.0001803400    0.0000000000    0.0001366300
   0.0001777600    0.0000000000   -0.0001394300
   0.0105663300   -0.0000000000   -0.0123209600
   0.0102562300   -0.0000000000    0.0118805200
   0.0001803400    0.0000000000   -0.0001366300
   0.0001777600    0.0000000000    0.0001394300
  -0.0010787200   -0.0000264600   -0.0000264600
   0.0007853500    0.0000010100    0.0000010100
  -0.0010787200    0.0000264600   -0.0000264600
   0.0007853500   -0.0000010100    0.0000010100
  -0.0010787200   -0.0000264600    0.0000264600
   0.0007853500    0.0000010100   -0.0000010100
  -0.0010787200    0.0000264600    0.0000264600
   0.0007853500   -0.0000010100   -0.0000010100
