mesh: [    48,    48,    48 ]
nqpoint: 2600   
reciprocal_lattice:
- [   0.28060822,   0.00000000,   0.00000000 ] # a*
- [   0.00000000,   0.28060822,   0.00000000 ] # b*
- [   0.00000000,   0.00000000,   0.28060822 ] # c*
natom:   4      
lattice:
- [     3.563687495498391,     0.000000000000000,     0.000000000000000 ] # a
- [     0.000000000000000,     3.563687495498391,     0.000000000000000 ] # b
- [     0.000000000000000,     0.000000000000000,     3.563687495498391 ] # c
points:
- symbol: Cu # 1
  coordinates: [  0.000000000000000,  0.000000000000000,  0.000000000000000 ]
  mass: 63.546000
- symbol: Cu # 2
  coordinates: [  0.500000000000000,  0.500000000000000,  0.000000000000000 ]
  mass: 63.546000
- symbol: Cu # 3
  coordinates: [  0.500000000000000,  0.000000000000000,  0.500000000000000 ]
  mass: 63.546000
- symbol: Cu # 4
  coordinates: [  0.000000000000000,  0.500000000000000,  0.500000000000000 ]
  mass: 63.546000
phonon:
- q-position: [    0.0104167,    0.0104167,    0.0104167 ]
  weight: 8    
  band:
  - # 1
    frequency:     0.1374335397
  - # 2
    frequency:     0.1374335397
  - # 3
    frequency:     0.2817015362
  - # 4
    frequency:     5.6267752524
  - # 5
    frequency:     5.6267752524
  - # 6
    frequency:     5.6267752524
  - # 7
    frequency:     5.6303541000
  - # 8
    frequency:     5.6303541000
  - # 9
    frequency:     5.6303541000
  - # 10
    frequency:     8.0706996858
  - # 11
    frequency:     8.0706996858
  - # 12
    frequency:     8.0706996858

- q-position: [    0.0312500,    0.0104167,    0.0104167 ]
  weight: 24   
  band:
  - # 1
    frequency:     0.2748435568
  - # 2
    frequency:     0.2993906641
  - # 3
    frequency:     0.5137902221
  - # 4
    frequency:     5.6210187569
  - # 5
    frequency:     5.6245833253
  - # 6
    frequency:     5.6246897629
  - # 7
    frequency:     5.6246897629
  - # 8
    frequency:     5.6373248506
  - # 9
    frequency:     5.6373248506
  - # 10
    frequency:     8.0640044776
  - # 11
    frequency:     8.0658700526
  - # 12
    frequency:     8.0658700526

- q-position: [    0.0520833,    0.0104167,    0.0104167 ]
  weight: 24   
  band:
  - # 1
    frequency:     0.4598867958
  - # 2
    frequency:     0.4804028805
  - # 3
    frequency:     0.7804508459
  - # 4
    frequency:     5.6095093277
  - # 5
    frequency:     5.6130454209
  - # 6
    frequency:     5.6224861636
  - # 7
    frequency:     5.6224861636
  - # 8
    frequency:     5.6492786930
  - # 9
    frequency:     5.6492786930
  - # 10
    frequency:     8.0506012010
  - # 11
    frequency:     8.0562279044
  - # 12
    frequency:     8.0562279044

- q-position: [    0.0729167,    0.0104167,    0.0104167 ]
  weight: 24   
  band:
  - # 1
    frequency:     0.6483944324
  - # 2
    frequency:     0.6645778507
  - # 3
    frequency:     1.0574212525
  - # 4
    frequency:     5.5922541106
  - # 5
    frequency:     5.5957476966
  - # 6
    frequency:     5.6196830551
  - # 7
    frequency:     5.6196830551
  - # 8
    frequency:     5.6666567274
  - # 9
    frequency:     5.6666567274
  - # 10
    frequency:     8.0304643859
  - # 11
    frequency:     8.0418074338
  - # 12
    frequency:     8.0418074338

- q-position: [    0.0937500,    0.0104167,    0.0104167 ]
  weight: 24   
  band:
  - # 1
    frequency:     0.8362337774
  - # 2
    frequency:     0.8492639925
  - # 3
    frequency:     1.3378118767
  - # 4
    frequency:     5.5692638805
  - # 5
    frequency:     5.5727011682
  - # 6
    frequency:     5.6161652704
  - # 7
    frequency:     5.6161652704
  - # 8
    frequency:     5.6895143041
  - # 9
    frequency:     5.6895143041
  - # 10
    frequency:     8.0035564486
  - # 11
    frequency:     8.0226598194
  - # 12
    frequency:     8.0226598194

- q-position: [    0.1145833,    0.0104167,    0.0104167 ]
  weight: 24   
  band:
  - # 1
    frequency:     1.0227924704
  - # 2
    frequency:     1.0335371951
  - # 3
    frequency:     1.6186921385
  - # 4
    frequency:     5.5405531066
  - # 5
    frequency:     5.5439206169
  - # 6
    frequency:     5.6119374983
  - # 7
    frequency:     5.6119374983
  - # 8
    frequency:     5.7177681114
  - # 9
    frequency:     5.7177681114
  - # 10
    frequency:     7.9698284255
  - # 11
    frequency:     7.9988530953
  - # 12
    frequency:     7.9988530953

- q-position: [    0.1354167,    0.0104167,    0.0104167 ]
  weight: 24   
  band:
  - # 1
    frequency:     1.2078703272
  - # 2
    frequency:     1.2169009764
  - # 3
    frequency:     1.8984844985
  - # 4
    frequency:     5.5061400397
  - # 5
    frequency:     5.5094246686
  - # 6
    frequency:     5.6070495456
  - # 7
    frequency:     5.6070495456
  - # 8
    frequency:     5.7512717929
  - # 9
    frequency:     5.7512717929
  - # 10
    frequency:     7.9292209352
  - # 11
    frequency:     7.9704719777
  - # 12
    frequency:     7.9704719777

- q-position: [    0.1562500,    0.0104167,    0.0104167 ]
  weight: 24   
  band:
  - # 1
    frequency:     1.3913090082
  - # 2
    frequency:     1.3990069391
  - # 3
    frequency:     2.1761681931
  - # 4
    frequency:     5.4660468180
  - # 5
    frequency:     5.4692358908
  - # 6
    frequency:     5.6015741120
  - # 7
    frequency:     5.6015741120
  - # 8
    frequency:     5.7898391620
  - # 9
    frequency:     5.7898391620
  - # 10
    frequency:     7.8816653504
  - # 11
    frequency:     7.9376176510
  - # 12
    frequency:     7.9376176510

- q-position: [    0.1770833,    0.0104167,    0.0104167 ]
  weight: 24   
  band:
  - # 1
    frequency:     1.5729423669
  - # 2
    frequency:     1.5795704008
  - # 3
    frequency:     2.4509866155
  - # 4
    frequency:     5.4202995915
  - # 5
    frequency:     5.4233809059
  - # 6
    frequency:     5.5955986888
  - # 7
    frequency:     5.5955986888
  - # 8
    frequency:     5.8332533505
  - # 9
    frequency:     5.8332533505
  - # 10
    frequency:     7.8270851646
  - # 11
    frequency:     7.9004075142
  - # 12
    frequency:     7.9004075142

- q-position: [    0.1979167,    0.0104167,    0.0104167 ]
  weight: 24   
  band:
  - # 1
    frequency:     1.7525938410
  - # 2
    frequency:     1.7583390921
  - # 3
    frequency:     2.7223251854
  - # 4
    frequency:     5.3689286619
  - # 5
    frequency:     5.3718905211
  - # 6
    frequency:     5.5892215904
  - # 7
    frequency:     5.5892215904
  - # 8
    frequency:     5.8812718188
  - # 9
    frequency:     5.8812718188
  - # 10
    frequency:     7.7653975314
  - # 11
    frequency:     7.8589748904
  - # 12
    frequency:     7.8589748904

- q-position: [    0.2187500,    0.0104167,    0.0104167 ]
  weight: 24   
  band:
  - # 1
    frequency:     1.9300802354
  - # 2
    frequency:     1.9350798389
  - # 3
    frequency:     2.9896552463
  - # 4
    frequency:     5.3119686378
  - # 5
    frequency:     5.3147998705
  - # 6
    frequency:     5.5825493008
  - # 7
    frequency:     5.5825493008
  - # 8
    frequency:     5.9336299973
  - # 9
    frequency:     5.9336299973
  - # 10
    frequency:     7.6965149542
  - # 11
    frequency:     7.8134686997
  - # 12
    frequency:     7.8134686997

- q-position: [    0.2395833,    0.0104167,    0.0104167 ]
  weight: 24   
  band:
  - # 1
    frequency:     2.1052153369
  - # 2
    frequency:     2.1095723442
  - # 3
    frequency:     3.2525063701
  - # 4
    frequency:     5.2494586016
  - # 5
    frequency:     5.2521485701
  - # 6
    frequency:     5.5756942464
  - # 7
    frequency:     5.5756942464
  - # 8
    frequency:     5.9900444005
  - # 9
    frequency:     5.9900444005
  - # 10
    frequency:     7.6203471010
  - # 11
    frequency:     7.7640530991
  - # 12
    frequency:     7.7640530991

- q-position: [    0.2604167,    0.0104167,    0.0104167 ]
  weight: 24   
  band:
  - # 1
    frequency:     2.2778125753
  - # 2
    frequency:     2.2816061001
  - # 3
    frequency:     3.5104519486
  - # 4
    frequency:     5.1814422870
  - # 5
    frequency:     5.1839808819
  - # 6
    frequency:     5.5687726912
  - # 7
    frequency:     5.5687726912
  - # 8
    frequency:     6.0502154821
  - # 9
    frequency:     6.0502154821
  - # 10
    frequency:     7.5368027205
  - # 11
    frequency:     7.7109070912
  - # 12
    frequency:     7.7109070912

- q-position: [    0.2812500,    0.0104167,    0.0104167 ]
  weight: 24   
  band:
  - # 1
    frequency:     2.4476868975
  - # 2
    frequency:     2.4509788017
  - # 3
    frequency:     3.7631014248
  - # 4
    frequency:     5.1079682630
  - # 5
    frequency:     5.1103458866
  - # 6
    frequency:     5.5619026548
  - # 7
    frequency:     5.5619026548
  - # 8
    frequency:     6.1138303121
  - # 9
    frequency:     6.1138303121
  - # 10
    frequency:     7.4457916312
  - # 11
    frequency:     7.6542241032
  - # 12
    frequency:     7.6542241032

- q-position: [    0.3020833,    0.0104167,    0.0104167 ]
  weight: 24   
  band:
  - # 1
    frequency:     2.6146560961
  - # 2
    frequency:     2.6174955269
  - # 3
    frequency:     4.0100960118
  - # 4
    frequency:     5.0290901246
  - # 5
    frequency:     5.0312976600
  - # 6
    frequency:     5.5552018277
  - # 7
    frequency:     5.5552018277
  - # 8
    frequency:     6.1805650907
  - # 9
    frequency:     6.1805650907
  - # 10
    frequency:     7.3472267586
  - # 11
    frequency:     7.5942115393
  - # 12
    frequency:     7.5942115393

- q-position: [    0.3229167,    0.0104167,    0.0104167 ]
  weight: 24   
  band:
  - # 1
    frequency:     2.7785417718
  - # 2
    frequency:     2.7809683237
  - # 3
    frequency:     4.2511063084
  - # 4
    frequency:     4.9448666841
  - # 5
    frequency:     4.9468954528
  - # 6
    frequency:     5.5487854908
  - # 7
    frequency:     5.5487854908
  - # 8
    frequency:     6.2500874970
  - # 9
    frequency:     6.2500874970
  - # 10
    frequency:     7.2410261940
  - # 11
    frequency:     7.5310903089
  - # 12
    frequency:     7.5310903089

- q-position: [    0.3437500,    0.0104167,    0.0104167 ]
  weight: 24   
  band:
  - # 1
    frequency:     2.9391700478
  - # 2
    frequency:     2.9412160210
  - # 3
    frequency:     4.4858309614
  - # 4
    frequency:     4.8553621635
  - # 5
    frequency:     4.8572038704
  - # 6
    frequency:     5.5427644648
  - # 7
    frequency:     5.5427644648
  - # 8
    frequency:     6.3220588632
  - # 9
    frequency:     6.3220588632
  - # 10
    frequency:     7.1271152496
  - # 11
    frequency:     7.4650943331
  - # 12
    frequency:     7.4650943331

- q-position: [    0.3645833,    0.0104167,    0.0104167 ]
  weight: 24   
  band:
  - # 1
    frequency:     3.0963721108
  - # 2
    frequency:     3.0980641604
  - # 3
    frequency:     4.7139959001
  - # 4
    frequency:     4.7606463835
  - # 5
    frequency:     4.7622930490
  - # 6
    frequency:     5.5372431197
  - # 7
    frequency:     5.5372431197
  - # 8
    frequency:     6.3961361683
  - # 9
    frequency:     6.3961361683
  - # 10
    frequency:     7.0054284860
  - # 11
    frequency:     7.3964700345
  - # 12
    frequency:     7.3964700345

- q-position: [    0.3854167,    0.0104167,    0.0104167 ]
  weight: 24   
  band:
  - # 1
    frequency:     3.2499846265
  - # 2
    frequency:     3.2513449920
  - # 3
    frequency:     4.6607949469
  - # 4
    frequency:     4.6622388263
  - # 5
    frequency:     4.9353538646
  - # 6
    frequency:     5.5323174805
  - # 7
    frequency:     5.5323174805
  - # 8
    frequency:     6.4719738440
  - # 9
    frequency:     6.4719738440
  - # 10
    frequency:     6.8759116892
  - # 11
    frequency:     7.3254758185
  - # 12
    frequency:     7.3254758185

- q-position: [    0.4062500,    0.0104167,    0.0104167 ]
  weight: 24   
  band:
  - # 1
    frequency:     3.3998500606
  - # 2
    frequency:     3.4008975002
  - # 3
    frequency:     4.5558894135
  - # 4
    frequency:     4.5571229038
  - # 5
    frequency:     5.1496840613
  - # 6
    frequency:     5.5280734653
  - # 7
    frequency:     5.5280734653
  - # 8
    frequency:     6.5492253720
  - # 9
    frequency:     6.5492253720
  - # 10
    frequency:     6.7385237759
  - # 11
    frequency:     7.2523815717
  - # 12
    frequency:     7.2523815717

- q-position: [    0.4270833,    0.0104167,    0.0104167 ]
  weight: 24   
  band:
  - # 1
    frequency:     3.5458169248
  - # 2
    frequency:     3.5465674384
  - # 3
    frequency:     4.4460174653
  - # 4
    frequency:     4.4470329969
  - # 5
    frequency:     5.3567918398
  - # 6
    frequency:     5.5245852937
  - # 7
    frequency:     5.5245852937
  - # 8
    frequency:     6.5932386087
  - # 9
    frequency:     6.6275446039
  - # 10
    frequency:     6.6275446039
  - # 11
    frequency:     7.1774682555
  - # 12
    frequency:     7.1774682555

- q-position: [    0.4479167,    0.0104167,    0.0104167 ]
  weight: 24   
  band:
  - # 1
    frequency:     3.6877399611
  - # 2
    frequency:     3.6882073601
  - # 3
    frequency:     4.3312730575
  - # 4
    frequency:     4.3320629709
  - # 5
    frequency:     5.5219140992
  - # 6
    frequency:     5.5219140992
  - # 7
    frequency:     5.5565083236
  - # 8
    frequency:     6.4400467042
  - # 9
    frequency:     6.7065864727
  - # 10
    frequency:     6.7065864727
  - # 11
    frequency:     7.1010279339
  - # 12
    frequency:     7.1010279339

- q-position: [    0.4687500,    0.0104167,    0.0104167 ]
  weight: 24   
  band:
  - # 1
    frequency:     3.8254802753
  - # 2
    frequency:     3.8256766384
  - # 3
    frequency:     4.2117565549
  - # 4
    frequency:     4.2123129595
  - # 5
    frequency:     5.5201067776
  - # 6
    frequency:     5.5201067776
  - # 7
    frequency:     5.7486899530
  - # 8
    frequency:     6.2789568192
  - # 9
    frequency:     6.7860049547
  - # 10
    frequency:     6.7860049547
  - # 11
    frequency:     7.0233663883
  - # 12
    frequency:     7.0233663883

- q-position: [    0.4895833,    0.0104167,    0.0104167 ]
  weight: 24   
  band:
  - # 1
    frequency:     3.9588414685
  - # 2
    frequency:     3.9589054240
  - # 3
    frequency:     4.0875748511
  - # 4
    frequency:     4.0878894632
  - # 5
    frequency:     5.5191950980
  - # 6
    frequency:     5.5191950980
  - # 7
    frequency:     5.9332179092
  - # 8
    frequency:     6.1099974033
  - # 9
    frequency:     6.8654117361
  - # 10
    frequency:     6.8654117361
  - # 11
    frequency:     6.9448448741
  - # 12
    frequency:     6.9448448741

- q-position: [    0.0312500,    0.0312500,    0.0104167 ]
  weight: 24   
  band:
  - # 1
    frequency:     0.3146453700
  - # 2
    frequency:     0.3956679570
  - # 3
    frequency:     0.6962277751
  - # 4
    frequency:     5.6173683565
  - # 5
    frequency:     5.6189153138
  - # 6
    frequency:     5.6189153138
  - # 7
    frequency:     5.6315386265
  - # 8
    frequency:     5.6315386265
  - # 9
    frequency:     5.6494582462
  - # 10
    frequency:     8.0592314825
  - # 11
    frequency:     8.0592314825
  - # 12
    frequency:     8.0610415770

- q-position: [    0.0520833,    0.0312500,    0.0104167 ]
  weight: 48   
  band:
  - # 1
    frequency:     0.4493907875
  - # 2
    frequency:     0.5453341772
  - # 3
    frequency:     0.9281203876
  - # 4
    frequency:     5.6073697199
  - # 5
    frequency:     5.6107514851
  - # 6
    frequency:     5.6166443467
  - # 7
    frequency:     5.6199704556
  - # 8
    frequency:     5.6434930384
  - # 9
    frequency:     5.6656798910
  - # 10
    frequency:     8.0459413396
  - # 11
    frequency:     8.0497025396
  - # 12
    frequency:     8.0514017162

- q-position: [    0.0729167,    0.0312500,    0.0104167 ]
  weight: 48   
  band:
  - # 1
    frequency:     0.6230359587
  - # 2
    frequency:     0.7128195628
  - # 3
    frequency:     1.1792599041
  - # 4
    frequency:     5.5900596157
  - # 5
    frequency:     5.6026289018
  - # 6
    frequency:     5.6047546482
  - # 7
    frequency:     5.6137283434
  - # 8
    frequency:     5.6608837951
  - # 9
    frequency:     5.6860361015
  - # 10
    frequency:     8.0259738761
  - # 11
    frequency:     8.0354516987
  - # 12
    frequency:     8.0369846069

- q-position: [    0.0937500,    0.0312500,    0.0104167 ]
  weight: 48   
  band:
  - # 1
    frequency:     0.8074935047
  - # 2
    frequency:     0.8874446537
  - # 3
    frequency:     1.4401038189
  - # 4
    frequency:     5.5669950170
  - # 5
    frequency:     5.5795268325
  - # 6
    frequency:     5.5990160264
  - # 7
    frequency:     5.6100557600
  - # 8
    frequency:     5.6837626672
  - # 9
    frequency:     5.7108319716
  - # 10
    frequency:     7.9992911094
  - # 11
    frequency:     8.0165299227
  - # 12
    frequency:     8.0178413457

- q-position: [    0.1145833,    0.0312500,    0.0104167 ]
  weight: 48   
  band:
  - # 1
    frequency:     0.9943990674
  - # 2
    frequency:     1.0650634349
  - # 3
    frequency:     1.7059249134
  - # 4
    frequency:     5.5381894005
  - # 5
    frequency:     5.5506814437
  - # 6
    frequency:     5.5932745048
  - # 7
    frequency:     5.6056333105
  - # 8
    frequency:     5.7120443984
  - # 9
    frequency:     5.7402539701
  - # 10
    frequency:     7.9658435781
  - # 11
    frequency:     7.9930049547
  - # 12
    frequency:     7.9940398596

- q-position: [    0.1354167,    0.0312500,    0.0104167 ]
  weight: 48   
  band:
  - # 1
    frequency:     1.1810096560
  - # 2
    frequency:     1.2437238483
  - # 3
    frequency:     1.9738758627
  - # 4
    frequency:     5.5036598091
  - # 5
    frequency:     5.5161142892
  - # 6
    frequency:     5.5873767021
  - # 7
    frequency:     5.6005121387
  - # 8
    frequency:     5.7455814299
  - # 9
    frequency:     5.7743636737
  - # 10
    frequency:     7.9255713296
  - # 11
    frequency:     7.9649611419
  - # 12
    frequency:     7.9656647345

- q-position: [    0.1562500,    0.0312500,    0.0104167 ]
  weight: 48   
  band:
  - # 1
    frequency:     1.3662731377
  - # 2
    frequency:     1.4223399290
  - # 3
    frequency:     2.2420528147
  - # 4
    frequency:     5.4634269878
  - # 5
    frequency:     5.4758513142
  - # 6
    frequency:     5.5812528100
  - # 7
    frequency:     5.5947660800
  - # 8
    frequency:     5.7841866486
  - # 9
    frequency:     5.8131227854
  - # 10
    frequency:     7.8784051255
  - # 11
    frequency:     7.9324992178
  - # 12
    frequency:     7.9328170048

- q-position: [    0.1770833,    0.0312500,    0.0104167 ]
  weight: 48   
  band:
  - # 1
    frequency:     1.5497019646
  - # 2
    frequency:     1.6002174641
  - # 3
    frequency:     2.5090871592
  - # 4
    frequency:     5.4175155479
  - # 5
    frequency:     5.4299228898
  - # 6
    frequency:     5.5748928879
  - # 7
    frequency:     5.5884837633
  - # 8
    frequency:     5.8276423535
  - # 9
    frequency:     5.8564177410
  - # 10
    frequency:     7.8242678449
  - # 11
    frequency:     7.8956139029
  - # 12
    frequency:     7.8957360455

- q-position: [    0.1979167,    0.0312500,    0.0104167 ]
  weight: 48   
  band:
  - # 1
    frequency:     1.7310111501
  - # 2
    frequency:     1.7768599248
  - # 3
    frequency:     2.7739366584
  - # 4
    frequency:     5.3659541600
  - # 5
    frequency:     5.3783638475
  - # 6
    frequency:     5.5683287200
  - # 7
    frequency:     5.5817647302
  - # 8
    frequency:     5.8757051999
  - # 9
    frequency:     5.9040787438
  - # 10
    frequency:     7.7630760641
  - # 11
    frequency:     7.8541885733
  - # 12
    frequency:     7.8548043215

- q-position: [    0.2187500,    0.0312500,    0.0104167 ]
  weight: 48   
  band:
  - # 1
    frequency:     1.9099911674
  - # 2
    frequency:     1.9518799622
  - # 3
    frequency:     3.0357694649
  - # 4
    frequency:     5.3087757741
  - # 5
    frequency:     5.3212135136
  - # 6
    frequency:     5.5616208598
  - # 7
    frequency:     5.5747168243
  - # 8
    frequency:     5.9281098181
  - # 9
    frequency:     5.9558935571
  - # 10
    frequency:     7.6947417899
  - # 11
    frequency:     7.8086897521
  - # 12
    frequency:     7.8098522444

- q-position: [    0.2395833,    0.0312500,    0.0104167 ]
  weight: 48   
  band:
  - # 1
    frequency:     2.0864608218
  - # 2
    frequency:     2.1249554307
  - # 3
    frequency:     3.2938965238
  - # 4
    frequency:     5.2460178605
  - # 5
    frequency:     5.2585157460
  - # 6
    frequency:     5.5548494452
  - # 7
    frequency:     5.5674539867
  - # 8
    frequency:     5.9845719223
  - # 9
    frequency:     6.0116174286
  - # 10
    frequency:     7.6191743203
  - # 11
    frequency:     7.7592814146
  - # 12
    frequency:     7.7610431505

- q-position: [    0.2604167,    0.0312500,    0.0104167 ]
  weight: 48   
  band:
  - # 1
    frequency:     2.2602494606
  - # 2
    frequency:     2.2958059937
  - # 3
    frequency:     3.5477308005
  - # 4
    frequency:     5.1777226659
  - # 5
    frequency:     5.1903189765
  - # 6
    frequency:     5.5481075188
  - # 7
    frequency:     5.5600941657
  - # 8
    frequency:     6.0447911647
  - # 9
    frequency:     6.0709803829
  - # 10
    frequency:     7.5362822077
  - # 11
    frequency:     7.7061423954
  - # 12
    frequency:     7.7085551184

- q-position: [    0.2812500,    0.0312500,    0.0104167 ]
  weight: 48   
  band:
  - # 1
    frequency:     2.4311905010
  - # 2
    frequency:     2.4641799795
  - # 3
    frequency:     3.7967620075
  - # 4
    frequency:     5.1039374728
  - # 5
    frequency:     5.1166762674
  - # 6
    frequency:     5.5414959529
  - # 7
    frequency:     5.5527572432
  - # 8
    frequency:     6.1084538098
  - # 9
    frequency:     6.1336927605
  - # 10
    frequency:     7.4459752977
  - # 11
    frequency:     7.6494659831
  - # 12
    frequency:     7.6525805475

- q-position: [    0.3020833,    0.0312500,    0.0104167 ]
  weight: 48   
  band:
  - # 1
    frequency:     2.5991194409
  - # 2
    frequency:     2.6298466631
  - # 3
    frequency:     4.0405405647
  - # 4
    frequency:     5.0247148493
  - # 5
    frequency:     5.0376453886
  - # 6
    frequency:     5.5351193991
  - # 7
    frequency:     5.5455629549
  - # 8
    frequency:     6.1752352390
  - # 9
    frequency:     6.1994495762
  - # 10
    frequency:     7.3481668176
  - # 11
    frequency:     7.5894594976
  - # 12
    frequency:     7.5933257147

- q-position: [    0.3229167,    0.0312500,    0.0104167 ]
  weight: 48   
  band:
  - # 1
    frequency:     2.7638736336
  - # 2
    frequency:     2.7925915693
  - # 3
    frequency:     4.2786671998
  - # 4
    frequency:     4.9401128789
  - # 5
    frequency:     4.9532889249
  - # 6
    frequency:     5.5290829061
  - # 7
    frequency:     5.5386288124
  - # 8
    frequency:     6.2448022754
  - # 9
    frequency:     6.2679340510
  - # 10
    frequency:     7.2427754879
  - # 11
    frequency:     7.5263438568
  - # 12
    frequency:     7.5310103187

- q-position: [    0.3437500,    0.0312500,    0.0104167 ]
  weight: 48   
  band:
  - # 1
    frequency:     2.9252927151
  - # 2
    frequency:     2.9522135270
  - # 3
    frequency:     4.5107860622
  - # 4
    frequency:     4.8501953564
  - # 5
    frequency:     4.8636744187
  - # 6
    frequency:     5.5234889958
  - # 7
    frequency:     5.5320680526
  - # 8
    frequency:     6.3168153083
  - # 9
    frequency:     6.3388205301
  - # 10
    frequency:     7.1297276342
  - # 11
    frequency:     7.4603531517
  - # 12
    frequency:     7.4658670244

- q-position: [    0.3645833,    0.0312500,    0.0104167 ]
  weight: 48   
  band:
  - # 1
    frequency:     3.0832192231
  - # 2
    frequency:     3.1085227766
  - # 3
    frequency:     4.7365800539
  - # 4
    frequency:     4.7550319458
  - # 5
    frequency:     4.7688745510
  - # 6
    frequency:     5.5184350819
  - # 7
    frequency:     5.5259876436
  - # 8
    frequency:     6.3909301840
  - # 9
    frequency:     6.4117768964
  - # 10
    frequency:     7.0089592753
  - # 11
    frequency:     7.3917342634
  - # 12
    frequency:     7.3981410413

- q-position: [    0.3854167,    0.0312500,    0.0104167 ]
  weight: 48   
  band:
  - # 1
    frequency:     3.2374992216
  - # 2
    frequency:     3.2613397235
  - # 3
    frequency:     4.6546982950
  - # 4
    frequency:     4.6689673562
  - # 5
    frequency:     4.9557675712
  - # 6
    frequency:     5.5140111719
  - # 7
    frequency:     5.5204863860
  - # 8
    frequency:     6.4667997909
  - # 9
    frequency:     6.4864664897
  - # 10
    frequency:     6.8804181667
  - # 11
    frequency:     7.3207466090
  - # 12
    frequency:     7.3280898058

- q-position: [    0.4062500,    0.0312500,    0.0104167 ]
  weight: 48   
  band:
  - # 1
    frequency:     3.3879828610
  - # 2
    frequency:     3.4104940987
  - # 3
    frequency:     4.5492761120
  - # 4
    frequency:     4.5640364659
  - # 5
    frequency:     5.1681001409
  - # 6
    frequency:     5.5102978275
  - # 7
    frequency:     5.5156531437
  - # 8
    frequency:     6.5440751433
  - # 9
    frequency:     6.5625493545
  - # 10
    frequency:     6.7440657816
  - # 11
    frequency:     7.2476622582
  - # 12
    frequency:     7.2559829708

- q-position: [    0.4270833,    0.0312500,    0.0104167 ]
  weight: 48   
  band:
  - # 1
    frequency:     3.5345248518
  - # 2
    frequency:     3.5558243774
  - # 3
    frequency:     4.4388532050
  - # 4
    frequency:     4.4541713683
  - # 5
    frequency:     5.3733606144
  - # 6
    frequency:     5.5073643818
  - # 7
    frequency:     5.5115652439
  - # 8
    frequency:     6.5998792127
  - # 9
    frequency:     6.6224053258
  - # 10
    frequency:     6.6396820578
  - # 11
    frequency:     7.1727672219
  - # 12
    frequency:     7.1821033469

- q-position: [    0.4479167,    0.0312500,    0.0104167 ]
  weight: 48   
  band:
  - # 1
    frequency:     3.6769848535
  - # 2
    frequency:     3.6971773596
  - # 3
    frequency:     4.3235234954
  - # 4
    frequency:     4.3394676750
  - # 5
    frequency:     5.5052674220
  - # 6
    frequency:     5.5082870801
  - # 7
    frequency:     5.5713616969
  - # 8
    frequency:     6.4478529822
  - # 9
    frequency:     6.7014336554
  - # 10
    frequency:     6.7175126479
  - # 11
    frequency:     7.0963673824
  - # 12
    frequency:     7.1067514482

- q-position: [    0.4687500,    0.0312500,    0.0104167 ]
  weight: 48   
  band:
  - # 1
    frequency:     3.8152277855
  - # 2
    frequency:     3.8344078527
  - # 3
    frequency:     4.2033870057
  - # 4
    frequency:     4.2200273830
  - # 5
    frequency:     5.5040495488
  - # 6
    frequency:     5.5058689514
  - # 7
    frequency:     5.7619446599
  - # 8
    frequency:     6.2880007515
  - # 9
    frequency:     6.7807740786
  - # 10
    frequency:     6.7956478308
  - # 11
    frequency:     7.0188220072
  - # 12
    frequency:     7.0302696363

- q-position: [    0.4895833,    0.0312500,    0.0104167 ]
  weight: 48   
  band:
  - # 1
    frequency:     3.9491240718
  - # 2
    frequency:     3.9673784143
  - # 3
    frequency:     4.0785498282
  - # 4
    frequency:     4.0959591265
  - # 5
    frequency:     5.5037384313
  - # 6
    frequency:     5.5043461660
  - # 7
    frequency:     5.9449781359
  - # 8
    frequency:     6.1203569229
  - # 9
    frequency:     6.8597371323
  - # 10
    frequency:     6.8731438030
  - # 11
    frequency:     6.9410534333
  - # 12
    frequency:     6.9533165410

- q-position: [    0.0520833,    0.0520833,    0.0104167 ]
  weight: 24   
  band:
  - # 1
    frequency:     0.5078486921
  - # 2
    frequency:     0.6618952533
  - # 3
    frequency:     1.1321058836
  - # 4
    frequency:     5.5986333969
  - # 5
    frequency:     5.6049639127
  - # 6
    frequency:     5.6049639127
  - # 7
    frequency:     5.6319268948
  - # 8
    frequency:     5.6319268948
  - # 9
    frequency:     5.6871139142
  - # 10
    frequency:     8.0366384871
  - # 11
    frequency:     8.0366384871
  - # 12
    frequency:     8.0417663742

- q-position: [    0.0729167,    0.0520833,    0.0104167 ]
  weight: 48   
  band:
  - # 1
    frequency:     0.6326094009
  - # 2
    frequency:     0.8054274102
  - # 3
    frequency:     1.3600352978
  - # 4
    frequency:     5.5874479114
  - # 5
    frequency:     5.5874513385
  - # 6
    frequency:     5.6018226876
  - # 7
    frequency:     5.6145905341
  - # 8
    frequency:     5.6493437879
  - # 9
    frequency:     5.7122307052
  - # 10
    frequency:     8.0170093743
  - # 11
    frequency:     8.0227263376
  - # 12
    frequency:     8.0273559050

- q-position: [    0.0937500,    0.0520833,    0.0104167 ]
  weight: 48   
  band:
  - # 1
    frequency:     0.7919758259
  - # 2
    frequency:     0.9633393774
  - # 3
    frequency:     1.6009225080
  - # 4
    frequency:     5.5641165276
  - # 5
    frequency:     5.5771583559
  - # 6
    frequency:     5.5914992211
  - # 7
    frequency:     5.5978418120
  - # 8
    frequency:     5.6722657837
  - # 9
    frequency:     5.7410162656
  - # 10
    frequency:     7.9907763189
  - # 11
    frequency:     8.0042553154
  - # 12
    frequency:     8.0082212419

- q-position: [    0.1145833,    0.0520833,    0.0104167 ]
  weight: 48   
  band:
  - # 1
    frequency:     0.9666270850
  - # 2
    frequency:     1.1290088788
  - # 3
    frequency:     1.8494376611
  - # 4
    frequency:     5.5349730241
  - # 5
    frequency:     5.5626730551
  - # 6
    frequency:     5.5675838184
  - # 7
    frequency:     5.5930321044
  - # 8
    frequency:     5.7006038213
  - # 9
    frequency:     5.7735846542
  - # 10
    frequency:     7.9578887287
  - # 11
    frequency:     7.9812924369
  - # 12
    frequency:     7.9844300992

- q-position: [    0.1354167,    0.0520833,    0.0104167 ]
  weight: 48   
  band:
  - # 1
    frequency:     1.1475388065
  - # 2