 running on    8 nodes
 distr:  one band on    1 nodes,    8 groups
 vasp.4.6.28 25Jul05 complex 
 POSCAR found :  1 types and    4 ions
 LDA part: xc-table for Pade appr. of Perdew
 generate k-points for:  12  12  12
 POSCAR, INCAR and KPOINTS ok, starting setup
 FFT: planning ...           1
 reading WAVECAR
 WARNING: random wavefunctions but no delay for mixing, default for NELMDL
 entering main loop
       N       E                     dE             d eps       ncg     rms          rms(c)
DAV:   1     0.505938493590E+01    0.50594E+01   -0.38944E+03  2688   0.551E+02
DAV:   2    -0.143873832963E+02   -0.19447E+02   -0.18388E+02  3608   0.827E+01
DAV:   3    -0.150425599051E+02   -0.65518E+00   -0.65035E+00  3512   0.115E+01
DAV:   4    -0.150467999296E+02   -0.42400E-02   -0.42397E-02  3304   0.122E+00
DAV:   5    -0.150468531229E+02   -0.53193E-04   -0.53192E-04  3576   0.136E-01    0.184E+00
DAV:   6    -0.149949296092E+02    0.51924E-01   -0.65937E-03  3184   0.404E-01    0.114E+00
DAV:   7    -0.149572706856E+02    0.37659E-01   -0.20095E-02  3104   0.662E-01    0.503E-02
DAV:   8    -0.149572871574E+02   -0.16472E-04   -0.15061E-04  3520   0.772E-02    0.138E-02
DAV:   9    -0.149572890409E+02   -0.18835E-05   -0.45962E-06  3384   0.100E-02    0.115E-03
DAV:  10    -0.149572880865E+02    0.95436E-06   -0.57535E-08  3640   0.164E-03    0.342E-04
DAV:  11    -0.149572878949E+02    0.19163E-06   -0.21558E-09  2352   0.243E-04    0.258E-05
DAV:  12    -0.149572879217E+02   -0.26864E-07   -0.22044E-10  2016   0.927E-05    0.110E-05
DAV:  13    -0.149572879255E+02   -0.37679E-08   -0.50901E-11  1768   0.351E-05
   1 F= -.14957288E+02 E0= -.14957115E+02  d E =-.346688E-03
