   4   4   0   0
  0.1695037E+02  0.4077679E-09  0.4077679E-09  0.4077679E-09  0.5000000E-15
  1.000000000000000E-004
  CAR 
 unknown system                          
     19.95117637     -4.33171502  301      7.70838299      1.00000000
     -4.332  0.0000E+00  0.0000E+00
     -4.251  0.0000E+00  0.0000E+00
     -4.170  0.0000E+00  0.0000E+00
     -4.089  0.0000E+00  0.0000E+00
     -4.008  0.0000E+00  0.0000E+00
     -3.927  0.0000E+00  0.0000E+00
     -3.846  0.0000E+00  0.0000E+00
     -3.765  0.0000E+00  0.0000E+00
     -3.684  0.0000E+00  0.0000E+00
     -3.603  0.0000E+00  0.0000E+00
     -3.522  0.0000E+00  0.0000E+00
     -3.441  0.0000E+00  0.0000E+00
     -3.360  0.0000E+00  0.0000E+00
     -3.279  0.2308E-14  0.1868E-15
     -3.199  0.1430E-01  0.1157E-02
     -3.118  0.9106E-01  0.8528E-02
     -3.037  0.2578E+00  0.2940E-01
     -2.956  0.8578E-01  0.3819E-01
     -2.875  0.3456E+00  0.6617E-01
     -2.794  0.3407E+00  0.9375E-01
     -2.713  0.1714E+00  0.1076E+00
     -2.632  0.4295E+00  0.1424E+00
     -2.551  0.4832E+00  0.1815E+00
     -2.470  0.3164E+00  0.2071E+00
     -2.389  0.3434E+00  0.2350E+00
     -2.308  0.6861E+00  0.2905E+00
     -2.227  0.8419E-01  0.2973E+00
     -2.146  0.6864E+00  0.3530E+00
     -2.065  0.5643E+00  0.3987E+00
     -1.984  0.6218E+00  0.4490E+00
     -1.903  0.6864E+00  0.5058E+00
     -1.822  0.3432E+00  0.5336E+00
     -1.742  0.3154E+00  0.5591E+00
     -1.661  0.4290E+00  0.5961E+00
     -1.580  0.1052E+01  0.6812E+00
     -1.499  0.4355E+00  0.7164E+00
     -1.418  0.1029E+01  0.7998E+00
     -1.337  0.6864E+00  0.8553E+00
     -1.256  0.1420E+00  0.8668E+00
     -1.175  0.6863E+00  0.9248E+00
     -1.094  0.7009E+00  0.9815E+00
     -1.013  0.1010E+01  0.1063E+01
     -0.932  0.3431E+00  0.1098E+01
     -0.851  0.1030E+01  0.1182E+01
     -0.770  0.2638E+00  0.1203E+01
     -0.689  0.1372E+01  0.1321E+01
     -0.608  0.6915E+00  0.1377E+01
     -0.527  0.5994E+00  0.1425E+01
     -0.446  0.1029E+01  0.1515E+01
     -0.366  0.6864E+00  0.1571E+01
     -0.285  0.8716E-01  0.1578E+01
     -0.204  0.7720E+00  0.1642E+01
     -0.123  0.1215E+01  0.1741E+01
     -0.042  0.9449E+00  0.1817E+01
      0.039  0.1029E+01  0.1906E+01
      0.120  0.1373E+01  0.2017E+01
      0.201  0.5710E+00  0.2064E+01
      0.282  0.6863E+00  0.2128E+01
      0.363  0.3878E+00  0.2160E+01
      0.444  0.9849E+00  0.2240E+01
      0.525  0.1030E+01  0.2323E+01
      0.606  0.1373E+01  0.2434E+01
      0.687  0.8197E-01  0.2441E+01
      0.768  0.1373E+01  0.2552E+01
      0.849  0.1416E+01  0.2667E+01
      0.930  0.9638E+00  0.2745E+01
      1.011  0.1373E+01  0.2858E+01
      1.091  0.6863E+00  0.2913E+01
      1.172  0.5089E+00  0.2954E+01
      1.253  0.6874E+00  0.3010E+01
      1.334  0.1989E+01  0.3171E+01
      1.415  0.8681E+00  0.3242E+01
      1.496  0.1374E+01  0.3353E+01
      1.577  0.6851E+00  0.3409E+01
      1.658  0.3430E+00  0.3436E+01
      1.739  0.1484E+01  0.3556E+01
      1.820  0.1469E+01  0.3675E+01
      1.901  0.6863E+00  0.3749E+01
      1.982  0.8308E+00  0.3816E+01
      2.063  0.1571E+01  0.3943E+01
      2.144  0.3433E+00  0.3971E+01
      2.225  0.2368E+01  0.4163E+01
      2.306  0.2091E+01  0.4332E+01
      2.387  0.2807E-03  0.4332E+01
      2.467  0.1325E+01  0.4439E+01
      2.548  0.4867E+00  0.4499E+01
      2.629  0.3526E+00  0.4527E+01
      2.710  0.1833E+01  0.4676E+01
      2.791  0.1030E+01  0.4791E+01
      2.872  0.8066E+00  0.4856E+01
      2.953  0.2572E+01  0.5071E+01
      3.034  0.2072E-01  0.5077E+01
      3.115  0.1790E+01  0.5222E+01
      3.196  0.1576E+01  0.5353E+01
      3.277  0.1180E+01  0.5449E+01
      3.358  0.1259E+01  0.5550E+01
      3.439  0.1430E+01  0.5696E+01
      3.520  0.3427E+00  0.5723E+01
      3.601  0.1643E+01  0.5856E+01
      3.682  0.7003E+00  0.5919E+01
      3.763  0.1675E+01  0.6055E+01
      3.844  0.1709E+01  0.6195E+01
      3.924  0.1369E+01  0.6307E+01
      4.005  0.7595E+00  0.6368E+01
      4.086  0.2014E+01  0.6532E+01
      4.167  0.3432E+00  0.6564E+01
      4.248  0.1374E+01  0.6675E+01
      4.329  0.2795E+01  0.6901E+01
      4.410  0.6273E+00  0.6953E+01
      4.491  0.8580E+00  0.7022E+01
      4.572  0.2174E+01  0.7198E+01
      4.653  0.1933E+01  0.7355E+01
      4.734  0.9640E+00  0.7437E+01
      4.815  0.1684E+01  0.7575E+01
      4.896  0.3862E+00  0.7609E+01
      4.977  0.2316E+01  0.7796E+01
      5.058  0.1843E+01  0.7952E+01
      5.139  0.1749E+01  0.8094E+01
      5.220  0.1028E+01  0.8182E+01
      5.300  0.1242E+01  0.8283E+01
      5.381  0.9171E+00  0.8357E+01
      5.462  0.2114E+01  0.8530E+01
      5.543  0.1660E+01  0.8670E+01
      5.624  0.1788E+01  0.8823E+01
      5.705  0.5432E+00  0.8870E+01
      5.786  0.1684E+01  0.9007E+01
      5.867  0.1477E+01  0.9126E+01
      5.948  0.1655E+01  0.9275E+01
      6.029  0.1716E+01  0.9437E+01
      6.110  0.1374E+01  0.9549E+01
      6.191  0.1822E+00  0.9563E+01
      6.272  0.1227E+01  0.9665E+01
      6.353  0.1513E+01  0.9788E+01
      6.434  0.2712E+01  0.1001E+02
      6.515  0.1085E+01  0.1010E+02
      6.596  0.3621E+00  0.1015E+02
      6.677  0.2380E+01  0.1035E+02
      6.757  0.1480E+01  0.1047E+02
      6.838  0.1374E+01  0.1058E+02
      6.919  0.1561E+01  0.1071E+02
      7.000  0.1335E+01  0.1082E+02
      7.081  0.2074E+01  0.1098E+02
      7.162  0.2112E+01  0.1116E+02
      7.243  0.6863E+00  0.1123E+02
      7.324  0.2298E+00  0.1124E+02
      7.405  0.2678E+01  0.1146E+02
      7.486  0.9198E+00  0.1154E+02
      7.567  0.2550E+01  0.1174E+02
      7.648  0.1155E+01  0.1184E+02
      7.729  0.2669E+01  0.1206E+02
      7.810  0.2421E+01  0.1225E+02
      7.891  0.8637E+00  0.1232E+02
      7.972  0.1748E+01  0.1248E+02
      8.053  0.1271E+01  0.1259E+02
      8.134  0.6167E+00  0.1264E+02
      8.214  0.2229E+01  0.1282E+02
      8.295  0.1768E+01  0.1296E+02
      8.376  0.1522E+01  0.1309E+02
      8.457  0.5249E+00  0.1313E+02
      8.538  0.1408E+01  0.1325E+02
      8.619  0.2739E+01  0.1347E+02
      8.700  0.2138E+01  0.1365E+02
      8.781  0.1979E+01  0.1382E+02
      8.862  0.2032E+01  0.1399E+02
      8.943  0.1373E+01  0.1410E+02
      9.024  0.1674E+01  0.1424E+02
      9.105  0.7414E+00  0.1432E+02
      9.186  0.2517E+01  0.1455E+02
      9.267  0.1793E+01  0.1470E+02
      9.348  0.1008E+01  0.1478E+02
      9.429  0.2324E+01  0.1497E+02
      9.510  0.6994E+00  0.1504E+02
      9.590  0.2529E+01  0.1524E+02
      9.671  0.1659E+01  0.1539E+02
      9.752  0.1420E+01  0.1552E+02
      9.833  0.2626E+01  0.1574E+02
      9.914  0.1012E+00  0.1575E+02
      9.995  0.1760E+01  0.1589E+02
     10.076  0.2537E+01  0.1611E+02
     10.157  0.2358E+01  0.1631E+02
     10.238  0.1079E+01  0.1640E+02
     10.319  0.1594E+01  0.1653E+02
     10.400  0.1833E+01  0.1669E+02
     10.481  0.2072E+01  0.1686E+02
     10.562  0.1327E+01  0.1698E+02
     10.643  0.1722E+01  0.1714E+02
     10.724  0.2397E+01  0.1733E+02
     10.805  0.1818E+01  0.1748E+02
     10.886  0.2624E+01  0.1769E+02
     10.967  0.1891E+01  0.1785E+02
     11.047  0.1373E+01  0.1797E+02
     11.128  0.2155E+01  0.1815E+02
     11.209  0.2706E+01  0.1838E+02
     11.290  0.4894E+00  0.1844E+02
     11.371  0.1222E+01  0.1855E+02
     11.452  0.2104E+01  0.1873E+02
     11.533  0.3375E+01  0.1901E+02
     11.614  0.6517E+00  0.1909E+02
     11.695  0.7604E+00  0.1915E+02
     11.776  0.3005E+01  0.1942E+02
     11.857  0.2783E+01  0.1964E+02
     11.938  0.4622E+00  0.1969E+02
     12.019  0.2264E+01  0.1987E+02
     12.100  0.9309E+00  0.1996E+02
     12.181  0.2204E+01  0.2015E+02
     12.262  0.2175E+01  0.2034E+02
     12.343  0.5031E+01  0.2074E+02
     12.423  0.1292E+01  0.2085E+02
     12.504  0.1504E+01  0.2097E+02
     12.585  0.1111E+01  0.2108E+02
     12.666  0.1762E+01  0.2124E+02
     12.747  0.1687E+01  0.2138E+02
     12.828  0.3794E+01  0.2169E+02
     12.909  0.1392E+01  0.2181E+02
     12.990  0.2218E+01  0.2199E+02
     13.071  0.1800E+01  0.2215E+02
     13.152  0.2402E+01  0.2234E+02
     13.233  0.3310E+01  0.2261E+02
     13.314  0.1663E+01  0.2275E+02
     13.395  0.2730E+01  0.2297E+02
     13.476  0.1859E+01  0.2312E+02
     13.557  0.2227E+01  0.2330E+02
     13.638  0.2830E+01  0.2357E+02
     13.719  0.2181E+01  0.2375E+02
     13.800  0.2149E+01  0.2393E+02
     13.880  0.2083E+01  0.2410E+02
     13.961  0.3920E+00  0.2413E+02
     14.042  0.2731E+01  0.2435E+02
     14.123  0.1888E+01  0.2452E+02
     14.204  0.1990E+01  0.2468E+02
     14.285  0.2837E+01  0.2493E+02
     14.366  0.2559E+01  0.2514E+02
     14.447  0.2608E+01  0.2536E+02
     14.528  0.2483E+01  0.2559E+02
     14.609  0.1390E+01  0.2570E+02
     14.690  0.3497E+01  0.2599E+02
     14.771  0.1059E+01  0.2609E+02
     14.852  0.1320E+01  0.2620E+02
     14.933  0.1287E+01  0.2633E+02
     15.014  0.2862E+01  0.2657E+02
     15.095  0.2670E+01  0.2678E+02
     15.176  0.1924E+01  0.2694E+02
     15.256  0.1139E+01  0.2704E+02
     15.337  0.2140E+01  0.2722E+02
     15.418  0.3232E+01  0.2749E+02
     15.499  0.1373E+01  0.2762E+02
     15.580  0.1372E+01  0.2773E+02
     15.661  0.1373E+01  0.2784E+02
     15.742  0.1782E+01  0.2798E+02
     15.823  0.2984E+01  0.2823E+02
     15.904  0.1376E+01  0.2834E+02
     15.985  0.2908E+01  0.2857E+02
     16.066  0.1765E+01  0.2872E+02
     16.147  0.2522E+01  0.2896E+02
     16.228  0.2410E+01  0.2917E+02
     16.309  0.1809E+01  0.2933E+02
     16.390  0.1321E+01  0.2944E+02
     16.471  0.2086E+01  0.2960E+02
     16.552  0.1174E+01  0.2970E+02
     16.633  0.1868E+01  0.2990E+02
     16.713  0.2086E+01  0.3007E+02
     16.794  0.1208E+01  0.3018E+02
     16.875  0.6240E+00  0.3024E+02
     16.956  0.1299E+01  0.3035E+02
     17.037  0.2244E+01  0.3056E+02
     17.118  0.2436E+01  0.3077E+02
     17.199  0.2502E+01  0.3097E+02
     17.280  0.1260E+01  0.3107E+02
     17.361  0.0000E+00  0.3107E+02
     17.442  0.1208E+00  0.3108E+02
     17.523  0.2377E+01  0.3127E+02
     17.604  0.1027E+01  0.3137E+02
     17.685  0.5551E-04  0.3138E+02
     17.766  0.4980E+00  0.3142E+02
     17.847  0.2690E+00  0.3144E+02
     17.928  0.1718E+01  0.3158E+02
     18.009  0.1010E+01  0.3167E+02
     18.089  0.7034E-01  0.3167E+02
     18.170  0.8939E+00  0.3174E+02
     18.251  0.9621E-03  0.3175E+02
     18.332  0.1373E+01  0.3186E+02
     18.413  0.1029E+01  0.3194E+02
     18.494  0.5448E+00  0.3199E+02
     18.575  0.0000E+00  0.3199E+02
     18.656  0.0000E+00  0.3199E+02
     18.737  0.0000E+00  0.3199E+02
     18.818  0.1935E-05  0.3199E+02
     18.899  0.1144E+00  0.3200E+02
     18.980  0.0000E+00  0.3200E+02
     19.061  0.0000E+00  0.3200E+02
     19.142  0.0000E+00  0.3200E+02
     19.223  0.0000E+00  0.3200E+02
     19.304  0.0000E+00  0.3200E+02
     19.385  0.0000E+00  0.3200E+02
     19.466  0.0000E+00  0.3200E+02
     19.546  0.0000E+00  0.3200E+02
     19.627  0.0000E+00  0.3200E+02
     19.708  0.0000E+00  0.3200E+02
     19.789  0.0000E+00  0.3200E+02
     19.870  0.0000E+00  0.3200E+02
     19.951  0.0000E+00  0.3200E+02
