   4   4   0   0
  0.1797740E+02  0.4158426E-09  0.4158426E-09  0.4158426E-09  0.5000000E-15
  1.000000000000000E-004
  CAR 
 unknown system                          
     18.71733503     -4.47559168  301      7.16149176      1.00000000
     -4.476  0.0000E+00  0.0000E+00
     -4.398  0.0000E+00  0.0000E+00
     -4.321  0.0000E+00  0.0000E+00
     -4.244  0.0000E+00  0.0000E+00
     -4.166  0.0000E+00  0.0000E+00
     -4.089  0.0000E+00  0.0000E+00
     -4.012  0.0000E+00  0.0000E+00
     -3.934  0.0000E+00  0.0000E+00
     -3.857  0.0000E+00  0.0000E+00
     -3.780  0.0000E+00  0.0000E+00
     -3.702  0.0000E+00  0.0000E+00
     -3.625  0.0000E+00  0.0000E+00
     -3.548  0.0000E+00  0.0000E+00
     -3.471  0.2592E-13  0.2004E-14
     -3.393  0.1497E-01  0.1157E-02
     -3.316  0.9497E-01  0.8500E-02
     -3.239  0.2627E+00  0.2881E-01
     -3.161  0.8976E-01  0.3819E-01
     -3.084  0.3606E+00  0.6607E-01
     -3.007  0.3580E+00  0.9375E-01
     -2.929  0.1782E+00  0.1075E+00
     -2.852  0.4492E+00  0.1424E+00
     -2.775  0.4297E+00  0.1756E+00
     -2.697  0.4034E+00  0.2068E+00
     -2.620  0.3593E+00  0.2350E+00
     -2.543  0.7186E+00  0.2905E+00
     -2.466  0.7665E-01  0.2964E+00
     -2.388  0.7185E+00  0.3530E+00
     -2.311  0.5449E+00  0.3951E+00
     -2.234  0.5957E+00  0.4412E+00
     -2.156  0.7178E+00  0.5057E+00
     -2.079  0.3593E+00  0.5336E+00
     -2.002  0.1662E+00  0.5464E+00
     -1.924  0.6395E+00  0.5959E+00
     -1.847  0.1078E+01  0.6794E+00
     -1.770  0.4788E+00  0.7164E+00
     -1.692  0.1055E+01  0.7980E+00
     -1.615  0.7186E+00  0.8553E+00
     -1.538  0.2669E-01  0.8574E+00
     -1.461  0.8313E+00  0.9217E+00
     -1.383  0.7186E+00  0.9803E+00
     -1.306  0.7525E+00  0.1038E+01
     -1.229  0.7331E+00  0.1095E+01
     -1.151  0.1078E+01  0.1182E+01
     -1.074  0.1326E-01  0.1183E+01
     -0.997  0.1507E+01  0.1299E+01
     -0.919  0.7185E+00  0.1376E+01
     -0.842  0.3661E+00  0.1404E+01
     -0.765  0.1130E+01  0.1492E+01
     -0.687  0.7182E+00  0.1571E+01
     -0.610  0.1216E-02  0.1571E+01
     -0.533  0.6365E+00  0.1620E+01
     -0.455  0.1515E+01  0.1739E+01
     -0.378  0.7207E+00  0.1795E+01
     -0.301  0.9734E+00  0.1871E+01
     -0.224  0.1896E+01  0.2017E+01
     -0.146  0.2726E-02  0.2018E+01
     -0.069  0.1090E+01  0.2102E+01
      0.008  0.7025E+00  0.2156E+01
      0.086  0.1078E+01  0.2240E+01
      0.163  0.5143E+00  0.2279E+01
      0.240  0.1996E+01  0.2434E+01
      0.318  0.3800E-03  0.2434E+01
      0.395  0.7862E+00  0.2495E+01
      0.472  0.2173E+01  0.2663E+01
      0.550  0.3617E+00  0.2691E+01
      0.627  0.1458E+01  0.2804E+01
      0.704  0.1411E+01  0.2913E+01
      0.781  0.2324E-02  0.2913E+01
      0.859  0.9178E+00  0.2984E+01
      0.936  0.2130E+01  0.3149E+01
      1.013  0.8397E+00  0.3214E+01
      1.091  0.1177E+01  0.3305E+01
      1.168  0.1335E+01  0.3408E+01
      1.245  0.3596E-02  0.3409E+01
      1.323  0.1341E+01  0.3513E+01
      1.400  0.1010E+01  0.3610E+01
      1.477  0.1090E+01  0.3694E+01
      1.555  0.1266E+01  0.3792E+01
      1.632  0.1796E+01  0.3943E+01
      1.709  0.5534E-02  0.3944E+01
      1.786  0.2111E+01  0.4107E+01
      1.864  0.1796E+01  0.4277E+01
      1.941  0.7186E+00  0.4332E+01
      2.018  0.6345E+00  0.4381E+01
      2.096  0.1437E+01  0.4499E+01
      2.173  0.3443E-01  0.4502E+01
      2.250  0.9983E+00  0.4579E+01
      2.328  0.1617E+01  0.4707E+01
      2.405  0.1222E+01  0.4802E+01
      2.482  0.2751E+01  0.5015E+01
      2.560  0.7186E+00  0.5075E+01
      2.637  0.5648E+00  0.5119E+01
      2.714  0.1924E+01  0.5269E+01
      2.792  0.1086E+01  0.5354E+01
      2.869  0.1472E+01  0.5467E+01
      2.946  0.1131E+01  0.5557E+01
      3.023  0.2155E+01  0.5723E+01
      3.101  0.3896E-07  0.5723E+01
      3.178  0.1437E+01  0.5834E+01
      3.255  0.1515E+01  0.5952E+01
      3.333  0.1546E+01  0.6071E+01
      3.410  0.1970E+01  0.6224E+01
      3.487  0.1064E+01  0.6307E+01
      3.565  0.8054E+00  0.6369E+01
      3.642  0.1516E+01  0.6486E+01
      3.719  0.1783E+01  0.6624E+01
      3.797  0.6530E+00  0.6675E+01
      3.874  0.3007E+01  0.6907E+01
      3.951  0.8223E+00  0.6980E+01
      4.028  0.5431E+00  0.7022E+01
      4.106  0.2253E+01  0.7196E+01
      4.183  0.1985E+01  0.7350E+01
      4.260  0.6778E+00  0.7408E+01
      4.338  0.2170E+01  0.7579E+01
      4.415  0.1081E+01  0.7662E+01
      4.492  0.1439E+01  0.7773E+01
      4.570  0.2265E+01  0.7949E+01
      4.647  0.1768E+01  0.8092E+01
      4.724  0.1723E+01  0.8228E+01
      4.802  0.9847E+00  0.8304E+01
      4.879  0.1795E+00  0.8331E+01
      4.956  0.2050E+01  0.8490E+01
      5.034  0.2560E+01  0.8704E+01
      5.111  0.4768E+00  0.8743E+01
      5.188  0.1856E+01  0.8887E+01
      5.265  0.2079E+01  0.9048E+01
      5.343  0.5060E+00  0.9088E+01
      5.420  0.2431E+01  0.9276E+01
      5.497  0.1612E+01  0.9410E+01
      5.575  0.1350E+01  0.9514E+01
      5.652  0.7829E+00  0.9575E+01
      5.729  0.1144E+01  0.9663E+01
      5.807  0.1335E+01  0.9766E+01
      5.884  0.2872E+01  0.9996E+01
      5.961  0.5932E+00  0.1004E+02
      6.039  0.1388E+01  0.1015E+02
      6.116  0.2713E+01  0.1036E+02
      6.193  0.1413E+01  0.1047E+02
      6.270  0.7443E+00  0.1053E+02
      6.348  0.1202E+01  0.1062E+02
      6.425  0.2121E+01  0.1078E+02
      6.502  0.1693E+01  0.1092E+02
      6.580  0.2557E+01  0.1112E+02
      6.657  0.1236E+01  0.1121E+02
      6.734  0.9608E+00  0.1129E+02
      6.812  0.1938E+01  0.1144E+02
      6.889  0.6333E+00  0.1150E+02
      6.966  0.1629E+01  0.1163E+02
      7.044  0.3230E+01  0.1188E+02
      7.121  0.1086E+01  0.1196E+02
      7.198  0.3463E+01  0.1223E+02
      7.275  0.1093E+01  0.1234E+02
      7.353  0.1215E+01  0.1244E+02
      7.430  0.1685E+01  0.1257E+02
      7.507  0.1822E+01  0.1271E+02
      7.585  0.6078E+00  0.1277E+02
      7.662  0.2248E+01  0.1295E+02
      7.739  0.1437E+01  0.1306E+02
      7.817  0.4507E+00  0.1310E+02
      7.894  0.1506E+01  0.1321E+02
      7.971  0.2291E+01  0.1339E+02
      8.049  0.3094E+01  0.1363E+02
      8.126  0.1424E+01  0.1374E+02
      8.203  0.2294E+01  0.1392E+02
      8.281  0.1218E+01  0.1403E+02
      8.358  0.1663E+01  0.1418E+02
      8.435  0.1413E+01  0.1430E+02
      8.512  0.2441E+01  0.1449E+02
      8.590  0.3400E+01  0.1476E+02
      8.667  0.3589E+00  0.1478E+02
      8.744  0.1495E+01  0.1490E+02
      8.822  0.1770E+01  0.1504E+02
      8.899  0.1382E+01  0.1516E+02
      8.976  0.2595E+01  0.1536E+02
      9.054  0.1696E+01  0.1549E+02
      9.131  0.2234E+01  0.1566E+02
      9.208  0.1176E+01  0.1576E+02
      9.286  0.1077E+01  0.1584E+02
      9.363  0.3066E+01  0.1608E+02
      9.440  0.2681E+01  0.1628E+02
      9.517  0.1064E+01  0.1637E+02
      9.595  0.2323E+01  0.1655E+02
      9.672  0.1109E+01  0.1665E+02
      9.749  0.1864E+01  0.1680E+02
      9.827  0.1145E+01  0.1690E+02
      9.904  0.2159E+01  0.1707E+02
      9.981  0.1714E+01  0.1720E+02
     10.059  0.3403E+01  0.1746E+02
     10.136  0.3181E+01  0.1771E+02
     10.213  0.8360E+00  0.1779E+02
     10.291  0.2143E+01  0.1796E+02
     10.368  0.1958E+01  0.1811E+02
     10.445  0.1356E+01  0.1821E+02
     10.523  0.2832E+01  0.1844E+02
     10.600  0.1234E+01  0.1853E+02
     10.677  0.2817E+01  0.1875E+02
     10.754  0.2033E+01  0.1892E+02
     10.832  0.1086E+01  0.1901E+02
     10.909  0.1671E+01  0.1914E+02
     10.986  0.2515E+01  0.1934E+02
     11.064  0.1814E+01  0.1948E+02
     11.141  0.2750E+01  0.1969E+02
     11.218  0.1004E+01  0.1978E+02
     11.296  0.1896E+01  0.1993E+02
     11.373  0.2041E+01  0.2008E+02
     11.450  0.2720E+01  0.2029E+02
     11.528  0.2665E+01  0.2050E+02
     11.605  0.4205E+01  0.2084E+02
     11.682  0.2885E+00  0.2087E+02
     11.759  0.1857E+01  0.2101E+02
     11.837  0.2415E+01  0.2120E+02
     11.914  0.1962E+01  0.2136E+02
     11.991  0.3843E+01  0.2166E+02
     12.069  0.1797E+01  0.2181E+02
     12.146  0.1576E+01  0.2193E+02
     12.223  0.1616E+01  0.2205E+02
     12.301  0.2641E+01  0.2226E+02
     12.378  0.2609E+01  0.2247E+02
     12.455  0.3607E+01  0.2275E+02
     12.533  0.1635E+01  0.2288E+02
     12.610  0.9250E+00  0.2295E+02
     12.687  0.3488E+01  0.2322E+02
     12.764  0.3275E+01  0.2348E+02
     12.842  0.2233E+01  0.2365E+02
     12.919  0.2329E+01  0.2384E+02
     12.996  0.1833E+01  0.2399E+02
     13.074  0.1334E+01  0.2409E+02
     13.151  0.2539E+01  0.2429E+02
     13.228  0.2385E+01  0.2447E+02
     13.306  0.1803E+01  0.2462E+02
     13.383  0.1598E+01  0.2475E+02
     13.460  0.2707E+01  0.2496E+02
     13.538  0.2989E+01  0.2520E+02
     13.615  0.3608E+01  0.2548E+02
     13.692  0.1139E+01  0.2557E+02
     13.770  0.3242E+01  0.2583E+02
     13.847  0.2444E+01  0.2603E+02
     13.924  0.7139E+00  0.2609E+02
     14.001  0.2597E+01  0.2629E+02
     14.079  0.2151E+01  0.2646E+02
     14.156  0.1946E+01  0.2662E+02
     14.233  0.2208E+01  0.2679E+02
     14.311  0.1551E+01  0.2691E+02
     14.388  0.2773E+01  0.2713E+02
     14.465  0.2173E+01  0.2731E+02
     14.543  0.1402E+01  0.2743E+02
     14.620  0.3427E+01  0.2769E+02
     14.697  0.7672E-01  0.2771E+02
     14.775  0.1919E+01  0.2785E+02
     14.852  0.2926E+01  0.2809E+02
     14.929  0.1851E+01  0.2824E+02
     15.006  0.1329E+01  0.2834E+02
     15.084  0.2502E+01  0.2855E+02
     15.161  0.2054E+01  0.2871E+02
     15.238  0.4110E+01  0.2903E+02
     15.316  0.2135E+01  0.2920E+02
     15.393  0.1681E+01  0.2933E+02
     15.470  0.2078E+01  0.2949E+02
     15.548  0.6891E+00  0.2955E+02
     15.625  0.2924E+01  0.2978E+02
     15.702  0.1440E+01  0.2990E+02
     15.780  0.2028E+01  0.3005E+02
     15.857  0.1945E+01  0.3021E+02
     15.934  0.5552E+00  0.3026E+02
     16.011  0.6767E+00  0.3031E+02
     16.089  0.3433E+01  0.3058E+02
     16.166  0.2212E+01  0.3075E+02
     16.243  0.2592E+01  0.3095E+02
     16.321  0.1533E+01  0.3107E+02
     16.398  0.0000E+00  0.3107E+02
     16.475  0.7209E-02  0.3107E+02
     16.553  0.2325E+01  0.3125E+02
     16.630  0.1084E+01  0.3134E+02
     16.707  0.5052E+00  0.3138E+02
     16.785  0.5494E+00  0.3142E+02
     16.862  0.7374E+00  0.3147E+02
     16.939  0.1103E+01  0.3156E+02
     17.017  0.1382E+01  0.3167E+02
     17.094  0.5370E-03  0.3167E+02
     17.171  0.7252E+00  0.3172E+02
     17.248  0.7112E+00  0.3178E+02
     17.326  0.1678E+01  0.3191E+02
     17.403  0.5301E+00  0.3195E+02
     17.480  0.1927E+00  0.3196E+02
     17.558  0.3532E+00  0.3199E+02
     17.635  0.4202E-05  0.3199E+02
     17.712  0.1198E+00  0.3200E+02
     17.790  0.0000E+00  0.3200E+02
     17.867  0.0000E+00  0.3200E+02
     17.944  0.0000E+00  0.3200E+02
     18.022  0.0000E+00  0.3200E+02
     18.099  0.0000E+00  0.3200E+02
     18.176  0.0000E+00  0.3200E+02
     18.253  0.0000E+00  0.3200E+02
     18.331  0.0000E+00  0.3200E+02
     18.408  0.0000E+00  0.3200E+02
     18.485  0.0000E+00  0.3200E+02
     18.563  0.0000E+00  0.3200E+02
     18.640  0.0000E+00  0.3200E+02
     18.717  0.0000E+00  0.3200E+02
