    4    4    1    1
  0.1797740E+02  0.4158426E-09  0.4158426E-09  0.4158426E-09  0.5000000E-15
  1.000000000000000E-004
  CAR 
 unknown system                          
   12   84   16
 
  0.0000000E+00  0.0000000E+00  0.0000000E+00  0.5787037E-03
   1       -3.4214
   2        4.4170
   3        4.4170
   4        4.4170
   5        5.5341
   6        5.5341
   7        5.5341
   8       12.3438
   9       12.3438
  10       12.3438
  11       12.3438
  12       12.3438
  13       12.3438
  14       12.3688
  15       12.3688
  16       12.3688
 
  0.8333333E-01  0.0000000E+00  0.0000000E+00  0.3472222E-02
   1       -3.3619
   2        3.5516
   3        4.4720
   4        4.4720
   5        5.5925
   6        5.5925
   7        6.5037
   8       11.0860
   9       11.0860
  10       11.9067
  11       11.9067
  12       12.3950
  13       12.3950
  14       12.4274
  15       13.7363
  16       13.7363
 
  0.1666667E+00  0.0000000E+00  0.0000000E+00  0.3472222E-02
   1       -3.1837
   2        2.3970
   3        4.6367
   4        4.6367
   5        5.7673
   6        5.7673
   7        7.9707
   8        9.9263
   9        9.9263
  10       11.0268
  11       11.0268
  12       12.5489
  13       12.5489
  14       12.6030
  15       15.2249
  16       15.2249
 
  0.2500000E+00  0.0000000E+00  0.0000000E+00  0.3472222E-02
   1       -2.8872
   2        1.3161
   3        4.9114
   4        4.9114
   5        6.0575
   6        6.0575
   7        8.8774
   8        8.8774
   9        9.5712
  10       10.0807
  11       10.0807
  12       12.8053
  13       12.8053
  14       12.8953
  15       15.9275
  16       16.4909
 
  0.3333333E+00  0.0000000E+00  0.0000000E+00  0.3472222E-02
   1       -2.4730
   2        0.3362
   3        5.2961
   4        5.2961
   5        6.4602
   6        6.4602
   7        7.9395
   8        7.9395
   9        9.1797
  10        9.1797
  11       11.2760
  12       13.1644
  13       13.1644
  14       13.3036
  15       15.6244
  16       15.6244
 
  0.4166667E+00  0.0000000E+00  0.0000000E+00  0.3472222E-02
   1       -1.9420
   2       -0.5355
   3        5.7911
   4        5.7911
   5        6.9684
   6        6.9684
   7        7.1126
   8        7.1126
   9        8.3648
  10        8.3648
  11       13.0738
  12       13.6262
  13       13.6262
  14       13.8265
  15       14.8569
  16       14.8569
 
  0.5000000E+00  0.0000000E+00  0.0000000E+00  0.1736111E-02
   1       -1.2957
   2       -1.2957
   3        6.3965
   4        6.3965
   5        6.3965
   6        6.3965
   7        7.4487
   8        7.4487
   9        7.7811
  10        7.7811
  11       14.1905
  12       14.1905
  13       14.1905
  14       14.1905
  15       14.4620
  16       14.4620
 
  0.8333333E-01  0.8333333E-01  0.0000000E+00  0.6944444E-02
   1       -3.3025
   2        3.6080
   3        3.6080
   4        4.5269
   5        5.6508
   6        6.5605
   7        6.5605
   8       10.2246
   9       11.1410
  10       11.1410
  11       11.9590
  12       11.9590
  13       12.4468
  14       13.6513
  15       13.7912
  16       13.7912
 
  0.1666667E+00  0.8333333E-01  0.0000000E+00  0.1388889E-01
   1       -3.1244
   2        2.4541
   3        3.7772
   4        4.6916
   5        5.8254
   6        6.7307
   7        8.0265
   8        9.1140
   9        9.9813
  10       11.0805
  11       11.3058
  12       11.8810
  13       12.1157
  14       13.9556
  15       14.7028
  16       15.2795
 
  0.2500000E+00  0.8333333E-01  0.0000000E+00  0.1388889E-01
   1       -2.8279
   2        1.3737
   3        4.0588
   4        4.9663
   5        6.1147
   6        7.0132
   7        8.0778
   8        8.9325
   9        9.6259
  10       10.1359
  11       10.9656
  12       11.5803
  13       12.3767
  14       14.2294
  15       15.4802
  16       16.0662
 
  0.3333333E+00  0.8333333E-01  0.0000000E+00  0.1388889E-01
   1       -2.4139
   2        0.3942
   3        4.4524
   4        5.3511
   5        6.5118
   6        7.1458
   7        7.4050
   8        7.9946
   9        9.2375
  10       10.0750
  11       11.3290
  12       11.9640
  13       12.7416
  14       14.5708
  15       14.6125
  16       15.2111
 
  0.4166667E+00  0.8333333E-01  0.0000000E+00  0.1388889E-01
   1       -1.8832
   2       -0.4772
   3        4.9573
   4        5.8461
   5        6.2926
   6        7.0451
   7        7.1677
   8        7.8835
   9        8.4423
  10        9.2649
  11       12.4561
  12       13.1117
  13       13.2225
  14       13.7613
  15       14.4456
  16       15.1040
 
  0.5000000E+00  0.8333333E-01  0.0000000E+00  0.6944444E-02
   1       -1.2371
   2       -1.2371
   3        5.5723
   4        5.5723
   5        6.4515
   6        6.4515
   7        7.6515
   8        7.6515
   9        8.5609
  10        8.5609
  11       13.0557
  12       13.0557
  13       13.7761
  14       13.7761
  15       15.0028
  16       15.0028
 
  0.1666667E+00  0.1666667E+00  0.0000000E+00  0.6944444E-02
   1       -2.9465
   2        2.6254
   3        2.6254
   4        4.8564
   5        5.9988
   6        8.0087
   7        8.1935
   8        8.1935
   9       10.1465
  10       10.1465
  11       11.2417
  12       11.2417
  13       12.7558
  14       14.2604
  15       15.3750
  16       15.4430
 
  0.2500000E+00  0.1666667E+00  0.0000000E+00  0.1388889E-01
   1       -2.6504
   2        1.5464
   3        2.9105
   4        5.1312
   5        6.2816
   6        6.9748
   7        8.4695
   8        9.0977
   9        9.7889
  10       10.3022
  11       10.4215
  12       11.5103
  13       12.2896
  14       14.3538
  15       15.2252
  16       15.3045
 
  0.3333333E+00  0.1666667E+00  0.0000000E+00  0.1388889E-01
   1       -2.2368
   2        0.5681
   3        3.3089
   4        5.5160
   5        6.0068
   6        6.7082
   7        8.1598
   8        8.8373
   9        9.4241
  10       10.8063
  11       11.4675
  12       11.4769
  13       11.8949
  14       13.4320
  15       14.3763
  16       16.0950
 
  0.4166667E+00  0.1666667E+00  0.0000000E+00  0.1388889E-01
   1       -1.7067
   2       -0.3023
   3        3.8198
   4        5.1733
   5        6.0111
   6        7.2156
   7        7.3328
   8        8.5484
   9        9.3902
  10       10.6806
  11       11.3004
  12       12.3485
  13       12.6144
  14       13.2909
  15       13.6077
  16       16.5810
 
  0.5000000E+00  0.1666667E+00  0.0000000E+00  0.6944444E-02
   1       -1.0613
   2       -1.0613
   3        4.4419
   4        4.4419
   5        6.6166
   6        6.6166
   7        7.8352
   8        7.8352
   9        9.9806
  10        9.9806
  11       11.9034
  12       11.9034
  13       12.9305
  14       12.9305
  15       15.1549
  16       15.1549
 
  0.2500000E+00  0.2500000E+00  0.0000000E+00  0.6944444E-02
   1       -2.3549
   2        1.8339
   3        1.8339
   4        5.4060
   5        5.9042
   6        6.5940
   7        9.3730
   8        9.3730
   9       10.0453
  10       10.0453
  11       10.5912
  12       10.5912
  13       13.2710
  14       13.3217
  15       14.3286
  16       14.9038
 
  0.3333333E+00  0.2500000E+00  0.0000000E+00  0.1388889E-01
   1       -1.9421
   2        0.8575
   3        2.2356
   4        4.9605
   5        5.7909
   6        6.9890
   7        8.4351
   8        9.6491
   9        9.7582
  10       10.4749
  11       10.9316
  12       11.7788
  13       12.3932
  14       12.9239
  15       13.4760
  16       16.0169
 
  0.4166667E+00  0.2500000E+00  0.0000000E+00  0.1388889E-01
   1       -1.4130
   2       -0.0113
   3        2.7505
   4        4.1153
   5        6.2862
   6        7.5009
   7        7.6081
   8        8.8420
   9       10.2533
  10       10.9534
  11       11.4251
  12       11.5714
  13       12.2147
  14       12.6999
  15       13.5523
  16       17.2844
 
  0.5000000E+00  0.2500000E+00  0.0000000E+00  0.6944444E-02
   1       -0.7689
   2       -0.7689
   3        3.3777
   4        3.3777
   5        6.8918
   6        6.8918
   7        8.1208
   8        8.1208
   9       10.8578
  10       10.8578
  11       11.5402
  12       11.5402
  13       12.0141
  14       12.0141
  15       15.4027
  16       15.4027
 
  0.3333333E+00  0.3333333E+00  0.0000000E+00  0.6944444E-02
   1       -1.5304
   2        1.2618
   3        1.2618
   4        4.0049
   5        6.1760
   6        7.3881
   7        8.8206
   8        8.8206
   9       10.0467
  10       10.0467
  11       11.4608
  12       12.1481
  13       12.1481
  14       12.6160
  15       13.9921
  16       15.7269
 
  0.4166667E+00  0.3333333E+00  0.0000000E+00  0.1388889E-01
   1       -1.0028
   2        0.3953
   3        1.7801
   4        3.1537
   5        6.6714
   6        7.8984
   7        7.9935
   8        9.2349
   9        9.3160
  10       10.5411
  11       10.6365
  12       11.8314
  13       12.6213
  14       13.7706
  15       13.9124
  16       16.9139
 
  0.5000000E+00  0.3333333E+00  0.0000000E+00  0.6944444E-02
   1       -0.3603
   2       -0.3603
   3        2.4113
   4        2.4113
   5        7.2772
   6        7.2772
   7        8.5158
   8        8.5158
   9        9.9214
  10        9.9214
  11       11.1372
  12       11.1372
  13       13.1807
  14       13.1807
  15       15.7307
  16       15.7307
 
  0.4166667E+00  0.4166667E+00  0.0000000E+00  0.6944444E-02
   1       -0.4769
   2        0.9165
   3        0.9165
   4        2.2977
   5        7.1669
   6        8.4057
   7        8.4892
   8        8.4892
   9        9.7338
  10        9.7338
  11        9.8108
  12       11.0384
  13       14.3560
  14       14.3560
  15       14.9180
  16       16.7472
 
  0.5000000E+00  0.4166667E+00  0.0000000E+00  0.6944444E-02
   1        0.1634
   2        0.1634
   3        1.5512
   4        1.5512
   5        7.7728
   6        7.7728
   7        9.0192
   8        9.0192
   9        9.0950
  10        9.0950
  11       10.3365
  12       10.3365
  13       14.8240
  14       14.8240
  15       16.0765
  16       16.0765
 
  0.5000000E+00  0.5000000E+00  0.0000000E+00  0.1736111E-02
   1        0.8012
   2        0.8012
   3        0.8012
   4        0.8012
   5        8.3787
   6        8.3787
   7        8.3787
   8        8.3787
   9        9.6277
  10        9.6277
  11        9.6277
  12        9.6277
  13       16.0449
  14       16.0449
  15       16.0449
  16       16.0449
 
  0.8333333E-01  0.8333333E-01  0.8333333E-01  0.4629630E-02
   1       -3.2431
   2        3.6644
   3        3.6644
   4        3.6644
   5        6.6173
   6        6.6173
   7        6.6173
   8       10.2795
   9       10.2795
  10       10.2795
  11       12.4981
  12       12.4981
  13       12.4981
  14       13.7077
  15       13.7077
  16       13.7077
 
  0.1666667E+00  0.8333333E-01  0.8333333E-01  0.1388889E-01
   1       -3.0651
   2        2.5112
   3        3.8335
   4        3.8335
   5        6.7871
   6        6.7871
   7        8.0821
   8        9.1695
   9        9.1695
  10       10.4444
  11       11.9341
  12       11.9341
  13       12.6519
  14       13.8766
  15       14.7578
  16       14.7578
 
  0.2500000E+00  0.8333333E-01  0.8333333E-01  0.1388889E-01
   1       -2.7687
   2        1.4313
   3        4.1150
   4        4.1150
   5        7.0677
   6        7.0677
   7        8.1350
   8        8.1350
   9        9.6795
  10       10.7197
  11       11.0199
  12       11.0199
  13       12.9085
  14       14.1573
  15       14.6026
  16       16.2663
 
  0.3333333E+00  0.8333333E-01  0.8333333E-01  0.1388889E-01
   1       -2.3548
   2        0.4522
   3        4.5085
   4        4.5085
   5        7.1738
   6        7.1738
   7        7.4846
   8        7.4846
   9       10.1305
  10       10.1305
  11       11.0916
  12       11.3932
  13       13.2677
  14       13.6986
  15       14.5480
  16       15.7285
 
  0.4166667E+00  0.8333333E-01  0.8333333E-01  0.1388889E-01
   1       -1.8243
   2       -0.4189
   3        5.0131
   4        5.0131
   5        6.3548
   6        6.3548
   7        7.9712
   8        7.9712
   9        9.3233
  10        9.3233
  11       11.5897
  12       12.8923
  13       13.1810
  14       13.7297
  15       14.9608
  16       15.0463
 
  0.5000000E+00  0.8333333E-01  0.8333333E-01  0.6944444E-02
   1       -1.1785
   2       -1.1785
   3        5.5942
   4        5.5942
   5        5.6649
   6        5.6649
   7        8.4725
   8        8.4725
   9        8.7178
  10        8.7178
  11       12.1885
  12       12.1885
  13       14.2942
  14       14.2942
  15       15.0539
  16       15.0539
 
  0.1666667E+00  0.1666667E+00  0.8333333E-01  0.1388889E-01
   1       -2.8872
   2        2.6825
   3        2.6825
   4        4.0025
   5        6.9546
   6        8.0662
   7        8.2475
   8        8.2475
   9        9.3370
  10        9.3370
  11       12.0931
  12       12.0931
  13       12.8072
  14       14.3169
  15       14.5241
  16       14.9226
 
  0.2500000E+00  0.1666667E+00  0.8333333E-01  0.2777778E-01
   1       -2.5912
   2        1.6040
   3        2.9675
   4        4.2837
   5        6.9942
   6        7.2690
   7        8.2769
   8        8.5494
   9        9.5919
  10        9.8639
  11       11.1827
  12       12.3427
  13       12.3577
  14       13.5210
  15       15.1961
  16       15.3590
 
  0.3333333E+00  0.1666667E+00  0.8333333E-01  0.2777778E-01
   1       -2.1778
   2        0.6260
   3        3.3658
   4        4.6767
   5        6.0709
   6        7.3547
   7        7.6424
   8        8.9190
   9        9.9907
  10       10.2980
  11       11.5216
  12       11.5489
  13       12.6090
  14       12.7277
  15       15.2199
  16       15.5766
 
  0.4166667E+00  0.1666667E+00  0.8333333E-01  0.2777778E-01
   1       -1.6479
   2       -0.2441
   3        3.8765
   4        5.1638
   5        5.2498
   6        6.5230
   7        8.1446
   8        9.3357
   9        9.5673
  10       10.4859
  11       10.7357
  12       11.7967
  13       13.1888
  14       13.3499
  15       14.4495
  16       16.0611
 
  0.5000000E+00  0.1666667E+00  0.8333333E-01  0.1388889E-01
   1       -1.0028
   2       -1.0028
   3        4.4982
   4        4.4982
   5        5.7988
   6        5.7988
   7        8.7520
   8        8.7520
   9       10.0383
  10       10.0383
  11       11.0882
  12       11.0882
  13       13.7738
  14       13.7738
  15       15.2059
  16       15.2059
 
  0.2500000E+00  0.2500000E+00  0.8333333E-01  0.1388889E-01
   1       -2.2959
   2        1.8914
   3        1.8914
   4        4.5645
   5        5.9685
   6        7.5307
   7        8.5697
   8        8.5697
   9       10.1231
  10       10.1231
  11       11.4545
  12       11.4545
  13       12.5090
  14       13.3224
  15       14.9593
  16       15.2006
 
  0.3333333E+00  0.2500000E+00  0.8333333E-01  0.2777778E-01
   1       -1.8832
   2        0.9153
   3        2.2929
   4        4.9433
   5        5.0334
   6        7.6337
   7        7.9229
   8        8.9580
   9       10.4345
  10       10.6401
  11       11.5902
  12       11.7472
  13       11.8991
  14       12.9768
  15       14.3491
  16       16.0701
 
  0.4166667E+00  0.2500000E+00  0.8333333E-01  0.2777778E-01
   1       -1.3544
   2        0.0468
   3        2.8077
   4        4.1718
   5        5.4634
   6        6.8019
   7        8.4258
   8        9.4549
   9        9.7450
  10       10.7727
  11       11.0100
  12       12.2685
  13       12.3034
  14       13.5736
  15       13.6053
  16       17.3288
 
  0.5000000E+00  0.2500000E+00  0.8333333E-01  0.1388889E-01
   1       -0.7105
   2       -0.7105
   3        3.4346
   4        3.4346
   5        6.0778
   6        6.0778
   7        9.0354
   8        9.0354
   9       10.0602
  10       10.0602
  11       11.5947
  12       11.5947
  13       12.8897
  14       12.8897
  15       15.4536
  16       15.4536
 
  0.3333333E+00  0.3333333E+00  0.8333333E-01  0.1388889E-01
   1       -1.4717
   2        1.3195
   3        1.3195
   4        4.0615
   5        5.3515
   6        8.0225
   7        8.0225
   8        8.3152
   9       10.6662
  10       10.9372
  11       10.9372
  12       12.2030
  13       12.2030
  14       13.4934
  15       14.0436
  16       15.7805
 
  0.4166667E+00  0.3333333E+00  0.8333333E-01  0.2777778E-01
   1       -0.9443
   2        0.4533
   3        1.8376
   4        3.2108
   5        5.8546
   6        7.1917
   7        8.5212
   8        8.8169
   9        9.8446
  10       10.1348
  11       11.4284
  12       12.6751
  13       12.7113
  14       13.8231
  15       13.9651
  16       16.9649
 
  0.5000000E+00  0.3333333E+00  0.8333333E-01  0.1388889E-01
   1       -0.3020
   2       -0.3020
   3        2.4686
   4        2.4686
   5        6.4684
   6        6.4684
   7        9.1289
   8        9.1289
   9        9.4250
  10        9.4250
  11       12.0205
  12       12.0205
  13       13.2339
  14       13.2339
  15       15.7816
  16       15.7816
 
  0.4166667E+00  0.4166667E+00  0.8333333E-01  0.1388889E-01
   1       -0.4186
   2        0.9743
   3        0.9743
   4        2.3551
   5        6.3571
   6        7.6918
   7        7.6918
   8        9.0197
   9        9.3164
  10       10.6284
  11       10.6284
  12       11.9226
  13       14.4083
  14       14.4083
  15       14.9696
  16       16.7976
 
  0.5000000E+00  0.4166667E+00  0.8333333E-01  0.1388889E-01
   1        0.2215
   2        0.2215
   3        1.6088
   4        1.6088
   5        6.9699
   6        6.9699
   7        8.3015
   8        8.3015
   9        9.9217
  10        9.9217
  11       11.2257
  12       11.2257
  13       14.8760
  14       14.8760
  15       16.1275
  16       16.1275
 
  0.5000000E+00  0.5000000E+00  0.8333333E-01  0.3472222E-02
   1        0.8590
   2        0.8590
   3        0.8590
   4        0.8590
   5        7.5813
   6        7.5813
   7        7.5813
   8        7.5813
   9       10.5234
  10       10.5234
  11       10.5234
  12       10.5234
  13       16.0964
  14       16.0964
  15       16.0964
  16       16.0964
 
  0.1666667E+00  0.1666667E+00  0.1666667E+00  0.4629630E-02
   1       -2.7096
   2        2.8536
   3        2.8536
   4        2.8536
   5        8.2000
   6        8.2000
   7        8.2000
   8        8.4471
   9        8.4471
  10        8.4471
  11       12.9612
  12       12.9612
  13       12.9612
  14       13.4471
  15       14.4857
  16       14.4857
 
  0.2500000E+00  0.1666667E+00  0.1666667E+00  0.1388889E-01
   1       -2.4140
   2        1.7765
   3        3.1383
   4        3.1383
   5        7.1824
   6        7.1824
   7        8.5000
   8        8.7035
   9        8.7035
  10       10.0182
  11       12.4379
  12       12.5015
  13       12.5015
  14       13.2181
  15       14.7651
  16       15.5218
 
  0.3333333E+00  0.1666667E+00  0.1666667E+00  0.1388889E-01
   1       -2.0010
   2        0.7996
   3        3.5362
   4        3.5362
   5        6.2402
   6        6.2402
   7        8.8890
   8        9.0899
   9        9.0899
  10       11.5209
  11       11.6839
  12       11.6839
  13       11.7132
  14       13.5777
  15       15.1519
  16       16.0403
 
  0.4166667E+00  0.1666667E+00  0.1666667E+00  0.1388889E-01
   1       -1.4717
   2       -0.0695
   3        4.0463
   4        4.0463
   5        5.4013
   6        5.4013
   7        9.3864
   8        9.5830
   9        9.5830
  10       10.7042
  11       10.9020
  12       10.9020
  13       13.4989
  14       14.0401
  15       15.2722
  16       15.6407
 
  0.5000000E+00  0.1666667E+00  0.1666667E+00  0.6944444E-02
   1       -0.8273
   2       -0.8273
   3        4.6367
   4        4.6367
   5        4.7010
   6        4.7010
   7        9.9919
   8        9.9919
   9       10.0919
  10       10.0919
  11       10.2941
  12       10.2941
  13       14.6051
  14       14.6051
  15       15.3575
  16       15.3575
 
  0.2500000E+00  0.2500000E+00  0.1666667E+00  0.1388889E-01
   1       -2.1189
   2        2.0636
   3        2.0636
   4        3.4226
   5        6.1380
   6        7.4627
   7        7.4627
   8        8.9807
   9       10.2915
  10       10.2915
  11       11.4220
  12       12.7659
  13       12.7659
  14       13.4767
  15       15.1249
  16       15.7912
 
  0.3333333E+00  0.2500000E+00  0.1666667E+00  0.2777778E-01
   1       -1.7068
   2        1.0886
   3        2.4647
   4        3.8198
   5        5.1887
   6        6.5204
   7        7.8527
   8        9.3681
   9       10.4991
  10       10.6713
  11       11.9546
  12       11.9816
  13       13.1350
  14       13.1354
  15       15.6109
  16       16.1641
 
  0.4166667E+00  0.2500000E+00  0.1666667E+00  0.2777778E-01
   1       -1.1785
   2        0.2211
   3        2.9790
   4        4.3085
   5        4.3644
   6        5.6821
   7        8.3525
   8        9.6776
   9        9.8631
  10       11.0782
  11       11.2529
  12       12.4296
  13       13.6002
  14       13.7669
  15       14.8516
  16       16.6337
 
  0.5000000E+00  0.2500000E+00  0.1666667E+00  0.1388889E-01
   1       -0.5353
   2       -0.5353
   3        3.6052
   4        3.6052
   5        4.9516
   6        4.9516
   7        8.9613
   8        8.9613
   9       10.4608
  10       10.4608
  11       11.7590
  12       11.7590
  13       14.1800
  14       14.1800
  15       15.6050
  16       15.6050
 
  0.3333333E+00  0.3333333E+00  0.1666667E+00  0.1388889E-01
   1       -1.2958
   2        1.4924
   3        1.4924
   4        4.1983
   5        4.2513
   6        6.9119
   7        6.9119
   8        9.5712
   9        9.7551
  10       12.2748
  11       12.2748
  12       12.4085
  13       12.4085
  14       14.1982
  15       14.8221
  16       15.9400
 
  0.4166667E+00  0.3333333E+00  0.1666667E+00  0.2777778E-01
   1       -0.7689
   2        0.6271
   3        2.0100
   4        3.3818
   5        4.7261
   6        6.0750
   7        7.4140
   8        8.7455
   9       10.2491
  10       11.5414
  11       12.8030
  12       12.8364
  13       13.9804
  14       14.0632
  15       14.1225
  16       17.1163
 
  0.5000000E+00  0.3333333E+00  0.1666667E+00  0.1388889E-01
   1       -0.1274
   2       -0.1274
   3        2.6404
   4        2.6404
   5        5.3457
   6        5.3457
   7        8.0257
   8        8.0257
   9       10.8469
  10       10.8469
  11       13.3858
  12       13.3858
  13       13.3933
  14       13.3933
  15       15.9330
  16       15.9330
 
  0.4166667E+00  0.4166667E+00  0.1666667E+00  0.1388889E-01
   1       -0.2438
   2        1.1476
   3        1.1476
   4        2.5270
   5        5.2333
   6        6.5791
   7        6.5791
   8        7.9161
   9       10.7413
  10       12.0290
  11       12.0290
  12       13.2997
  13       14.5649
  14       14.5649
  15       15.1244
  16       16.9464
 
  0.5000000E+00  0.4166667E+00  0.1666667E+00  0.1388889E-01
   1        0.3956
   2        0.3956
   3        1.7815
   4        1.7815
   5        5.8515
   6        5.8515
   7        7.1933
   8        7.1933
   9       11.3367
  10       11.3367
  11       12.6167
  12       12.6167
  13       15.0316
  14       15.0316
  15       16.2798
  16       16.2798
 
  0.5000000E+00  0.5000000E+00  0.1666667E+00  0.3472222E-02
   1        1.0324
   2        1.0324
   3        1.0324
   4        1.0324
   5        6.4678
   6        6.4678
   7        6.4678
   8        6.4678
   9       11.9286
  10       11.9286
  11       11.9286
  12       11.9286
  13       16.2506
  14       16.2506
  15       16.2506
  16       16.2506
 
  0.2500000E+00  0.2500000E+00  0.2500000E+00  0.4629630E-02
   1       -1.8244
   2        2.3502
   3        2.3502
   4        2.3502
   5        6.4186
   6        6.4186
   7        6.4186
   8       10.4001
   9       10.5661
  10       10.5661
  11       10.5661
  12       13.7340
  13       13.7340
  14       13.7340
  15       15.3980
  16       15.3980
 
  0.3333333E+00  0.2500000E+00  0.2500000E+00  0.1388889E-01
   1       -1.4131
   2        1.3771
   3        2.7507
   4        2.7507
   5        5.4702
   6        5.4702
   7        6.8105
   8        9.4719
   9       10.9477
  10       10.9477
  11       12.2523
  12       13.3983
  13       13.3983
  14       14.0942
  15       15.7735
  16       16.4904
 
  0.4166667E+00  0.2500000E+00  0.2500000E+00  0.1388889E-01
   1       -0.8858
   2        0.5112
   3        3.2641
   4        3.2641
   5        4.6262
   6        4.6262
   7        7.3131
   8        8.6457
   9       11.4325
  10       11.4325
  11       12.6979
  12       12.6979
  13       14.0226
  14       14.5572
  15       15.7903
  16       16.2420
 
  0.5000000E+00  0.2500000E+00  0.2500000E+00  0.6944444E-02
   1       -0.2438
   2       -0.2438
   3        3.8709
   4        3.8709
   5        3.9089
   6        3.9089
   7        7.9253
   8        7.9253
   9       11.9502
  10       11.9502
  11       12.0952
  12       12.0952
  13       15.1229
  14       15.1229
  15       15.8506
  16       15.8506
 
  0.3333333E+00  0.3333333E+00  0.2500000E+00  0.1388889E-01
   1       -1.0029
   2        1.7802
   3        1.7802
   4        3.1502
   5        4.5162
   6        5.8640
   7        5.8640
   8        8.5389
   9       11.3288
  10       12.6250
  11       12.6250
  12       13.7658
  13       13.7658
  14       14.4559
  15       16.1718
  16       16.2013
 
  0.4166667E+00  0.3333333E+00  0.2500000E+00  0.2777778E-01
   1       -0.4770
   2        0.9165
   3        2.2969
   4        3.6507
   5        3.6791
   6        5.0215
   7        6.3690
   8        7.7084
   9       11.8136
  10       13.0303
  11       13.1351
  12       14.2322
  13       14.2418
  14       14.3837
  15       15.4613
  16       17.2901
 
  0.5000000E+00  0.3333333E+00  0.2500000E+00  0.1388889E-01
   1        0.1634
   2        0.1634
   3        2.9263
   4        2.9263
   5        4.2872
   6        4.2872
   7        6.9843
   8        6.9843
   9       12.3963
  10       12.3963
  11       13.6579
  12       13.6579
  13       14.8031
  14       14.8031
  15       16.1797
  16       16.1797
 
  0.4166667E+00  0.4166667E+00  0.2500000E+00  0.1388889E-01
   1        0.0472
   2        1.4361
   3        1.4361
   4        2.8131
   5        4.1740
   6        5.5289
   7        5.5289
   8        6.8742
   9       12.2966
  10       13.5413
  11       13.5413
  12       14.7715
  13       14.8238
  14       14.8238
  15       15.3823
  16       17.1857
 
  0.5000000E+00  0.4166667E+00  0.2500000E+00  0.1388889E-01
   1        0.6854
   2        0.6854
   3        2.0689
   4        2.0689
   5        4.7964
   6        4.7964
   7        6.1469
   8        6.1469
   9       12.8773
  10       12.8773
  11       14.1146
  12       14.1146
  13       15.2897
  14       15.2897
  15       16.5298
  16       16.5298
 
  0.5000000E+00  0.5000000E+00  0.2500000E+00  0.3472222E-02
   1        1.3211
   2        1.3211
   3        1.3211
   4        1.3211
   5        5.4168
   6        5.4168
   7        5.4168
   8        5.4168
   9       13.4545
  10       13.4545
  11       13.4545
  12       13.4545
  13       16.5069
  14       16.5069
  15       16.5069
  16       16.5069
 
  0.3333333E+00  0.3333333E+00  0.3333333E+00  0.4629630E-02
   1       -0.5937
   2        2.1823
   3        2.1823
   4        2.1823
   5        4.9120
   6        4.9120
   7        4.9120
   8        7.6010
   9       12.9981
  10       12.9981
  11       12.9981
  12       14.8167
  13       14.8167
  14       14.8167
  15       16.5551
  16       16.5551
 
  0.4166667E+00  0.3333333E+00  0.3333333E+00  0.1388889E-01
   1       -0.0691
   2        1.3208
   3        2.6979
   4        2.6979
   5        4.0647
   6        4.0647
   7        5.4197
   8        6.7661
   9       13.4682
  10       13.4682
  11       14.6058
  12       14.6058
  13       14.7396
  14       15.2802
  15       16.5115
  16       16.9822
 
  0.5000000E+00  0.3333333E+00  0.3333333E+00  0.6944444E-02
   1        0.5696
   2        0.5696
   3        3.3200
   4        3.3200
   5        3.3317
   6        3.3317
   7        6.0383
   8        6.0383
   9       13.9952
  10       13.9952
  11       14.0511
  12       14.0511
  13       15.8458
  14       15.8458
  15       16.5031
  16       16.5031
 
  0.4166667E+00  0.4166667E+00  0.3333333E+00  0.1388889E-01
   1        0.4537
   2        1.8392
   3        1.8392
   4        3.2096
   5        3.2154
   6        4.5748
   7        4.5748
   8        5.9275
   9       13.9369
  10       15.0692
  11       15.0692
  12       15.1804
  13       15.1804
  14       15.7429
  15       16.2298
  16       17.4954
 
  0.5000000E+00  0.4166667E+00  0.3333333E+00  0.1388889E-01
   1        1.0903
   2        1.0903
   3        2.4704
   4        2.4704
   5        3.8382
   6        3.8382
   7        5.1963
   8        5.1963
   9       14.4888
  10       14.4888
  11       15.6230
  12       15.6230
  13       15.6471
  14       15.6471
  15       16.8654
  16       16.8654
 
  0.5000000E+00  0.5000000E+00  0.3333333E+00  0.3472222E-02
   1        1.7245
   2        1.7245
   3        1.7245
   4        1.7245
   5        4.4621
   6        4.4621
   7        4.4621
   8        4.4621
   9       15.0393
  10       15.0393
  11       15.0393
  12       15.0393
  13       16.8626
  14       16.8626
  15       16.8626
  16       16.8626
 
  0.4166667E+00  0.4166667E+00  0.4166667E+00  0.4629630E-02
   1        0.9748
   2        2.3559
   3        2.3559
   4        2.3559
   5        3.7257
   6        3.7257
   7        3.7257
   8        5.0848
   9       15.6213
  10       15.6213
  11       15.6213
  12       16.2053
  13       16.2053
  14       16.2053
  15       17.4085
  16       17.4085
 
  0.5000000E+00  0.4166667E+00  0.4166667E+00  0.6944444E-02
   1        1.6094