       N       E                     dE             d eps       ncg     rms          rms(c)
DAV:   1     0.467840532939E+01    0.46784E+01   -0.38382E+03  2696   0.545E+02
DAV:   2    -0.143160288030E+02   -0.18994E+02   -0.17848E+02  3568   0.807E+01
DAV:   3    -0.149415744234E+02   -0.62555E+00   -0.62293E+00  3576   0.112E+01
DAV:   4    -0.149457800657E+02   -0.42056E-02   -0.42053E-02  3272   0.122E+00
DAV:   5    -0.149458349385E+02   -0.54873E-04   -0.54872E-04  3600   0.139E-01    0.179E+00
DAV:   6    -0.148959232100E+02    0.49912E-01   -0.75416E-03  3264   0.431E-01    0.111E+00
DAV:   7    -0.148598673508E+02    0.36056E-01   -0.22612E-02  3088   0.702E-01    0.494E-02
DAV:   8    -0.148598637032E+02    0.36475E-05   -0.15750E-04  3456   0.774E-02    0.126E-02
DAV:   9    -0.148598672307E+02   -0.35275E-05   -0.41087E-06  3408   0.983E-03    0.129E-03
DAV:  10    -0.148598659780E+02    0.12527E-05   -0.50718E-08  3592   0.143E-03    0.284E-04
DAV:  11    -0.148598658213E+02    0.15672E-06   -0.11791E-09  2432   0.190E-04    0.287E-05
DAV:  12    -0.148598658576E+02   -0.36289E-07   -0.19292E-10  2080   0.817E-05    0.683E-06
DAV:  13    -0.148598658559E+02    0.17439E-08   -0.32616E-11  1720   0.280E-05
   1 F= -.14859866E+02 E0= -.14859803E+02  d E =-.126148E-03
