  32  32   0   0
  0.2102843E+02  0.8762989E-09  0.8762989E-09  0.8762989E-09  0.5000000E-15
  1.000000000000000E-004
  CAR 
 unknown system                          
     11.57971843     -5.26408301  301      3.33215447      1.00000000
     -5.264  0.0000E+00  0.0000E+00
     -5.208  0.0000E+00  0.0000E+00
     -5.152  0.0000E+00  0.0000E+00
     -5.096  0.0000E+00  0.0000E+00
     -5.039  0.0000E+00  0.0000E+00
     -4.983  0.0000E+00  0.0000E+00
     -4.927  0.0000E+00  0.0000E+00
     -4.871  0.0000E+00  0.0000E+00
     -4.815  0.0000E+00  0.0000E+00
     -4.759  0.0000E+00  0.0000E+00
     -4.703  0.0000E+00  0.0000E+00
     -4.646  0.0000E+00  0.0000E+00
     -4.590  0.0000E+00  0.0000E+00
     -4.534  0.4486E-08  0.2518E-09
     -4.478  0.1137E+00  0.6382E-02
     -4.422  0.6250E+00  0.4147E-01
     -4.366  0.1038E+01  0.9973E-01
     -4.310  0.1631E+01  0.1913E+00
     -4.253  0.1716E+01  0.2877E+00
     -4.197  0.1601E+01  0.3775E+00
     -4.141  0.2283E+01  0.5057E+00
     -4.085  0.1314E+01  0.5795E+00
     -4.029  0.2690E+01  0.7306E+00
     -3.973  0.2380E+01  0.8642E+00
     -3.917  0.3128E+01  0.1040E+01
     -3.860  0.2516E+01  0.1181E+01
     -3.804  0.3730E+01  0.1391E+01
     -3.748  0.2948E+01  0.1556E+01
     -3.692  0.2657E+01  0.1705E+01
     -3.636  0.4084E+01  0.1935E+01
     -3.580  0.3350E+01  0.2123E+01
     -3.524  0.3551E+01  0.2322E+01
     -3.467  0.3614E+01  0.2525E+01
     -3.411  0.5024E+01  0.2807E+01
     -3.355  0.3109E+01  0.2982E+01
     -3.299  0.5847E+01  0.3310E+01
     -3.243  0.3221E+01  0.3491E+01
     -3.187  0.5353E+01  0.3791E+01
     -3.131  0.6122E+01  0.4135E+01
     -3.074  0.5843E+01  0.4463E+01
     -3.018  0.4049E+01  0.4690E+01
     -2.962  0.6127E+01  0.5034E+01
     -2.906  0.6041E+01  0.5374E+01
     -2.850  0.6865E+01  0.5759E+01
     -2.794  0.6477E+01  0.6123E+01
     -2.738  0.7641E+01  0.6552E+01
     -2.681  0.6475E+01  0.6915E+01
     -2.625  0.7609E+01  0.7342E+01
     -2.569  0.1088E+02  0.7953E+01
     -2.513  0.7033E+01  0.8348E+01
     -2.457  0.8780E+01  0.8841E+01
     -2.401  0.1206E+02  0.9518E+01
     -2.344  0.1627E+02  0.1043E+02
     -2.288  0.1801E+02  0.1144E+02
     -2.232  0.2880E+02  0.1306E+02
     -2.176  0.2270E+02  0.1433E+02
     -2.120  0.2944E+02  0.1599E+02
     -2.064  0.2681E+02  0.1749E+02
     -2.008  0.3450E+02  0.1943E+02
     -1.951  0.3866E+02  0.2160E+02
     -1.895  0.4766E+02  0.2428E+02
     -1.839  0.5209E+02  0.2720E+02
     -1.783  0.6729E+02  0.3098E+02
     -1.727  0.7217E+02  0.3503E+02
     -1.671  0.8024E+02  0.3954E+02
     -1.615  0.8186E+02  0.4413E+02
     -1.558  0.7794E+02  0.4851E+02
     -1.502  0.8343E+02  0.5319E+02
     -1.446  0.6434E+02  0.5681E+02
     -1.390  0.8024E+02  0.6131E+02
     -1.334  0.6056E+02  0.6471E+02
     -1.278  0.7389E+02  0.6886E+02
     -1.222  0.6262E+02  0.7238E+02
     -1.165  0.6204E+02  0.7586E+02
     -1.109  0.5599E+02  0.7900E+02
     -1.053  0.4857E+02  0.8173E+02
     -0.997  0.5621E+02  0.8489E+02
     -0.941  0.7135E+02  0.8889E+02
     -0.885  0.7099E+02  0.9288E+02
     -0.829  0.8470E+02  0.9763E+02
     -0.772  0.9682E+02  0.1031E+03
     -0.716  0.9202E+02  0.1082E+03
     -0.660  0.9721E+02  0.1137E+03
     -0.604  0.8687E+02  0.1186E+03
     -0.548  0.9374E+02  0.1238E+03
     -0.492  0.9092E+02  0.1289E+03
     -0.436  0.9241E+02  0.1341E+03
     -0.379  0.9690E+02  0.1396E+03
     -0.323  0.1124E+03  0.1459E+03
     -0.267  0.1219E+03  0.1527E+03
     -0.211  0.1415E+03  0.1607E+03
     -0.155  0.1723E+03  0.1703E+03
     -0.099  0.1359E+03  0.1780E+03
     -0.043  0.9390E+02  0.1833E+03
      0.014  0.8991E+02  0.1883E+03
      0.070  0.7543E+02  0.1925E+03
      0.126  0.7468E+02  0.1967E+03
      0.182  0.8045E+02  0.2012E+03
      0.238  0.7655E+02  0.2055E+03
      0.294  0.7188E+02  0.2096E+03
      0.351  0.8303E+02  0.2142E+03
      0.407  0.9579E+02  0.2196E+03
      0.463  0.9352E+02  0.2249E+03
      0.519  0.9868E+02  0.2304E+03
      0.575  0.9938E+02  0.2360E+03
      0.631  0.1053E+03  0.2419E+03
      0.687  0.9888E+02  0.2475E+03
      0.744  0.8647E+02  0.2523E+03
      0.800  0.8447E+02  0.2571E+03
      0.856  0.8027E+02  0.2616E+03
      0.912  0.7575E+02  0.2658E+03
      0.968  0.8036E+02  0.2703E+03
      1.024  0.7750E+02  0.2747E+03
      1.080  0.7590E+02  0.2789E+03
      1.137  0.8635E+02  0.2838E+03
      1.193  0.8145E+02  0.2884E+03
      1.249  0.8725E+02  0.2933E+03
      1.305  0.1017E+03  0.2990E+03
      1.361  0.1159E+03  0.3055E+03
      1.417  0.1559E+03  0.3142E+03
      1.473  0.1401E+03  0.3221E+03
      1.530  0.8176E+02  0.3267E+03
      1.586  0.7971E+02  0.3312E+03
      1.642  0.4966E+02  0.3339E+03
      1.698  0.2303E+02  0.3352E+03
      1.754  0.1372E+02  0.3360E+03
      1.810  0.1575E+02  0.3369E+03
      1.866  0.4779E+01  0.3372E+03
      1.923  0.9974E+01  0.3377E+03
      1.979  0.1399E+02  0.3385E+03
      2.035  0.8643E+01  0.3390E+03
      2.091  0.8476E+01  0.3395E+03
      2.147  0.1076E+02  0.3401E+03
      2.203  0.1398E+02  0.3409E+03
      2.259  0.7575E+01  0.3413E+03
      2.316  0.5884E+01  0.3416E+03
      2.372  0.1174E+02  0.3423E+03
      2.428  0.1462E+02  0.3431E+03
      2.484  0.7989E+01  0.3435E+03
      2.540  0.8410E+01  0.3440E+03
      2.596  0.6286E+01  0.3444E+03
      2.653  0.1483E+02  0.3452E+03
      2.709  0.1169E+02  0.3459E+03
      2.765  0.8897E+01  0.3464E+03
      2.821  0.7287E+01  0.3468E+03
      2.877  0.9613E+01  0.3473E+03
      2.933  0.9685E+01  0.3479E+03
      2.989  0.1243E+02  0.3485E+03
      3.046  0.8615E+01  0.3490E+03
      3.102  0.9517E+01  0.3496E+03
      3.158  0.9445E+01  0.3501E+03
      3.214  0.1205E+02  0.3508E+03
      3.270  0.9730E+01  0.3513E+03
      3.326  0.1010E+02  0.3519E+03
      3.382  0.9283E+01  0.3524E+03
      3.439  0.1004E+02  0.3530E+03
      3.495  0.1213E+02  0.3537E+03
      3.551  0.9924E+01  0.3542E+03
      3.607  0.1169E+02  0.3549E+03
      3.663  0.8389E+01  0.3553E+03
      3.719  0.8570E+01  0.3558E+03
      3.775  0.1180E+02  0.3565E+03
      3.832  0.1166E+02  0.3571E+03
      3.888  0.9576E+01  0.3577E+03
      3.944  0.1036E+02  0.3583E+03
      4.000  0.9910E+01  0.3588E+03
      4.056  0.7309E+01  0.3592E+03
      4.112  0.1234E+02  0.3599E+03
      4.168  0.1200E+02  0.3606E+03
      4.225  0.1088E+02  0.3612E+03
      4.281  0.7719E+01  0.3616E+03
      4.337  0.8069E+01  0.3621E+03
      4.393  0.1074E+02  0.3627E+03
      4.449  0.1162E+02  0.3633E+03
      4.505  0.1126E+02  0.3640E+03
      4.561  0.1037E+02  0.3646E+03
      4.618  0.7583E+01  0.3650E+03
      4.674  0.8937E+01  0.3655E+03
      4.730  0.1220E+02  0.3662E+03
      4.786  0.1071E+02  0.3668E+03
      4.842  0.7514E+01  0.3672E+03
      4.898  0.9281E+01  0.3677E+03
      4.954  0.1230E+02  0.3684E+03
      5.011  0.9361E+01  0.3689E+03
      5.067  0.1325E+02  0.3697E+03
      5.123  0.7641E+01  0.3701E+03
      5.179  0.7957E+01  0.3705E+03
      5.235  0.1197E+02  0.3712E+03
      5.291  0.8901E+01  0.3717E+03
      5.348  0.1086E+02  0.3723E+03
      5.404  0.8666E+01  0.3728E+03
      5.460  0.1430E+02  0.3736E+03
      5.516  0.1540E+02  0.3745E+03
      5.572  0.1652E+02  0.3754E+03
      5.628  0.1511E+02  0.3763E+03
      5.684  0.1330E+02  0.3770E+03
      5.741  0.1368E+02  0.3778E+03
      5.797  0.1573E+02  0.3787E+03
      5.853  0.1011E+02  0.3792E+03
      5.909  0.1581E+02  0.3801E+03
      5.965  0.1192E+02  0.3808E+03
      6.021  0.7797E+01  0.3812E+03
      6.077  0.1456E+02  0.3820E+03
      6.134  0.1129E+02  0.3827E+03
      6.190  0.1453E+02  0.3835E+03
      6.246  0.8279E+01  0.3840E+03
      6.302  0.1205E+02  0.3846E+03
      6.358  0.9866E+01  0.3852E+03
      6.414  0.5365E+01  0.3855E+03
      6.470  0.1420E+02  0.3863E+03
      6.527  0.9061E+01  0.3868E+03
      6.583  0.1328E+02  0.3875E+03
      6.639  0.7371E+01  0.3879E+03
      6.695  0.1171E+02  0.3886E+03
      6.751  0.6124E+01  0.3889E+03
      6.807  0.6801E+01  0.3893E+03
      6.863  0.9814E+01  0.3899E+03
      6.920  0.9881E+01  0.3904E+03
      6.976  0.7744E+01  0.3909E+03
      7.032  0.8471E+01  0.3913E+03
      7.088  0.8995E+01  0.3919E+03
      7.144  0.7067E+01  0.3922E+03
      7.200  0.9347E+01  0.3928E+03
      7.256  0.8373E+01  0.3932E+03
      7.313  0.8155E+01  0.3937E+03
      7.369  0.9050E+01  0.3942E+03
      7.425  0.1178E+02  0.3949E+03
      7.481  0.1143E+02  0.3955E+03
      7.537  0.1400E+02  0.3963E+03
      7.593  0.1262E+02  0.3970E+03
      7.649  0.1227E+02  0.3977E+03
      7.706  0.1570E+02  0.3986E+03
      7.762  0.1752E+02  0.3996E+03
      7.818  0.1520E+02  0.4004E+03
      7.874  0.1204E+02  0.4011E+03
      7.930  0.9051E+01  0.4016E+03
      7.986  0.1620E+02  0.4025E+03
      8.043  0.9995E+01  0.4031E+03
      8.099  0.8569E+01  0.4036E+03
      8.155  0.1318E+02  0.4043E+03
      8.211  0.1345E+02  0.4050E+03
      8.267  0.1500E+02  0.4059E+03
      8.323  0.1729E+02  0.4069E+03
      8.379  0.1333E+02  0.4076E+03
      8.436  0.1252E+02  0.4083E+03
      8.492  0.1090E+02  0.4089E+03
      8.548  0.9997E+01  0.4095E+03
      8.604  0.6438E+01  0.4098E+03
      8.660  0.1303E+02  0.4106E+03
      8.716  0.1257E+02  0.4113E+03
      8.772  0.1178E+02  0.4119E+03
      8.829  0.1249E+02  0.4126E+03
      8.885  0.1051E+02  0.4132E+03
      8.941  0.9302E+01  0.4138E+03
      8.997  0.1073E+02  0.4144E+03
      9.053  0.1073E+02  0.4150E+03
      9.109  0.8236E+01  0.4154E+03
      9.165  0.1211E+02  0.4161E+03
      9.222  0.8796E+01  0.4166E+03
      9.278  0.7625E+01  0.4170E+03
      9.334  0.6824E+01  0.4174E+03
      9.390  0.1467E+02  0.4182E+03
      9.446  0.1301E+02  0.4190E+03
      9.502  0.5257E+01  0.4193E+03
      9.558  0.9173E+01  0.4198E+03
      9.615  0.8067E+01  0.4202E+03
      9.671  0.1393E+02  0.4210E+03
      9.727  0.8456E+01  0.4215E+03
      9.783  0.8918E+01  0.4220E+03
      9.839  0.1182E+02  0.4227E+03
      9.895  0.5237E+01  0.4229E+03
      9.951  0.7387E+01  0.4234E+03
     10.008  0.2596E+01  0.4235E+03
     10.064  0.1492E+01  0.4236E+03
     10.120  0.2407E+01  0.4237E+03
     10.176  0.1287E+01  0.4238E+03
     10.232  0.2242E+01  0.4239E+03
     10.288  0.9851E+00  0.4240E+03
     10.345  0.2471E+00  0.4240E+03
     10.401  0.2971E-03  0.4240E+03
     10.457  0.0000E+00  0.4240E+03
     10.513  0.3776E-01  0.4240E+03
     10.569  0.8592E-01  0.4240E+03
     10.625  0.0000E+00  0.4240E+03
     10.681  0.0000E+00  0.4240E+03
     10.738  0.0000E+00  0.4240E+03
     10.794  0.4004E-04  0.4240E+03
     10.850  0.2057E-01  0.4240E+03
     10.906  0.0000E+00  0.4240E+03
     10.962  0.0000E+00  0.4240E+03
     11.018  0.0000E+00  0.4240E+03
     11.074  0.0000E+00  0.4240E+03
     11.131  0.0000E+00  0.4240E+03
     11.187  0.0000E+00  0.4240E+03
     11.243  0.0000E+00  0.4240E+03
     11.299  0.0000E+00  0.4240E+03
     11.355  0.0000E+00  0.4240E+03
     11.411  0.0000E+00  0.4240E+03
     11.467  0.0000E+00  0.4240E+03
     11.524  0.0000E+00  0.4240E+03
     11.580  0.0000E+00  0.4240E+03
