   32   32    1    1
  0.2102843E+02  0.8762989E-09  0.8762989E-09  0.8762989E-09  0.5000000E-15
  1.000000000000000E-004
  CAR 
 unknown system                          
  352  196  212
 
  0.0000000E+00  0.0000000E+00  0.0000000E+00  0.5787037E-03
   1       -4.4985
   2       -2.4498
   3       -2.4469
   4       -2.4469
   5       -2.4469
   6       -2.4469
   7       -2.4440
   8       -2.3173
   9       -2.3173
  10       -2.3173
  11       -2.3173
  12       -2.0679
  13       -2.0679
  14       -2.0679
  15       -1.8606
  16       -1.8606
  17       -1.8606
  18       -1.3834
  19       -1.3821
  20       -1.3821
  21       -1.3807
  22       -1.3805
  23       -1.3805
  24       -1.3805
  25       -1.3805
  26       -1.3803
  27       -1.3789
  28       -1.3789
  29       -1.3776
  30       -1.2459
  31       -1.2442
  32       -1.2442
  33       -1.2442
  34       -1.2442
  35       -1.2426
  36       -1.1915
  37       -1.1898
  38       -1.1898
  39       -1.1898
  40       -1.1898
  41       -1.1882
  42       -0.7520
  43       -0.7500
  44       -0.7500
  45       -0.7490
  46       -0.7490
  47       -0.7490
  48       -0.7490
  49       -0.7490
  50       -0.7489
  51       -0.7481
  52       -0.7481
  53       -0.7461
  54       -0.6961
  55       -0.6961
  56       -0.6943
  57       -0.6943
  58       -0.6942
  59       -0.6942
  60       -0.6942
  61       -0.6942
  62       -0.6942
  63       -0.6941
  64       -0.6923
  65       -0.6923
  66       -0.4717
  67       -0.4689
  68       -0.4687
  69       -0.4687
  70       -0.4686
  71       -0.4686
  72       -0.4685
  73       -0.4685
  74       -0.4684
  75       -0.4684
  76       -0.4683
  77       -0.4655
  78       -0.4387
  79       -0.4387
  80       -0.4387
  81       -0.4387
  82       -0.4387
  83       -0.4387
  84       -0.4387
  85       -0.4385
  86       -0.4230
  87       -0.4230
  88       -0.4229
  89        0.1289
  90        0.1305
  91        0.1306
  92        0.1306
  93        0.1306
  94        0.1322
  95        0.2375
  96        0.2381
  97        0.2390
  98        0.2390
  99        0.2395
 100        0.2395
 101        0.2395
 102        0.2395
 103        0.2399
 104        0.2399
 105        0.2409
 106        0.2414
 107        0.4492
 108        0.4492
 109        0.4512
 110        0.4512
 111        0.4513
 112        0.4513
 113        0.4513
 114        0.4514
 115        0.4515
 116        0.4515
 117        0.4534
 118        0.4534
 119        0.5637
 120        0.5650
 121        0.5650
 122        0.5651
 123        0.5651
 124        0.5664
 125        0.6188
 126        0.6189
 127        0.6316
 128        0.6316
 129        0.6335
 130        0.6338
 131        0.6339
 132        0.6339
 133        0.6339
 134        0.6340
 135        0.6341
 136        0.6343
 137        0.6363
 138        0.6363
 139        1.0014
 140        1.0024
 141        1.0024
 142        1.0024
 143        1.0024
 144        1.0034
 145        1.4113
 146        1.4113
 147        1.4114
 148        1.4461
 149        1.4461
 150        1.4461
 151        1.4461
 152        1.4461
 153        1.4461
 154        1.4461
 155        1.4461
 156        1.6643
 157        1.6646
 158        1.6646
 159        1.6646
 160        1.6646
 161        1.6646
 162        1.6656
 163        1.6657
 164        1.6657
 165        1.6657
 166        1.6657
 167        1.6659
 168        2.8708
 169        2.8718
 170        2.8718
 171        2.8724
 172        2.8728
 173        2.8728
 174        2.8728
 175        2.8728
 176        2.8732
 177        2.8738
 178        2.8738
 179        2.8747
 180        3.2756
 181        3.2757
 182        3.2757
 183        3.2757
 184        4.9135
 185        4.9135
 186        4.9136
 187        5.4433
 188        5.4433
 189        5.4433
 190        5.4433
 191        7.0736
 192        7.0737
 193        7.0738
 194        7.0738
 195        7.0738
 196        7.0739
 197        7.6460
 198        7.6460
 199        7.6460
 200        9.0308
 201        9.0308
 202        9.0336
 203        9.0336
 204        9.0340
 205        9.0340
 206        9.0340
 207        9.0340
 208        9.0343
 209        9.0343
 210        9.0371
 211        9.0371
 212       10.8141
 
  0.8333333E-01  0.0000000E+00  0.0000000E+00  0.1157407E-02
   1       -4.4816
   2       -2.6946
   3       -2.4348
   4       -2.4348
   5       -2.4348
   6       -2.4348
   7       -2.3085
   8       -2.3085
   9       -2.3085
  10       -2.3085
  11       -2.2340
  12       -2.0629
  13       -2.0576
  14       -2.0576
  15       -1.8552
  16       -1.8524
  17       -1.8524
  18       -1.4640
  19       -1.4640
  20       -1.4640
  21       -1.4639
  22       -1.4257
  23       -1.4257
  24       -1.4256
  25       -1.4256
  26       -1.3096
  27       -1.3096
  28       -1.3096
  29       -1.3095
  30       -1.2822
  31       -1.2655
  32       -1.2654
  33       -1.2373
  34       -1.2373
  35       -1.2373
  36       -1.2373
  37       -1.1852
  38       -1.1852
  39       -1.1852
  40       -1.1851
  41       -1.0958
  42       -0.8773
  43       -0.8773
  44       -0.7869
  45       -0.7868
  46       -0.7868
  47       -0.7868
  48       -0.7200
  49       -0.7192
  50       -0.7192
  51       -0.7192
  52       -0.7162
  53       -0.7162
  54       -0.7162
  55       -0.7155
  56       -0.7024
  57       -0.7024
  58       -0.7024
  59       -0.7024
  60       -0.6934
  61       -0.6934
  62       -0.6934
  63       -0.6931
  64       -0.5102
  65       -0.5101
  66       -0.5101
  67       -0.5101
  68       -0.4973
  69       -0.4973
  70       -0.4548
  71       -0.4544
  72       -0.4544
  73       -0.4544
  74       -0.4418
  75       -0.4418
  76       -0.4417
  77       -0.4416
  78       -0.4393
  79       -0.4392
  80       -0.4392
  81       -0.4389
  82       -0.4320
  83       -0.4320
  84       -0.4320
  85       -0.4320
  86       -0.4300
  87       -0.4164
  88       -0.4164
  89        0.0854
  90        0.0854
  91        0.0854
  92        0.0854
  93        0.1040
  94        0.2073
  95        0.2073
  96        0.2073
  97        0.2074
  98        0.2248
  99        0.2402
 100        0.2402
 101        0.2402
 102        0.2404
 103        0.2779
 104        0.2779
 105        0.2780
 106        0.2780
 107        0.3230
 108        0.3230
 109        0.4509
 110        0.4509
 111        0.4509
 112        0.4509
 113        0.4905
 114        0.4905
 115        0.4905
 116        0.4905
 117        0.5681
 118        0.5681
 119        0.5682
 120        0.5683
 121        0.5726
 122        0.5726
 123        0.5727
 124        0.5727
 125        0.5852
 126        0.5852
 127        0.5870
 128        0.5871
 129        0.6115
 130        0.6221
 131        0.6682
 132        0.6683
 133        0.6683
 134        0.6683
 135        0.7102
 136        0.7102
 137        0.7103
 138        0.7103
 139        0.9509
 140        1.0123
 141        1.0123
 142        1.0123
 143        1.0123
 144        1.0542
 145        1.4011
 146        1.4011
 147        1.4077
 148        1.4114
 149        1.4114
 150        1.4114
 151        1.4114
 152        1.4371
 153        1.4371
 154        1.4371
 155        1.4371
 156        1.6227
 157        1.6227
 158        1.6517
 159        1.6517
 160        1.6517
 161        1.6517
 162        1.6518
 163        1.6518
 164        1.6643
 165        1.6646
 166        1.6656
 167        1.6659
 168        2.6205
 169        2.6205
 170        2.6205
 171        2.6206
 172        2.8750
 173        2.8750
 174        2.8750
 175        2.8750
 176        3.1478
 177        3.1478
 178        3.1478
 179        3.1479
 180        3.2514
 181        3.2514
 182        3.2514
 183        3.2515
 184        4.7188
 185        4.9686
 186        4.9686
 187        5.5257
 188        5.5257
 189        5.5257
 190        5.5258
 191        6.9688
 192        6.9688
 193        6.9688
 194        6.9688
 195        7.0830
 196        7.0830
 197        7.6359
 198        7.6359
 199        7.8710
 200        8.5772
 201        8.5772
 202        9.0554
 203        9.0554
 204        9.0555
 205        9.0556
 206        9.0630
 207        9.0630
 208        9.0630
 209        9.0630
 210        9.4893
 211        9.4893
 212       10.5173
 
  0.1666667E+00  0.0000000E+00  0.0000000E+00  0.1157407E-02
   1       -4.4311
   2       -2.9573
   3       -2.3988
   4       -2.3988
   5       -2.3988
   6       -2.3988
   7       -2.2823
   8       -2.2823
   9       -2.2823
  10       -2.2823
  11       -2.0743
  12       -2.0482
  13       -2.0270
  14       -2.0270
  15       -1.8391
  16       -1.8277
  17       -1.8277
  18       -1.5624
  19       -1.5624
  20       -1.5624
  21       -1.5624
  22       -1.5313
  23       -1.5313
  24       -1.5313
  25       -1.5313
  26       -1.3715
  27       -1.3246
  28       -1.3245
  29       -1.2475
  30       -1.2475
  31       -1.2475
  32       -1.2475
  33       -1.2171
  34       -1.2171
  35       -1.2171
  36       -1.2171
  37       -1.1712
  38       -1.1712
  39       -1.1712
  40       -1.1712
  41       -1.0457
  42       -1.0457
  43       -1.0019
  44       -0.8316
  45       -0.8315
  46       -0.8315
  47       -0.8315
  48       -0.7255
  49       -0.7255
  50       -0.7255
  51       -0.7255
  52       -0.6982
  53       -0.6977
  54       -0.6977
  55       -0.6977
  56       -0.6910
  57       -0.6910
  58       -0.6910
  59       -0.6906
  60       -0.6589
  61       -0.6588
  62       -0.6588
  63       -0.6588
  64       -0.5752
  65       -0.5752
  66       -0.5752
  67       -0.5752
  68       -0.4573
  69       -0.4571
  70       -0.4571
  71       -0.4571
  72       -0.4511
  73       -0.4506
  74       -0.4506
  75       -0.4506
  76       -0.4504
  77       -0.4121
  78       -0.4121
  79       -0.4121
  80       -0.4120
  81       -0.3967
  82       -0.3967
  83       -0.3407
  84       -0.3407
  85       -0.3407
  86       -0.3407
  87       -0.2875
  88       -0.2875
  89       -0.0085
  90       -0.0085
  91       -0.0085
  92       -0.0085
  93        0.1239
  94        0.1331
  95        0.1331
  96        0.1331
  97        0.1331
  98        0.2016
  99        0.2016
 100        0.2775
 101        0.2775
 102        0.2775
 103        0.2775
 104        0.3428
 105        0.3428
 106        0.3428
 107        0.3428
 108        0.4068
 109        0.4497
 110        0.4497
 111        0.4497
 112        0.4497
 113        0.5260
 114        0.5260
 115        0.5260
 116        0.5260
 117        0.5597
 118        0.5598
 119        0.5598
 120        0.5598
 121        0.5766
 122        0.5766
 123        0.5766
 124        0.5766
 125        0.5896
 126        0.6315
 127        0.6485
 128        0.6486
 129        0.7222
 130        0.7222
 131        0.7491
 132        0.7491
 133        0.7491
 134        0.7491
 135        0.8008
 136        0.8008
 137        0.8008
 138        0.8008
 139        0.9008
 140        1.0488
 141        1.0488
 142        1.0488
 143        1.0488
 144        1.1056
 145        1.3108
 146        1.3109
 147        1.3109
 148        1.3109
 149        1.3705
 150        1.3705
 151        1.3970
 152        1.4103
 153        1.4103
 154        1.4103
 155        1.4104
 156        1.5053
 157        1.5053
 158        1.6106
 159        1.6106
 160        1.6106
 161        1.6106
 162        1.6139
 163        1.6139
 164        1.6644
 165        1.6646
 166        1.6656
 167        1.6659
 168        2.3865
 169        2.3865
 170        2.3865
 171        2.3865
 172        2.8818
 173        2.8818
 174        2.8818
 175        2.8818
 176        3.1921
 177        3.1921
 178        3.1921
 179        3.1921
 180        3.4503
 181        3.4503
 182        3.4503
 183        3.4504
 184        4.2589
 185        5.1258
 186        5.1258
 187        5.7562
 188        5.7562
 189        5.7562
 190        5.7563
 191        6.6894
 192        6.6894
 193        6.6894
 194        6.6894
 195        7.1103
 196        7.1103
 197        7.6064
 198        7.6064
 199        8.1225
 200        8.1225
 201        8.4217
 202        9.1094
 203        9.1094
 204        9.1095
 205        9.1095
 206        9.1491
 207        9.1491
 208        9.1491
 209        9.1491
 210        9.9395
 211        9.9441
 212        9.9503
 
  0.2500000E+00  0.0000000E+00  0.0000000E+00  0.1157407E-02
   1       -4.3472
   2       -3.2192
   3       -2.3399
   4       -2.3399
   5       -2.3399
   6       -2.3399
   7       -2.2389
   8       -2.2389
   9       -2.2389
  10       -2.2389
  11       -2.0252
  12       -1.9770
  13       -1.9768
  14       -1.9744
  15       -1.8123
  16       -1.7867
  17       -1.7867
  18       -1.6754
  19       -1.6754
  20       -1.6753
  21       -1.6753
  22       -1.6575
  23       -1.6574
  24       -1.6574
  25       -1.6574
  26       -1.4563
  27       -1.4113
  28       -1.4113
  29       -1.1992
  30       -1.1992
  31       -1.1916
  32       -1.1914
  33       -1.1914
  34       -1.1914
  35       -1.1853
  36       -1.1853
  37       -1.1853
  38       -1.1852
  39       -1.1483
  40       -1.1483
  41       -1.1483
  42       -1.1483
  43       -0.9095
  44       -0.8810
  45       -0.8810
  46       -0.8810
  47       -0.8810
  48       -0.7596
  49       -0.7596
  50       -0.7596
  51       -0.7596
  52       -0.6883
  53       -0.6875
  54       -0.6875
  55       -0.6875
  56       -0.6839
  57       -0.6838
  58       -0.6838
  59       -0.6831
  60       -0.6527
  61       -0.6526
  62       -0.6526
  63       -0.6526
  64       -0.6161
  65       -0.6161
  66       -0.6161
  67       -0.6160
  68       -0.4855
  69       -0.4651
  70       -0.4649
  71       -0.4649
  72       -0.4649
  73       -0.4587
  74       -0.4587
  75       -0.4587
  76       -0.4585
  77       -0.3791
  78       -0.3791
  79       -0.3791
  80       -0.3791
  81       -0.3640
  82       -0.3640
  83       -0.1753
  84       -0.1752
  85       -0.1752
  86       -0.1752
  87       -0.1112
  88       -0.1112
  89       -0.1112
  90       -0.1112
  91       -0.0660
  92       -0.0660
  93        0.0446
  94        0.0446
  95        0.0446
  96        0.0446
  97        0.0887
  98        0.0887
  99        0.1725
 100        0.3377
 101        0.3377
 102        0.3377
 103        0.3377
 104        0.4159
 105        0.4159
 106        0.4159
 107        0.4159
 108        0.4481
 109        0.4481
 110        0.4481
 111        0.4481
 112        0.4927
 113        0.4927
 114        0.4927
 115        0.4927
 116        0.5539
 117        0.5860
 118        0.5860
 119        0.5860
 120        0.5860
 121        0.6058
 122        0.6058
 123        0.6058
 124        0.6059
 125        0.6473
 126        0.6843
 127        0.7388
 128        0.7388
 129        0.8478
 130        0.8481
 131        0.8481
 132        0.8481
 133        0.8531
 134        0.8606
 135        0.8606
 136        0.9033
 137        0.9033
 138        0.9033
 139        0.9033
 140        1.1260
 141        1.1260
 142        1.1260
 143        1.1260
 144        1.1544
 145        1.1544
 146        1.1544
 147        1.1544
 148        1.1556
 149        1.3201
 150        1.3201
 151        1.3309
 152        1.3309
 153        1.3666
 154        1.3666
 155        1.3666
 156        1.3666
 157        1.3792
 158        1.5452
 159        1.5452
 160        1.5452
 161        1.5452
 162        1.5527
 163        1.5527
 164        1.6644
 165        1.6647
 166        1.6655
 167        1.6658
 168        2.1668
 169        2.1668
 170        2.1668
 171        2.1668
 172        2.8935
 173        2.8935
 174        2.8935
 175        2.8935
 176        3.1223
 177        3.1223
 178        3.1223
 179        3.1223
 180        3.6971
 181        3.7838
 182        3.7838
 183        3.7838
 184        3.7838
 185        5.3661
 186        5.3661
 187        6.1000
 188        6.1000
 189        6.1000
 190        6.1000
 191        6.3040
 192        6.3040
 193        6.3040
 194        6.3040
 195        7.1540
 196        7.1540
 197        7.5596
 198        7.5596
 199        7.6735
 200        7.6735
 201        9.1357
 202        9.1815
 203        9.1815
 204        9.1816
 205        9.1817
 206        9.2896
 207        9.2896
 208        9.2896
 209        9.2949
 210        9.3309
 211        9.3310
 212        9.3310
 
  0.3333333E+00  0.0000000E+00  0.0000000E+00  0.1157407E-02
   1       -4.2309
   2       -3.4689
   3       -2.2599
   4       -2.2599
   5       -2.2599
   6       -2.2599
   7       -2.1785
   8       -2.1785
   9       -2.1785
  10       -2.1785
  11       -1.9961
  12       -1.9286
  13       -1.9085
  14       -1.9085
  15       -1.7985
  16       -1.7985
  17       -1.7984
  18       -1.7984
  19       -1.7842
  20       -1.7841
  21       -1.7841
  22       -1.7841
  23       -1.7753
  24       -1.7292
  25       -1.7292
  26       -1.5354
  27       -1.5139
  28       -1.5139
  29       -1.3370
  30       -1.3370
  31       -1.1460
  32       -1.1457
  33       -1.1457
  34       -1.1457
  35       -1.1415
  36       -1.1415
  37       -1.1415
  38       -1.1412
  39       -1.1172
  40       -1.1172
  41       -1.1172
  42       -1.1172
  43       -0.9329
  44       -0.9329
  45       -0.9329
  46       -0.9329
  47       -0.8205
  48       -0.7978
  49       -0.7978
  50       -0.7978
  51       -0.7978
  52       -0.7307
  53       -0.7307
  54       -0.7307
  55       -0.7307
  56       -0.6837
  57       -0.6832
  58       -0.6832
  59       -0.6832
  60       -0.6766
  61       -0.6765
  62       -0.6765
  63       -0.6760
  64       -0.5844
  65       -0.5844
  66       -0.5844
  67       -0.5844
  68       -0.5325
  69       -0.4837
  70       -0.4837
  71       -0.4837
  72       -0.4837
  73       -0.4464
  74       -0.4464
  75       -0.4464
  76       -0.4463
  77       -0.3336
  78       -0.3336
  79       -0.3336
  80       -0.3336
  81       -0.3185
  82       -0.3185
  83       -0.2083
  84       -0.2083
  85       -0.2083
  86       -0.2083
  87       -0.0452
  88       -0.0452
  89       -0.0452
  90       -0.0451
  91       -0.0149
  92       -0.0149
  93        0.0312
  94        0.0313
  95        0.0313
  96        0.0313
  97        0.1654
  98        0.1654
  99        0.2370
 100        0.4073
 101        0.4073
 102        0.4073
 103        0.4073
 104        0.4468
 105        0.4468
 106        0.4468
 107        0.4469
 108        0.4704
 109        0.4704
 110        0.4704
 111        0.4704
 112        0.4828
 113        0.4828
 114        0.4828
 115        0.4828
 116        0.5056
 117        0.5916
 118        0.5916
 119        0.5916
 120        0.5916
 121        0.6121
 122        0.6121
 123        0.6122
 124        0.6122
 125        0.6689
 126        0.8077
 127        0.8453
 128        0.8453
 129        0.9516
 130        0.9516
 131        0.9516
 132        0.9516
 133        0.9564
 134        0.9565
 135        0.9565
 136        0.9565
 137        0.9977
 138        0.9977
 139        1.0146
 140        1.0146
 141        1.0146
 142        1.0146
 143        1.0513
 144        1.1197
 145        1.1197
 146        1.2034
 147        1.2468
 148        1.2470
 149        1.2470
 150        1.2470
 151        1.2511
 152        1.2512
 153        1.3070
 154        1.3071
 155        1.3071
 156        1.3071
 157        1.3549
 158        1.4595
 159        1.4595
 160        1.4595
 161        1.4595
 162        1.4704
 163        1.4704
 164        1.6645
 165        1.6648
 166        1.6654
 167        1.6658
 168        1.9586
 169        1.9586
 170        1.9586
 171        1.9586
 172        2.9105
 173        2.9106
 174        2.9106
 175        2.9106
 176        3.0585
 177        3.0585
 178        3.0585
 179        3.0585
 180        3.1121
 181        4.1499
 182        4.1499
 183        4.1499
 184        4.1499
 185        5.6691
 186        5.6691
 187        5.8682
 188        5.8682
 189        5.8682
 190        5.8682
 191        6.5258
 192        6.5258
 193        6.5258
 194        6.5258
 195        7.2116
 196        7.2116
 197        7.2340
 198        7.2340
 199        7.4987
 200        7.4987
 201        8.7137
 202        8.7137
 203        8.7137
 204        8.7137
 205        9.2679
 206        9.2679
 207        9.2679
 208        9.2679
 209        9.4803
 210        9.4803
 211        9.4803
 212        9.4803
 
  0.4166667E+00  0.0000000E+00  0.0000000E+00  0.1157407E-02
   1       -4.0829
   2       -3.6992
   3       -2.1615
   4       -2.1614
   5       -2.1614
   6       -2.1614
   7       -2.1017
   8       -2.1017
   9       -2.1017
  10       -2.1017
  11       -1.9649
  12       -1.9253
  13       -1.9251
  14       -1.9251
  15       -1.9251
  16       -1.9208
  17       -1.9028
  18       -1.9028
  19       -1.9028
  20       -1.9027
  21       -1.8243
  22       -1.8243
  23       -1.7285
  24       -1.6554
  25       -1.6554
  26       -1.6219
  27       -1.6219
  28       -1.6078
  29       -1.4591
  30       -1.4591
  31       -1.1078
  32       -1.1074
  33       -1.1074
  34       -1.1074
  35       -1.1028
  36       -1.1028
  37       -1.1028
  38       -1.1024
  39       -1.0786
  40       -1.0786
  41       -1.0786
  42       -1.0786
  43       -0.9847
  44       -0.9847
  45       -0.9847
  46       -0.9847
  47       -0.8288
  48       -0.8288
  49       -0.8288
  50       -0.8288
  51       -0.7967
  52       -0.7967
  53       -0.7967
  54       -0.7967
  55       -0.7366
  56       -0.6796
  57       -0.6789
  58       -0.6789
  59       -0.6789
  60       -0.6743
  61       -0.6742
  62       -0.6742
  63       -0.6735
  64       -0.5910
  65       -0.5567
  66       -0.5567
  67       -0.5567
  68       -0.5567
  69       -0.5059
  70       -0.5059
  71       -0.5059
  72       -0.5059
  73       -0.4148
  74       -0.4147
  75       -0.4147
  76       -0.4147
  77       -0.2936
  78       -0.2936
  79       -0.2936
  80       -0.2935
  81       -0.2763
  82       -0.2762
  83       -0.2762
  84       -0.2762
  85       -0.2603
  86       -0.2603
  87       -0.1304
  88       -0.1304
  89       -0.1304
  90       -0.1304
  91       -0.1080
  92       -0.1080
  93        0.2591
  94        0.2591
  95        0.2591
  96        0.2591
  97        0.3083
  98        0.4042
  99        0.4042
 100        0.4467
 101        0.4469
 102        0.4469
 103        0.4469
 104        0.4470
 105        0.4569
 106        0.4569
 107        0.4569
 108        0.4569
 109        0.4764
 110        0.4764
 111        0.4764
 112        0.4764
 113        0.5353
 114        0.5353
 115        0.5353
 116        0.5353
 117        0.5856
 118        0.5857
 119        0.5859
 120        0.5859
 121        0.5880
 122        0.5880
 123        0.5882
 124        0.5883
 125        0.6962
 126        0.7325
 127        0.7325
 128        0.7325
 129        0.7325
 130        0.7661
 131        0.8879
 132        0.8879
 133        0.9572
 134        0.9572
 135        1.0529
 136        1.0529
 137        1.0529
 138        1.0529
 139        1.1304
 140        1.1304
 141        1.1307
 142        1.1307
 143        1.1308
 144        1.1308
 145        1.1654
 146        1.1654
 147        1.2334
 148        1.2335
 149        1.2335
 150        1.2335
 151        1.2481
 152        1.3245
 153        1.3583
 154        1.3583
 155        1.3583
 156        1.3583
 157        1.3704
 158        1.3704
 159        1.4001
 160        1.4001
 161        1.4001
 162        1.4001
 163        1.4930
 164        1.6645
 165        1.6650
 166        1.6653
 167        1.6657
 168        1.7607
 169        1.7607
 170        1.7607
 171        1.7607
 172        2.5378
 173        2.9341
 174        2.9341
 175        2.9341
 176        2.9341
 177        3.0062
 178        3.0062
 179        3.0062
 180        3.0063
 181        4.5476
 182        4.5476
 183        4.5476
 184        4.5476
 185        5.4173
 186        5.4173
 187        5.4173
 188        5.4173
 189        6.0179
 190        6.0179
 191        6.8079
 192        6.8079
 193        7.0123
 194        7.0123
 195        7.0123
 196        7.0123
 197        7.2796
 198        7.2796
 199        7.4284
 200        7.4284
 201        8.1154
 202        8.1154
 203        8.1154
 204        8.1154
 205        9.3709
 206        9.3709
 207        9.3709
 208        9.3709
 209        9.6411
 210        9.6415
 211        9.6477
 212        9.7040
 
  0.5000000E+00  0.0000000E+00  0.0000000E+00  0.5787037E-03
   1       -3.9063
   2       -3.9035
   3       -2.0512
   4       -2.0490
   5       -2.0487
   6       -2.0487
   7       -2.0476
   8       -2.0476
   9       -2.0474
  10       -2.0453
  11       -2.0107
  12       -2.0107
  13       -2.0103
  14       -2.0101
  15       -2.0086
  16       -2.0084
  17       -2.0080
  18       -2.0080
  19       -1.9377
  20       -1.9364
  21       -1.7288
  22       -1.7281
  23       -1.7266
  24       -1.7259
  25       -1.6734
  26       -1.6715
  27       -1.5664
  28       -1.5664
  29       -1.5643
  30       -1.5643
  31       -1.0898
  32       -1.0884
  33       -1.0883
  34       -1.0883
  35       -1.0883
  36       -1.0883
  37       -1.0882
  38       -1.0868
  39       -1.0353
  40       -1.0350
  41       -1.0350
  42       -1.0341
  43       -1.0337
  44       -1.0328
  45       -1.0328
  46       -1.0326
  47       -0.8339
  48       -0.8338
  49       -0.8338
  50       -0.8334
  51       -0.8330
  52       -0.8326
  53       -0.8326
  54       -0.8324
  55       -0.6776
  56       -0.6760
  57       -0.6760
  58       -0.6757
  59       -0.6753
  60       -0.6750
  61       -0.6750
  62       -0.6736
  63       -0.6598
  64       -0.6591
  65       -0.5310
  66       -0.5308
  67       -0.5308
  68       -0.5308
  69       -0.5304
  70       -0.5304
  71       -0.5302
  72       -0.5300
  73       -0.3642
  74       -0.3642
  75       -0.3641
  76       -0.3634
  77       -0.3630
  78       -0.3625
  79       -0.3624
  80       -0.3624
  81       -0.2099
  82       -0.2094
  83       -0.2094
  84       -0.2083
  85       -0.2079
  86       -0.2069
  87       -0.2069
  88       -0.2064
  89       -0.1910
  90       -0.1910
  91       -0.1891
  92       -0.1891
  93        0.3792
  94        0.3803
  95        0.4492
  96        0.4492
  97        0.4495
  98        0.4496
  99        0.4498
 100        0.4499
 101        0.4502
 102        0.4502
 103        0.4955
 104        0.4957
 105        0.4960
 106        0.4960
 107        0.4965
 108        0.4965
 109        0.4967
 110        0.4972
 111        0.5369
 112        0.5377
 113        0.5377
 114        0.5378
 115        0.5383
 116        0.5385
 117        0.5385
 118        0.5394
 119        0.5693
 120        0.5695
 121        0.5701
 122        0.5701
 123        0.5703
 124        0.5703
 125        0.5709
 126        0.5711
 127        0.6461
 128        0.6461
 129        0.6475
 130        0.6475
 131        0.7280
 132        0.7296
 133        1.0657
 134        1.0658
 135        1.0661
 136        1.0662
 137        1.1468
 138        1.1473
 139        1.1473
 140        1.1476
 141        1.1482
 142        1.1484
 143        1.1484
 144        1.1490
 145        1.2456
 146        1.2456
 147        1.2467
 148        1.2467
 149        1.2471
 150        1.2472
 151        1.2481
 152        1.2481
 153        1.2556
 154        1.2556
 155        1.2563
 156        1.2563
 157        1.2885
 158        1.2888
 159        1.5726
 160        1.5731
 161        1.5731
 162        1.5733
 163        1.5737
 164        1.5740
 165        1.5740
 166        1.5744
 167        1.6645
 168        1.6651
 169        1.6651
 170        1.6657
 171        1.9933
 172        1.9933
 173        2.9634
 174        2.9644
 175        2.9649
 176        2.9649
 177        2.9658
 178        2.9658
 179        2.9663
 180        2.9673
 181        4.9710
 182        4.9710
 183        4.9720
 184        4.9725
 185        4.9730
 186        4.9735
 187        4.9744
 188        4.9744
 189        6.3992
 190        6.3992
 191        6.4017
 192        6.4017
 193        7.3533
 194        7.3536
 195        7.3536
 196        7.3538
 197        7.5432
 198        7.5432
 199        7.5450
 200        7.5454
 201        7.5456
 202        7.5460
 203        7.5478
 204        7.5478
 205        9.4920
 206        9.4939
 207        9.4939
 208        9.4940
 209        9.4943
 210        9.4943
 211        9.4943
 212        9.4963
 
  0.0000000E+00  0.8333333E-01  0.0000000E+00  0.2314815E-02
   1       -4.4816
   2       -2.6946
   3       -2.4370
   4       -2.4348
   5       -2.4348
   6       -2.4326
   7       -2.3086
   8       -2.3085
   9       -2.3085
  10       -2.3085
  11       -2.2340
  12       -2.0629
  13       -2.0576
  14       -2.0576
  15       -1.8552
  16       -1.8524
  17       -1.8524
  18       -1.4657
  19       -1.4640
  20       -1.4639
  21       -1.4623
  22       -1.4266
  23       -1.4258
  24       -1.4255
  25       -1.4247
  26       -1.3110
  27       -1.3096
  28       -1.3096
  29       -1.3082
  30       -1.2822
  31       -1.2654
  32       -1.2654
  33       -1.2385
  34       -1.2373
  35       -1.2373
  36       -1.2361
  37       -1.1865
  38       -1.1852
  39       -1.1851
  40       -1.1838
  41       -1.0959
  42       -0.8773
  43       -0.8772
  44       -0.7881
  45       -0.7868
  46       -0.7868
  47       -0.7855
  48       -0.7209
  49       -0.7192
  50       -0.7192
  51       -0.7182
  52       -0.7169
  53       -0.7168
  54       -0.7156
  55       -0.7151
  56       -0.7035
  57       -0.7024
  58       -0.7022