 vasp.4.6.28 25Jul05 complex 
 executed on             LinuxIFC date 2017.01.11  06:09:54
 running on    4 nodes
 distr:  one band on    1 nodes,    4 groups


--------------------------------------------------------------------------------------------------------


 INCAR:
 POTCAR:   PAW_PBE Au 06Sep2000                   
 POTCAR:   PAW_PBE Au 06Sep2000                   
   VRHFIN =Au: s1d10                                                            
   LEXCH  = PE                                                                  
   EATOM  =   926.0567 eV,   68.0632 Ry                                         
                                                                                
   TITEL  = PAW_PBE Au 06Sep2000                                                
   LULTRA =        F    use ultrasoft PP ?                                      
   IUNSCR =        1    unscreen: 0-lin 1-nonlin 2-no                           
   RPACOR =    2.330    partial core radius                                     
   POMASS =  196.966; ZVAL   =   11.000    mass and valenz                      
   RCORE  =    2.500    outmost cutoff radius                                   
   RWIGS  =    2.840; RWIGS  =    1.503    wigner-seitz radius (au A)           
   ENMAX  =  229.948; ENMIN  =  172.461 eV                                      
   RCLOC  =    1.964    cutoff for local pot                                    
   LCOR   =        T    correct aug charges                                     
   LPAW   =        T    paw PP                                                  
   EAUG   =  356.670                                                            
   DEXC   =    -.025                                                            
   RMAX   =    3.041    core radius for proj-oper                               
   RAUG   =    1.300    factor for augmentation sphere                          
   RDEP   =    2.598    radius for radial grids                                 
   QCUT   =   -4.111; QGAM   =    8.222    optimization parameters              
                                                                                
   Description                                                                  
     l     E      TYP  RCUT    TYP  RCUT                                        
     2   .000     23  2.500                                                     
     2   .000     23  2.500                                                     
     0   .000     23  2.500                                                     
     0   .000     23  2.500                                                     
     1  -.200     23  2.500                                                     
     1   .000     23  2.500                                                     
     3   .000      7   .000                                                     
  local pseudopotential read in
  partial core-charges read in
  atomic valenz-charges read in
  non local Contribution for L=           2  read in
    real space projection operators read in
  non local Contribution for L=           2  read in
    real space projection operators read in
  non local Contribution for L=           0  read in
    real space projection operators read in
  non local Contribution for L=           0  read in
    real space projection operators read in
  non local Contribution for L=           1  read in
    real space projection operators read in
  non local Contribution for L=           1  read in
    real space projection operators read in
    PAW grid and wavefunctions read in
 
   number of l-projection  operators is LMAX  =           6
   number of lm-projection operators is LMMAX =          18
 

 ----------------------------------------------------------------------------- 
|                                                                             |
|  ADVICE TO THIS USER RUNNING 'VASP/VAMP'   (HEAR YOUR MASTER'S VOICE ...):  |
|                                                                             |
|      You have a (more or less) 'large supercell' and for larger cells       |
|      it might be more efficient to use real space projection operators      |
|      So try LREAL= Auto  in the INCAR   file.                               |
|      Mind: If you want to do an extremely accurate calculations keep the    |
|      reciprocal projection scheme          (i.e. LREAL=.FALSE.)             |
|                                                                             |
 ----------------------------------------------------------------------------- 

 PAW_PBE Au 06Sep2000                   :
 energy of atom  1       EATOM= -926.0567
 kinetic energy error for atom=    0.0008 (will be added to EATOM!!)
 
 EXHCAR: internal setup
 exchange correlation table for  LEXCH =        8
   RHO(1)=    0.500       N(1)  =     2000
   RHO(2)=  100.500       N(2)  =     4000
 
 POSCAR: Au                                      
  positions in direct lattice
  No initial velocities read in
 


--------------------------------------------------------------------------------------------------------


 ion  position               nearest neighbor table
   1  0.001  0.000  0.000-   9 3.09  11 3.09  17 3.09  21 3.09  25 3.10  27 3.10  29 3.10  31 3.10
                            10 3.11  12 3.11  18 3.11  22 3.11
   2  0.500  0.000  0.000-   9 3.10  10 3.10  11 3.10  12 3.10  17 3.10  18 3.10  21 3.10  22 3.10
                            26 3.10  28 3.10  30 3.10  32 3.10
   3  0.000  0.500  0.000-   9 3.10  10 3.10  11 3.10  12 3.10  19 3.10  20 3.10  23 3.10  24 3.10
                            25 3.10  27 3.10  29 3.10  31 3.10
   4  0.500  0.500  0.000-   9 3.10  10 3.10  11 3.10  12 3.10  19 3.10  20 3.10  23 3.10  24 3.10
                            26 3.10  28 3.10  30 3.10  32 3.10
   5  0.000  0.000  0.500-  13 3.10  14 3.10  15 3.10  16 3.10  17 3.10  18 3.10  21 3.10  22 3.10
                            25 3.10  27 3.10  29 3.10  31 3.10
   6  0.500  0.000  0.500-  13 3.10  14 3.10  15 3.10  16 3.10  17 3.10  18 3.10  21 3.10  22 3.10
                            26 3.10  28 3.10  30 3.10  32 3.10
   7  0.000  0.500  0.500-  13 3.10  14 3.10  15 3.10  16 3.10  19 3.10  20 3.10  23 3.10  24 3.10
                            25 3.10  27 3.10  29 3.10  31 3.10
   8  0.500  0.500  0.500-  13 3.10  14 3.10  15 3.10  16 3.10  19 3.10  20 3.10  23 3.10  24 3.10
                            26 3.10  28 3.10  30 3.10  32 3.10
   9  0.250  0.250  0.000-   1 3.09   2 3.10   3 3.10   4 3.10  17 3.10  19 3.10  21 3.10  23 3.10
                            25 3.10  26 3.10  29 3.10  30 3.10
  10  0.750  0.250  0.000-   2 3.10   3 3.10   4 3.10  18 3.10  20 3.10  22 3.10  24 3.10  25 3.10
                            26 3.10  29 3.10  30 3.10   1 3.11
  11  0.250  0.750  0.000-   1 3.09   2 3.10   3 3.10   4 3.10  17 3.10  19 3.10  21 3.10  23 3.10
                            27 3.10  28 3.10  31 3.10  32 3.10
  12  0.750  0.750  0.000-   2 3.10   3 3.10   4 3.10  18 3.10  20 3.10  22 3.10  24 3.10  27 3.10
                            28 3.10  31 3.10  32 3.10   1 3.11
  13  0.250  0.250  0.500-   5 3.10   6 3.10   7 3.10   8 3.10  17 3.10  19 3.10  21 3.10  23 3.10
                            25 3.10  26 3.10  29 3.10  30 3.10
  14  0.750  0.250  0.500-   5 3.10   6 3.10   7 3.10   8 3.10  18 3.10  20 3.10  22 3.10  24 3.10
                            25 3.10  26 3.10  29 3.10  30 3.10
  15  0.250  0.750  0.500-   5 3.10   6 3.10   7 3.10   8 3.10  17 3.10  19 3.10  21 3.10  23 3.10
                            27 3.10  28 3.10  31 3.10  32 3.10
  16  0.750  0.750  0.500-   5 3.10   6 3.10   7 3.10   8 3.10  18 3.10  20 3.10  22 3.10  24 3.10
                            27 3.10  28 3.10  31 3.10  32 3.10
  17  0.250  0.000  0.250-   1 3.09   2 3.10   5 3.10   6 3.10   9 3.10  11 3.10  13 3.10  15 3.10
                            25 3.10  26 3.10  27 3.10  28 3.10
  18  0.750  0.000  0.250-   2 3.10   5 3.10   6 3.10  10 3.10  12 3.10  14 3.10  16 3.10  25 3.10
                            26 3.10  27 3.10  28 3.10   1 3.11
  19  0.250  0.500  0.250-   3 3.10   4 3.10   7 3.10   8 3.10   9 3.10  11 3.10  13 3.10  15 3.10
                            25 3.10  26 3.10  27 3.10  28 3.10
  20  0.750  0.500  0.250-   3 3.10   4 3.10   7 3.10   8 3.10  10 3.10  12 3.10  14 3.10  16 3.10
                            25 3.10  26 3.10  27 3.10  28 3.10
  21  0.250  0.000  0.750-   1 3.09   2 3.10   5 3.10   6 3.10   9 3.10  11 3.10  13 3.10  15 3.10
                            29 3.10  30 3.10  31 3.10  32 3.10
  22  0.750  0.000  0.750-   2 3.10   5 3.10   6 3.10  10 3.10  12 3.10  14 3.10  16 3.10  29 3.10
                            30 3.10  31 3.10  32 3.10   1 3.11
  23  0.250  0.500  0.750-   3 3.10   4 3.10   7 3.10   8 3.10   9 3.10  11 3.10  13 3.10  15 3.10
                            29 3.10  30 3.10  31 3.10  32 3.10
  24  0.750  0.500  0.750-   3 3.10   4 3.10   7 3.10   8 3.10  10 3.10  12 3.10  14 3.10  16 3.10
                            29 3.10  30 3.10  31 3.10  32 3.10
  25  0.000  0.250  0.250-   3 3.10   5 3.10   7 3.10   9 3.10  10 3.10  13 3.10  14 3.10  17 3.10
                            18 3.10  19 3.10  20 3.10   1 3.10
  26  0.500  0.250  0.250-   2 3.10   4 3.10   6 3.10   8 3.10   9 3.10  10 3.10  13 3.10  14 3.10
                            17 3.10  18 3.10  19 3.10  20 3.10
  27  0.000  0.750  0.250-   3 3.10   5 3.10   7 3.10  11 3.10  12 3.10  15 3.10  16 3.10  17 3.10
                            18 3.10  19 3.10  20 3.10   1 3.10
  28  0.500  0.750  0.250-   2 3.10   4 3.10   6 3.10   8 3.10  11 3.10  12 3.10  15 3.10  16 3.10
                            17 3.10  18 3.10  19 3.10  20 3.10
  29  0.000  0.250  0.750-   3 3.10   5 3.10   7 3.10   9 3.10  10 3.10  13 3.10  14 3.10  21 3.10
                            22 3.10  23 3.10  24 3.10   1 3.10
  30  0.500  0.250  0.750-   2 3.10   4 3.10   6 3.10   8 3.10   9 3.10  10 3.10  13 3.10  14 3.10
                            21 3.10  22 3.10  23 3.10  24 3.10
  31  0.000  0.750  0.750-   3 3.10   5 3.10   7 3.10  11 3.10  12 3.10  15 3.10  16 3.10  21 3.10
                            22 3.10  23 3.10  24 3.10   1 3.10
  32  0.500  0.750  0.750-   2 3.10   4 3.10   6 3.10   8 3.10  11 3.10  12 3.10  15 3.10  16 3.10
                            21 3.10  22 3.10  23 3.10  24 3.10
 
  LATTYP: Found a simple cubic cell.
 ALAT       =     8.7629889949
  
  Lattice vectors:
  
 A1 = (   8.7629889949,   0.0000000000,   0.0000000000)
 A2 = (   0.0000000000,   8.7629889949,   0.0000000000)
 A3 = (   0.0000000000,   0.0000000000,   8.7629889949)
 Subroutine PRICEL returns:
 Original cell was already a primitive cell.
 

Analysis of symmetry for initial positions (statically):

 Routine SETGRP: Setting up the symmetry group for a 
 simple cubic supercell.


 Subroutine GETGRP returns: Found  8 space group operations
 (whereof  8 operations were pure point group operations)
 out of a pool of 48 trial point group operations.


The static configuration has the point symmetry C_4v.

Analysis of symmetry for dynamics (positions and initial velocities):

 Subroutine DYNSYM returns: Found  8 space group operations
 (whereof  8 operations were pure point group operations)
 out of a pool of  8 trial space group operations
 (whereof  8 operations were pure point group operations)
 and found also     1 'primitive' translations


The dynamic configuration has the point symmetry C_4v.
 
 
 KPOINTS: Automatic mesh                          

Automatic generation of k-mesh.
 
 Subroutine IBZKPT returns following result:
 ===========================================
 
 Found    196 irreducible k-points:
 
 Following reciprocal coordinates:
            Coordinates               Weight
  0.000000  0.000000  0.000000      1.000000
  0.083333  0.000000  0.000000      2.000000
  0.166667  0.000000  0.000000      2.000000
  0.250000  0.000000  0.000000      2.000000
  0.333333  0.000000  0.000000      2.000000
  0.416667  0.000000  0.000000      2.000000
  0.500000  0.000000  0.000000      1.000000
  0.000000  0.083333  0.000000      4.000000
  0.083333  0.083333  0.000000      8.000000
  0.166667  0.083333  0.000000      8.000000
  0.250000  0.083333  0.000000      8.000000
  0.333333  0.083333  0.000000      8.000000
  0.416667  0.083333  0.000000      8.000000
  0.500000  0.083333  0.000000      4.000000
  0.000000  0.166667  0.000000      4.000000
  0.083333  0.166667  0.000000      8.000000
  0.166667  0.166667  0.000000      8.000000
  0.250000  0.166667  0.000000      8.000000
  0.333333  0.166667  0.000000      8.000000
  0.416667  0.166667  0.000000      8.000000
  0.500000  0.166667  0.000000      4.000000
  0.000000  0.250000  0.000000      4.000000
  0.083333  0.250000  0.000000      8.000000
  0.166667  0.250000  0.000000      8.000000
  0.250000  0.250000  0.000000      8.000000
  0.333333  0.250000  0.000000      8.000000
  0.416667  0.250000  0.000000      8.000000
  0.500000  0.250000  0.000000      4.000000
  0.000000  0.333333  0.000000      4.000000
  0.083333  0.333333  0.000000      8.000000
  0.166667  0.333333  0.000000      8.000000
  0.250000  0.333333  0.000000      8.000000
  0.333333  0.333333  0.000000      8.000000
  0.416667  0.333333  0.000000      8.000000
  0.500000  0.333333  0.000000      4.000000
  0.000000  0.416667  0.000000      4.000000
  0.083333  0.416667  0.000000      8.000000
  0.166667  0.416667  0.000000      8.000000
  0.250000  0.416667  0.000000      8.000000
  0.333333  0.416667  0.000000      8.000000
  0.416667  0.416667  0.000000      8.000000
  0.500000  0.416667  0.000000      4.000000
  0.000000  0.500000  0.000000      2.000000
  0.083333  0.500000  0.000000      4.000000
  0.166667  0.500000  0.000000      4.000000
  0.250000  0.500000  0.000000      4.000000
  0.333333  0.500000  0.000000      4.000000
  0.416667  0.500000  0.000000      4.000000
  0.500000  0.500000  0.000000      2.000000
  0.000000  0.083333  0.083333      4.000000
  0.083333  0.083333  0.083333      8.000000
  0.166667  0.083333  0.083333      8.000000
  0.250000  0.083333  0.083333      8.000000
  0.333333  0.083333  0.083333      8.000000
  0.416667  0.083333  0.083333      8.000000
  0.500000  0.083333  0.083333      4.000000
  0.000000  0.166667  0.083333      8.000000
  0.083333  0.166667  0.083333     16.000000
  0.166667  0.166667  0.083333     16.000000
  0.250000  0.166667  0.083333     16.000000
  0.333333  0.166667  0.083333     16.000000
  0.416667  0.166667  0.083333     16.000000
  0.500000  0.166667  0.083333      8.000000
  0.000000  0.250000  0.083333      8.000000
  0.083333  0.250000  0.083333     16.000000
  0.166667  0.250000  0.083333     16.000000
  0.250000  0.250000  0.083333     16.000000
  0.333333  0.250000  0.083333     16.000000
  0.416667  0.250000  0.083333     16.000000
  0.500000  0.250000  0.083333      8.000000
  0.000000  0.333333  0.083333      8.000000
  0.083333  0.333333  0.083333     16.000000
  0.166667  0.333333  0.083333     16.000000
  0.250000  0.333333  0.083333     16.000000
  0.333333  0.333333  0.083333     16.000000
  0.416667  0.333333  0.083333     16.000000
  0.500000  0.333333  0.083333      8.000000
  0.000000  0.416667  0.083333      8.000000
  0.083333  0.416667  0.083333     16.000000
  0.166667  0.416667  0.083333     16.000000
  0.250000  0.416667  0.083333     16.000000
  0.333333  0.416667  0.083333     16.000000
  0.416667  0.416667  0.083333     16.000000
  0.500000  0.416667  0.083333      8.000000
  0.000000  0.500000  0.083333      4.000000
  0.083333  0.500000  0.083333      8.000000
  0.166667  0.500000  0.083333      8.000000
  0.250000  0.500000  0.083333      8.000000
  0.333333  0.500000  0.083333      8.000000
  0.416667  0.500000  0.083333      8.000000
  0.500000  0.500000  0.083333      4.000000
  0.000000  0.166667  0.166667      4.000000
  0.083333  0.166667  0.166667      8.000000
  0.166667  0.166667  0.166667      8.000000
  0.250000  0.166667  0.166667      8.000000
  0.333333  0.166667  0.166667      8.000000
  0.416667  0.166667  0.166667      8.000000
  0.500000  0.166667  0.166667      4.000000
  0.000000  0.250000  0.166667      8.000000
  0.083333  0.250000  0.166667     16.000000
  0.166667  0.250000  0.166667     16.000000
  0.250000  0.250000  0.166667     16.000000
  0.333333  0.250000  0.166667     16.000000
  0.416667  0.250000  0.166667     16.000000
  0.500000  0.250000  0.166667      8.000000
  0.000000  0.333333  0.166667      8.000000
  0.083333  0.333333  0.166667     16.000000
  0.166667  0.333333  0.166667     16.000000
  0.250000  0.333333  0.166667     16.000000
  0.333333  0.333333  0.166667     16.000000
  0.416667  0.333333  0.166667     16.000000
  0.500000  0.333333  0.166667      8.000000
  0.000000  0.416667  0.166667      8.000000
  0.083333  0.416667  0.166667     16.000000
  0.166667  0.416667  0.166667     16.000000
  0.250000  0.416667  0.166667     16.000000
  0.333333  0.416667  0.166667     16.000000
  0.416667  0.416667  0.166667     16.000000
  0.500000  0.416667  0.166667      8.000000
  0.000000  0.500000  0.166667      4.000000
  0.083333  0.500000  0.166667      8.000000
  0.166667  0.500000  0.166667      8.000000
  0.250000  0.500000  0.166667      8.000000
  0.333333  0.500000  0.166667      8.000000
  0.416667  0.500000  0.166667      8.000000
  0.500000  0.500000  0.166667      4.000000
  0.000000  0.250000  0.250000      4.000000
  0.083333  0.250000  0.250000      8.000000
  0.166667  0.250000  0.250000      8.000000
  0.250000  0.250000  0.250000      8.000000
  0.333333  0.250000  0.250000      8.000000
  0.416667  0.250000  0.250000      8.000000
  0.500000  0.250000  0.250000      4.000000
  0.000000  0.333333  0.250000      8.000000
  0.083333  0.333333  0.250000     16.000000
  0.166667  0.333333  0.250000     16.000000
  0.250000  0.333333  0.250000     16.000000
  0.333333  0.333333  0.250000     16.000000
  0.416667  0.333333  0.250000     16.000000
  0.500000  0.333333  0.250000      8.000000
  0.000000  0.416667  0.250000      8.000000
  0.083333  0.416667  0.250000     16.000000
  0.166667  0.416667  0.250000     16.000000
  0.250000  0.416667  0.250000     16.000000
  0.333333  0.416667  0.250000     16.000000
  0.416667  0.416667  0.250000     16.000000
  0.500000  0.416667  0.250000      8.000000
  0.000000  0.500000  0.250000      4.000000
  0.083333  0.500000  0.250000      8.000000
  0.166667  0.500000  0.250000      8.000000
  0.250000  0.500000  0.250000      8.000000
  0.333333  0.500000  0.250000      8.000000
  0.416667  0.500000  0.250000      8.000000
  0.500000  0.500000  0.250000      4.000000
  0.000000  0.333333  0.333333      4.000000
  0.083333  0.333333  0.333333      8.000000
  0.166667  0.333333  0.333333      8.000000
  0.250000  0.333333  0.333333      8.000000
  0.333333  0.333333  0.333333      8.000000
  0.416667  0.333333  0.333333      8.000000
  0.500000  0.333333  0.333333      4.000000
  0.000000  0.416667  0.333333      8.000000
  0.083333  0.416667  0.333333     16.000000
  0.166667  0.416667  0.333333     16.000000
  0.250000  0.416667  0.333333     16.000000
  0.333333  0.416667  0.333333     16.000000
  0.416667  0.416667  0.333333     16.000000
  0.500000  0.416667  0.333333      8.000000
  0.000000  0.500000  0.333333      4.000000
  0.083333  0.500000  0.333333      8.000000
  0.166667  0.500000  0.333333      8.000000
  0.250000  0.500000  0.333333      8.000000
  0.333333  0.500000  0.333333      8.000000
  0.416667  0.500000  0.333333      8.000000
  0.500000  0.500000  0.333333      4.000000
  0.000000  0.416667  0.416667      4.000000
  0.083333  0.416667  0.416667      8.000000
  0.166667  0.416667  0.416667      8.000000
  0.250000  0.416667  0.416667      8.000000
  0.333333  0.416667  0.416667      8.000000
  0.416667  0.416667  0.416667      8.000000
  0.500000  0.416667  0.416667      4.000000
  0.000000  0.500000  0.416667      4.000000
  0.083333  0.500000  0.416667      8.000000
  0.166667  0.500000  0.416667      8.000000
  0.250000  0.500000  0.416667      8.000000
  0.333333  0.500000  0.416667      8.000000
  0.416667  0.500000  0.416667      8.000000
  0.500000  0.500000  0.416667      4.000000
  0.000000  0.500000  0.500000      1.000000
  0.083333  0.500000  0.500000      2.000000
  0.166667  0.500000  0.500000      2.000000
  0.250000  0.500000  0.500000      2.000000
  0.333333  0.500000  0.500000      2.000000
  0.416667  0.500000  0.500000      2.000000
  0.500000  0.500000  0.500000      1.000000
 
 Following cartesian coordinates:
            Coordinates               Weight
  0.000000  0.000000  0.000000      1.000000
  0.009510  0.000000  0.000000      2.000000
  0.019019  0.000000  0.000000      2.000000
  0.028529  0.000000  0.000000      2.000000
  0.038039  0.000000  0.000000      2.000000
  0.047548  0.000000  0.000000      2.000000
  0.057058  0.000000  0.000000      1.000000
  0.000000  0.009510  0.000000      4.000000
  0.009510  0.009510  0.000000      8.000000
  0.019019  0.009510  0.000000      8.000000
  0.028529  0.009510  0.000000      8.000000
  0.038039  0.009510  0.000000      8.000000
  0.047548  0.009510  0.000000      8.000000
  0.057058  0.009510  0.000000      4.000000
  0.000000  0.019019  0.000000      4.000000
  0.009510  0.019019  0.000000      8.000000
  0.019019  0.019019  0.000000      8.000000
  0.028529  0.019019  0.000000      8.000000
  0.038039  0.019019  0.000000      8.000000
  0.047548  0.019019  0.000000      8.000000
  0.057058  0.019019  0.000000      4.000000
  0.000000  0.028529  0.000000      4.000000
  0.009510  0.028529  0.000000      8.000000
  0.019019  0.028529  0.000000      8.000000
  0.028529  0.028529  0.000000      8.000000
  0.038039  0.028529  0.000000      8.000000
  0.047548  0.028529  0.000000      8.000000
  0.057058  0.028529  0.000000      4.000000
  0.000000  0.038039  0.000000      4.000000
  0.009510  0.038039  0.000000      8.000000
  0.019019  0.038039  0.000000      8.000000
  0.028529  0.038039  0.000000      8.000000
  0.038039  0.038039  0.000000      8.000000
  0.047548  0.038039  0.000000      8.000000
  0.057058  0.038039  0.000000      4.000000
  0.000000  0.047548  0.000000      4.000000
  0.009510  0.047548  0.000000      8.000000
  0.019019  0.047548  0.000000      8.000000
  0.028529  0.047548  0.000000      8.000000
  0.038039  0.047548  0.000000      8.000000
  0.047548  0.047548  0.000000      8.000000
  0.057058  0.047548  0.000000      4.000000
  0.000000  0.057058  0.000000      2.000000
  0.009510  0.057058  0.000000      4.000000
  0.019019  0.057058  0.000000      4.000000
  0.028529  0.057058  0.000000      4.000000
  0.038039  0.057058  0.000000      4.000000
  0.047548  0.057058  0.000000      4.000000
  0.057058  0.057058  0.000000      2.000000
  0.000000  0.009510  0.009510      4.000000
  0.009510  0.009510  0.009510      8.000000
  0.019019  0.009510  0.009510      8.000000
  0.028529  0.009510  0.009510      8.000000
  0.038039  0.009510  0.009510      8.000000
  0.047548  0.009510  0.009510      8.000000
  0.057058  0.009510  0.009510      4.000000
  0.000000  0.019019  0.009510      8.000000
  0.009510  0.019019  0.009510     16.000000
  0.019019  0.019019  0.009510     16.000000
  0.028529  0.019019  0.009510     16.000000
  0.038039  0.019019  0.009510     16.000000
  0.047548  0.019019  0.009510     16.000000
  0.057058  0.019019  0.009510      8.000000
  0.000000  0.028529  0.009510      8.000000
  0.009510  0.028529  0.009510     16.000000
  0.019019  0.028529  0.009510     16.000000
  0.028529  0.028529  0.009510     16.000000
  0.038039  0.028529  0.009510     16.000000
  0.047548  0.028529  0.009510     16.000000
  0.057058  0.028529  0.009510      8.000000
  0.000000  0.038039  0.009510      8.000000
  0.009510  0.038039  0.009510     16.000000
  0.019019  0.038039  0.009510     16.000000
  0.028529  0.038039  0.009510     16.000000
  0.038039  0.038039  0.009510     16.000000
  0.047548  0.038039  0.009510     16.000000
  0.057058  0.038039  0.009510      8.000000
  0.000000  0.047548  0.009510      8.000000
  0.009510  0.047548  0.009510     16.000000
  0.019019  0.047548  0.009510     16.000000
  0.028529  0.047548  0.009510     16.000000
  0.038039  0.047548  0.009510     16.000000
  0.047548  0.047548  0.009510     16.000000
  0.057058  0.047548  0.009510      8.000000
  0.000000  0.057058  0.009510      4.000000
  0.009510  0.057058  0.009510      8.000000
  0.019019  0.057058  0.009510      8.000000
  0.028529  0.057058  0.009510      8.000000
  0.038039  0.057058  0.009510      8.000000
  0.047548  0.057058  0.009510      8.000000
  0.057058  0.057058  0.009510      4.000000
  0.000000  0.019019  0.019019      4.000000
  0.009510  0.019019  0.019019      8.000000
  0.019019  0.019019  0.019019      8.000000
  0.028529  0.019019  0.019019      8.000000
  0.038039  0.019019  0.019019      8.000000
  0.047548  0.019019  0.019019      8.000000
  0.057058  0.019019  0.019019      4.000000
  0.000000  0.028529  0.019019      8.000000
  0.009510  0.028529  0.019019     16.000000
  0.019019  0.028529  0.019019     16.000000
  0.028529  0.028529  0.019019     16.000000
  0.038039  0.028529  0.019019     16.000000
  0.047548  0.028529  0.019019     16.000000
  0.057058  0.028529  0.019019      8.000000
  0.000000  0.038039  0.019019      8.000000
  0.009510  0.038039  0.019019     16.000000
  0.019019  0.038039  0.019019     16.000000
  0.028529  0.038039  0.019019     16.000000
  0.038039  0.038039  0.019019     16.000000
  0.047548  0.038039  0.019019     16.000000
  0.057058  0.038039  0.019019      8.000000
  0.000000  0.047548  0.019019      8.000000
  0.009510  0.047548  0.019019     16.000000
  0.019019  0.047548  0.019019     16.000000
  0.028529  0.047548  0.019019     16.000000
  0.038039  0.047548  0.019019     16.000000
  0.047548  0.047548  0.019019     16.000000
  0.057058  0.047548  0.019019      8.000000
  0.000000  0.057058  0.019019      4.000000
  0.009510  0.057058  0.019019      8.000000
  0.019019  0.057058  0.019019      8.000000
  0.028529  0.057058  0.019019      8.000000
  0.038039  0.057058  0.019019      8.000000
  0.047548  0.057058  0.019019      8.000000
  0.057058  0.057058  0.019019      4.000000
  0.000000  0.028529  0.028529      4.000000
  0.009510  0.028529  0.028529      8.000000
  0.019019  0.028529  0.028529      8.000000
  0.028529  0.028529  0.028529      8.000000
  0.038039  0.028529  0.028529      8.000000
  0.047548  0.028529  0.028529      8.000000
  0.057058  0.028529  0.028529      4.000000
  0.000000  0.038039  0.028529      8.000000
  0.009510  0.038039  0.028529     16.000000
  0.019019  0.038039  0.028529     16.000000
  0.028529  0.038039  0.028529     16.000000
  0.038039  0.038039  0.028529     16.000000
  0.047548  0.038039  0.028529     16.000000
  0.057058  0.038039  0.028529      8.000000
  0.000000  0.047548  0.028529      8.000000
  0.009510  0.047548  0.028529     16.000000
  0.019019  0.047548  0.028529     16.000000
  0.028529  0.047548  0.028529     16.000000
  0.038039  0.047548  0.028529     16.000000
  0.047548  0.047548  0.028529     16.000000
  0.057058  0.047548  0.028529      8.000000
  0.000000  0.057058  0.028529      4.000000
  0.009510  0.057058  0.028529      8.000000
  0.019019  0.057058  0.028529      8.000000
  0.028529  0.057058  0.028529      8.000000
  0.038039  0.057058  0.028529      8.000000
  0.047548  0.057058  0.028529      8.000000
  0.057058  0.057058  0.028529      4.000000
  0.000000  0.038039  0.038039      4.000000
  0.009510  0.038039  0.038039      8.000000
  0.019019  0.038039  0.038039      8.000000
  0.028529  0.038039  0.038039      8.000000
  0.038039  0.038039  0.038039      8.000000
  0.047548  0.038039  0.038039      8.000000
  0.057058  0.038039  0.038039      4.000000
  0.000000  0.047548  0.038039      8.000000
  0.009510  0.047548  0.038039     16.000000
  0.019019  0.047548  0.038039     16.000000
  0.028529  0.047548  0.038039     16.000000
  0.038039  0.047548  0.038039     16.000000
  0.047548  0.047548  0.038039     16.000000
  0.057058  0.047548  0.038039      8.000000
  0.000000  0.057058  0.038039      4.000000
  0.009510  0.057058  0.038039      8.000000
  0.019019  0.057058  0.038039      8.000000
  0.028529  0.057058  0.038039      8.000000
  0.038039  0.057058  0.038039      8.000000
  0.047548  0.057058  0.038039      8.000000
  0.057058  0.057058  0.038039      4.000000
  0.000000  0.047548  0.047548      4.000000
  0.009510  0.047548  0.047548      8.000000
  0.019019  0.047548  0.047548      8.000000
  0.028529  0.047548  0.047548      8.000000
  0.038039  0.047548  0.047548      8.000000
  0.047548  0.047548  0.047548      8.000000
  0.057058  0.047548  0.047548      4.000000
  0.000000  0.057058  0.047548      4.000000
  0.009510  0.057058  0.047548      8.000000
  0.019019  0.057058  0.047548      8.000000
  0.028529  0.057058  0.047548      8.000000
  0.038039  0.057058  0.047548      8.000000
  0.047548  0.057058  0.047548      8.000000
  0.057058  0.057058  0.047548      4.000000
  0.000000  0.057058  0.057058      1.000000
  0.009510  0.057058  0.057058      2.000000
  0.019019  0.057058  0.057058      2.000000
  0.028529  0.057058  0.057058      2.000000
  0.038039  0.057058  0.057058      2.000000
  0.047548  0.057058  0.057058      2.000000
  0.057058  0.057058  0.057058      1.000000
 


--------------------------------------------------------------------------------------------------------




 Dimension of arrays:
   k-Points           NKPTS =    196   number of bands    NBANDS=    212
   number of dos      NEDOS =    301   number of ions     NIONS =     32
   non local maximal  LDIM  =      6   non local SUM 2l+1 LMDIM =     18
   total plane-waves  NPLWV = 512000
   max r-space proj   IRMAX =      1   max aug-charges    IRDMAX= 372395
   dimension x,y,z NGX =    80 NGY =   80 NGZ =   80
   dimension x,y,z NGXF=   160 NGYF=  160 NGZF=  160
   support grid    NGXF=   320 NGYF=  320 NGZF=  320
   ions per type =              32
 NGX,Y,Z   is equivalent  to a cutoff of  15.18, 15.18, 15.18 a.u.
 NGXF,Y,Z  is equivalent  to a cutoff of  30.35, 30.35, 30.35 a.u.


 I would recommend the setting:
   dimension x,y,z NGX =    78 NGY =   78 NGZ =   78
 SYSTEM =  unknown system                          
 POSCAR =  Au                                      

 Startparameter for this run:
   NWRITE =      2    write-flag & timer
   PREC   = accura    medium, high low
   ISTART =      0    job   : 0-new  1-cont  2-samecut
   ICHARG =      2    charge: 1-file 2-atom 10-const
   ISPIN  =      1    spin polarized calculation?
   LNONCOLLINEAR =      F non collinear calculations
   LSORBIT =      F    spin-orbit coupling
   INIWAV =      1    electr: 0-lowe 1-rand  2-diag
   LASPH  =      F    aspherical Exc in radial PAW
   METAGGA=      F    non-selfconsistent MetaGGA calc.

 Electronic Relaxation 1
   ENCUT  =  750.0 eV  55.12 Ry    7.42 a.u.  19.57 19.57 19.57*2*pi/ulx,y,z
   ENINI  =  750.0     initial cutoff
   ENAUG  =  356.7 eV  augmentation charge cutoff
   NELM   =     60;   NELMIN=  2; NELMDL= -5     # of ELM steps 
   EDIFF  = 0.1E-07   stopping-criterion for ELM
   LREAL  =      F    real-space projection
   LCOMPAT=      F    compatible to vasp.4.4
   LREAL_COMPAT= F    compatible to vasp.4.5.1-3
   GGA_COMPAT  = T    GGA compatible to vasp.4.4-vasp.4.6
   LMAXPAW     = -100 max onsite density
   LMAXMIX     =    2 max onsite mixed and CHGCAR
   VOSKOWN=      0    Vosko Wilk Nusair interpolation
   ROPT   =    0.00000
 Ionic relaxation
   EDIFFG = 0.1E-06   stopping-criterion for IOM
   NSW    =      0    number of steps for IOM
   NBLOCK =      1;   KBLOCK =      1    inner block; outer block 
   IBRION =     -1    ionic relax: 0-MD 1-quasi-New 2-CG
   NFREE  =      0    steps in history (QN), initial steepest desc. (CG)
   ISIF   =      2    stress and relaxation
   IWAVPR =     10    prediction:  0-non 1-charg 2-wave 3-comb
   ISYM   =      2    0-nonsym 1-usesym 2-fastsym
   LCORR  =      T    Harris-Foulkes like correction to forces

   POTIM  =   0.50    time-step for ionic-motion
   TEIN   =    0.0    initial temperature
   TEBEG  =    0.0;   TEEND  =   0.0 temperature during run
   SMASS  =  -3.00    Nose mass-parameter (am)
   estimated Nose-frequenzy (Omega)   =  0.10E-29 period in steps =****** mass=  -0.175E-26a.u.
   NPACO  =    256;   APACO  = 16.0  distance and # of slots for P.C.
   PSTRESS=    0.0 pullay stress

  Mass of Ions in am
   POMASS = 196.97
  Ionic Valenz
   ZVAL   =  11.00
  Atomic Wigner-Seitz radii
   RWIGS  =  -1.00
   NELECT =     352.0000    total number of electrons
   NUPDOWN=      -1.0000    fix difference up-down

 DOS related values:
   EMIN   =  10.00;   EMAX   =-10.00  energy-range for DOS
   ISMEAR =     0;   SIGMA  =   0.01  broadening in eV -4-tet -1-fermi 0-gaus

 Electronic relaxation 2 (details)
   IALGO  =     38    algorithm
   LDIAG  =      T    sub-space diagonalisation
   IMIX   =      4    mixing-type and parameters
     AMIX     =   0.40;   BMIX     =  1.00
     AMIX_MAG =   1.60;   BMIX_MAG =  1.00
     AMIN     =   0.10
     WC   =   100.;   INIMIX=   1;  MIXPRE=   1

 Intra band minimization:
   WEIMIN = 0.0000     energy-eigenvalue tresh-hold
   EBREAK =  0.12E-10  absolut break condition
   DEPER  =   0.30     relativ break condition  

   TIME   =   0.10     timestep for ELM

  volume/ion in A,a.u.               =      21.03       141.91
  Fermi-wavevector in a.u.,eV,Ry     =   1.319077 23.673646  1.739964

 Second variation
   LSECVAR=     F    do a second variation
 
 Write flags
   LWAVE  =      F    write WAVECAR
   LCHARG =      F    write CHGCAR
   LVTOT  =      F    write LOCPOT, local potential
   LELF   =      F    write electronic localiz. function (ELF)
   LORBIT =      0    0 simple, 1 ext, 2 COOP (PROOUT)


 Dipole corrections
   IDIPOL =      0    1-x, 2-y, 3-z
   LDIPOL =      F    correct potential



--------------------------------------------------------------------------------------------------------


 Static calculation
 charge density will be updated during run
 non-spin polarized calculation
 Variant of blocked Davidson
 Davidson routine will perform the subspace rotation
 performe sub-space diagonalisation
    after iterative eigenvector-optimisation
 modified Broyden-mixing scheme, WC =      100.0
 initial mixing is a Kerker type mixing with AMIX =  0.4000 and BMIX =      1.0000
 Hartree-type preconditioning will be used
 using additional bands           36
 reciprocal scheme for non local part
 use partial core corrections
 calculate Harris-corrections to forces 
   (improved forces if not selfconsistent)
 use gradient corrections 
 use of overlap-Matrix (Vanderbilt PP)
 Gauss-broadening in eV      SIGMA  =   0.01


--------------------------------------------------------------------------------------------------------


  energy-cutoff  :      750.00
  volume of cell :      672.91
      direct lattice vectors                 reciprocal lattice vectors
     8.762988995  0.000000000  0.000000000     0.114116314  0.000000000  0.000000000
     0.000000000  8.762988995  0.000000000     0.000000000  0.114116314  0.000000000
     0.000000000  0.000000000  8.762988995     0.000000000  0.000000000  0.114116314

  length of vectors
     8.762988995  8.762988995  8.762988995     0.114116314  0.114116314  0.114116314


 
 k-points in units of 2pi/SCALE and weight: Automatic mesh                          
   0.00000000  0.00000000  0.00000000       0.001
   0.00950969  0.00000000  0.00000000       0.001
   0.01901939  0.00000000  0.00000000       0.001
   0.02852908  0.00000000  0.00000000       0.001
   0.03803877  0.00000000  0.00000000       0.001
   0.04754846  0.00000000  0.00000000       0.001
   0.05705816  0.00000000  0.00000000       0.001
   0.00000000  0.00950969  0.00000000       0.002
   0.00950969  0.00950969  0.00000000       0.005
   0.01901939  0.00950969  0.00000000       0.005
   0.02852908  0.00950969  0.00000000       0.005
   0.03803877  0.00950969  0.00000000       0.005
   0.04754846  0.00950969  0.00000000       0.005
   0.05705816  0.00950969  0.00000000       0.002
   0.00000000  0.01901939  0.00000000       0.002
   0.00950969  0.01901939  0.00000000       0.005
   0.01901939  0.01901939  0.00000000       0.005
   0.02852908  0.01901939  0.00000000       0.005
   0.03803877  0.01901939  0.00000000       0.005
   0.04754846  0.01901939  0.00000000       0.005
   0.05705816  0.01901939  0.00000000       0.002
   0.00000000  0.02852908  0.00000000       0.002
   0.00950969  0.02852908  0.00000000       0.005
   0.01901939  0.02852908  0.00000000       0.005
   0.02852908  0.02852908  0.00000000       0.005
   0.03803877  0.02852908  0.00000000       0.005
   0.04754846  0.02852908  0.00000000       0.005
   0.05705816  0.02852908  0.00000000       0.002
   0.00000000  0.03803877  0.00000000       0.002
   0.00950969  0.03803877  0.00000000       0.005
   0.01901939  0.03803877  0.00000000       0.005
   0.02852908  0.03803877  0.00000000       0.005
   0.03803877  0.03803877  0.00000000       0.005
   0.04754846  0.03803877  0.00000000       0.005
   0.05705816  0.03803877  0.00000000       0.002
   0.00000000  0.04754846  0.00000000       0.002
   0.00950969  0.04754846  0.00000000       0.005
   0.01901939  0.04754846  0.00000000       0.005
   0.02852908  0.04754846  0.00000000       0.005
   0.03803877  0.04754846  0.00000000       0.005
   0.04754846  0.04754846  0.00000000       0.005
   0.05705816  0.04754846  0.00000000       0.002
   0.00000000  0.05705816  0.00000000       0.001
   0.00950969  0.05705816  0.00000000       0.002
   0.01901939  0.05705816  0.00000000       0.002
   0.02852908  0.05705816  0.00000000       0.002
   0.03803877  0.05705816  0.00000000       0.002
   0.04754846  0.05705816  0.00000000       0.002
   0.05705816  0.05705816  0.00000000       0.001
   0.00000000  0.00950969  0.00950969       0.002
   0.00950969  0.00950969  0.00950969       0.005
   0.01901939  0.00950969  0.00950969       0.005
   0.02852908  0.00950969  0.00950969       0.005
   0.03803877  0.00950969  0.00950969       0.005
   0.04754846  0.00950969  0.00950969       0.005
   0.05705816  0.00950969  0.00950969       0.002
   0.00000000  0.01901939  0.00950969       0.005
   0.00950969  0.01901939  0.00950969       0.009
   0.01901939  0.01901939  0.00950969       0.009
   0.02852908  0.01901939  0.00950969       0.009
   0.03803877  0.01901939  0.00950969       0.009
   0.04754846  0.01901939  0.00950969       0.009
   0.05705816  0.01901939  0.00950969       0.005
   0.00000000  0.02852908  0.00950969       0.005
   0.00950969  0.02852908  0.00950969       0.009
   0.01901939  0.02852908  0.00950969       0.009
   0.02852908  0.02852908  0.00950969       0.009
   0.03803877  0.02852908  0.00950969       0.009
   0.04754846  0.02852908  0.00950969       0.009
   0.05705816  0.02852908  0.00950969       0.005
   0.00000000  0.03803877  0.00950969       0.005
   0.00950969  0.03803877  0.00950969       0.009
   0.01901939  0.03803877  0.00950969       0.009
   0.02852908  0.03803877  0.00950969       0.009
   0.03803877  0.03803877  0.00950969       0.009
   0.04754846  0.03803877  0.00950969       0.009
   0.05705816  0.03803877  0.00950969       0.005
   0.00000000  0.04754846  0.00950969       0.005
   0.00950969  0.04754846  0.00950969       0.009
   0.01901939  0.04754846  0.00950969       0.009
   0.02852908  0.04754846  0.00950969       0.009
   0.03803877  0.04754846  0.00950969       0.009
   0.04754846  0.04754846  0.00950969       0.009
   0.05705816  0.04754846  0.00950969       0.005
   0.00000000  0.05705816  0.00950969       0.002
   0.00950969  0.05705816  0.00950969       0.005
   0.01901939  0.05705816  0.00950969       0.005
   0.02852908  0.05705816  0.00950969       0.005
   0.03803877  0.05705816  0.00950969       0.005
   0.04754846  0.05705816  0.00950969       0.005
   0.05705816  0.05705816  0.00950969       0.002
   0.00000000  0.01901939  0.01901939       0.002
   0.00950969  0.01901939  0.01901939       0.005
   0.01901939  0.01901939  0.01901939       0.005
   0.02852908  0.01901939  0.01901939       0.005
   0.03803877  0.01901939  0.01901939       0.005
   0.04754846  0.01901939  0.01901939       0.005
   0.05705816  0.01901939  0.01901939       0.002
   0.00000000  0.02852908  0.01901939       0.005
   0.00950969  0.02852908  0.01901939       0.009
   0.01901939  0.02852908  0.01901939       0.009
   0.02852908  0.02852908  0.01901939       0.009
   0.03803877  0.02852908  0.01901939       0.009
   0.04754846  0.02852908  0.01901939       0.009
   0.05705816  0.02852908  0.01901939       0.005
   0.00000000  0.03803877  0.01901939       0.005
   0.00950969  0.03803877  0.01901939       0.009
   0.01901939  0.03803877  0.01901939       0.009
   0.02852908  0.03803877  0.01901939       0.009
   0.03803877  0.03803877  0.01901939       0.009
   0.04754846  0.03803877  0.01901939       0.009
   0.05705816  0.03803877  0.01901939       0.005
   0.00000000  0.04754846  0.01901939       0.005
   0.00950969  0.04754846  0.01901939       0.009
   0.01901939  0.04754846  0.01901939       0.009
   0.02852908  0.04754846  0.01901939       0.009
   0.03803877  0.04754846  0.01901939       0.009
   0.04754846  0.04754846  0.01901939       0.009
   0.05705816  0.04754846  0.01901939       0.005
   0.00000000  0.05705816  0.01901939       0.002
   0.00950969  0.05705816  0.01901939       0.005
   0.01901939  0.05705816  0.01901939       0.005
   0.02852908  0.05705816  0.01901939       0.005
   0.03803877  0.05705816  0.01901939       0.005
   0.04754846  0.05705816  0.01901939       0.005
   0.05705816  0.05705816  0.01901939       0.002
   0.00000000  0.02852908  0.02852908       0.002
   0.00950969  0.02852908  0.02852908       0.005
   0.01901939  0.02852908  0.02852908       0.005
   0.02852908  0.02852908  0.02852908       0.005
   0.03803877  0.02852908  0.02852908       0.005
   0.04754846  0.02852908  0.02852908       0.005
   0.05705816  0.02852908  0.02852908       0.002
   0.00000000  0.03803877  0.02852908       0.005
   0.00950969  0.03803877  0.02852908       0.009
   0.01901939  0.03803877  0.02852908       0.009
   0.02852908  0.03803877  0.02852908       0.009
   0.03803877  0.03803877  0.02852908       0.009
   0.04754846  0.03803877  0.02852908       0.009
   0.05705816  0.03803877  0.02852908       0.005
   0.00000000  0.04754846  0.02852908       0.005
   0.00950969  0.04754846  0.02852908       0.009
   0.01901939  0.04754846  0.02852908       0.009
   0.02852908  0.04754846  0.02852908       0.009
   0.03803877  0.04754846  0.02852908       0.009
   0.04754846  0.04754846  0.02852908       0.009
   0.05705816  0.04754846  0.02852908       0.005
   0.00000000  0.05705816  0.02852908       0.002
   0.00950969  0.05705816  0.02852908       0.005
   0.01901939  0.05705816  0.02852908       0.005
   0.02852908  0.05705816  0.02852908       0.005
   0.03803877  0.05705816  0.02852908       0.005
   0.04754846  0.05705816  0.02852908       0.005
   0.05705816  0.05705816  0.02852908       0.002
   0.00000000  0.03803877  0.03803877       0.002
   0.00950969  0.03803877  0.03803877       0.005
   0.01901939  0.03803877  0.03803877       0.005
   0.02852908  0.03803877  0.03803877       0.005
   0.03803877  0.03803877  0.03803877       0.005
   0.04754846  0.03803877  0.03803877       0.005
   0.05705816  0.03803877  0.03803877       0.002
   0.00000000  0.04754846  0.03803877       0.005
   0.00950969  0.04754846  0.03803877       0.009
   0.01901939  0.04754846  0.03803877       0.009
   0.02852908  0.04754846  0.03803877       0.009
   0.03803877  0.04754846  0.03803877       0.009
   0.04754846  0.04754846  0.03803877       0.009
   0.05705816  0.04754846  0.03803877       0.005
   0.00000000  0.05705816  0.03803877       0.002
   0.00950969  0.05705816  0.03803877       0.005
   0.01901939  0.05705816  0.03803877       0.005
   0.02852908  0.05705816  0.03803877       0.005
   0.03803877  0.05705816  0.03803877       0.005
   0.04754846  0.05705816  0.03803877       0.005
   0.05705816  0.05705816  0.03803877       0.002
   0.00000000  0.04754846  0.04754846       0.002
   0.00950969  0.04754846  0.04754846       0.005
   0.01901939  0.04754846  0.04754846       0.005
   0.02852908  0.04754846  0.04754846       0.005
   0.03803877  0.04754846  0.04754846       0.005
   0.04754846  0.04754846  0.04754846       0.005
   0.05705816  0.04754846  0.04754846       0.002
   0.00000000  0.05705816  0.04754846       0.002
   0.00950969  0.05705816  0.04754846       0.005
   0.01901939  0.05705816  0.04754846       0.005
   0.02852908  0.05705816  0.04754846       0.005
   0.03803877  0.05705816  0.04754846       0.005
   0.04754846  0.05705816  0.04754846       0.005
   0.05705816  0.05705816  0.04754846       0.002
   0.00000000  0.05705816  0.05705816       0.001
   0.00950969  0.05705816  0.05705816       0.001
   0.01901939  0.05705816  0.05705816       0.001
   0.02852908  0.05705816  0.05705816       0.001
   0.03803877  0.05705816  0.05705816       0.001
   0.04754846  0.05705816  0.05705816       0.001
   0.05705816  0.05705816  0.05705816       0.001
 
 k-points in reciprocal lattice and weights: Automatic mesh                          
   0.00000000  0.00000000  0.00000000       0.001
   0.08333333  0.00000000  0.00000000       0.001
   0.16666667  0.00000000  0.00000000       0.001
   0.25000000  0.00000000  0.00000000       0.001
   0.33333333  0.00000000  0.00000000       0.001
   0.41666667  0.00000000  0.00000000       0.001
   0.50000000  0.00000000  0.00000000       0.001
   0.00000000  0.08333333  0.00000000       0.002
   0.08333333  0.08333333  0.00000000       0.005
   0.16666667  0.08333333  0.00000000       0.005
   0.25000000  0.08333333  0.00000000       0.005
   0.33333333  0.08333333  0.00000000       0.005
   0.41666667  0.08333333  0.00000000       0.005
   0.50000000  0.08333333  0.00000000       0.002
   0.00000000  0.16666667  0.00000000       0.002
   0.08333333  0.16666667  0.00000000       0.005
   0.16666667  0.16666667  0.00000000       0.005
   0.25000000  0.16666667  0.00000000       0.005
   0.33333333  0.16666667  0.00000000       0.005
   0.41666667  0.16666667  0.00000000       0.005
   0.50000000  0.16666667  0.00000000       0.002
   0.00000000  0.25000000  0.00000000       0.002
   0.08333333  0.25000000  0.00000000       0.005
   0.16666667  0.25000000  0.00000000       0.005
   0.25000000  0.25000000  0.00000000       0.005
   0.33333333  0.25000000  0.00000000       0.005
   0.41666667  0.25000000  0.00000000       0.005
   0.50000000  0.25000000  0.00000000       0.002
   0.00000000  0.33333333  0.00000000       0.002
   0.08333333  0.33333333  0.00000000       0.005
   0.16666667  0.33333333  0.00000000       0.005
   0.25000000  0.33333333  0.00000000       0.005
   0.33333333  0.33333333  0.00000000       0.005
   0.41666667  0.33333333  0.00000000       0.005
   0.50000000  0.33333333  0.00000000       0.002
   0.00000000  0.41666667  0.00000000       0.002
   0.08333333  0.41666667  0.00000000       0.005
   0.16666667  0.41666667  0.00000000       0.005
   0.25000000  0.41666667  0.00000000       0.005
   0.33333333  0.41666667  0.00000000       0.005
   0.41666667  0.41666667  0.00000000       0.005
   0.50000000  0.41666667  0.00000000       0.002
   0.00000000  0.50000000  0.00000000       0.001
   0.08333333  0.50000000  0.00000000       0.002
   0.16666667  0.50000000  0.00000000       0.002
   0.25000000  0.50000000  0.00000000       0.002
   0.33333333  0.50000000  0.00000000       0.002
   0.41666667  0.50000000  0.00000000       0.002
   0.50000000  0.50000000  0.00000000       0.001
   0.00000000  0.08333333  0.08333333       0.002
   0.08333333  0.08333333  0.08333333       0.005
   0.16666667  0.08333333  0.08333333       0.005
   0.25000000  0.08333333  0.08333333       0.005
   0.33333333  0.08333333  0.08333333       0.005
   0.41666667  0.08333333  0.08333333       0.005
   0.50000000  0.08333333  0.08333333       0.002
   0.00000000  0.16666667  0.08333333       0.005
   0.08333333  0.16666667  0.08333333       0.009
   0.16666667  0.16666667  0.08333333       0.009
   0.25000000  0.16666667  0.08333333       0.009
   0.33333333  0.16666667  0.08333333       0.009
   0.41666667  0.16666667  0.08333333       0.009
   0.50000000  0.16666667  0.08333333       0.005
   0.00000000  0.25000000  0.08333333       0.005
   0.08333333  0.25000000  0.08333333       0.009
   0.16666667  0.25000000  0.08333333       0.009
   0.25000000  0.25000000  0.08333333       0.009
   0.33333333  0.25000000  0.08333333       0.009
   0.41666667  0.25000000  0.08333333       0.009
   0.50000000  0.25000000  0.08333333       0.005
   0.00000000  0.33333333  0.08333333       0.005
   0.08333333  0.33333333  0.08333333       0.009
   0.16666667  0.33333333  0.08333333       0.009
   0.25000000  0.33333333  0.08333333       0.009
   0.33333333  0.33333333  0.08333333       0.009
   0.41666667  0.33333333  0.08333333       0.009
   0.50000000  0.33333333  0.08333333       0.005
   0.00000000  0.41666667  0.08333333       0.005
   0.08333333  0.41666667  0.08333333       0.009
   0.16666667  0.41666667  0.08333333       0.009
   0.25000000  0.41666667  0.08333333       0.009
   0.33333333  0.41666667  0.08333333       0.009
   0.41666667  0.41666667  0.08333333       0.009
   0.50000000  0.41666667  0.08333333       0.005
   0.00000000  0.50000000  0.08333333       0.002
   0.08333333  0.50000000  0.08333333       0.005
   0.16666667  0.50000000  0.08333333       0.005
   0.25000000  0.50000000  0.08333333       0.005
   0.33333333  0.50000000  0.08333333       0.005
   0.41666667  0.50000000  0.08333333       0.005
   0.50000000  0.50000000  0.08333333       0.002
   0.00000000  0.16666667  0.16666667       0.002
   0.08333333  0.16666667  0.16666667       0.005
   0.16666667  0.16666667  0.16666667       0.005
   0.25000000  0.16666667  0.16666667       0.005
   0.33333333  0.16666667  0.16666667       0.005
   0.41666667  0.16666667  0.16666667       0.005
   0.50000000  0.16666667  0.16666667       0.002
   0.00000000  0.25000000  0.16666667       0.005
   0.08333333  0.25000000  0.16666667       0.009
   0.16666667  0.25000000  0.16666667       0.009
   0.25000000  0.25000000  0.16666667       0.009
   0.33333333  0.25000000  0.16666667       0.009
   0.41666667  0.25000000  0.16666667       0.009
   0.50000000  0.25000000  0.16666667       0.005
   0.00000000  0.33333333  0.16666667       0.005
   0.08333333  0.33333333  0.16666667       0.009
   0.16666667  0.33333333  0.16666667       0.009
   0.25000000  0.33333333  0.16666667       0.009
   0.33333333  0.33333333  0.16666667       0.009
   0.41666667  0.33333333  0.16666667       0.009
   0.50000000  0.33333333  0.16666667       0.005
   0.00000000  0.41666667  0.16666667       0.005
   0.08333333  0.41666667  0.16666667       0.009
   0.16666667  0.41666667  0.16666667       0.009
   0.25000000  0.41666667  0.16666667       0.009
   0.33333333  0.41666667  0.16666667       0.009
   0.41666667  0.41666667  0.16666667       0.009
   0.50000000  0.41666667  0.16666667       0.005
   0.00000000  0.50000000  0.16666667       0.002
   0.08333333  0.50000000  0.16666667       0.005
   0.16666667  0.50000000  0.16666667       0.005
   0.25000000  0.50000000  0.16666667       0.005
   0.33333333  0.50000000  0.16666667       0.005
   0.41666667  0.50000000  0.16666667       0.005
   0.50000000  0.50000000  0.16666667       0.002
   0.00000000  0.25000000  0.25000000       0.002
   0.08333333  0.25000000  0.25000000       0.005
   0.16666667  0.25000000  0.25000000       0.005
   0.25000000  0.25000000  0.25000000       0.005
   0.33333333  0.25000000  0.25000000       0.005
   0.41666667  0.25000000  0.25000000       0.005
   0.50000000  0.25000000  0.25000000       0.002
   0.00000000  0.33333333  0.25000000       0.005
   0.08333333  0.33333333  0.25000000       0.009
   0.16666667  0.33333333  0.25000000       0.009
   0.25000000  0.33333333  0.25000000       0.009
   0.33333333  0.33333333  0.25000000       0.009
   0.41666667  0.33333333  0.25000000       0.009
   0.50000000  0.33333333  0.25000000       0.005
   0.00000000  0.41666667  0.25000000       0.005
   0.08333333  0.41666667  0.25000000       0.009
   0.16666667  0.41666667  0.25000000       0.009
   0.25000000  0.41666667  0.25000000       0.009
   0.33333333  0.41666667  0.25000000       0.009
   0.41666667  0.41666667  0.25000000       0.009
   0.50000000  0.41666667  0.25000000       0.005
   0.00000000  0.50000000  0.25000000       0.002
   0.08333333  0.50000000  0.25000000       0.005
   0.16666667  0.50000000  0.25000000       0.005
   0.25000000  0.50000000  0.25000000       0.005
   0.33333333  0.50000000  0.25000000       0.005
   0.41666667  0.50000000  0.25000000       0.005
   0.50000000  0.50000000  0.25000000       0.002
   0.00000000  0.33333333  0.33333333       0.002
   0.08333333  0.33333333  0.33333333       0.005
   0.16666667  0.33333333  0.33333333       0.005
   0.25000000  0.33333333  0.33333333       0.005
   0.33333333  0.33333333  0.33333333       0.005
   0.41666667  0.33333333  0.33333333       0.005
   0.50000000  0.33333333  0.33333333       0.002
   0.00000000  0.41666667  0.33333333       0.005
   0.08333333  0.41666667  0.33333333       0.009
   0.16666667  0.41666667  0.33333333       0.009
   0.25000000  0.41666667  0.33333333       0.009
   0.33333333  0.41666667  0.33333333       0.009
   0.41666667  0.41666667  0.33333333       0.009
   0.50000000  0.41666667  0.33333333       0.005
   0.00000000  0.50000000  0.33333333       0.002
   0.08333333  0.50000000  0.33333333       0.005
   0.16666667  0.50000000  0.33333333       0.005
   0.25000000  0.50000000  0.33333333       0.005
   0.33333333  0.50000000  0.33333333       0.005
   0.41666667  0.50000000  0.33333333       0.005
   0.50000000  0.50000000  0.33333333       0.002
   0.00000000  0.41666667  0.41666667       0.002
   0.08333333  0.41666667  0.41666667       0.005
   0.16666667  0.41666667  0.41666667       0.005
   0.25000000  0.41666667  0.41666667       0.005
   0.33333333  0.41666667  0.41666667       0.005
   0.41666667  0.41666667  0.41666667       0.005
   0.50000000  0.41666667  0.41666667       0.002
   0.00000000  0.50000000  0.41666667       0.002
   0.08333333  0.50000000  0.41666667       0.005
   0.16666667  0.50000000  0.41666667       0.005
   0.25000000  0.50000000  0.41666667       0.005
   0.33333333  0.50000000  0.41666667       0.005
   0.41666667  0.50000000  0.41666667       0.005
   0.50000000  0.50000000  0.41666667       0.002
   0.00000000  0.50000000  0.50000000       0.001
   0.08333333  0.50000000  0.50000000       0.001
   0.16666667  0.50000000  0.50000000       0.001
   0.25000000  0.50000000  0.50000000       0.001
   0.33333333  0.50000000  0.50000000       0.001
   0.41666667  0.50000000  0.50000000       0.001
   0.50000000  0.50000000  0.50000000       0.001
 
 position of ions in fractional coordinates (direct lattice) 
   0.00114116  0.00000000  0.00000000
   0.50000000  0.00000000  0.00000000
   0.00000000  0.50000000  0.00000000
   0.50000000  0.50000000  0.00000000
   0.00000000  0.00000000  0.50000000
   0.50000000  0.00000000  0.50000000
   0.00000000  0.50000000  0.50000000
   0.50000000  0.50000000  0.50000000
   0.25000000  0.25000000  0.00000000
   0.75000000  0.25000000  0.00000000
   0.25000000  0.75000000  0.00000000
   0.75000000  0.75000000  0.00000000
   0.25000000  0.25000000  0.50000000
   0.75000000  0.25000000  0.50000000
   0.25000000  0.75000000  0.50000000
   0.75000000  0.75000000  0.50000000
   0.25000000  0.00000000  0.25000000
   0.75000000  0.00000000  0.25000000
   0.25000000  0.50000000  0.25000000
   0.75000000  0.50000000  0.25000000
   0.25000000  0.00000000  0.75000000
   0.75000000  0.00000000  0.75000000
   0.25000000  0.50000000  0.75000000
   0.75000000  0.50000000  0.75000000
   0.00000000  0.25000000  0.25000000
   0.50000000  0.25000000  0.25000000
   0.00000000  0.75000000  0.25000000
   0.50000000  0.75000000  0.25000000
   0.00000000  0.25000000  0.75000000
   0.50000000  0.25000000  0.75000000
   0.00000000  0.75000000  0.75000000
   0.50000000  0.75000000  0.75000000
 
 position of ions in cartesian coordinates  (Angst):
   0.01000000  0.00000000  0.00000000
   4.38149450  0.00000000  0.00000000
   0.00000000  4.38149450  0.00000000
   4.38149450  4.38149450  0.00000000
   0.00000000  0.00000000  4.38149450
   4.38149450  0.00000000  4.38149450
   0.00000000  4.38149450  4.38149450
   4.38149450  4.38149450  4.38149450
   2.19074725  2.19074725  0.00000000
   6.57224175  2.19074725  0.00000000
   2.19074725  6.57224175  0.00000000
   6.57224175  6.57224175  0.00000000
   2.19074725  2.19074725  4.38149450
   6.57224175  2.19074725  4.38149450
   2.19074725  6.57224175  4.38149450
   6.57224175  6.57224175  4.38149450
   2.19074725  0.00000000  2.19074725
   6.57224175  0.00000000  2.19074725
   2.19074725  4.38149450  2.19074725
   6.57224175  4.38149450  2.19074725
   2.19074725  0.00000000  6.57224175
   6.57224175  0.00000000  6.57224175
   2.19074725  4.38149450  6.57224175
   6.57224175  4.38149450  6.57224175
   0.00000000  2.19074725  2.19074725
   4.38149450  2.19074725  2.19074725
   0.00000000  6.57224175  2.19074725
   4.38149450  6.57224175  2.19074725
   0.00000000  2.19074725  6.57224175
   4.38149450  2.19074725  6.57224175
   0.00000000  6.57224175  6.57224175
   4.38149450  6.57224175  6.57224175
 


--------------------------------------------------------------------------------------------------------


 k-point  1 :  0.00000.00000.0000  plane waves:  31439
 k-point  2 :  0.08330.00000.0000  plane waves:  31391
 k-point  3 :  0.16670.00000.0000  plane waves:  31375
 k-point  4 :  0.25000.00000.0000  plane waves:  31379
 k-point  5 :  0.33330.00000.0000  plane waves:  31415
 k-point  6 :  0.41670.00000.0000  plane waves:  31447
 k-point  7 :  0.50000.00000.0000  plane waves:  31464
 k-point  8 :  0.00000.08330.0000  plane waves:  31391
 k-point  9 :  0.08330.08330.0000  plane waves:  31411
 k-point 10 :  0.16670.08330.0000  plane waves:  31425
 k-point 11 :  0.25000.08330.0000  plane waves:  31403
 k-point 12 :  0.33330.08330.0000  plane waves:  31394
 k-point 13 :  0.41670.08330.0000  plane waves:  31427
 k-point 14 :  0.50000.08330.0000  plane waves:  31404
 k-point 15 :  0.00000.16670.0000  plane waves:  31375
 k-point 16 :  0.08330.16670.0000  plane waves:  31425
 k-point 17 :  0.16670.16670.0000  plane waves:  31404
 k-point 18 :  0.25000.16670.0000  plane waves:  31397
 k-point 19 :  0.33330.16670.0000  plane waves:  31409
 k-point 20 :  0.41670.16670.0000  plane waves:  31398
 k-point 21 :  0.50000.16670.0000  plane waves:  31386
 k-point 22 :  0.00000.25000.0000  plane waves:  31379
 k-point 23 :  0.08330.25000.0000  plane waves:  31403
 k-point 24 :  0.16670.25000.0000  plane waves:  31397
 k-point 25 :  0.25000.25000.0000  plane waves:  31390
 k-point 26 :  0.33330.25000.0000  plane waves:  31398
 k-point 27 :  0.41670.25000.0000  plane waves:  31376
 k-point 28 :  0.50000.25000.0000  plane waves:  31412
 k-point 29 :  0.00000.33330.0000  plane waves:  31415
 k-point 30 :  0.08330.33330.0000  plane waves:  31394
 k-point 31 :  0.16670.33330.0000  plane waves:  31409
 k-point 32 :  0.25000.33330.0000  plane waves:  31398
 k-point 33 :  0.33330.33330.0000  plane waves:  31370
 k-point 34 :  0.41670.33330.0000  plane waves:  31357
 k-point 35 :  0.50000.33330.0000  plane waves:  31342
 k-point 36 :  0.00000.41670.0000  plane waves:  31447
 k-point 37 :  0.08330.41670.0000  plane waves:  31427
 k-point 38 :  0.16670.41670.0000  plane waves:  31398
 k-point 39 :  0.25000.41670.0000  plane waves:  31376
 k-point 40 :  0.33330.41670.0000  plane waves:  31357
 k-point 41 :  0.41670.41670.0000  plane waves:  31368
 k-point 42 :  0.50000.41670.0000  plane waves:  31350
 k-point 43 :  0.00000.50000.0000  plane waves:  31464
 k-point 44 :  0.08330.50000.0000  plane waves:  31404
 k-point 45 :  0.16670.50000.0000  plane waves:  31386
 k-point 46 :  0.25000.50000.0000  plane waves:  31412
 k-point 47 :  0.33330.50000.0000  plane waves:  31342
 k-point 48 :  0.41670.50000.0000  plane waves:  31350
 k-point 49 :  0.50000.50000.0000  plane waves:  31400
 k-point 50 :  0.00000.08330.0833  plane waves:  31411
 k-point 51 :  0.08330.08330.0833  plane waves:  31412
 k-point 52 :  0.16670.08330.0833  plane waves:  31432
 k-point 53 :  0.25000.08330.0833  plane waves:  31396
 k-point 54 :  0.33330.08330.0833  plane waves:  31396
 k-point 55 :  0.41670.08330.0833  plane waves:  31413
 k-point 56 :  0.50000.08330.0833  plane waves:  31384
 k-point 57 :  0.00000.16670.0833  plane waves:  31425
 k-point 58 :  0.08330.16670.0833  plane waves:  31432
 k-point 59 :  0.16670.16670.0833  plane waves:  31416
 k-point 60 :  0.25000.16670.0833  plane waves:  31404
 k-point 61 :  0.33330.16670.0833  plane waves:  31382
 k-point 62 :  0.41670.16670.0833  plane waves:  31391
 k-point 63 :  0.50000.16670.0833  plane waves:  31368
 k-point 64 :  0.00000.25000.0833  plane waves:  31403
 k-point 65 :  0.08330.25000.0833  plane waves:  31396
 k-point 66 :  0.16670.25000.0833  plane waves:  31404
 k-point 67 :  0.25000.25000.0833  plane waves:  31402
 k-point 68 :  0.33330.25000.0833  plane waves:  31398
 k-point 69 :  0.41670.25000.0833  plane waves:  31365
 k-point 70 :  0.50000.25000.0833  plane waves:  31372
 k-point 71 :  0.00000.33330.0833  plane waves:  31394
 k-point 72 :  0.08330.33330.0833  plane waves:  31396
 k-point 73 :  0.16670.33330.0833  plane waves:  31382
 k-point 74 :  0.25000.33330.0833  plane waves:  31398
 k-point 75 :  0.33330.33330.0833  plane waves:  31381
 k-point 76 :  0.41670.33330.0833  plane waves:  31351
 k-point 77 :  0.50000.33330.0833  plane waves:  31374
 k-point 78 :  0.00000.41670.0833  plane waves:  31427
 k-point 79 :  0.08330.41670.0833  plane waves:  31413
 k-point 80 :  0.16670.41670.0833  plane waves:  31391
 k-point 81 :  0.25000.41670.0833  plane waves:  31365
 k-point 82 :  0.33330.41670.0833  plane waves:  31351
 k-point 83 :  0.41670.41670.0833  plane waves:  31373
 k-point 84 :  0.50000.41670.0833  plane waves:  31344
 k-point 85 :  0.00000.50000.0833  plane waves:  31404
 k-point 86 :  0.08330.50000.0833  plane waves:  31384
 k-point 87 :  0.16670.50000.0833  plane waves:  31368
 k-point 88 :  0.25000.50000.0833  plane waves:  31372
 k-point 89 :  0.33330.50000.0833  plane waves:  31374
 k-point 90 :  0.41670.50000.0833  plane waves:  31344
 k-point 91 :  0.50000.50000.0833  plane waves:  31352
 k-point 92 :  0.00000.16670.1667  plane waves:  31404
 k-point 93 :  0.08330.16670.1667  plane waves:  31416
 k-point 94 :  0.16670.16670.1667  plane waves:  31478
 k-point 95 :  0.25000.16670.1667  plane waves:  31402
 k-point 96 :  0.33330.16670.1667  plane waves:  31392
 k-point 97 :  0.41670.16670.1667  plane waves:  31371
 k-point 98 :  0.50000.16670.1667  plane waves:  31336
 k-point 99 :  0.00000.25000.1667  plane waves:  31397
 k-point ** :  0.08330.25000.1667  plane waves:  31404
 k-point ** :  0.16670.25000.1667  plane waves:  31402
 k-point ** :  0.25000.25000.1667  plane waves:  31394
 k-point ** :  0.33330.25000.1667  plane waves:  31401
 k-point ** :  0.41670.25000.1667  plane waves:  31371
 k-point ** :  0.50000.25000.1667  plane waves:  31372
 k-point ** :  0.00000.33330.1667  plane waves:  31409
 k-point ** :  0.08330.33330.1667  plane waves:  31382
 k-point ** :  0.16670.33330.1667  plane waves:  31392
 k-point ** :  0.25000.33330.1667  plane waves:  31401
 k-point ** :  0.33330.33330.1667  plane waves:  31360
 k-point ** :  0.41670.33330.1667  plane waves:  31365
 k-point ** :  0.50000.33330.1667  plane waves:  31366
 k-point ** :  0.00000.41670.1667  plane waves:  31398
 k-point ** :  0.08330.41670.1667  plane waves:  31391
 k-point ** :  0.16670.41670.1667  plane waves:  31371
 k-point ** :  0.25000.41670.1667  plane waves:  31371
 k-point ** :  0.33330.41670.1667  plane waves:  31365
 k-point ** :  0.41670.41670.1667  plane waves:  31374
 k-point ** :  0.50000.41670.1667  plane waves:  31350
 k-point ** :  0.00000.50000.1667  plane waves:  31386
 k-point ** :  0.08330.50000.1667  plane waves:  31368
 k-point ** :  0.16670.50000.1667  plane waves:  31336
 k-point ** :  0.25000.50000.1667  plane waves:  31372
 k-point ** :  0.33330.50000.1667  plane waves:  31366
 k-point ** :  0.41670.50000.1667  plane waves:  31350
 k-point ** :  0.50000.50000.1667  plane waves:  31396
 k-point ** :  0.00000.25000.2500  plane waves:  31390
 k-point ** :  0.08330.25000.2500  plane waves:  31402
 k-point ** :  0.16670.25000.2500  plane waves:  31394
 k-point ** :  0.25000.25000.2500  plane waves:  31370
 k-point ** :  0.33330.25000.2500  plane waves:  31366
 k-point ** :  0.41670.25000.2500  plane waves:  31379
 k-point ** :  0.50000.25000.2500  plane waves:  31402
 k-point ** :  0.00000.33330.2500  plane waves:  31398
 k-point ** :  0.08330.33330.2500  plane waves:  31398
 k-point ** :  0.16670.33330.2500  plane waves:  31401
 k-point ** :  0.25000.33330.2500  plane waves:  31366
 k-point ** :  0.33330.33330.2500  plane waves:  31369
 k-point ** :  0.41670.33330.2500  plane waves:  31385
 k-point ** :  0.50000.33330.2500  plane waves:  31366
 k-point ** :  0.00000.41670.2500  plane waves:  31376
 k-point ** :  0.08330.41670.2500  plane waves:  31365
 k-point ** :  0.16670.41670.2500  plane waves:  31371
 k-point ** :  0.25000.41670.2500  plane waves:  31379
 k-point ** :  0.33330.41670.2500  plane waves:  31385
 k-point ** :  0.41670.41670.2500  plane waves:  31355
 k-point ** :  0.50000.41670.2500  plane waves:  31364
 k-point ** :  0.00000.50000.2500  plane waves:  31412
 k-point ** :  0.08330.50000.2500  plane waves:  31372
 k-point ** :  0.16670.50000.2500  plane waves:  31372
 k-point ** :  0.25000.50000.2500  plane waves:  31402
 k-point ** :  0.33330.50000.2500  plane waves:  31366
 k-point ** :  0.41670.50000.2500  plane waves:  31364
 k-point ** :  0.50000.50000.2500  plane waves:  31340
 k-point ** :  0.00000.33330.3333  plane waves:  31370
 k-point ** :  0.08330.33330.3333  plane waves:  31381
 k-point ** :  0.16670.33330.3333  plane waves:  31360
 k-point ** :  0.25000.33330.3333  plane waves:  31369
 k-point ** :  0.33330.33330.3333  plane waves:  31396
 k-point ** :  0.41670.33330.3333  plane waves:  31367
 k-point ** :  0.50000.33330.3333  plane waves:  31394
 k-point ** :  0.00000.41670.3333  plane waves:  31357
 k-point ** :  0.08330.41670.3333  plane waves:  31351
 k-point ** :  0.16670.41670.3333  plane waves:  31365
 k-point ** :  0.25000.41670.3333  plane waves:  31385
 k-point ** :  0.33330.41670.3333  plane waves:  31367
 k-point ** :  0.41670.41670.3333  plane waves:  31362
 k-point ** :  0.50000.41670.3333  plane waves:  31392
 k-point ** :  0.00000.50000.3333  plane waves:  31342
 k-point ** :  0.08330.50000.3333  plane waves:  31374
 k-point ** :  0.16670.50000.3333  plane waves:  31366
 k-point ** :  0.25000.50000.3333  plane waves:  31366
 k-point ** :  0.33330.50000.3333  plane waves:  31394
 k-point ** :  0.41670.50000.3333  plane waves:  31392
 k-point ** :  0.50000.50000.3333  plane waves:  31368
 k-point ** :  0.00000.41670.4167  plane waves:  31368
 k-point ** :  0.08330.41670.4167  plane waves:  31373
 k-point ** :  0.16670.41670.4167  plane waves:  31374
 k-point ** :  0.25000.41670.4167  plane waves:  31355
 k-point ** :  0.33330.41670.4167  plane waves:  31362
 k-point ** :  0.41670.41670.4167  plane waves:  31360
 k-point ** :  0.50000.41670.4167  plane waves:  31362
 k-point ** :  0.00000.50000.4167  plane waves:  31350
 k-point ** :  0.08330.50000.4167  plane waves:  31344
 k-point ** :  0.16670.50000.4167  plane waves:  31350
 k-point ** :  0.25000.50000.4167  plane waves:  31364
 k-point ** :  0.33330.50000.4167  plane waves:  31392
 k-point ** :  0.41670.50000.4167  plane waves:  31362
 k-point ** :  0.50000.50000.4167  plane waves:  31356
 k-point ** :  0.00000.50000.5000  plane waves:  31400
 k-point ** :  0.08330.50000.5000  plane waves:  31352
 k-point ** :  0.16670.50000.5000  plane waves:  31396
 k-point ** :  0.25000.50000.5000  plane waves:  31340
 k-point ** :  0.33330.50000.5000  plane waves:  31368
 k-point ** :  0.41670.50000.5000  plane waves:  31356
 k-point ** :  0.50000.50000.5000  plane waves:  31408

 maximum and minimum number of plane-waves per node :  31478 31336

 maximum number of plane-waves:  31478
 maximal index in each direction: 
   IXMAX= 19   IYMAX= 19   IZMAX= 19
   IXMIN=-20   IYMIN=-20   IZMIN=-20

 NGX is ok and might be reduce to  80
 NGY is ok and might be reduce to  80
 NGZ is ok and might be reduce to  80

 parallel 3dFFT wavefunction:
    minimum data exchange during FFTs selected (reduces bandwidth)
 parallel 3dFFT charge:
    minimum data exchange during FFTs selected (reduces bandwidth)

 For storing wavefunctions ******* MBYTES are necessary
 For predicting wavefunctions  227.81 MBYTES are necessary
Broyden mixing: mesh for mixing (old mesh)
   NGX = 39   NGY = 39   NGZ = 39
  (NGX  =160   NGY  =160   NGZ  =160)
 gives a total of  59319 points
 initial charge density was supplied:
 charge density of overlapping atoms calculated
 number of electron  352.0000000 magnetization 
 keeping initial charge density in first step


--------------------------------------------------------------------------------------------------------


 Maximum index for augmentation-charges        90171 (set IRDMAX)


--------------------------------------------------------------------------------------------------------


 First call to EWALD:  gamma=   0.202
 Maximum number of real-space cells 3x 3x 3
 Maximum number of reciprocal cells 3x 3x 3

    FEWALD:  VPU time    0.00: CPU time    0.01


----------------------------------------- Iteration    1(   1)  ---------------------------------------


    POTLOK:  VPU time    8.50: CPU time   32.49
    SETDIJ:  VPU time   20.21: CPU time   33.95
    EDDAV :  VPU time 2008.25: CPU time 2251.71
    DOS   :  VPU time    0.00: CPU time   -0.00
    ------------------------------------------
      LOOP:  VPU time 2037.19: CPU time 2318.39

 eigenvalue-minimisations  : 83104
 total energy-change (2. order) : 0.4466344E+04  (-0.2045517E+05)
 number of electron  352.0000000 magnetization 
 augmentation part   352.0000000 magnetization 

 Free energy of the ion-electron system (eV)
  ---------------------------------------------------
  alpha Z        PSCENC =      2849.96344217
  Ewald energy   TEWEN  =    -29171.93464031
  -1/2 Hartree   DENC   =     -4863.06058569
  -V(xc)+E(xc)   XCENC  =       470.60675576
  PAW double counting   =     23920.39735419   -23172.13309131
  entropy T*S    EENTRO =        -0.00068970
  eigenvalues    EBANDS =      4798.71616299
  atomic energy  EATOM  =     29633.78979189
  ---------------------------------------------------
  free energy    TOTEN  =      4466.34449999 eV

  energy without entropy =     4466.34518969  energy(sigma->0) =     4466.34484484


--------------------------------------------------------------------------------------------------------




----------------------------------------- Iteration    1(   2)  ---------------------------------------


    EDDAV :  VPU time 2231.77: CPU time 2231.39
    DOS   :  VPU time    0.00: CPU time   -0.00
    ------------------------------------------
      LOOP:  VPU time 2232.00: CPU time 2231.62

 eigenvalue-minimisations  : 83196
 total energy-change (2. order) :-0.4293678E+04  (-0.4110694E+04)
 number of electron  352.0000000 magnetization 
 augmentation part   352.0000000 magnetization 

 Free energy of the ion-electron system (eV)
  ---------------------------------------------------
  alpha Z        PSCENC =      2849.96344217
  Ewald energy   TEWEN  =    -29171.93464031
  -1/2 Hartree   DENC   =     -4863.06058569
  -V(xc)+E(xc)   XCENC  =       470.60675576
  PAW double counting   =     23920.39735419   -23172.13309131
  entropy T*S    EENTRO =        -0.00049776
  eigenvalues    EBANDS =       505.03835769
  atomic energy  EATOM  =     29633.78979189
  ---------------------------------------------------
  free energy    TOTEN  =       172.66688664 eV

  energy without entropy =      172.66738439  energy(sigma->0) =      172.66713551


--------------------------------------------------------------------------------------------------------




----------------------------------------- Iteration    1(   3)  ---------------------------------------


    EDDAV :  VPU time 3027.73: CPU time 3839.03
    DOS   :  VPU time   -0.00: CPU time   -0.19
    ------------------------------------------
      LOOP:  VPU time 3031.48: CPU time 3843.48

 eigenvalue-minimisations  : 92816
 total energy-change (2. order) :-0.2690640E+03  (-0.2430652E+03)
 number of electron  352.0000000 magnetization 
 augmentation part   352.0000000 magnetization 

 Free energy of the ion-electron system (eV)
  ---------------------------------------------------
  alpha Z        PSCENC =      2849.96344217
  Ewald energy   TEWEN  =    -29171.93464031
  -1/2 Hartree   DENC   =     -4863.06058569
  -V(xc)+E(xc)   XCENC  =       470.60675576
  PAW double counting   =     23920.39735419   -23172.13309131
  entropy T*S    EENTRO =        -0.00066621
  eigenvalues    EBANDS =       235.97452899
  atomic energy  EATOM  =     29633.78979189
  ---------------------------------------------------
  free energy    TOTEN  =       -96.39711052 eV

  energy without entropy =      -96.39644431  energy(sigma->0) =      -96.39677741


--------------------------------------------------------------------------------------------------------




----------------------------------------- Iteration    1(   4)  ---------------------------------------


    EDDAV :  VPU time 9273.17: CPU time17087.69
    DOS   :  VPU time    0.00: CPU time   -0.02
    ------------------------------------------
      LOOP:  VPU time 9274.01: CPU time17089.94

 eigenvalue-minimisations  : 88940
 total energy-change (2. order) :-0.1074611E+02  (-0.1056154E+02)
 number of electron  352.0000000 magnetization 
 augmentation part   352.0000000 magnetization 

 Free energy of the ion-electron system (eV)
  ---------------------------------------------------
  alpha Z        PSCENC =      2849.96344217
  Ewald energy   TEWEN  =    -29171.93464031
  -1/2 Hartree   DENC   =     -4863.06058569
  -V(xc)+E(xc)   XCENC  =       470.60675576
  PAW double counting   =     23920.39735419   -23172.13309131
  entropy T*S    EENTRO =        -0.00100690
  eigenvalues    EBANDS =       225.22876015
  atomic energy  EATOM  =     29633.78979189
  ---------------------------------------------------
  free energy    TOTEN  =      -107.14322004 eV

  energy without entropy =     -107.14221314  energy(sigma->0) =     -107.14271659


--------------------------------------------------------------------------------------------------------




----------------------------------------- Iteration    1(   5)  ---------------------------------------


    EDDAV :  VPU time 3442.51: CPU time 3506.90
    DOS   :  VPU time    0.00: CPU time   -0.00
    CHARGE:  VPU time  136.88: CPU time  174.80
    MIXING:  VPU time    0.20: CPU time    0.30
    ------------------------------------------
      LOOP:  VPU time 3579.86: CPU time 3682.42

 eigenvalue-minimisations  : 90896
 total energy-change (2. order) :-0.2316677E+00  (-0.2309039E+00)
 number of electron  352.0000008 magnetization 
 augmentation part   125.0642712 magnetization 

 Broyden mixing:
  rms(total) = 0.14829E+01    rms(broyden)= 0.14829E+01
  rms(prec ) = 0.22648E+01
  weight for this iteration     100.00

 Free energy of the ion-electron system (eV)
  ---------------------------------------------------
  alpha Z        PSCENC =      2849.96344217
  Ewald energy   TEWEN  =    -29171.93464031
  -1/2 Hartree   DENC   =     -4863.06058569
  -V(xc)+E(xc)   XCENC  =       470.60675576
  PAW double counting   =     23920.39735419   -23172.13309131
  entropy T*S    EENTRO =        -0.00101982
  eigenvalues    EBANDS =       224.99710533
  atomic energy  EATOM  =     29633.78979189
  ---------------------------------------------------
  free energy    TOTEN  =      -107.37488778 eV

  energy without entropy =     -107.37386796  energy(sigma->0) =     -107.37437787


--------------------------------------------------------------------------------------------------------




----------------------------------------- Iteration    1(   6)  ---------------------------------------


    POTLOK:  VPU time    1.13: CPU time    6.26
    SETDIJ:  VPU time    1.38: CPU time    1.45
    EDDAV :  VPU time 3187.51: CPU time 3993.46
    DOS   :  VPU time    0.00: CPU time   -0.00
    CHARGE:  VPU time  128.83: CPU time 3461.73
    MIXING:  VPU time    1.00: CPU time    1.85
    ------------------------------------------
      LOOP:  VPU time 3321.27: CPU time 7590.27

 eigenvalue-minimisations  : 87492
 total energy-change (2. order) : 0.6752971E+01  (-0.2135354E+01)
 number of electron  352.0000009 magnetization 
 augmentation part   129.5218615 magnetization 

 Broyden mixing:
  rms(total) = 0.35431E+00    rms(broyden)= 0.35431E+00
  rms(prec ) = 0.50016E+00
  weight for this iteration     100.00

 eigenvalues of (default mixing * dielectric matrix)
  average eigenvalue GAMMA=   1.1326
  1.1326

 Free energy of the ion-electron system (eV)
  ---------------------------------------------------
  alpha Z        PSCENC =      2849.96344217
  Ewald energy   TEWEN  =    -29171.93464031
  -1/2 Hartree   DENC   =     -4613.60449671
  -V(xc)+E(xc)   XCENC  =       459.50536708
  PAW double counting   =     23480.85900167   -22760.18945634
  entropy T*S    EENTRO =        -0.00073973
  eigenvalues    EBANDS =        20.98981390
  atomic energy  EATOM  =     29633.78979189
  ---------------------------------------------------
  free energy    TOTEN  =      -100.62191638 eV

  energy without entropy =     -100.62117665  energy(sigma->0) =     -100.62154651


--------------------------------------------------------------------------------------------------------




----------------------------------------- Iteration    1(   7)  ---------------------------------------


    POTLOK:  VPU time    0.98: CPU time    0.99
    SETDIJ:  VPU time    2.69: CPU time    2.80
    EDDAV :  VPU time12798.78: CPU time26524.19
    DOS   :  VPU time   -0.00: CPU time   -0.05
    CHARGE:  VPU time  241.34: CPU time 1037.27
    MIXING:  VPU time    0.34: CPU time    2.96
    ------------------------------------------
      LOOP:  VPU time13044.47: CPU time27582.28

 eigenvalue-minimisations  : 92372
 total energy-change (2. order) : 0.2163273E+00  (-0.9176156E-01)
 number of electron  352.0000009 magnetization 
 augmentation part   130.3135365 magnetization 

 Broyden mixing:
  rms(total) = 0.18051E+00    rms(broyden)= 0.18051E+00
  rms(prec ) = 0.21230E+00
  weight for this iteration     100.00

 eigenvalues of (default mixing * dielectric matrix)
  average eigenvalue GAMMA=   1.8210
  1.1526  2.4894

 Free energy of the ion-electron system (eV)
  ---------------------------------------------------
  alpha Z        PSCENC =      2849.96344217
  Ewald energy   TEWEN  =    -29171.93464031
  -1/2 Hartree   DENC   =     -4558.11364092
  -V(xc)+E(xc)   XCENC  =       456.87133850
  PAW double counting   =     23439.38616308   -22733.39096713
  entropy T*S    EENTRO =        -0.00090133
  eigenvalues    EBANDS =       -16.97617507
  atomic energy  EATOM  =     29633.78979189
[...]
     68      -0.2217      2.00000
     69      -0.2212      2.00000
     70      -0.2212      2.00000
     71      -0.2211      2.00000
     72      -0.2211      2.00000
     73      -0.2208      2.00000
     74      -0.2208      2.00000
     75      -0.2208      2.00000
     76      -0.2207      2.00000
     77      -0.2202      2.00000
     78      -0.2201      2.00000
     79      -0.2198      2.00000
     80      -0.2198      2.00000
     81      -0.0974      2.00000
     82      -0.0974      2.00000
     83      -0.0967      2.00000
     84      -0.0961      2.00000
     85      -0.0948      2.00000
     86      -0.0942      2.00000
     87      -0.0942      2.00000
     88      -0.0942      2.00000
     89      -0.0941      2.00000
     90      -0.0941      2.00000
     91      -0.0941      2.00000
     92      -0.0941      2.00000
     93      -0.0940      2.00000
     94      -0.0940      2.00000
     95      -0.0940      2.00000
     96      -0.0940      2.00000
     97      -0.0939      2.00000
     98      -0.0939      2.00000
     99      -0.0939      2.00000
    100      -0.0933      2.00000
    101      -0.0919      2.00000
    102      -0.0914      2.00000
    103      -0.0906      2.00000
    104      -0.0906      2.00000
    105       0.4152      2.00000
    106       0.4164      2.00000
    107       0.4164      2.00000
    108       0.4182      2.00000
    109       0.4183      2.00000
    110       0.4184      2.00000
    111       0.4184      2.00000
    112       0.4186      2.00000
    113       0.4187      2.00000
    114       0.4187      2.00000
    115       0.4187      2.00000
    116       0.4188      2.00000
    117       0.4189      2.00000
    118       0.4189      2.00000
    119       0.4189      2.00000
    120       0.4189      2.00000
    121       0.4190      2.00000
    122       0.4192      2.00000
    123       0.4192      2.00000
    124       0.4193      2.00000
    125       0.4195      2.00000
    126       0.4213      2.00000
    127       0.4213      2.00000
    128       0.4224      2.00000
    129       0.7474      2.00000
    130       0.7486      2.00000
    131       0.7487      2.00000
    132       0.7487      2.00000
    133       0.7496      2.00000
    134       0.7496      2.00000
    135       0.7497      2.00000
    136       0.7498      2.00000
    137       0.7499      2.00000
    138       0.7500      2.00000
    139       0.7502      2.00000
    140       0.7502      2.00000
    141       0.7511      2.00000
    142       0.7511      2.00000
    143       0.7511      2.00000
    144       0.7523      2.00000
    145       1.5051      2.00000
    146       1.5051      2.00000
    147       1.5053      2.00000
    148       1.5055      2.00000
    149       1.5055      2.00000
    150       1.5055      2.00000
    151       1.5055      2.00000
    152       1.5056      2.00000
    153       1.5056      2.00000
    154       1.5057      2.00000
    155       1.5057      2.00000
    156       1.5058      2.00000
    157       1.5059      2.00000
    158       1.5059      2.00000
    159       1.5059      2.00000
    160       1.5060      2.00000
    161       1.5061      2.00000
    162       1.5061      2.00000
    163       1.5061      2.00000
    164       1.5061      2.00000
    165       1.5062      2.00000
    166       1.5064      2.00000
    167       1.5065      2.00000
    168       1.5065      2.00000
    169       4.1104      0.00000
    170       4.1139      0.00000
    171       4.1139      0.00000
    172       4.1154      0.00000
    173       4.1159      0.00000
    174       4.1161      0.00000
    175       4.1161      0.00000
    176       4.1162      0.00000
    177       4.1162      0.00000
    178       4.1162      0.00000
    179       4.1162      0.00000
    180       4.1163      0.00000
    181       4.1163      0.00000
    182       4.1165      0.00000
    183       4.1165      0.00000
    184       4.1165      0.00000
    185       4.1165      0.00000
    186       4.1165      0.00000
    187       4.1165      0.00000
    188       4.1168      0.00000
    189       4.1172      0.00000
    190       4.1187      0.00000
    191       4.1187      0.00000
    192       4.1223      0.00000
    193       8.1266      0.00000
    194       8.1269      0.00000
    195       8.1286      0.00000
    196       8.1296      0.00000
    197       8.1299      0.00000
    198       8.1302      0.00000
    199       8.1303      0.00000
    200       8.1305      0.00000
    201       8.1306      0.00000
    202       8.1306      0.00000
    203       8.1307      0.00000
    204       8.1308      0.00000
    205       8.1309      0.00000
    206       8.1309      0.00000
    207       8.1311      0.00000
    208       8.1313      0.00000
    209       8.1315      0.00000
    210       8.1324      0.00000
    211       8.1333      0.00000
    212       8.1338      0.00000


--------------------------------------------------------------------------------------------------------


 soft charge-density along one line, spin component           1
         0         1         2         3         4         5         6         7         8         9
 total charge-density along one line
 
 pseudopotential strength for first ion, spin component:           1
-10.567  -0.000  -0.000  -0.000   0.000   0.006   0.000   0.000
 -0.000 -10.567   0.000  -0.000   0.000   0.000   0.006  -0.000
 -0.000   0.000 -10.555   0.000  -0.000   0.000  -0.000   0.005
 -0.000  -0.000   0.000 -10.567  -0.000   0.000   0.000  -0.000
  0.000   0.000  -0.000  -0.000 -10.555  -0.000  -0.000   0.000
  0.006   0.000   0.000   0.000  -0.000   0.269  -0.000  -0.000
  0.000   0.006  -0.000   0.000  -0.000  -0.000   0.269   0.000
  0.000  -0.000   0.005  -0.000   0.000  -0.000   0.000   0.270
  0.000   0.000  -0.000   0.006   0.000  -0.000   0.000   0.000
 -0.000  -0.000   0.000   0.000   0.005   0.000   0.000  -0.000
 -0.000   0.000   0.000   0.000  -0.000  -0.000   0.000  -0.000
  0.000  -0.000  -0.000  -0.000   0.000  -0.000   0.000   0.000
 -0.000  -0.000   0.000  -0.000  -0.000   0.000   0.000  -0.000
 -0.000  -0.000   0.000  -0.000  -0.000   0.000   0.000   0.000
 -0.000  -0.000   0.000  -0.000  -0.000   0.000   0.000  -0.000
  0.000   0.000  -0.000   0.000   0.000  -0.000  -0.000   0.000
  0.000  -0.000  -0.000   0.000   0.000  -0.000  -0.000   0.000
  0.000   0.000  -0.000   0.000   0.000  -0.000  -0.000   0.000
 total augmentation occupancy for first ion, spin component:           1
  1.909  -0.000  -0.002  -0.001  -0.001  -0.070   0.000  -0.000   0.000   0.000   0.004  -0.000   0.000   0.000  -0.000  -0.000
 -0.000   1.915  -0.001  -0.001  -0.002   0.000  -0.075   0.002   0.001   0.000   0.004  -0.000   0.000   0.000  -0.000  -0.000
 -0.002  -0.001   1.962  -0.000  -0.003  -0.000   0.002  -0.109   0.001   0.002   0.013   0.003   0.000  -0.000   0.000  -0.000
 -0.001  -0.001  -0.000   1.921   0.001   0.000   0.001   0.001  -0.081   0.001   0.003  -0.001   0.000   0.000  -0.000  -0.000
 -0.001  -0.002  -0.003   0.001   1.950   0.001   0.000   0.002   0.001  -0.101   0.007   0.002   0.000   0.000  -0.000  -0.000
 -0.070   0.000  -0.000   0.000   0.001   0.111   0.000   0.002  -0.000  -0.000  -0.001   0.001   0.001  -0.000   0.000  -0.000
  0.000  -0.075   0.002   0.001   0.000   0.000   0.114  -0.002  -0.000   0.001   0.000   0.001  -0.000  -0.000   0.000   0.000
 -0.000   0.002  -0.109   0.001   0.002   0.002  -0.002   0.092  -0.002  -0.001  -0.008  -0.001   0.000   0.000  -0.000   0.000
  0.000   0.001   0.001  -0.081   0.001  -0.000  -0.000  -0.002   0.118  -0.002   0.001   0.002  -0.000   0.001   0.000   0.000
  0.000   0.000   0.002   0.001  -0.101  -0.000   0.001  -0.001  -0.002   0.088  -0.005  -0.001  -0.000  -0.000   0.000   0.000
  0.004   0.004   0.013   0.003   0.007  -0.001   0.000  -0.008   0.001  -0.005   0.989  -0.268   0.000  -0.000   0.002  -0.000
 -0.000  -0.000   0.003  -0.001   0.002   0.001   0.001  -0.001   0.002  -0.001  -0.268   0.146   0.000   0.000  -0.001  -0.000
  0.000   0.000   0.000   0.000   0.000   0.001  -0.000   0.000  -0.000  -0.000   0.000   0.000   0.100   0.001   0.002  -0.007
  0.000   0.000  -0.000   0.000   0.000  -0.000  -0.000   0.000   0.001  -0.000  -0.000   0.000   0.001   0.101  -0.000  -0.000
 -0.000  -0.000   0.000  -0.000  -0.000   0.000   0.000  -0.000   0.000   0.000   0.002  -0.001   0.002  -0.000   0.100  -0.000
 -0.000  -0.000  -0.000  -0.000  -0.000  -0.000   0.000   0.000   0.000   0.000  -0.000  -0.000  -0.007  -0.000  -0.000   0.001
 -0.000  -0.000   0.000  -0.000   0.000   0.000   0.000  -0.000  -0.000   0.000   0.000   0.000  -0.000  -0.007  -0.000   0.000
  0.000   0.000   0.000   0.000  -0.000  -0.000  -0.000   0.000  -0.000  -0.000  -0.000   0.000  -0.000  -0.000  -0.007   0.000


------------------------ aborting loop because EDIFF is reached ----------------------------------------




--------------------------------------------------------------------------------------------------------


    CHARGE:  VPU time   77.52: CPU time   77.48
    FORLOC:  VPU time    0.14: CPU time    0.14
    FORNL :  VPU time  919.62: CPU time  919.12
    STRESS:  VPU time 1414.69: CPU time 1537.25
    FORCOR:  VPU time    5.60: CPU time   14.13
    FORHAR:  VPU time    0.27: CPU time    0.77
    MIXING:  VPU time    1.02: CPU time    3.79


--------------------------------------------------------------------------------------------------------



  FREE ENERGIE OF THE ION-ELECTRON SYSTEM (eV)
  ---------------------------------------------------
  free  energy   TOTEN  =      -100.361117 eV

  energy  without entropy=     -100.360229  energy(sigma->0) =     -100.360673
 

  FORCE on cell =-STRESS in cart. coord.  units (eV/reduce length):
  Direction    X        Y        Z        XY       YZ       ZX
  --------------------------------------------------------------------------------------
  Alpha Z   2849.96   2849.96   2849.96
  Ewald    -9724.04  -9724.01  -9724.01      0.00      0.00      0.00
  Hartree   1510.99   1511.01   1511.01      0.00     -0.00     -0.00
  E(xc)    -1574.29  -1574.29  -1574.29      0.00      0.00      0.00
  Local     2314.39   2314.33   2314.33     -0.00      0.00      0.00
  n-local  -1688.08  -1694.32  -1681.83      3.33      2.33      1.34
  augment   1377.14   1377.14   1377.14     -0.00     -0.00     -0.00
  Kinetic   4880.30   4874.22   4886.39      0.70     -0.39     -1.49
  -------------------------------------------------------------------------------------
  Total      -53.63    -53.63    -53.63     -0.00      0.00      0.00
  in kB     -127.69   -127.69   -127.69     -0.00      0.00      0.00
  external pressure =     -127.69 kB  Pullay stress =        0.00 kB


 VOLUME and BASIS-vectors are now :
 -----------------------------------------------------------------------------
  energy-cutoff  :      750.00
  volume of cell :      672.91
      direct lattice vectors                 reciprocal lattice vectors
     8.762988995  0.000000000  0.000000000     0.114116314  0.000000000  0.000000000
     0.000000000  8.762988995  0.000000000     0.000000000  0.114116314  0.000000000
     0.000000000  0.000000000  8.762988995     0.000000000  0.000000000  0.114116314

  length of vectors
     8.762988995  8.762988995  8.762988995     0.114116314  0.114116314  0.114116314


 FORCES acting on ions
    electron-ion (+dipol)            ewald-force                    non-local-force                 convergence-correction
 -----------------------------------------------------------------------------------------------
   0.338E+01 0.436E-13 0.191E-07   -.336E+01 -.462E-13 0.497E-13   -.360E-01 -.133E-19 0.215E-19   -.376E-04 0.756E-13 -.122E-12
   -.878E+00 0.897E-13 -.188E-07   0.887E+00 -.142E-13 -.142E-13   -.570E-02 -.104E-20 0.628E-20   -.441E-05 0.783E-13 -.204E-12
   0.280E+00 -.512E-13 -.407E-11   -.281E+00 -.426E-13 -.142E-13   0.450E-03 0.126E-20 -.174E-20   -.159E-05 -.208E-12 -.698E-13
   -.226E+00 0.116E-11 -.422E-11   0.221E+00 -.426E-13 0.142E-13   0.318E-02 0.176E-20 0.939E-21   0.435E-05 -.196E-12 -.927E-13
   0.280E+00 0.490E-13 -.674E-11   -.281E+00 -.178E-13 -.711E-13   0.450E-03 -.370E-20 -.251E-20   -.126E-05 0.685E-13 0.177E-13
   -.226E+00 0.421E-13 -.563E-11   0.221E+00 -.142E-13 0.142E-13   0.318E-02 0.541E-20 -.220E-20   0.427E-05 0.722E-13 0.875E-13
   0.117E+00 -.564E-13 -.590E-11   -.116E+00 -.426E-13 0.142E-13   -.113E-02 -.574E-21 0.949E-21   -.840E-05 -.203E-12 -.448E-13
   -.108E+00 -.497E-11 -.453E-11   0.108E+00 -.142E-13 -.142E-13   -.166E-03 -.107E-20 0.700E-21   0.667E-05 -.191E-12 -.225E-13
   -.428E+00 -.818E+00 -.618E-12   0.426E+00 0.819E+00 -.639E-13   0.382E-02 0.206E-02 0.101E-20   0.440E-05 0.537E-05 -.162E-12
   -.431E+00 0.812E+00 -.727E-11   0.429E+00 -.813E+00 -.711E-14   0.373E-02 -.198E-02 -.101E-20   0.670E-05 -.521E-05 -.997E-13
   -.428E+00 0.818E+00 -.717E-12   0.426E+00 -.819E+00 0.000E+00   0.382E-02 -.206E-02 0.655E-21   0.440E-05 -.537E-05 -.122E-12
   -.431E+00 -.812E+00 0.523E-11   0.429E+00 0.813E+00 0.000E+00   0.373E-02 0.198E-02 -.827E-21   0.670E-05 0.521E-05 -.852E-13
   -.125E-01 -.674E-01 -.425E-11   0.130E-01 0.673E-01 0.355E-14   -.333E-03 0.859E-04 -.134E-20   -.828E-06 -.549E-05 0.432E-13
   -.137E-01 0.673E-01 -.328E-11   0.143E-01 -.673E-01 -.107E-13   -.332E-03 -.837E-04 -.170E-20   -.107E-05 -.769E-06 0.474E-14
   -.125E-01 0.674E-01 -.415E-11   0.130E-01 -.673E-01 -.128E-12   -.333E-03 -.859E-04 0.241E-20   -.828E-06 0.549E-05 0.117E-13
   -.137E-01 -.673E-01 -.159E-10   0.143E-01 0.673E-01 -.142E-13   -.332E-03 0.837E-04 0.128E-20   -.107E-05 0.769E-06 -.159E-13
   -.428E+00 0.314E-13 -.818E+00   0.426E+00 0.711E-13 0.819E+00   0.382E-02 0.193E-20 0.206E-02   0.433E-05 0.551E-13 0.543E-05
   -.431E+00 0.384E-13 0.812E+00   0.429E+00 0.711E-13 -.813E+00   0.373E-02 0.142E-19 -.198E-02   0.663E-05 0.745E-13 -.528E-05
   -.125E-01 0.654E-12 -.674E-01   0.130E-01 0.568E-13 0.673E-01   -.333E-03 0.101E-20 0.859E-04   -.809E-06 -.170E-12 -.543E-05
   -.137E-01 0.764E-11 0.673E-01   0.143E-01 0.284E-13 -.673E-01   -.332E-03 0.279E-20 -.837E-04   -.105E-05 -.201E-12 -.832E-06
   -.428E+00 0.595E-13 0.818E+00   0.426E+00 0.426E-13 -.819E+00   0.382E-02 -.323E-20 -.206E-02   0.433E-05 0.910E-13 -.543E-05
   -.431E+00 0.651E-13 -.812E+00   0.429E+00 0.142E-13 0.813E+00   0.373E-02 -.283E-20 0.198E-02   0.663E-05 0.918E-13 0.528E-05
   -.125E-01 0.800E-12 0.674E-01   0.130E-01 0.284E-13 -.673E-01   -.333E-03 -.159E-20 -.859E-04   -.809E-06 -.205E-12 0.543E-05
   -.137E-01 -.517E-11 -.673E-01   0.143E-01 0.284E-13 0.673E-01   -.332E-03 -.131E-20 0.837E-04   -.105E-05 -.218E-12 0.832E-06
   0.526E+00 0.190E-02 0.190E-02   -.530E+00 -.190E-02 -.190E-02   0.235E-02 0.479E-05 0.479E-05   -.302E-05 -.238E-05 -.238E-05
   -.297E+00 -.559E-03 -.559E-03   0.298E+00 0.570E-03 0.570E-03   -.292E-03 -.756E-05 -.756E-05   0.323E-05 -.101E-05 -.101E-05
   0.526E+00 -.190E-02 0.190E-02   -.530E+00 0.190E-02 -.190E-02   0.235E-02 -.479E-05 0.479E-05   -.302E-05 0.238E-05 -.238E-05
   -.297E+00 0.559E-03 -.559E-03   0.298E+00 -.570E-03 0.570E-03   -.292E-03 0.756E-05 -.756E-05   0.323E-05 0.101E-05 -.101E-05
   0.526E+00 0.190E-02 -.190E-02   -.530E+00 -.190E-02 0.190E-02   0.235E-02 0.479E-05 -.479E-05   -.302E-05 -.238E-05 0.238E-05
   -.297E+00 -.559E-03 0.559E-03   0.298E+00 0.570E-03 -.570E-03   -.292E-03 -.756E-05 0.756E-05   0.323E-05 -.101E-05 0.101E-05
   0.526E+00 -.190E-02 -.190E-02   -.530E+00 0.190E-02 0.190E-02   0.235E-02 -.479E-05 -.479E-05   -.302E-05 0.238E-05 0.238E-05
   -.297E+00 0.559E-03 0.559E-03   0.298E+00 -.570E-03 -.570E-03   -.292E-03 0.756E-05 0.756E-05   0.323E-05 0.101E-05 0.101E-05
 -----------------------------------------------------------------------------------------------
   -.180E-05 0.354E-11 0.448E-10   -.483E-14 -.160E-12 0.208E-12   0.219E-05 0.229E-19 0.424E-19   -.485E-06 -.645E-12 -.375E-12
 
 
 POSITION                                       TOTAL-FORCE (eV/Angst)
 -----------------------------------------------------------------------------------
      0.01000      0.00000      0.00000        -0.013375      0.000000      0.000000
      4.38149      0.00000      0.00000         0.003459     -0.000000     -0.000000
      0.00000      4.38149      0.00000        -0.000489      0.000000     -0.000000
      4.38149      4.38149      0.00000        -0.001822      0.000000     -0.000000
      0.00000      0.00000      4.38149        -0.000489      0.000000     -0.000000
      4.38149      0.00000      4.38149        -0.001822     -0.000000     -0.000000
      0.00000      4.38149      4.38149         0.000268     -0.000000     -0.000000
      4.38149      4.38149      4.38149        -0.000134      0.000000     -0.000000
      2.19075      2.19075      0.00000         0.002186      0.003079      0.000000
      6.57224      2.19075      0.00000         0.002053     -0.002904     -0.000000
      2.19075      6.57224      0.00000         0.002186     -0.003079     -0.000000
      6.57224      6.57224      0.00000         0.002053      0.002904     -0.000000
      2.19075      2.19075      4.38149         0.000242      0.000013     -0.000000
      6.57224      2.19075      4.38149         0.000241     -0.000012      0.000000
      2.19075      6.57224      4.38149         0.000242     -0.000013     -0.000000
      6.57224      6.57224      4.38149         0.000241      0.000012     -0.000000
      2.19075      0.00000      2.19075         0.002186     -0.000000      0.003079
      6.57224      0.00000      2.19075         0.002053     -0.000000     -0.002904
      2.19075      4.38149      2.19075         0.000242     -0.000000      0.000013
      6.57224      4.38149      2.19075         0.000241      0.000000     -0.000012
      2.19075      0.00000      6.57224         0.002186      0.000000     -0.003079
      6.57224      0.00000      6.57224         0.002053      0.000000      0.002904
      2.19075      4.38149      6.57224         0.000242     -0.000000     -0.000013
      6.57224      4.38149      6.57224         0.000241      0.000000      0.000012
      0.00000      2.19075      2.19075        -0.001797      0.000004      0.000004
      4.38149      2.19075      2.19075         0.000676      0.000003      0.000003
      0.00000      6.57224      2.19075        -0.001797     -0.000004      0.000004
      4.38149      6.57224      2.19075         0.000676     -0.000003      0.000003
      0.00000      2.19075      6.57224        -0.001797      0.000004     -0.000004
      4.38149      2.19075      6.57224         0.000676      0.000003     -0.000003
      0.00000      6.57224      6.57224        -0.001797     -0.000004     -0.000004
      4.38149      6.57224      6.57224         0.000676     -0.000003     -0.000003
 -----------------------------------------------------------------------------------
    total drift:                               -0.000000      0.000000      0.000000


--------------------------------------------------------------------------------------------------------



 mean value of Nose-termostat <S>:     1.000 mean value of <T> :     0.000
 mean temperature <T/S>/<1/S>  :     0.000

     LOOP+:  VPU time85704.90: CPU time********
  
  
 General timing and accounting informations for this job:
 ========================================================
  
                  Total CPU time used (sec):    86173.802
                            User time (sec):    58462.588
                          System time (sec):    27711.213
                         Elapsed time (sec):   163449.828
  
                   Maximum memory used (kb):     9405912.
                   Average memory used (kb):           0.
  
                          Minor page faults:     11073388
                          Major page faults:      1275338
                 Voluntary context switches:      1638914
