mesh: [    48,    48,    48 ]
nqpoint: 2600   
reciprocal_lattice:
- [   0.26072621,   0.00000000,   0.00000000 ] # a*
- [   0.00000000,   0.26072621,   0.00000000 ] # b*
- [   0.00000000,   0.00000000,   0.26072621 ] # c*
natom:   4      
lattice:
- [     3.835441051189174,     0.000000000000000,     0.000000000000000 ] # a
- [     0.000000000000000,     3.835441051189174,     0.000000000000000 ] # b
- [     0.000000000000000,     0.000000000000000,     3.835441051189174 ] # c
points:
- symbol: Al # 1
  coordinates: [  0.500000000000000,  0.500000000000000,  0.000000000000000 ]
  mass: 26.981539
- symbol: Al # 2
  coordinates: [  0.500000000000000,  0.000000000000000,  0.500000000000000 ]
  mass: 26.981539
- symbol: Al # 3
  coordinates: [  0.000000000000000,  0.500000000000000,  0.500000000000000 ]
  mass: 26.981539
- symbol: Al # 4
  coordinates: [  0.000000000000000,  0.000000000000000,  0.000000000000000 ]
  mass: 26.981539
phonon:
- q-position: [    0.0104167,    0.0104167,    0.0104167 ]
  weight: 8    
  band:
  - # 1
    frequency:     0.1948210722
  - # 2
    frequency:     0.1948210722
  - # 3
    frequency:     0.4237437448
  - # 4
    frequency:     8.0843631549
  - # 5
    frequency:     8.0843631549
  - # 6
    frequency:     8.0843631549
  - # 7
    frequency:     8.0901967548
  - # 8
    frequency:     8.0901967548
  - # 9
    frequency:     8.0901967548
  - # 10
    frequency:    12.7052947682
  - # 11
    frequency:    12.7052947682
  - # 12
    frequency:    12.7052947682

- q-position: [    0.0312500,    0.0104167,    0.0104167 ]
  weight: 24   
  band:
  - # 1
    frequency:     0.3926225136
  - # 2
    frequency:     0.4352099739
  - # 3
    frequency:     0.7695583514
  - # 4
    frequency:     8.0764270704
  - # 5
    frequency:     8.0822437899
  - # 6
    frequency:     8.0854914117
  - # 7
    frequency:     8.0854914117
  - # 8
    frequency:     8.1039595978
  - # 9
    frequency:     8.1039595978
  - # 10
    frequency:    12.6929668285
  - # 11
    frequency:    12.6957793547
  - # 12
    frequency:    12.6957793547

- q-position: [    0.0520833,    0.0104167,    0.0104167 ]
  weight: 24   
  band:
  - # 1
    frequency:     0.6655384249
  - # 2
    frequency:     0.7010815365
  - # 3
    frequency:     1.1654718125
  - # 4
    frequency:     8.0605562979
  - # 5
    frequency:     8.0663392778
  - # 6
    frequency:     8.0924739171
  - # 7
    frequency:     8.0924739171
  - # 8
    frequency:     8.1266197879
  - # 9
    frequency:     8.1266197879
  - # 10
    frequency:    12.6683116769
  - # 11
    frequency:    12.6767863404
  - # 12
    frequency:    12.6767863404

- q-position: [    0.0729167,    0.0104167,    0.0104167 ]
  weight: 24   
  band:
  - # 1
    frequency:     0.9429420671
  - # 2
    frequency:     0.9709218932
  - # 3
    frequency:     1.5771585916
  - # 4
    frequency:     8.0367537025
  - # 5
    frequency:     8.0424861256
  - # 6
    frequency:     8.1045164921
  - # 7
    frequency:     8.1045164921
  - # 8
    frequency:     8.1586951173
  - # 9
    frequency:     8.1586951173
  - # 10
    frequency:    12.6313308999
  - # 11
    frequency:    12.6483912069
  - # 12
    frequency:    12.6483912069

- q-position: [    0.0937500,    0.0104167,    0.0104167 ]
  weight: 24   
  band:
  - # 1
    frequency:     1.2187518157
  - # 2
    frequency:     1.2411935669
  - # 3
    frequency:     1.9946281300
  - # 4
    frequency:     8.0050237623
  - # 5
    frequency:     8.0106888725
  - # 6
    frequency:     8.1210067495
  - # 7
    frequency:     8.1210067495
  - # 8
    frequency:     8.2003898395
  - # 9
    frequency:     8.2003898395
  - # 10
    frequency:    12.5820272031
  - # 11
    frequency:    12.6107068188
  - # 12
    frequency:    12.6107068188

- q-position: [    0.1145833,    0.0104167,    0.0104167 ]
  weight: 24   
  band:
  - # 1
    frequency:     1.4922267204
  - # 2
    frequency:     1.5106295316
  - # 3
    frequency:     2.4135930633
  - # 4
    frequency:     7.9653727814
  - # 5
    frequency:     7.9709539004
  - # 6
    frequency:     8.1414288108
  - # 7
    frequency:     8.1414288108
  - # 8
    frequency:     8.2516873993
  - # 9
    frequency:     8.2516873993
  - # 10
    frequency:    12.5204047976
  - # 11
    frequency:    12.5638829956
  - # 12
    frequency:    12.5638829956

- q-position: [    0.1354167,    0.0104167,    0.0104167 ]
  weight: 24   
  band:
  - # 1
    frequency:     1.7631661048
  - # 2
    frequency:     1.7785220568
  - # 3
    frequency:     2.8317747882
  - # 4
    frequency:     7.9178091702
  - # 5
    frequency:     7.9232897120
  - # 6
    frequency:     8.1652934191
  - # 7
    frequency:     8.1652934191
  - # 8
    frequency:     8.3124297909
  - # 9
    frequency:     8.3124297909
  - # 10
    frequency:    12.4464699069
  - # 11
    frequency:    12.5081059463
  - # 12
    frequency:    12.5081059463

- q-position: [    0.1562500,    0.0104167,    0.0104167 ]
  weight: 24   
  band:
  - # 1
    frequency:     2.0313839177
  - # 2
    frequency:     2.0443579841
  - # 3
    frequency:     3.2477334531
  - # 4
    frequency:     7.8623437895
  - # 5
    frequency:     7.8677072703
  - # 6
    frequency:     8.1921021260
  - # 7
    frequency:     8.1921021260
  - # 8
    frequency:     8.3823645186
  - # 9
    frequency:     8.3823645186
  - # 10
    frequency:    12.3602313892
  - # 11
    frequency:    12.4435975684
  - # 12
    frequency:    12.4435975684

- q-position: [    0.1770833,    0.0104167,    0.0104167 ]
  weight: 24   
  band:
  - # 1
    frequency:     2.2966567377
  - # 2
    frequency:     2.3077092456
  - # 3
    frequency:     3.6604270395
  - # 4
    frequency:     7.7989903518
  - # 5
    frequency:     7.8042203964
  - # 6
    frequency:     8.2213339782
  - # 7
    frequency:     8.2213339782
  - # 8
    frequency:     8.4611703523
  - # 9
    frequency:     8.4611703523
  - # 10
    frequency:    12.2617014645
  - # 11
    frequency:    12.3706146162
  - # 12
    frequency:    12.3706146162

- q-position: [    0.1979167,    0.0104167,    0.0104167 ]
  weight: 24   
  band:
  - # 1
    frequency:     2.5587321376
  - # 2
    frequency:     2.5681925059
  - # 3
    frequency:     4.0690239159
  - # 4
    frequency:     7.7277658781
  - # 5
    frequency:     7.7328462206
  - # 6
    frequency:     8.2524442041
  - # 7
    frequency:     8.2524442041
  - # 8
    frequency:     8.5484719781
  - # 9
    frequency:     8.5484719781
  - # 10
    frequency:    12.1508965408
  - # 11
    frequency:    12.2894477438
  - # 12
    frequency:    12.2894477438

- q-position: [    0.2187500,    0.0104167,    0.0104167 ]
  weight: 24   
  band:
  - # 1
    frequency:     2.8173409837
  - # 2
    frequency:     2.8254521714
  - # 3
    frequency:     4.4728153092
  - # 4
    frequency:     7.6486912006
  - # 5
    frequency:     7.6536056798
  - # 6
    frequency:     8.2848688713
  - # 7
    frequency:     8.2848688713
  - # 8
    frequency:     8.6438491917
  - # 9
    frequency:     8.6438491917
  - # 10
    frequency:    12.0278381250
  - # 11
    frequency:    12.2004204269
  - # 12
    frequency:    12.2004204269

- q-position: [    0.2395833,    0.0104167,    0.0104167 ]
  weight: 24   
  band:
  - # 1
    frequency:     3.0722065699
  - # 2
    frequency:     3.0791525953
  - # 3
    frequency:     4.8711713036
  - # 4
    frequency:     7.5617915085
  - # 5
    frequency:     7.5665240562
  - # 6
    frequency:     8.3180323875
  - # 7
    frequency:     8.3180323875
  - # 8
    frequency:     8.7468434015
  - # 9
    frequency:     8.7468434015
  - # 10
    frequency:    11.8925538109
  - # 11
    frequency:    12.1038877726
  - # 12
    frequency:    12.1038877726

- q-position: [    0.2604167,    0.0104167,    0.0104167 ]
  weight: 24   
  band:
  - # 1
    frequency:     3.3230507904
  - # 2
    frequency:     3.3289743200
  - # 3
    frequency:     5.2635174122
  - # 4
    frequency:     7.4670969269
  - # 5
    frequency:     7.4716315490
  - # 6
    frequency:     8.3513562225
  - # 7
    frequency:     8.3513562225
  - # 8
    frequency:     8.8569627516
  - # 9
    frequency:     8.8569627516
  - # 10
    frequency:    11.7450783284
  - # 11
    frequency:    12.0002352215
  - # 12
    frequency:    12.0002352215

- q-position: [    0.2812500,    0.0104167,    0.0104167 ]
  weight: 24   
  band:
  - # 1
    frequency:     3.5695982963
  - # 2
    frequency:     3.5746122406
  - # 3
    frequency:     5.6493215358
  - # 4
    frequency:     7.3646431235
  - # 5
    frequency:     7.3689638729
  - # 6
    frequency:     8.3842679705
  - # 7
    frequency:     8.3842679705
  - # 8
    frequency:     8.9736864823
  - # 9
    frequency:     8.9736864823
  - # 10
    frequency:    11.5854546444
  - # 11
    frequency:    11.8898771512
  - # 12
    frequency:    11.8898771512

- q-position: [    0.3020833,    0.0104167,    0.0104167 ]
  weight: 24   
  band:
  - # 1
    frequency:     3.8115793505
  - # 2
    frequency:     3.8157747307
  - # 3
    frequency:     6.0280864543
  - # 4
    frequency:     7.2544719348
  - # 5
    frequency:     7.2585628749
  - # 6
    frequency:     8.4162102512
  - # 7
    frequency:     8.4162102512
  - # 8
    frequency:     9.0964688209
  - # 9
    frequency:     9.0964688209
  - # 10
    frequency:    11.4137350991
  - # 11
    frequency:    11.7732553893
  - # 12
    frequency:    11.7732553893

- q-position: [    0.3229167,    0.0104167,    0.0104167 ]
  weight: 24   
  band:
  - # 1
    frequency:     4.0487318419
  - # 2
    frequency:     4.0521832664
  - # 3
    frequency:     6.3993453901
  - # 4
    frequency:     7.1366320045
  - # 5
    frequency:     7.1404771620
  - # 6
    frequency:     8.4466491507
  - # 7
    frequency:     8.4466491507
  - # 8
    frequency:     9.2247425446
  - # 9
    frequency:     9.2247425446
  - # 10
    frequency:    11.2299825659
  - # 11
    frequency:    11.6508376449
  - # 12
    frequency:    11.6508376449

- q-position: [    0.3437500,    0.0104167,    0.0104167 ]
  weight: 24   
  band:
  - # 1
    frequency:     4.2808027392
  - # 2
    frequency:     4.2835723061
  - # 3
    frequency:     6.7626593291
  - # 4
    frequency:     7.0111794250
  - # 5
    frequency:     7.0147627312
  - # 6
    frequency:     8.4750820265
  - # 7
    frequency:     8.4750820265
  - # 8
    frequency:     9.3579222861
  - # 9
    frequency:     9.3579222861
  - # 10
    frequency:    11.0342716210
  - # 11
    frequency:    11.5231158691
  - # 12
    frequency:    11.5231158691

- q-position: [    0.3645833,    0.0104167,    0.0104167 ]
  weight: 24   
  band:
  - # 1
    frequency:     4.5075491575
  - # 2
    frequency:     4.5096892939
  - # 3
    frequency:     6.8781783760
  - # 4
    frequency:     6.8814835945
  - # 5
    frequency:     7.1176153647
  - # 6
    frequency:     8.5010445696
  - # 7
    frequency:     8.5010445696
  - # 8
    frequency:     9.4954076182
  - # 9
    frequency:     9.4954076182
  - # 10
    frequency:    10.8266897086
  - # 11
    frequency:    11.3906045577
  - # 12
    frequency:    11.3906045577

- q-position: [    0.3854167,    0.0104167,    0.0104167 ]
  weight: 24   
  band:
  - # 1
    frequency:     4.7287391427
  - # 2
    frequency:     4.7302947101
  - # 3
    frequency:     6.7377017513
  - # 4
    frequency:     6.7407123903
  - # 5
    frequency:     7.4638256372
  - # 6
    frequency:     8.5241170720
  - # 7
    frequency:     8.5241170720
  - # 8
    frequency:     9.6365859309
  - # 9
    frequency:     9.6365859309
  - # 10
    frequency:    10.6073382889
  - # 11
    frequency:    11.2538390163
  - # 12
    frequency:    11.2538390163

- q-position: [    0.4062500,    0.0104167,    0.0104167 ]
  weight: 24   
  band:
  - # 1
    frequency:     4.9441522435
  - # 2
    frequency:     4.9451621256
  - # 3
    frequency:     6.5898317663
  - # 4
    frequency:     6.5925309731
  - # 5
    frequency:     7.8009266133
  - # 6
    frequency:     8.5439298741
  - # 7
    frequency:     8.5439298741
  - # 8
    frequency:     9.7808350865
  - # 9
    frequency:     9.7808350865
  - # 10
    frequency:    10.3763339567
  - # 11
    frequency:    11.1133736333
  - # 12
    frequency:    11.1133736333

- q-position: [    0.4270833,    0.0104167,    0.0104167 ]
  weight: 24   
  band:
  - # 1
    frequency:     5.1535799114
  - # 2
    frequency:     5.1540782305
  - # 3
    frequency:     6.4346605394
  - # 4
    frequency:     6.4370309739
  - # 5
    frequency:     8.1285785467
  - # 6
    frequency:     8.5601679904
  - # 7
    frequency:     8.5601679904
  - # 8
    frequency:     9.9275257526
  - # 9
    frequency:     9.9275257526
  - # 10
    frequency:    10.1338095186
  - # 11
    frequency:    10.9697802853
  - # 12
    frequency:    10.9697802853

- q-position: [    0.4479167,    0.0104167,    0.0104167 ]
  weight: 24   
  band:
  - # 1
    frequency:     5.3568257604
  - # 2
    frequency:     5.3568428227
  - # 3
    frequency:     6.2722906408
  - # 4
    frequency:     6.2743143243
  - # 5
    frequency:     8.4464650185
  - # 6
    frequency:     8.5725749255
  - # 7
    frequency:     8.5725749255
  - # 8
    frequency:     9.8799150177
  - # 9
    frequency:    10.0760229228
  - # 10
    frequency:    10.0760229228
  - # 11
    frequency:    10.8236473899
  - # 12
    frequency:    10.8236473899

- q-position: [    0.4687500,    0.0104167,    0.0104167 ]
  weight: 24   
  band:
  - # 1
    frequency:     5.5532687440
  - # 2
    frequency:     5.5537057047
  - # 3
    frequency:     6.1028356011
  - # 4
    frequency:     6.1044937351
  - # 5
    frequency:     8.5809556951
  - # 6
    frequency:     8.5809556951
  - # 7
    frequency:     8.7542924947
  - # 8
    frequency:     9.6148186972
  - # 9
    frequency:    10.2256834317
  - # 10
    frequency:    10.2256834317
  - # 11
    frequency:    10.6755828211
  - # 12
    frequency:    10.6755828211

- q-position: [    0.4895833,    0.0104167,    0.0104167 ]
  weight: 24   
  band:
  - # 1
    frequency:     5.7431817593
  - # 2
    frequency:     5.7440479894
  - # 3
    frequency:     5.9264203759
  - # 4
    frequency:     5.9276931250
  - # 5
    frequency:     8.5851790718
  - # 6
    frequency:     8.5851790718
  - # 7
    frequency:     9.0517898590
  - # 8
    frequency:     9.3387078942
  - # 9
    frequency:    10.3757949817
  - # 10
    frequency:    10.3757949817
  - # 11
    frequency:    10.5262751871
  - # 12
    frequency:    10.5262751871

- q-position: [    0.0312500,    0.0312500,    0.0104167 ]
  weight: 24   
  band:
  - # 1
    frequency:     0.4357350788
  - # 2
    frequency:     0.5758046320
  - # 3
    frequency:     1.0458248145
  - # 4
    frequency:     8.0759719351
  - # 5
    frequency:     8.0775494524
  - # 6
    frequency:     8.0775494524
  - # 7
    frequency:     8.0959880717
  - # 8
    frequency:     8.0959880717
  - # 9
    frequency:     8.1282284956
  - # 10
    frequency:    12.6835455431
  - # 11
    frequency:    12.6835455431
  - # 12
    frequency:    12.6862798434

- q-position: [    0.0520833,    0.0312500,    0.0104167 ]
  weight: 48   
  band:
  - # 1
    frequency:     0.6310335553
  - # 2
    frequency:     0.7958097595
  - # 3
    frequency:     1.3924065671
  - # 4
    frequency:     8.0616664912
  - # 5
    frequency:     8.0730193831
  - # 6
    frequency:     8.0800468335
  - # 7
    frequency:     8.0844834486
  - # 8
    frequency:     8.1186469554
  - # 9
    frequency:     8.1605430735
  - # 10
    frequency:    12.6590785225
  - # 11
    frequency:    12.6647410374
  - # 12
    frequency:    12.6673184672

- q-position: [    0.0729167,    0.0312500,    0.0104167 ]
  weight: 48   
  band:
  - # 1
    frequency:     0.8883277204
  - # 2
    frequency:     1.0415220556
  - # 3
    frequency:     1.7663825052
  - # 4
    frequency:     8.0378445074
  - # 5
    frequency:     8.0561395905
  - # 6
    frequency:     8.0765072971
  - # 7
    frequency:     8.0964276147
  - # 8
    frequency:     8.1507436315
  - # 9
    frequency:     8.2007586467
  - # 10
    frequency:    12.6223796348
  - # 11
    frequency:    12.6366293001
  - # 12
    frequency:    12.6389703768

- q-position: [    0.0937500,    0.0312500,    0.0104167 ]
  weight: 48   
  band:
  - # 1
    frequency:     1.1617319054
  - # 2
    frequency:     1.2973703016
  - # 3
    frequency:     2.1546881603
  - # 4
    frequency:     8.0060866297
  - # 5
    frequency:     8.0242721014
  - # 6
    frequency:     8.0859901932
  - # 7
    frequency:     8.1127682048
  - # 8
    frequency:     8.1924809644
  - # 9
    frequency:     8.2489201114
  - # 10
    frequency:    12.5734512313
  - # 11
    frequency:    12.5993239604
  - # 12
    frequency:    12.6013479438

- q-position: [    0.1145833,    0.0312500,    0.0104167 ]
  weight: 48   
  band:
  - # 1
    frequency:     1.4382009921
  - # 2
    frequency:     1.5573429010
  - # 3
    frequency:     2.5508361425
  - # 4
    frequency:     7.9663973257
  - # 5
    frequency:     7.9844524108
  - # 6
    frequency:     8.1009335681
  - # 7
    frequency:     8.1329894025
  - # 8
    frequency:     8.2438387647
  - # 9
    frequency:     8.3050390344
  - # 10
    frequency:    12.5122970747
  - # 11
    frequency:    12.5529758649
  - # 12
    frequency:    12.5546003388

- q-position: [    0.1354167,    0.0312500,    0.0104167 ]
  weight: 48   
  band:
  - # 1
    frequency:     1.7136291161
  - # 2
    frequency:     1.8186031388
  - # 3
    frequency:     2.9508787610
  - # 4
    frequency:     7.9187826517
  - # 5
    frequency:     7.9366911560
  - # 6
    frequency:     8.1207394557
  - # 7
    frequency:     8.1566015188
  - # 8
    frequency:     8.3046551365
  - # 9
    frequency:     8.3690771439
  - # 10
    frequency:    12.4389228671
  - # 11
    frequency:    12.4977725181
  - # 12
    frequency:    12.4989129714

- q-position: [    0.1562500,    0.0312500,    0.0104167 ]
  weight: 48   
  band:
  - # 1
    frequency:     1.9865073281
  - # 2
    frequency:     2.0795625189
  - # 3
    frequency:     3.3521577022
  - # 4
    frequency:     7.8632505598
  - # 5
    frequency:     7.8810019416
  - # 6
    frequency:     8.1447596145
  - # 7
    frequency:     8.1831047892
  - # 8
    frequency:     8.3746739130
  - # 9
    frequency:     8.4409438289
  - # 10
    frequency:    12.3533368976
  - # 11
    frequency:    12.4339373884
  - # 12
    frequency:    12.4345067985

- q-position: [    0.1770833,    0.0312500,    0.0104167 ]
  weight: 48   
  band:
  - # 1
    frequency:     2.2561671771
  - # 2
    frequency:     2.3391968694
  - # 3
    frequency:     3.7527582386
  - # 4
    frequency:     7.7998112611
  - # 5
    frequency:     7.8174017754
  - # 6
    frequency:     8.1723079041
  - # 7
    frequency:     8.2119761359
  - # 8
    frequency:     8.4535704265
  - # 9
    frequency:     8.5204957348
  - # 10
    frequency:    12.2555508010
  - # 11
    frequency:    12.3616375030
  - # 12
    frequency:    12.3617290828

- q-position: [    0.1979167,    0.0312500,    0.0104167 ]
  weight: 48   
  band:
  - # 1
    frequency:     2.5222293971
  - # 2
    frequency:     2.5967676123
  - # 3
    frequency:     4.1512245715
  - # 4
    frequency:     7.7284776429
  - # 5
    frequency:     7.7459115551
  - # 6
    frequency:     8.2026730347
  - # 7
    frequency:     8.2426680035
  - # 8
    frequency:     8.5409661073
  - # 9
    frequency:     8.6075369077
  - # 10
    frequency:    12.1455804202
  - # 11
    frequency:    12.2805945497
  - # 12
    frequency:    12.2814403963

- q-position: [    0.2187500,    0.0312500,    0.0104167 ]
  weight: 48   
  band:
  - # 1
    frequency:     2.7844152649
  - # 2
    frequency:     2.8516950319
  - # 3
    frequency:     4.5463978661
  - # 4
    frequency:     7.6492657423
  - # 5
    frequency:     7.6665565949
  - # 6
    frequency:     8.2351313861
  - # 7
    frequency:     8.2746131428
  - # 8
    frequency:     8.6364376451
  - # 9
    frequency:     8.7018194240
  - # 10
    frequency:    12.0234467594
  - # 11
    frequency:    12.1917001243
  - # 12
    frequency:    12.1933972397

- q-position: [    0.2395833,    0.0312500,    0.0104167 ]
  weight: 48   
  band:
  - # 1
    frequency:     3.0424793484
  - # 2
    frequency:     3.1034954918
  - # 3
    frequency:     4.9373195535
  - # 4
    frequency:     7.5621952753
  - # 5
    frequency:     7.5793671765
  - # 6
    frequency:     8.2689593853
  - # 7
    frequency:     8.3072322102
  - # 8
    frequency:     8.7395234886
  - # 9
    frequency:     8.8030446798
  - # 10
    frequency:    11.8891770197
  - # 11
    frequency:    12.0953079621
  - # 12
    frequency:    12.0979574520

- q-position: [    0.2604167,    0.0312500,    0.0104167 ]
  weight: 48   
  band:
  - # 1
    frequency:     3.2961858805
  - # 2
    frequency:     3.3517481531
  - # 3
    frequency:     5.3231716831
  - # 4
    frequency:     7.4672902281
  - # 5
    frequency:     7.4843791076
  - # 6
    frequency:     8.3034450157
  - # 7
    frequency:     8.3399425673
  - # 8
    frequency:     8.8497289786
  - # 9
    frequency:     8.9108654567
  - # 10
    frequency:    11.7428057028
  - # 11
    frequency:    11.9918020765
  - # 12
    frequency:    11.9955095044

- q-position: [    0.2812500,    0.0312500,    0.0104167 ]
  weight: 48   
  band:
  - # 1
    frequency:     3.5453014501
  - # 2
    frequency:     3.5960763546
  - # 3
    frequency:     5.7032391580
  - # 4
    frequency:     7.3645795124
  - # 5
    frequency:     7.3816342676
  - # 6
    frequency:     8.3378981964
  - # 7
    frequency:     8.3721674125
  - # 8
    frequency:     8.9665307205
  - # 9
    frequency:     9.0248887666
  - # 10
    frequency:    11.5843757720
  - # 11
    frequency:    11.8815953961
  - # 12
    frequency:    11.8864711022

- q-position: [    0.3020833,    0.0312500,    0.0104167 ]
  weight: 48   
  band:
  - # 1
    frequency:     3.7895938184
  - # 2
    frequency:     3.8361367342
  - # 3
    frequency:     6.0768852771
  - # 4
    frequency:     7.2540976904
  - # 5
    frequency:     7.2711811230
  - # 6
    frequency:     8.3716599199
  - # 7
    frequency:     8.4033447495
  - # 8
    frequency:     9.0893804771
  - # 9
    frequency:     9.1446793664
  - # 10
    frequency:    11.4139398577
  - # 11
    frequency:    11.7651283251
  - # 12
    frequency:    11.7712876969

- q-position: [    0.3229167,    0.0312500,    0.0104167 ]
  weight: 48   
  band:
  - # 1
    frequency:     4.0288329136
  - # 2
    frequency:     4.0716126438
  - # 3
    frequency:     6.4435355646
  - # 4
    frequency:     7.1358857644
  - # 5
    frequency:     7.1530751997
  - # 6
    frequency:     8.4041101545
  - # 7
    frequency:     8.4329359029
  - # 8
    frequency:     9.2177087107
  - # 9
    frequency:     9.2697637652
  - # 10
    frequency:    11.2315614938
  - # 11
    frequency:    11.6428672448
  - # 12
    frequency:    11.6504309203

- q-position: [    0.3437500,    0.0312500,    0.0104167 ]
  weight: 48   
  band:
  - # 1
    frequency:     4.2627924510
  - # 2
    frequency:     4.3022100393
  - # 3
    frequency:     6.8026668653
  - # 4
    frequency:     7.0099920194
  - # 5
    frequency:     7.0273795080
  - # 6
    frequency:     8.4346745855
  - # 7
    frequency:     8.4604334071
  - # 8
    frequency:     9.3509278250
  - # 9
    frequency:     9.3996345107
  - # 10
    frequency:    11.0373163746
  - # 11
    frequency:    11.5153029883
  - # 12
    frequency:    11.5243969660

- q-position: [    0.3645833,    0.0312500,    0.0104167 ]
  weight: 48   
  band:
  - # 1
    frequency:     4.4912515784
  - # 2
    frequency:     4.5276548402
  - # 3
    frequency:     6.8764728927
  - # 4
    frequency:     6.8941649316
  - # 5
    frequency:     7.1537998438
  - # 6
    frequency:     8.4628303019
  - # 7
    frequency:     8.4853681712
  - # 8
    frequency:     9.4884351025
  - # 9
    frequency:     9.5337545235
  - # 10
    frequency:    10.8312936187
  - # 11
    frequency:    11.3829493468
  - # 12
    frequency:    11.3937049656

- q-position: [    0.3854167,    0.0312500,    0.0104167 ]
  weight: 48   
  band:
  - # 1
    frequency:     4.7139963343
  - # 2
    frequency:     4.7476911782
  - # 3
    frequency:     6.7353938283
  - # 4
    frequency:     6.7535106046
  - # 5
    frequency:     7.4964937146
  - # 6
    frequency:     8.4881105383
  - # 7
    frequency:     8.5073158711
  - # 8
    frequency:     9.6296152557
  - # 9
    frequency:     9.6715611998
  - # 10
    frequency:    10.6135970301
  - # 11
    frequency:    11.2463417432
  - # 12
    frequency:    11.2588954689

- q-position: [    0.4062500,    0.0312500,    0.0104167 ]
  weight: 48   
  band:
  - # 1
    frequency:     4.9308208638
  - # 2
    frequency:     4.9620801868
  - # 3
    frequency:     6.5868300674
  - # 4
    frequency:     6.6055043125
  - # 5
    frequency:     7.8303424462
  - # 6
    frequency:     8.5101085731
  - # 7
    frequency:     8.5259025526
  - # 8
    frequency:     9.7738423160
  - # 9
    frequency:     9.8124698138
  - # 10
    frequency:    10.3843463484
  - # 11
    frequency:    11.1060364391
  - # 12
    frequency:    11.1205293276

- q-position: [    0.4270833,    0.0312500,    0.0104167 ]
  weight: 48   
  band:
  - # 1
    frequency:     5.1415283958
  - # 2
    frequency:     5.1705991143
  - # 3
    frequency:     6.4308673254
  - # 4
    frequency:     6.4502429488
  - # 5
    frequency:     8.1549719472
  - # 6
    frequency:     8.5284808660
  - # 7
    frequency:     8.5408094502
  - # 8
    frequency:     9.9204799167
  - # 9
    frequency:     9.9558749430
  - # 10
    frequency:    10.1436784772
  - # 11
    frequency:    10.9626114814
  - # 12
    frequency:    10.9791879431

- q-position: [    0.4479167,    0.0312500,    0.0104167 ]
  weight: 48   
  band:
  - # 1
    frequency:     5.3459320118
  - # 2
    frequency:     5.3730406217
  - # 3
    frequency:     6.2676023198
  - # 4
    frequency:     6.2878330505
  - # 5
    frequency:     8.4700379021
  - # 6
    frequency:     8.5429494968
  - # 7
    frequency:     8.5517770439
  - # 8
    frequency:     9.8917486898
  - # 9
    frequency:    10.0688760452
  - # 10
    frequency:    10.1011447114
  - # 11
    frequency:    10.8166745561
  - # 12
    frequency:    10.8354788184

- q-position: [    0.4687500,    0.0312500,    0.0104167 ]
  weight: 48   
  band:
  - # 1
    frequency:     5.5438552382
  - # 2
    frequency:     5.5692121717
  - # 3
    frequency:     6.0971431344
  - # 4
    frequency:     6.1183914114
  - # 5
    frequency:     8.5533039518
  - # 6
    frequency:     8.5586083787
  - # 7
    frequency:     8.7752240353
  - # 8
    frequency:     9.6287318057
  - # 9
    frequency:    10.2183284935
  - # 10
    frequency:    10.2475736064
  - # 11
    frequency:    10.6689119845
  - # 12
    frequency:    10.6900701958

- q-position: [    0.4895833,    0.0312500,    0.0104167 ]
  weight: 48   
  band:
  - # 1
    frequency:     5.7351324948
  - # 2
    frequency:     5.7589354470
  - # 3
    frequency:     5.9196094262
  - # 4
    frequency:     5.9420457572
  - # 5
    frequency:     8.5594022863
  - # 6
    frequency:     8.5611716787
  - # 7
    frequency:     9.0702406508
  - # 8
    frequency:     9.3548233431
  - # 9
    frequency:    10.3676768963
  - # 10
    frequency:    10.3936191778
  - # 11
    frequency:    10.5208535501
  - # 12
    frequency:    10.5440988978

- q-position: [    0.0520833,    0.0520833,    0.0104167 ]
  weight: 24   
  band:
  - # 1
    frequency:     0.7028583826
  - # 2
    frequency:     0.9672729945
  - # 3
    frequency:     1.7006230996
  - # 4
    frequency:     8.0592784635
  - # 5
    frequency:     8.0685022872
  - # 6
    frequency:     8.0685022872
  - # 7
    frequency:     8.1027042441
  - # 8
    frequency:     8.1027042441
  - # 9
    frequency:     8.2030899140
  - # 10
    frequency:    12.6406507468
  - # 11
    frequency:    12.6406507468
  - # 12
    frequency:    12.6484200363

- q-position: [    0.0729167,    0.0520833,    0.0104167 ]
  weight: 48   
  band:
  - # 1
    frequency:     0.8834168983
  - # 2
    frequency:     1.1781503712
  - # 3
    frequency:     2.0423973320
  - # 4
    frequency:     8.0445300762
  - # 5
    frequency:     8.0522414756
  - # 6
    frequency:     8.0787976140
  - # 7
    frequency:     8.0802482526
  - # 8
    frequency:     8.1348450465
  - # 9
    frequency:     8.2530090652
  - # 10
    frequency:    12.6045162460
  - # 11
    frequency:    12.6131052753
  - # 12
    frequency:    12.6201655394

- q-position: [    0.0937500,    0.0520833,    0.0104167 ]
  weight: 48   
  band:
  - # 1
    frequency:     1.1199034053
  - # 2
    frequency:     1.4098732344
  - # 3
    frequency:     2.4024829288
  - # 4
    frequency:     8.0125665113
  - # 5
    frequency:     8.0469361297
  - # 6
    frequency:     8.0517936962
  - # 7
    frequency:     8.0962884864
  - # 8
    frequency:     8.1766689037
  - # 9
    frequency:     8.3100293801
  - # 10
    frequency:    12.5563390645
  - # 11
    frequency:    12.5765571444
  - # 12
    frequency:    12.5826663681

- q-position: [    0.1145833,    0.0520833,    0.0104167 ]
  weight: 48   
  band:
  - # 1
    frequency:     1.3801006568
  - # 2
    frequency:     1.6527238753
  - # 3
    frequency:     2.7736856481
  - # 4
    frequency:     7.9726116268
  - # 5
    frequency:     8.0071320988
  - # 6
    frequency:     8.0576231277
  - # 7
    frequency:     8.1161076521
  - # 8
    frequency:     8.2281482025
  - # 9
    frequency:     8.3739584645
  - # 10
    frequency:    12.4961219167
  - # 11
    frequency:    12.5311590807
  - # 12
    frequency:    12.5360704010

- q-position: [    0.1354167,    0.0520833,    0.0104167 ]
  weight: 48   
  band:
  - # 1
    frequency:     1.6494656538
  - # 2