  36  36   0   0
  0.1711627E+02  0.8820702E-09  0.8820702E-09  0.9115400E-09  0.5000000E-15
  1.000000000000000E-004
  CAR 
 unknown system                          
      8.89112860    -29.15104915  301      6.05094771      1.00000000
    -29.151  0.0000E+00  0.0000E+00
    -29.024  0.0000E+00  0.0000E+00
    -28.897  0.0000E+00  0.0000E+00
    -28.771  0.0000E+00  0.0000E+00
    -28.644  0.0000E+00  0.0000E+00
    -28.517  0.0000E+00  0.0000E+00
    -28.390  0.0000E+00  0.0000E+00
    -28.263  0.0000E+00  0.0000E+00
    -28.137  0.0000E+00  0.0000E+00
    -28.010  0.0000E+00  0.0000E+00
    -27.883  0.0000E+00  0.0000E+00
    -27.756  0.0000E+00  0.0000E+00
    -27.629  0.0000E+00  0.0000E+00
    -27.503  0.0000E+00  0.0000E+00
    -27.376  0.4846E+01  0.6145E+00
    -27.249  0.8915E+02  0.1311E+02
    -27.122  0.1307E+03  0.4787E+02
    -26.995  0.1165E+03  0.7206E+02
    -26.869  0.1941E+03  0.1065E+03
    -26.742  0.3490E+03  0.1715E+03
    -26.615  0.1365E+03  0.2159E+03
    -26.488  0.0000E+00  0.2160E+03
    -26.361  0.0000E+00  0.2160E+03
    -26.234  0.0000E+00  0.2160E+03
    -26.108  0.0000E+00  0.2160E+03
    -25.981  0.0000E+00  0.2160E+03
    -25.854  0.0000E+00  0.2160E+03
    -25.727  0.0000E+00  0.2160E+03
    -25.600  0.0000E+00  0.2160E+03
    -25.474  0.0000E+00  0.2160E+03
    -25.347  0.0000E+00  0.2160E+03
    -25.220  0.0000E+00  0.2160E+03
    -25.093  0.0000E+00  0.2160E+03
    -24.966  0.0000E+00  0.2160E+03
    -24.840  0.0000E+00  0.2160E+03
    -24.713  0.0000E+00  0.2160E+03
    -24.586  0.0000E+00  0.2160E+03
    -24.459  0.0000E+00  0.2160E+03
    -24.332  0.0000E+00  0.2160E+03
    -24.206  0.0000E+00  0.2160E+03
    -24.079  0.0000E+00  0.2160E+03
    -23.952  0.0000E+00  0.2160E+03
    -23.825  0.0000E+00  0.2160E+03
    -23.698  0.0000E+00  0.2160E+03
    -23.572  0.0000E+00  0.2160E+03
    -23.445  0.0000E+00  0.2160E+03
    -23.318  0.0000E+00  0.2160E+03
    -23.191  0.0000E+00  0.2160E+03
    -23.064  0.0000E+00  0.2160E+03
    -22.937  0.0000E+00  0.2160E+03
    -22.811  0.0000E+00  0.2160E+03
    -22.684  0.0000E+00  0.2160E+03
    -22.557  0.0000E+00  0.2160E+03
    -22.430  0.0000E+00  0.2160E+03
    -22.303  0.0000E+00  0.2160E+03
    -22.177  0.0000E+00  0.2160E+03
    -22.050  0.0000E+00  0.2160E+03
    -21.923  0.0000E+00  0.2160E+03
    -21.796  0.0000E+00  0.2160E+03
    -21.669  0.0000E+00  0.2160E+03
    -21.543  0.0000E+00  0.2160E+03
    -21.416  0.0000E+00  0.2160E+03
    -21.289  0.0000E+00  0.2160E+03
    -21.162  0.0000E+00  0.2160E+03
    -21.035  0.0000E+00  0.2160E+03
    -20.909  0.0000E+00  0.2160E+03
    -20.782  0.0000E+00  0.2160E+03
    -20.655  0.0000E+00  0.2160E+03
    -20.528  0.0000E+00  0.2160E+03
    -20.401  0.0000E+00  0.2160E+03
    -20.275  0.0000E+00  0.2160E+03
    -20.148  0.0000E+00  0.2160E+03
    -20.021  0.0000E+00  0.2160E+03
    -19.894  0.0000E+00  0.2160E+03
    -19.767  0.0000E+00  0.2160E+03
    -19.641  0.0000E+00  0.2160E+03
    -19.514  0.0000E+00  0.2160E+03
    -19.387  0.0000E+00  0.2160E+03
    -19.260  0.0000E+00  0.2160E+03
    -19.133  0.0000E+00  0.2160E+03
    -19.006  0.0000E+00  0.2160E+03
    -18.880  0.0000E+00  0.2160E+03
    -18.753  0.0000E+00  0.2160E+03
    -18.626  0.0000E+00  0.2160E+03
    -18.499  0.0000E+00  0.2160E+03
    -18.372  0.0000E+00  0.2160E+03
    -18.246  0.0000E+00  0.2160E+03
    -18.119  0.0000E+00  0.2160E+03
    -17.992  0.0000E+00  0.2160E+03
    -17.865  0.0000E+00  0.2160E+03
    -17.738  0.0000E+00  0.2160E+03
    -17.612  0.0000E+00  0.2160E+03
    -17.485  0.0000E+00  0.2160E+03
    -17.358  0.0000E+00  0.2160E+03
    -17.231  0.0000E+00  0.2160E+03
    -17.104  0.0000E+00  0.2160E+03
    -16.978  0.0000E+00  0.2160E+03
    -16.851  0.0000E+00  0.2160E+03
    -16.724  0.0000E+00  0.2160E+03
    -16.597  0.0000E+00  0.2160E+03
    -16.470  0.0000E+00  0.2160E+03
    -16.344  0.0000E+00  0.2160E+03
    -16.217  0.0000E+00  0.2160E+03
    -16.090  0.0000E+00  0.2160E+03
    -15.963  0.0000E+00  0.2160E+03
    -15.836  0.0000E+00  0.2160E+03
    -15.709  0.0000E+00  0.2160E+03
    -15.583  0.0000E+00  0.2160E+03
    -15.456  0.0000E+00  0.2160E+03
    -15.329  0.0000E+00  0.2160E+03
    -15.202  0.0000E+00  0.2160E+03
    -15.075  0.0000E+00  0.2160E+03
    -14.949  0.0000E+00  0.2160E+03
    -14.822  0.0000E+00  0.2160E+03
    -14.695  0.0000E+00  0.2160E+03
    -14.568  0.0000E+00  0.2160E+03
    -14.441  0.0000E+00  0.2160E+03
    -14.315  0.0000E+00  0.2160E+03
    -14.188  0.0000E+00  0.2160E+03
    -14.061  0.0000E+00  0.2160E+03
    -13.934  0.0000E+00  0.2160E+03
    -13.807  0.0000E+00  0.2160E+03
    -13.681  0.0000E+00  0.2160E+03
    -13.554  0.0000E+00  0.2160E+03
    -13.427  0.0000E+00  0.2160E+03
    -13.300  0.0000E+00  0.2160E+03
    -13.173  0.0000E+00  0.2160E+03
    -13.047  0.0000E+00  0.2160E+03
    -12.920  0.0000E+00  0.2160E+03
    -12.793  0.0000E+00  0.2160E+03
    -12.666  0.0000E+00  0.2160E+03
    -12.539  0.0000E+00  0.2160E+03
    -12.412  0.0000E+00  0.2160E+03
    -12.286  0.0000E+00  0.2160E+03
    -12.159  0.0000E+00  0.2160E+03
    -12.032  0.0000E+00  0.2160E+03
    -11.905  0.0000E+00  0.2160E+03
    -11.778  0.0000E+00  0.2160E+03
    -11.652  0.0000E+00  0.2160E+03
    -11.525  0.0000E+00  0.2160E+03
    -11.398  0.0000E+00  0.2160E+03
    -11.271  0.0000E+00  0.2160E+03
    -11.144  0.0000E+00  0.2160E+03
    -11.018  0.0000E+00  0.2160E+03
    -10.891  0.0000E+00  0.2160E+03
    -10.764  0.0000E+00  0.2160E+03
    -10.637  0.0000E+00  0.2160E+03
    -10.510  0.0000E+00  0.2160E+03
    -10.384  0.0000E+00  0.2160E+03
    -10.257  0.0000E+00  0.2160E+03
    -10.130  0.0000E+00  0.2160E+03
    -10.003  0.0000E+00  0.2160E+03
     -9.876  0.0000E+00  0.2160E+03
     -9.750  0.0000E+00  0.2160E+03
     -9.623  0.0000E+00  0.2160E+03
     -9.496  0.0000E+00  0.2160E+03
     -9.369  0.0000E+00  0.2160E+03
     -9.242  0.0000E+00  0.2160E+03
     -9.116  0.0000E+00  0.2160E+03
     -8.989  0.0000E+00  0.2160E+03
     -8.862  0.0000E+00  0.2160E+03
     -8.735  0.0000E+00  0.2160E+03
     -8.608  0.0000E+00  0.2160E+03
     -8.481  0.0000E+00  0.2160E+03
     -8.355  0.0000E+00  0.2160E+03
     -8.228  0.0000E+00  0.2160E+03
     -8.101  0.0000E+00  0.2160E+03
     -7.974  0.0000E+00  0.2160E+03
     -7.847  0.0000E+00  0.2160E+03
     -7.721  0.0000E+00  0.2160E+03
     -7.594  0.0000E+00  0.2160E+03
     -7.467  0.0000E+00  0.2160E+03
     -7.340  0.0000E+00  0.2160E+03
     -7.213  0.0000E+00  0.2160E+03
     -7.087  0.0000E+00  0.2160E+03
     -6.960  0.0000E+00  0.2160E+03
     -6.833  0.0000E+00  0.2160E+03
     -6.706  0.0000E+00  0.2160E+03
     -6.579  0.0000E+00  0.2160E+03
     -6.453  0.0000E+00  0.2160E+03
     -6.326  0.0000E+00  0.2160E+03
     -6.199  0.0000E+00  0.2160E+03
     -6.072  0.0000E+00  0.2160E+03
     -5.945  0.0000E+00  0.2160E+03
     -5.819  0.0000E+00  0.2160E+03
     -5.692  0.0000E+00  0.2160E+03
     -5.565  0.0000E+00  0.2160E+03
     -5.438  0.0000E+00  0.2160E+03
     -5.311  0.0000E+00  0.2160E+03
     -5.184  0.0000E+00  0.2160E+03
     -5.058  0.0000E+00  0.2160E+03
     -4.931  0.0000E+00  0.2160E+03
     -4.804  0.0000E+00  0.2160E+03
     -4.677  0.0000E+00  0.2160E+03
     -4.550  0.0000E+00  0.2160E+03
     -4.424  0.0000E+00  0.2160E+03
     -4.297  0.0000E+00  0.2160E+03
     -4.170  0.0000E+00  0.2160E+03
     -4.043  0.0000E+00  0.2160E+03
     -3.916  0.0000E+00  0.2160E+03
     -3.790  0.0000E+00  0.2160E+03
     -3.663  0.0000E+00  0.2160E+03
     -3.536  0.0000E+00  0.2160E+03
     -3.409  0.0000E+00  0.2160E+03
     -3.282  0.0000E+00  0.2160E+03
     -3.156  0.0000E+00  0.2160E+03
     -3.029  0.0000E+00  0.2160E+03
     -2.902  0.0000E+00  0.2160E+03
     -2.775  0.0000E+00  0.2160E+03
     -2.648  0.0000E+00  0.2160E+03
     -2.522  0.0000E+00  0.2160E+03
     -2.395  0.0000E+00  0.2160E+03
     -2.268  0.0000E+00  0.2160E+03
     -2.141  0.0000E+00  0.2160E+03
     -2.014  0.0000E+00  0.2160E+03
     -1.887  0.0000E+00  0.2160E+03
     -1.761  0.0000E+00  0.2160E+03
     -1.634  0.0000E+00  0.2160E+03
     -1.507  0.0000E+00  0.2160E+03
     -1.380  0.0000E+00  0.2160E+03
     -1.253  0.0000E+00  0.2160E+03
     -1.127  0.0000E+00  0.2160E+03
     -1.000  0.0000E+00  0.2160E+03
     -0.873  0.0000E+00  0.2160E+03
     -0.746  0.0000E+00  0.2160E+03
     -0.619  0.0000E+00  0.2160E+03
     -0.493  0.0000E+00  0.2160E+03
     -0.366  0.0000E+00  0.2160E+03
     -0.239  0.0000E+00  0.2160E+03
     -0.112  0.6439E-01  0.2160E+03
      0.015  0.8422E+00  0.2162E+03
      0.141  0.1119E+01  0.2164E+03
      0.268  0.1469E+01  0.2166E+03
      0.395  0.2247E+01  0.2170E+03
      0.522  0.1545E+01  0.2172E+03
      0.649  0.2448E+01  0.2175E+03
      0.775  0.2320E+01  0.2181E+03
      0.902  0.1553E+01  0.2184E+03
      1.029  0.3662E+01  0.2190E+03
      1.156  0.2373E+01  0.2195E+03
      1.283  0.1105E+01  0.2198E+03
      1.410  0.4616E+01  0.2208E+03
      1.536  0.3070E+01  0.2213E+03
      1.663  0.3816E+01  0.2220E+03
      1.790  0.3485E+01  0.2228E+03
      1.917  0.3901E+01  0.2235E+03
      2.044  0.4634E+01  0.2244E+03
      2.170  0.4929E+01  0.2254E+03
      2.297  0.3348E+01  0.2264E+03
      2.424  0.5766E+01  0.2272E+03
      2.551  0.7421E+01  0.2287E+03
      2.678  0.5803E+01  0.2301E+03
      2.804  0.6553E+01  0.2312E+03
      2.931  0.7625E+01  0.2327E+03
      3.058  0.1004E+02  0.2348E+03
      3.185  0.1387E+02  0.2371E+03
      3.312  0.1614E+02  0.2398E+03
      3.438  0.1496E+02  0.2429E+03
      3.565  0.2574E+02  0.2486E+03
      3.692  0.2381E+02  0.2526E+03
      3.819  0.2096E+02  0.2568E+03
      3.946  0.2453E+02  0.2615E+03
      4.072  0.1760E+02  0.2667E+03
      4.199  0.3046E+02  0.2731E+03
      4.326  0.4541E+02  0.2809E+03
      4.453  0.3534E+02  0.2877E+03
      4.580  0.1836E+02  0.2919E+03
      4.706  0.2565E+02  0.2974E+03
      4.833  0.2280E+02  0.3024E+03
      4.960  0.3169E+02  0.3093E+03
      5.087  0.2857E+02  0.3147E+03
      5.214  0.4244E+02  0.3232E+03
      5.341  0.3267E+02  0.3311E+03
      5.467  0.4976E+02  0.3402E+03
      5.594  0.3068E+02  0.3474E+03
      5.721  0.1907E+02  0.3509E+03
      5.848  0.2319E+02  0.3545E+03
      5.975  0.9510E+01  0.3570E+03
      6.101  0.2198E+02  0.3616E+03
      6.228  0.4292E+02  0.3690E+03
      6.355  0.4277E+02  0.3787E+03
      6.482  0.5231E+02  0.3895E+03
      6.609  0.4375E+02  0.3982E+03
      6.735  0.4480E+02  0.4068E+03
      6.862  0.5823E+02  0.4176E+03
      6.989  0.4696E+02  0.4285E+03
      7.116  0.9869E+01  0.4319E+03
      7.243  0.0000E+00  0.4320E+03
      7.369  0.0000E+00  0.4320E+03
      7.496  0.0000E+00  0.4320E+03
      7.623  0.0000E+00  0.4320E+03
      7.750  0.0000E+00  0.4320E+03
      7.877  0.0000E+00  0.4320E+03
      8.003  0.0000E+00  0.4320E+03
      8.130  0.0000E+00  0.4320E+03
      8.257  0.0000E+00  0.4320E+03
      8.384  0.0000E+00  0.4320E+03
      8.511  0.0000E+00  0.4320E+03
      8.638  0.0000E+00  0.4320E+03
      8.764  0.0000E+00  0.4320E+03
      8.891  0.0000E+00  0.4320E+03
