   36   36    1    1
  0.1711627E+02  0.8820702E-09  0.8820702E-09  0.9115400E-09  0.5000000E-15
  1.000000000000000E-004
  CAR 
 unknown system                          
  360  123  216
 
  0.0000000E+00  0.0000000E+00  0.0000000E+00  0.4081633E-02
   1      -27.4219
   2      -27.2160
   3      -27.2159
   4      -27.2158
   5      -27.2157
   6      -27.2101
   7      -27.2098
   8      -27.2096
   9      -27.2093
  10      -27.2093
  11      -27.2092
  12      -27.2050
  13      -27.2049
  14      -27.2049
  15      -27.2048
  16      -27.2048
  17      -27.2047
  18      -27.2046
  19      -27.2044
  20      -27.2017
  21      -27.2016
  22      -27.2015
  23      -27.2014
  24      -27.1221
  25      -27.1217
  26      -27.0842
  27      -27.0839
  28      -27.0830
  29      -27.0829
  30      -27.0828
  31      -27.0826
  32      -27.0453
  33      -27.0446
  34      -26.9969
  35      -26.9966
  36      -26.9948
  37      -26.9945
  38      -26.9922
  39      -26.9917
  40      -26.9917
  41      -26.9913
  42      -26.9668
  43      -26.9663
  44      -26.9623
  45      -26.9620
  46      -26.9566
  47      -26.9564
  48      -26.9563
  49      -26.9563
  50      -26.9558
  51      -26.9557
  52      -26.8588
  53      -26.8584
  54      -26.8556
  55      -26.8556
  56      -26.8453
  57      -26.8452
  58      -26.8451
  59      -26.8450
  60      -26.8052
  61      -26.8050
  62      -26.8048
  63      -26.8047
  64      -26.8030
  65      -26.8030
  66      -26.8026
  67      -26.8026
  68      -26.8025
  69      -26.8024
  70      -26.8023
  71      -26.8019
  72      -26.7679
  73      -26.7675
  74      -26.7675
  75      -26.7670
  76      -26.7643
  77      -26.7640
  78      -26.7639
  79      -26.7638
  80      -26.7637
  81      -26.7635
  82      -26.7552
  83      -26.7552
  84      -26.7551
  85      -26.7550
  86      -26.7549
  87      -26.7549
  88      -26.7548
  89      -26.7544
  90      -26.7428
  91      -26.7383
  92      -26.7382
  93      -26.7382
  94      -26.7381
  95      -26.7330
  96      -26.6823
  97      -26.6822
  98      -26.6754
  99      -26.6752
 100      -26.6705
 101      -26.6703
 102      -26.6637
 103      -26.6635
 104      -26.6635
 105      -26.6633
 106      -26.6473
 107      -26.6212
 108      -26.6173
 109       -0.1476
 110        1.7778
 111        1.7780
 112        2.4044
 113        2.4047
 114        2.4048
 115        2.4051
 116        2.4213
 117        2.4216
 118        3.3202
 119        3.3206
 120        3.3208
 121        3.3209
 122        3.3210
 123        3.3212
 124        3.3214
 125        3.3215
 126        3.3341
 127        3.3346
 128        3.3347
 129        3.3349
 130        3.3368
 131        4.2419
 132        4.2426
 133        4.2502
 134        4.2507
 135        4.2509
 136        4.2514
 137        4.2686
 138        4.2702
 139        4.5681
 140        4.5682
 141        4.5792
 142        4.5793
 143        4.6159
 144        4.6170
 145        4.6387
 146        4.6401
 147        4.6402
 148        4.6405
 149        4.6885
 150        4.6886
 151        4.7521
 152        4.7531
 153        4.7539
 154        4.7549
 155        4.9382
 156        4.9395
 157        4.9396
 158        4.9409
 159        5.3531
 160        5.3538
 161        5.3540
 162        5.3548
 163        5.3612
 164        5.3637
 165        5.3640
 166        5.3641
 167        5.3642
 168        5.3645
 169        5.3646
 170        5.3651
 171        5.3661
 172        5.3663
 173        5.3665
 174        5.3692
 175        5.3818
 176        5.3833
 177        5.8254
 178        5.8255
 179        5.8255
 180        5.8257
 181        6.2065
 182        6.2094
 183        6.2588
 184        6.2599
 185        6.3129
 186        6.3146
 187        6.5902
 188        6.5910
 189        6.6156
 190        6.6158
 191        6.6298
 192        6.6302
 193        6.6307
 194        6.6309
 195        6.6312
 196        6.6317
 197        6.6321
 198        6.6331
 199        6.6434
 200        6.6443
 201        6.6448
 202        6.6449
 203        6.6696
 204        6.6710
 205        6.6715
 206        6.6722
 207        6.6757
 208        6.6763
 209        6.7354
 210        6.8280
 211        6.9080
 212        6.9102
 213        6.9118
 214        6.9219
 215        6.9302
 216        6.9324
 
  0.1428571E+00  0.0000000E+00  0.0000000E+00  0.8163265E-02
   1      -27.4166
   2      -27.2568
   3      -27.2434
   4      -27.2434
   5      -27.2305
   6      -27.2301
   7      -27.2237
   8      -27.2236
   9      -27.2211
  10      -27.2210
  11      -27.2208
  12      -27.2207
  13      -27.2205
  14      -27.2204
  15      -27.1839
  16      -27.1838
  17      -27.1837
  18      -27.1828
  19      -27.1806
  20      -27.1804
  21      -27.1633
  22      -27.1622
  23      -27.1620
  24      -27.1368
  25      -27.1274
  26      -27.1247
  27      -27.1114
  28      -27.1087
  29      -27.0512
  30      -27.0507
  31      -27.0473
  32      -27.0466
  33      -27.0187
  34      -27.0092
  35      -27.0059
  36      -27.0050
  37      -27.0045
  38      -27.0010
  39      -26.9845
  40      -26.9832
  41      -26.9819
  42      -26.9817
  43      -26.9815
  44      -26.9810
  45      -26.9795
  46      -26.9792
  47      -26.9357
  48      -26.9347
  49      -26.9295
  50      -26.9251
  51      -26.8975
  52      -26.8659
  53      -26.8611
  54      -26.8565
  55      -26.8447
  56      -26.8442
  57      -26.8441
  58      -26.8348
  59      -26.8259
  60      -26.8166
  61      -26.8165
  62      -26.8124
  63      -26.8123
  64      -26.8071
  65      -26.8070
  66      -26.8065
  67      -26.8064
  68      -26.8048
  69      -26.8046
  70      -26.7990
  71      -26.7943
  72      -26.7941
  73      -26.7855
  74      -26.7815
  75      -26.7670
  76      -26.7667
  77      -26.7659
  78      -26.7657
  79      -26.7585
  80      -26.7583
  81      -26.7547
  82      -26.7545
  83      -26.7536
  84      -26.7515
  85      -26.7511
  86      -26.7474
  87      -26.7472
  88      -26.7408
  89      -26.7406
  90      -26.7395
  91      -26.7395
  92      -26.7389
  93      -26.7388
  94      -26.7377
  95      -26.7371
  96      -26.6880
  97      -26.6879
  98      -26.6809
  99      -26.6785
 100      -26.6784
 101      -26.6742
 102      -26.6714
 103      -26.6711
 104      -26.6649
 105      -26.6543
 106      -26.6499
 107      -26.6311
 108      -26.6192
 109       -0.0839
 110        1.8314
 111        1.8316
 112        1.8501
 113        2.1722
 114        2.1852
 115        2.7064
 116        2.7252
 117        2.9186
 118        3.1303
 119        3.1305
 120        3.2708
 121        3.2710
 122        3.2825
 123        3.2828
 124        3.3855
 125        3.4142
 126        3.4145
 127        3.4191
 128        3.4194
 129        3.4279
 130        3.4282
 131        4.1356
 132        4.2188
 133        4.2282
 134        4.2674
 135        4.2759
 136        4.2887
 137        4.3092
 138        4.3182
 139        4.4205
 140        4.4249
 141        4.4348
 142        4.4973
 143        4.5200
 144        4.5207
 145        4.5228
 146        4.5235
 147        4.5243
 148        4.5834
 149        4.6134
 150        4.7127
 151        4.7362
 152        4.7467
 153        4.7657
 154        4.9255
 155        5.1679
 156        5.1686
 157        5.1760
 158        5.1768
 159        5.3018
 160        5.3156
 161        5.3168
 162        5.3219
 163        5.3271
 164        5.3461
 165        5.3503
 166        5.3509
 167        5.3514
 168        5.3523
 169        5.3751
 170        5.3982
 171        5.3991
 172        5.4014
 173        5.4026
 174        5.4212
 175        5.4223
 176        5.4345
 177        5.8137
 178        5.8140
 179        5.8169
 180        5.8171
 181        6.1392
 182        6.1418
 183        6.1926
 184        6.2386
 185        6.3717
 186        6.4203
 187        6.4886
 188        6.4891
 189        6.4918
 190        6.4921
 191        6.4948
 192        6.5207
 193        6.5213
 194        6.5330
 195        6.5416
 196        6.6098
 197        6.6269
 198        6.6361
 199        6.6362
 200        6.6480
 201        6.6589
 202        6.6595
 203        6.6999
 204        6.7006
 205        6.7044
 206        6.7047
 207        6.7841
 208        6.8290
 209        6.8337
 210        6.8582
 211        6.8796
 212        6.8832
 213        6.8887
 214        6.8918
 215        6.9235
 216        6.9313
 
  0.2857143E+00  0.0000000E+00  0.0000000E+00  0.8163265E-02
   1      -27.4011
   2      -27.3021
   3      -27.2725
   4      -27.2724
   5      -27.2447
   6      -27.2444
   7      -27.2370
   8      -27.2369
   9      -27.2350
  10      -27.2349
  11      -27.2313
  12      -27.2313
  13      -27.2307
  14      -27.2306
  15      -27.1758
  16      -27.1653
  17      -27.1651
  18      -27.1627
  19      -27.1625
  20      -27.1529
  21      -27.1516
  22      -27.1364
  23      -27.1319
  24      -27.1306
  25      -27.1268
  26      -27.1238
  27      -27.1220
  28      -27.1218
  29      -27.0540
  30      -27.0534
  31      -27.0432
  32      -27.0403
  33      -27.0395
  34      -27.0225
  35      -27.0182
  36      -27.0165
  37      -27.0148
  38      -27.0093
  39      -27.0062
  40      -26.9582
  41      -26.9571
  42      -26.9539
  43      -26.9536
  44      -26.9502
  45      -26.9497
  46      -26.9494
  47      -26.9341
  48      -26.9330
  49      -26.8947
  50      -26.8900
  51      -26.8817
  52      -26.8742
  53      -26.8724
  54      -26.8431
  55      -26.8430
  56      -26.8372
  57      -26.8370
  58      -26.8329
  59      -26.8281
  60      -26.8236
  61      -26.8185
  62      -26.8129
  63      -26.8127
  64      -26.8117
  65      -26.8109
  66      -26.8107
  67      -26.8101
  68      -26.8080
  69      -26.8078
  70      -26.8074
  71      -26.8049
  72      -26.8031
  73      -26.7798
  74      -26.7793
  75      -26.7791
  76      -26.7755
  77      -26.7752
  78      -26.7607
  79      -26.7606
  80      -26.7556
  81      -26.7556
  82      -26.7487
  83      -26.7462
  84      -26.7461
  85      -26.7441
  86      -26.7428
  87      -26.7427
  88      -26.7424
  89      -26.7416
  90      -26.7415
  91      -26.7413
  92      -26.7412
  93      -26.7254
  94      -26.7252
  95      -26.7102
  96      -26.7055
  97      -26.7053
  98      -26.7028
  99      -26.6969
 100      -26.6860
 101      -26.6858
 102      -26.6805
 103      -26.6773
 104      -26.6757
 105      -26.6617
 106      -26.6575
 107      -26.6447
 108      -26.6227
 109        0.1045
 110        1.3075
 111        1.9875
 112        1.9877
 113        2.0155
 114        2.0238
 115        2.8526
 116        2.8527
 117        3.0640
 118        3.0835
 119        3.2528
 120        3.2530
 121        3.2608
 122        3.2610
 123        3.3355
 124        3.4558
 125        3.4561
 126        3.5258
 127        3.5556
 128        3.5559
 129        3.5676
 130        3.5679
 131        4.0010
 132        4.1852
 133        4.1908
 134        4.2008
 135        4.2357
 136        4.2363
 137        4.2370
 138        4.2376
 139        4.2396
 140        4.2516
 141        4.2720
 142        4.2733
 143        4.2891
 144        4.4015
 145        4.4042
 146        4.4131
 147        4.4285
 148        4.4825
 149        4.5095
 150        4.8265
 151        4.8461
 152        4.8655
 153        4.8779
 154        5.2043
 155        5.2262
 156        5.2719
 157        5.2761
 158        5.2773
 159        5.2861
 160        5.3097
 161        5.3197
 162        5.3667
 163        5.3677
 164        5.3710
 165        5.3720
 166        5.4130
 167        5.4138
 168        5.4144
 169        5.4154
 170        5.4345
 171        5.4353
 172        5.4368
 173        5.4379
 174        5.5087
 175        5.5100
 176        5.5963
 177        5.8356
 178        5.8362
 179        5.8415
 180        5.8419
 181        5.9858
 182        5.9880
 183        6.1711
 184        6.2146
 185        6.3378
 186        6.3383
 187        6.3590
 188        6.3595
 189        6.3742
 190        6.3912
 191        6.4148
 192        6.4557
 193        6.4790
 194        6.4794
 195        6.5039
 196        6.5304
 197        6.5309
 198        6.5484
 199        6.5518
 200        6.5651
 201        6.5669
 202        6.5670
 203        6.5843
 204        6.6480
 205        6.6481
 206        6.7716
 207        6.7950
 208        6.7951
 209        6.8349
 210        6.8373
 211        6.8420
 212        6.8676
 213        6.8878
 214        6.9457
 215        6.9868
 216        7.1488
 
  0.4285714E+00  0.0000000E+00  0.0000000E+00  0.8163265E-02
   1      -27.3760
   2      -27.3425
   3      -27.2880
   4      -27.2880
   5      -27.2519
   6      -27.2517
   7      -27.2426
   8      -27.2426
   9      -27.2412
  10      -27.2412
  11      -27.2401
  12      -27.2401
  13      -27.2392
  14      -27.2391
  15      -27.1961
  16      -27.1537
  17      -27.1535
  18      -27.1528
  19      -27.1525
  20      -27.1422
  21      -27.1408
  22      -27.1372
  23      -27.1361
  24      -27.1185
  25      -27.1167
  26      -27.0995
  27      -27.0897
  28      -27.0893
  29      -27.0816
  30      -27.0792
  31      -27.0674
  32      -27.0668
  33      -27.0574
  34      -27.0292
  35      -27.0250
  36      -27.0245
  37      -27.0207
  38      -26.9828
  39      -26.9802
  40      -26.9521
  41      -26.9496
  42      -26.9307
  43      -26.9276
  44      -26.9169
  45      -26.9166
  46      -26.9113
  47      -26.9111
  48      -26.9040
  49      -26.8986
  50      -26.8837
  51      -26.8783
  52      -26.8781
  53      -26.8779
  54      -26.8719
  55      -26.8717
  56      -26.8625
  57      -26.8577
  58      -26.8469
  59      -26.8333
  60      -26.8286
  61      -26.8252
  62      -26.8165
  63      -26.8162
  64      -26.8155
  65      -26.8153
  66      -26.8083
  67      -26.8082
  68      -26.8034
  69      -26.8021
  70      -26.7838
  71      -26.7799
  72      -26.7797
  73      -26.7723
  74      -26.7693
  75      -26.7681
  76      -26.7645
  77      -26.7572
  78      -26.7571
  79      -26.7539
  80      -26.7538
  81      -26.7504
  82      -26.7504
  83      -26.7476
  84      -26.7475
  85      -26.7453
  86      -26.7453
  87      -26.7412
  88      -26.7411
  89      -26.7396
  90      -26.7395
  91      -26.7389
  92      -26.7384
  93      -26.7344
  94      -26.7306
  95      -26.7305
  96      -26.7298
  97      -26.7103
  98      -26.7101
  99      -26.7090
 100      -26.6968
 101      -26.6966
 102      -26.6905
 103      -26.6886
 104      -26.6878
 105      -26.6803
 106      -26.6701
 107      -26.6357
 108      -26.6282
 109        0.4096
 110        0.8175
 111        1.9380
 112        1.9409
 113        2.2311
 114        2.2313
 115        2.5341
 116        2.5342
 117        3.2513
 118        3.2514
 119        3.2542
 120        3.2543
 121        3.4555
 122        3.4648
 123        3.4652
 124        3.4745
 125        3.6167
 126        3.7374
 127        3.7435
 128        3.7438
 129        3.7526
 130        3.7529
 131        3.8459
 132        3.8636
 133        3.8662
 134        3.9726
 135        3.9730
 136        3.9779
 137        3.9784
 138        3.9809
 139        4.1972
 140        4.2928
 141        4.2971
 142        4.3133
 143        4.3146
 144        4.3338
 145        4.3593
 146        4.3810
 147        4.4028
 148        4.4856
 149        4.4901
 150        4.9409
 151        4.9453
 152        4.9520
 153        4.9708
 154        5.0818
 155        5.1015
 156        5.2243
 157        5.2342
 158        5.2534
 159        5.2546
 160        5.3312
 161        5.4126
 162        5.4135
 163        5.4210
 164        5.4220
 165        5.4546
 166        5.4553
 167        5.4560
 168        5.4569
 169        5.4617
 170        5.4630
 171        5.4713
 172        5.4724
 173        5.6404
 174        5.6420
 175        5.6703
 176        5.8074
 177        5.8092
 178        5.8368
 179        6.0204
 180        6.0207
 181        6.0422
 182        6.0425
 183        6.1058
 184        6.1155
 185        6.1981
 186        6.2387
 187        6.2539
 188        6.2542
 189        6.2617
 190        6.2620
 191        6.2691
 192        6.2931
 193        6.2935
 194        6.3083
 195        6.3226
 196        6.3230
 197        6.4163
 198        6.5234
 199        6.5290
 200        6.5387
 201        6.5390
 202        6.6100
 203        6.6101
 204        6.6408
 205        6.6869
 206        6.7425
 207        6.7597
 208        6.8044
 209        6.8303
 210        6.8427
 211        6.9276
 212        6.9443
 213        6.9445
 214        7.0602
 215        7.1227
 216        7.1619
 
 -0.5421011E-19  0.1428571E+00  0.0000000E+00  0.8163265E-02
   1      -27.4166
   2      -27.2568
   3      -27.2435
   4      -27.2434
   5      -27.2305
   6      -27.2302
   7      -27.2237
   8      -27.2236
   9      -27.2211
  10      -27.2210
  11      -27.2208
  12      -27.2208
  13      -27.2205
  14      -27.2204
  15      -27.1839
  16      -27.1838
  17      -27.1836
  18      -27.1829
  19      -27.1806
  20      -27.1804
  21      -27.1631
  22      -27.1623
  23      -27.1621
  24      -27.1368
  25      -27.1274
  26      -27.1246
  27      -27.1114
  28      -27.1087
  29      -27.0512
  30      -27.0507
  31      -27.0473
  32      -27.0466
  33      -27.0187
  34      -27.0092
  35      -27.0059
  36      -27.0050
  37      -27.0044
  38      -27.0011
  39      -26.9845
  40      -26.9831
  41      -26.9819
  42      -26.9817
  43      -26.9815
  44      -26.9810
  45      -26.9795
  46      -26.9792
  47      -26.9357
  48      -26.9346
  49      -26.9294
  50      -26.9252
  51      -26.8975
  52      -26.8659
  53      -26.8610
  54      -26.8565
  55      -26.8447
  56      -26.8442
  57      -26.8441
  58      -26.8349
  59      -26.8259
  60      -26.8166
  61      -26.8165
  62      -26.8125
  63      -26.8123
  64      -26.8072
  65      -26.8070
  66      -26.8064
  67      -26.8063
  68      -26.8049
  69      -26.8047
  70      -26.7992
  71      -26.7942
  72      -26.7941
  73      -26.7854
  74      -26.7815
  75      -26.7670
  76      -26.7667
  77      -26.7659
  78      -26.7657
  79      -26.7585
  80      -26.7584
  81      -26.7547
  82      -26.7545
  83      -26.7535
  84      -26.7515
  85      -26.7510
  86      -26.7474
  87      -26.7472
  88      -26.7408
  89      -26.7406
  90      -26.7395
  91      -26.7395
  92      -26.7389
  93      -26.7388
  94      -26.7376
  95      -26.7371
  96      -26.6880
  97      -26.6879
  98      -26.6809
  99      -26.6785
 100      -26.6784
 101      -26.6742
 102      -26.6715
 103      -26.6711
 104      -26.6648
 105      -26.6543
 106      -26.6499
 107      -26.6311
 108      -26.6192
 109       -0.0839
 110        1.8314
 111        1.8316
 112        1.8501
 113        2.1722
 114        2.1852
 115        2.7063
 116        2.7252
 117        2.9187
 118        3.1302
 119        3.1304
 120        3.2708
 121        3.2710
 122        3.2825
 123        3.2828
 124        3.3855
 125        3.4143
 126        3.4146
 127        3.4190
 128        3.4193
 129        3.4279
 130        3.4282
 131        4.1358
 132        4.2187
 133        4.2281
 134        4.2675
 135        4.2759
 136        4.2890
 137        4.3092
 138        4.3180
 139        4.4210
 140        4.4249
 141        4.4347
 142        4.4973
 143        4.5198
 144        4.5206
 145        4.5228
 146        4.5236
 147        4.5241
 148        4.5834
 149        4.6134
 150        4.7127
 151        4.7362
 152        4.7467
 153        4.7652
 154        4.9259
 155        5.1678
 156        5.1685
 157        5.1759
 158        5.1767
 159        5.3018
 160        5.3159
 161        5.3170
 162        5.3218
 163        5.3271
 164        5.3462
 165        5.3500
 166        5.3511
 167        5.3511
 168        5.3523
 169        5.3751
 170        5.3980
 171        5.3990
 172        5.4016
 173        5.4026
 174        5.4213
 175        5.4224
 176        5.4343
 177        5.8139
 178        5.8141
 179        5.8168
 180        5.8171
 181        6.1392
 182        6.1418
 183        6.1926
 184        6.2384
 185        6.3721
 186        6.4202
 187        6.4889
 188        6.4893
 189        6.4916
 190        6.4920
 191        6.4945
 192        6.5207
 193        6.5213
 194        6.5332
 195        6.5414
 196        6.6100
 197        6.6267
 198        6.6361
 199        6.6362
 200        6.6481
 201        6.6592
 202        6.6598
 203        6.6999
 204        6.7006
 205        6.7043
 206        6.7047
 207        6.7844
 208        6.8272
 209        6.8334
 210        6.8552
 211        6.8687
 212        6.8854
 213        6.8885
 214        6.8897
 215        6.9174
 216        6.9239
 
  0.1428571E+00  0.1428571E+00  0.0000000E+00  0.8163265E-02
   1      -27.4062
   2      -27.2767
   3      -27.2766
   4      -27.2573
   5      -27.2572
   6      -27.2572
   7      -27.2570
   8      -27.2317
   9      -27.2317
  10      -27.2241
  11      -27.2240
  12      -27.2008
  13      -27.2007
  14      -27.2005
  15      -27.2004
  16      -27.1983
  17      -27.1980
  18      -27.1554
  19      -27.1554
  20      -27.1427
  21      -27.1425
  22      -27.1424
  23      -27.1422
  24      -27.1421
  25      -27.1392
  26      -27.1391
  27      -27.1202
  28      -27.0778
  29      -27.0776
  30      -27.0518
  31      -27.0512
  32      -27.0359
  33      -27.0268
  34      -27.0253
  35      -27.0227
  36      -27.0226
  37      -27.0050
  38      -26.9849
  39      -26.9848
  40      -26.9825
  41      -26.9749
  42      -26.9748
  43      -26.9613
  44      -26.9610
  45      -26.9607
  46      -26.9604
  47      -26.9517
  48      -26.9044
  49      -26.8984
  50      -26.8798
  51      -26.8796
  52      -26.8720
  53      -26.8719
  54      -26.8558
  55      -26.8557
  56      -26.8299
  57      -26.8298
  58      -26.8296
  59      -26.8294
  60      -26.8264
  61      -26.8185
  62      -26.8182
  63      -26.8181
  64      -26.8180
  65      -26.8172
  66      -26.8167
  67      -26.8163
  68      -26.8097
  69      -26.8096
  70      -26.7920
  71      -26.7918
  72      -26.7916
  73      -26.7915
  74      -26.7723
  75      -26.7719
  76      -26.7706
  77      -26.7662
  78      -26.7662
  79      -26.7660
  80      -26.7658
  81      -26.7553
  82      -26.7551
  83      -26.7550
  84      -26.7549
  85      -26.7451
  86      -26.7422
  87      -26.7422
  88      -26.7401
  89      -26.7401
  90      -26.7341
  91      -26.7340
  92      -26.7339
  93      -26.7337
  94      -26.7250
  95      -26.7246
  96      -26.7004
  97      -26.7002
  98      -26.6927
  99      -26.6925
 100      -26.6827
 101      -26.6825
 102      -26.6815
 103      -26.6813
 104      -26.6550
 105      -26.6550
 106      -26.6548
 107      -26.6509
 108      -26.6217
 109        0.0416
 110        1.6183
 111        1.6188
 112        1.9359
 113        1.9361
 114        2.5752
 115        2.5754
 116        3.0323
 117        3.0325
 118        3.0328
 119        3.0329
 120        3.1773
 121        3.1777
 122        3.4590
 123        3.4595
 124        3.4596
 125        3.4598
 126        3.4787
 127        3.4790
 128        3.4792
 129        3.4794
 130        3.4800
 131        4.0990
 132        4.0993
 133        4.2273
 134        4.2545
 135        4.2791
 136        4.2797
 137        4.2903
 138        4.2908
 139        4.3005
 140        4.3025
 141        4.3417
 142        4.3425
 143        4.3491
 144        4.3495
 145        4.3608
 146        4.3615
 147        4.4499
 148        4.6033
 149        4.6043
 150        4.6374
 151        4.7114
 152        4.8677
 153        5.0736
 154        5.0744
 155        5.2383
 156        5.2397
 157        5.2898
 158        5.2900
 159        5.3102
 160        5.3111
 161        5.3117
 162        5.3120
 163        5.3173
 164        5.3184
 165        5.3945
 166        5.3957
 167        5.3980
 168        5.3981
 169        5.3986
 170        5.4003
 171        5.4604
 172        5.4616
 173        5.4618
 174        5.4628
 175        5.4656
 176        5.4663
 177        5.8192
 178        5.8199
 179        5.8287
 180        5.8287
 181        6.0284
 182        6.0307
 183        6.1836
 184        6.1990
 185        6.4227
 186        6.4239
 187        6.4244
 188        6.4250
 189        6.4369
 190        6.4373
 191        6.4377
 192        6.4382
 193        6.4453
 194        6.4528
 195        6.4539
 196        6.4627
 197        6.4632
 198        6.4872
 199        6.5015
 200        6.6404
 201        6.6405
 202        6.6659
 203        6.7751
 204        6.7752
 205        6.7849
 206        6.7863
 207        6.7953
 208        6.7965
 209        6.8195
 210        6.8204
 211        6.8982
 212        6.8985
 213        6.8989
 214        6.8995
 215        6.9695
 216        6.9810
 
  0.2857143E+00  0.1428571E+00  0.0000000E+00  0.8163265E-02
   1      -27.3859
   2      -27.3196
   3      -27.2889
   4      -27.2792
   5      -27.2792
   6      -27.2628
   7      -27.2627
   8      -27.2466
   9      -27.2466
  10      -27.2269
  11      -27.2268
  12      -27.2160
  13      -27.2159
  14      -27.2070
  15      -27.1854
  16      -27.1853
  17      -27.1850
  18      -27.1645
  19      -27.1613
  20      -27.1584
  21      -27.1283
  22      -27.1280
  23      -27.1136
  24      -27.1118
  25      -27.1063
  26      -27.1060
  27      -27.1058
  28      -27.0976
  29      -27.0776
  30      -27.0619
  31      -27.0613
  32      -27.0554
  33      -27.0479
  34      -27.0420
  35      -27.0328
  36      -27.0324
  37      -27.0227
  38      -27.0085
  39      -26.9845
  40      -26.9545
  41      -26.9515
  42      -26.9295
  43      -26.9292
  44      -26.9272
  45      -26.9270
  46      -26.9221
  47      -26.9174
  48      -26.8910
  49      -26.8869
  50      -26.8815
  51      -26.8792
  52      -26.8735
  53      -26.8636
  54      -26.8614
  55      -26.8611
  56      -26.8462
  57      -26.8460
  58      -26.8418
  59      -26.8401
  60      -26.8399
  61      -26.8383
  62      -26.8371
  63      -26.8267
  64      -26.8217
  65      -26.8217
  66      -26.8052
  67      -26.7975
  68      -26.7949
  69      -26.7916
  70      -26.7915
  71      -26.7854
  72      -26.7791
  73      -26.7775
  74      -26.7724
  75      -26.7723
  76      -26.7704
  77      -26.7702
  78      -26.7666
  79      -26.7626
  80      -26.7586
  81      -26.7586
  82      -26.7521
  83      -26.7520
  84      -26.7482
  85      -26.7481
  86      -26.7472
  87      -26.7472
  88      -26.7426
  89      -26.7425
  90      -26.7305
  91      -26.7304
  92      -26.7231
  93      -26.7212
  94      -26.7211
  95      -26.7196
  96      -26.7195
  97      -26.7172
  98      -26.7082
  99      -26.7037
 100      -26.7000
 101      -26.6920
 102      -26.6918
 103      -26.6861
 104      -26.6859
 105      -26.6652
 106      -26.6636
 107      -26.6450
 108      -26.6278
 109        0.2879
 110        1.0991
 111        1.4784
 112        2.1360
 113        2.1362
 114        2.4844
 115        2.7285
 116        2.7285
 117        2.9767
 118        2.9767
 119        3.0161
 120        3.4771
 121        3.4993
 122        3.4998
 123        3.5000
 124        3.5002
 125        3.5291
 126        3.5997
 127        3.6001
 128        3.6566
 129        3.6648
 130        3.6650
 131        3.8836
 132        3.9655
 133        4.0173
 134        4.0177
 135        4.0889
 136        4.1202
 137        4.1207
 138        4.1212
 139        4.1260
 140        4.2313
 141        4.2418
 142        4.2904
 143        4.2949
 144        4.3059
 145        4.3468
 146        4.4309
 147        4.4848
 148        4.5268
 149        4.5941
 150        4.6897
 151        4.7920
 152        5.0035
 153        5.0826
 154        5.1049
 155        5.1871
 156        5.2117
 157        5.2811
 158        5.2823
 159        5.2984
 160        5.3452
 161        5.3463
 162        5.4236
 163        5.4243
 164        5.4327
 165        5.4334
 166        5.4363
 167        5.4498
 168        5.4507
 169        5.4610
 170        5.4627
 171        5.4639
 172        5.4964
 173        5.4976
 174        5.5641
 175        5.5655
 176        5.6759
 177        5.8676
 178        5.8696
 179        5.8703
 180        5.8705
 181        6.0325
 182        6.0328
 183        6.1947
 184        6.2006
 185        6.2034
 186        6.2219
 187        6.2223
 188        6.2549
 189        6.2553
 190        6.2739
 191        6.3142
 192        6.3764
 193        6.3779
 194        6.3784
 195        6.3976
 196        6.4140
 197        6.4820
 198        6.4823
 199        6.6086
 200        6.6153
 201        6.6154
 202        6.6344
 203        6.6777
 204        6.6782
 205        6.7239
 206        6.7427
 207        6.7443
 208        6.8316
 209        6.8708
 210        6.8996
 211        6.9003
 212        6.9205
 213        6.9272
 214        6.9444
 215        7.0830
 216        7.0860
 
  0.4285714E+00  0.1428571E+00  0.0000000E+00  0.8163265E-02
   1      -27.3566
   2      -27.3566
   3      -27.2930
   4      -27.2870
   5      -27.2870
   6      -27.2594
   7      -27.2593
   8      -27.2577
   9      -27.2576
  10      -27.2253
  11      -27.2253
  12      -27.2249
  13      -27.2247
  14      -27.2100
  15      -27.1958
  16      -27.1801
  17      -27.1799
  18      -27.1682
  19      -27.1638
  20      -27.1224
  21      -27.1221
  22      -27.1212
  23      -27.1198
  24      -27.1108
  25      -27.1052
  26      -27.0930
  27      -27.0852
  28      -27.0824
  29      -27.0797
  30      -27.0792