       N       E                     dE             d eps       ncg     rms          rms(c)
DAV:   1     0.500304968515E+04    0.50030E+04   -0.17170E+05 53776   0.181E+03
DAV:   2     0.924001117818E+02   -0.49106E+04   -0.48343E+04 53136   0.640E+02
DAV:   3    -0.291932989442E+03   -0.38433E+03   -0.36157E+03 77408   0.163E+02
DAV:   4    -0.322957706664E+03   -0.31025E+02   -0.30183E+02 72496   0.405E+01
DAV:   5    -0.323872291238E+03   -0.91458E+00   -0.89523E+00 69544   0.622E+00    0.356E+01
DAV:   6    -0.286029614615E+03    0.37843E+02   -0.11743E+02 57896   0.369E+01    0.914E+00
DAV:   7    -0.284112415950E+03    0.19172E+01   -0.15580E+01 70288   0.116E+01    0.350E+00
DAV:   8    -0.284178597849E+03   -0.66182E-01   -0.27587E+00 70608   0.666E+00    0.364E+00
DAV:   9    -0.284012509418E+03    0.16609E+00   -0.92012E-01 74520   0.442E+00    0.167E+00
DAV:  10    -0.283952381103E+03    0.60128E-01   -0.15820E-01 70904   0.146E+00    0.916E-01
DAV:  11    -0.283927061988E+03    0.25319E-01   -0.19482E-01 62944   0.153E+00    0.258E-01
DAV:  12    -0.283927747789E+03   -0.68580E-03   -0.88548E-03 71648   0.334E-01    0.265E-01
DAV:  13    -0.283926440103E+03    0.13077E-02   -0.32969E-03 67600   0.209E-01    0.117E-01
DAV:  14    -0.283926141270E+03    0.29883E-03   -0.10188E-03 69344   0.130E-01    0.451E-02
DAV:  15    -0.283926132835E+03    0.84346E-05   -0.12977E-04 71360   0.555E-02    0.286E-02
DAV:  16    -0.283926125578E+03    0.72578E-05   -0.32974E-05 73240   0.262E-02    0.217E-02
DAV:  17    -0.283926093068E+03    0.32509E-04   -0.23760E-05 69792   0.188E-02    0.109E-02
DAV:  18    -0.283926077633E+03    0.15436E-04   -0.80425E-06 72152   0.127E-02    0.341E-03
DAV:  19    -0.283926071641E+03    0.59920E-05   -0.13810E-06 73184   0.515E-03    0.203E-03
DAV:  20    -0.283926069022E+03    0.26182E-05   -0.44874E-07 73232   0.318E-03    0.564E-04
DAV:  21    -0.283926069029E+03   -0.67594E-08   -0.50101E-08 53128   0.997E-04
   1 F= -.28392607E+03 E0= -.28392530E+03  d E =-.154262E-02
