 vasp.4.6.28 25Jul05 complex 
 executed on             LinuxIFC date 2016.11.25  11:39:30
 running on    4 nodes
 distr:  one band on    1 nodes,    4 groups


--------------------------------------------------------------------------------------------------------


 INCAR:
 POTCAR:   PAW_PBE Ti_pv 07Sep2000                
 POTCAR:   PAW_PBE Ti_pv 07Sep2000                
   VRHFIN =Ti: d3 s1                                                            
   LEXCH  = PE                                                                  
   EATOM  =  1042.3781 eV,   76.6126 Ry                                         
                                                                                
   TITEL  = PAW_PBE Ti_pv 07Sep2000                                             
   LULTRA =        F    use ultrasoft PP ?                                      
   IUNSCR =        1    unscreen: 0-lin 1-nonlin 2-no                           
   RPACOR =    2.200    partial core radius                                     
   POMASS =   47.880; ZVAL   =   10.000    mass and valenz                      
   RCORE  =    2.500    outmost cutoff radius                                   
   RWIGS  =    2.500; RWIGS  =    1.323    wigner-seitz radius (au A)           
   ENMAX  =  222.338; ENMIN  =  166.753 eV                                      
   RCLOC  =    1.701    cutoff for local pot                                    
   LCOR   =        T    correct aug charges                                     
   LPAW   =        T    paw PP                                                  
   EAUG   =  482.848                                                            
   DEXC   =    -.008                                                            
   RMAX   =    3.092    core radius for proj-oper                               
   RAUG   =    1.300    factor for augmentation sphere                          
   RDEP   =    2.538    radius for radial grids                                 
   QCUT   =   -4.042; QGAM   =    8.085    optimization parameters              
                                                                                
   Description                                                                  
     l     E      TYP  RCUT    TYP  RCUT                                        
     1   .000     23  2.300                                                     
     1  -.100     23  2.300                                                     
     2   .000     23  2.500                                                     
     2   .000     23  2.500                                                     
     0   .000     23  2.500                                                     
     0  1.500     23  2.500                                                     
     3   .000      7   .000                                                     
  local pseudopotential read in
  partial core-charges read in
  atomic valenz-charges read in
  non local Contribution for L=           1  read in
    real space projection operators read in
  non local Contribution for L=           1  read in
    real space projection operators read in
  non local Contribution for L=           2  read in
    real space projection operators read in
  non local Contribution for L=           2  read in
    real space projection operators read in
  non local Contribution for L=           0  read in
    real space projection operators read in
  non local Contribution for L=           0  read in
    real space projection operators read in
    PAW grid and wavefunctions read in
 
   number of l-projection  operators is LMAX  =           6
   number of lm-projection operators is LMMAX =          18
 

 ----------------------------------------------------------------------------- 
|                                                                             |
|  ADVICE TO THIS USER RUNNING 'VASP/VAMP'   (HEAR YOUR MASTER'S VOICE ...):  |
|                                                                             |
|      You have a (more or less) 'large supercell' and for larger cells       |
|      it might be more efficient to use real space projection operators      |
|      So try LREAL= Auto  in the INCAR   file.                               |
|      Mind: If you want to do an extremely accurate calculations keep the    |
|      reciprocal projection scheme          (i.e. LREAL=.FALSE.)             |
|                                                                             |
 ----------------------------------------------------------------------------- 

 PAW_PBE Ti_pv 07Sep2000                :
 energy of atom  1       EATOM=-1042.3781
 kinetic energy error for atom=    0.0024 (will be added to EATOM!!)
 
 EXHCAR: internal setup
 exchange correlation table for  LEXCH =        8
   RHO(1)=    0.500       N(1)  =     2000
   RHO(2)=  100.500       N(2)  =     4000
 
 POSCAR: Ti                                      
  positions in direct lattice
  No initial velocities read in
 


--------------------------------------------------------------------------------------------------------


 ion  position               nearest neighbor table
   1  0.112  0.223  0.126-  22 2.84  19 2.84  21 2.84  31 2.85  28 2.85  30 2.85   2 2.93   7 2.94
                             4 2.94   3 2.95   5 2.95   9 2.96
   2  0.444  0.223  0.125-  19 2.84  28 2.84  23 2.84  32 2.84  29 2.85  20 2.85   1 2.93   3 2.94
                             8 2.94   5 2.94   7 2.95   6 2.95
   3  0.777  0.223  0.125-  20 2.84  29 2.84  24 2.84  33 2.84  30 2.85  21 2.85   2 2.94   9 2.94
                             6 2.94   1 2.95   8 2.95   4 2.95
   4  0.111  0.556  0.125-  24 2.84  33 2.84  25 2.84  34 2.84  22 2.85  31 2.85   6 2.94   5 2.94
                             7 2.94   1 2.94   3 2.95   8 2.95
   5  0.444  0.556  0.125-  22 2.84  31 2.84  26 2.84  35 2.84  32 2.85  23 2.85   4 2.94   6 2.94
                             2 2.94   8 2.94   1 2.95   9 2.95
   6  0.777  0.556  0.125-  23 2.84  32 2.84  27 2.84  36 2.84  33 2.85  24 2.85   4 2.94   5 2.94
                             3 2.94   9 2.94   7 2.95   2 2.95
   7  0.111  0.889  0.125-  27 2.84  36 2.84  28 2.84  19 2.84  34 2.85  25 2.85   1 2.94   9 2.94
                             8 2.94   4 2.94   2 2.95   6 2.95
   8  0.444  0.889  0.125-  25 2.84  34 2.84  29 2.84  20 2.84  26 2.85  35 2.85   7 2.94   9 2.94
                             2 2.94   5 2.94   3 2.95   4 2.95
   9  0.777  0.889  0.125-  26 2.84  35 2.84  30 2.84  21 2.84  27 2.85  36 2.85   7 2.94   8 2.94
                             3 2.94   6 2.94   5 2.95   1 2.96
  10  0.111  0.223  0.625-  21 2.84  30 2.84  22 2.84  31 2.84  19 2.85  28 2.85  12 2.94  11 2.94
                            16 2.94  13 2.94  18 2.95  14 2.95
  11  0.444  0.223  0.625-  19 2.84  28 2.84  23 2.84  32 2.84  29 2.85  20 2.85  10 2.94  12 2.94
                            17 2.94  14 2.94  16 2.95  15 2.95
  12  0.777  0.223  0.625-  20 2.84  29 2.84  24 2.84  33 2.84  30 2.85  21 2.85  10 2.94  11 2.94
                            18 2.94  15 2.94  17 2.95  13 2.95
  13  0.111  0.556  0.625-  24 2.84  33 2.84  25 2.84  34 2.84  22 2.85  31 2.85  15 2.94  14 2.94
                            10 2.94  16 2.94  12 2.95  17 2.95
  14  0.444  0.556  0.625-  22 2.84  31 2.84  26 2.84  35 2.84  32 2.85  23 2.85  13 2.94  15 2.94
                            11 2.94  17 2.94  10 2.95  18 2.95
  15  0.777  0.556  0.625-  23 2.84  32 2.84  27 2.84  36 2.84  33 2.85  24 2.85  13 2.94  14 2.94
                            12 2.94  18 2.94  16 2.95  11 2.95
  16  0.111  0.889  0.625-  27 2.84  36 2.84  28 2.84  19 2.84  34 2.85  25 2.85  18 2.94  17 2.94
                            10 2.94  13 2.94  11 2.95  15 2.95
  17  0.444  0.889  0.625-  25 2.84  34 2.84  29 2.84  20 2.84  26 2.85  35 2.85  16 2.94  18 2.94
                            11 2.94  14 2.94  12 2.95  13 2.95
  18  0.777  0.889  0.625-  26 2.84  35 2.84  30 2.84  21 2.84  27 2.85  36 2.85  16 2.94  17 2.94
                            12 2.94  15 2.94  10 2.95  14 2.95
  19  0.223  0.111  0.375-   1 2.84   2 2.84  11 2.84   7 2.84  16 2.84  10 2.85  21 2.94  20 2.94
                            25 2.94  22 2.94  27 2.95  23 2.95
  20  0.556  0.111  0.375-   3 2.84  12 2.84   8 2.84  17 2.84   2 2.85  11 2.85  19 2.94  21 2.94
                            26 2.94  23 2.94  25 2.95  24 2.95
  21  0.889  0.111  0.375-   1 2.84  10 2.84   9 2.84  18 2.84  12 2.85   3 2.85  19 2.94  20 2.94
                            27 2.94  24 2.94  26 2.95  22 2.95
  22  0.223  0.444  0.375-   1 2.84   5 2.84  14 2.84  10 2.84  13 2.85   4 2.85  24 2.94  23 2.94
                            19 2.94  25 2.94  21 2.95  26 2.95
  23  0.556  0.444  0.375-   6 2.84  15 2.84  11 2.84   2 2.84  14 2.85   5 2.85  22 2.94  24 2.94
                            20 2.94  26 2.94  19 2.95  27 2.95
  24  0.889  0.444  0.375-   4 2.84  13 2.84  12 2.84   3 2.84   6 2.85  15 2.85  22 2.94  23 2.94
                            21 2.94  27 2.94  25 2.95  20 2.95
  25  0.223  0.777  0.375-   8 2.84  17 2.84  13 2.84   4 2.84  16 2.85   7 2.85  27 2.94  26 2.94
                            19 2.94  22 2.94  20 2.95  24 2.95
  26  0.556  0.777  0.375-   9 2.84  18 2.84  14 2.84   5 2.84  17 2.85   8 2.85  25 2.94  27 2.94
                            20 2.94  23 2.94  21 2.95  22 2.95
  27  0.889  0.777  0.375-   7 2.84  16 2.84  15 2.84   6 2.84   9 2.85  18 2.85  25 2.94  26 2.94
                            21 2.94  24 2.94  19 2.95  23 2.95
  28  0.223  0.111  0.875-   2 2.84  11 2.84   7 2.84  16 2.84  10 2.85   1 2.85  30 2.94  29 2.94
                            34 2.94  31 2.94  36 2.95  32 2.95
  29  0.556  0.111  0.875-   3 2.84  12 2.84   8 2.84  17 2.84   2 2.85  11 2.85  28 2.94  30 2.94
                            35 2.94  32 2.94  34 2.95  33 2.95
  30  0.889  0.111  0.875-  10 2.84   9 2.84  18 2.84  12 2.85   3 2.85   1 2.85  28 2.94  29 2.94
                            36 2.94  33 2.94  35 2.95  31 2.95
  31  0.223  0.444  0.875-   5 2.84  14 2.84  10 2.84  13 2.85   4 2.85   1 2.85  33 2.94  32 2.94
                            28 2.94  34 2.94  30 2.95  35 2.95
  32  0.556  0.444  0.875-   6 2.84  15 2.84  11 2.84   2 2.84  14 2.85   5 2.85  31 2.94  33 2.94
                            29 2.94  35 2.94  28 2.95  36 2.95
  33  0.889  0.444  0.875-   4 2.84  13 2.84  12 2.84   3 2.84   6 2.85  15 2.85  31 2.94  32 2.94
                            30 2.94  36 2.94  34 2.95  29 2.95
  34  0.223  0.777  0.875-   8 2.84  17 2.84  13 2.84   4 2.84  16 2.85   7 2.85  36 2.94  35 2.94
                            28 2.94  31 2.94  29 2.95  33 2.95
  35  0.556  0.777  0.875-   9 2.84  18 2.84  14 2.84   5 2.84  17 2.85   8 2.85  34 2.94  36 2.94
                            29 2.94  32 2.94  30 2.95  31 2.95
  36  0.889  0.777  0.875-   7 2.84  16 2.84  15 2.84   6 2.84   9 2.85  18 2.85  34 2.94  35 2.94
                            30 2.94  33 2.94  28 2.95  32 2.95
 
  LATTYP: Found a base centered orthorhombic cell.
 ALAT       =     8.8635622795
 B/A-ratio  =     1.7208744689
 C/A-ratio  =     1.0284126669
  
  Lattice vectors:
  
 A1 = (   8.8206670999,   0.0247654402,   0.0000000000)
 A2 = (  -4.3888858705,   7.6513046101,   0.0000000000)
 A3 = (   0.0000000000,   0.0000000000,   9.1153997220)
 Subroutine PRICEL returns:
 Original cell was already a primitive cell.
 

Analysis of symmetry for initial positions (statically):

 Routine SETGRP: Setting up the symmetry group for a 
 base centered orthorhombic supercell.


 Subroutine GETGRP returns: Found  1 space group operations
 (whereof  1 operations were pure point group operations)
 out of a pool of  8 trial point group operations.


The static configuration has the point symmetry C_1 .

Analysis of symmetry for dynamics (positions and initial velocities):

 Subroutine DYNSYM returns: Found  1 space group operations
 (whereof  1 operations were pure point group operations)
 out of a pool of  1 trial space group operations
 (whereof  1 operations were pure point group operations)
 and found also     1 'primitive' translations


The dynamic configuration has the point symmetry C_1 .
 
 
 KPOINTS: Automatic mesh                          

Automatic generation of k-mesh.
 generate k-points for:   7   7   5
 
 Subroutine IBZKPT returns following result:
 ===========================================
 
 Found    123 irreducible k-points:
 
 Following reciprocal coordinates:
            Coordinates               Weight
  0.000000  0.000000  0.000000      1.000000
  0.142857  0.000000  0.000000      2.000000
  0.285714  0.000000  0.000000      2.000000
  0.428571  0.000000  0.000000      2.000000
 -0.000000  0.142857  0.000000      2.000000
  0.142857  0.142857  0.000000      2.000000
  0.285714  0.142857  0.000000      2.000000
  0.428571  0.142857  0.000000      2.000000
 -0.428571  0.142857  0.000000      2.000000
 -0.285714  0.142857  0.000000      2.000000
 -0.142857  0.142857  0.000000      2.000000
  0.000000  0.285714  0.000000      2.000000
  0.142857  0.285714  0.000000      2.000000
  0.285714  0.285714  0.000000      2.000000
  0.428571  0.285714  0.000000      2.000000
 -0.428571  0.285714  0.000000      2.000000
 -0.285714  0.285714  0.000000      2.000000
 -0.142857  0.285714  0.000000      2.000000
  0.000000  0.428571  0.000000      2.000000
  0.142857  0.428571  0.000000      2.000000
  0.285714  0.428571  0.000000      2.000000
  0.428571  0.428571  0.000000      2.000000
 -0.428571  0.428571  0.000000      2.000000
 -0.285714  0.428571  0.000000      2.000000
 -0.142857  0.428571  0.000000      2.000000
  0.000000  0.000000  0.200000      2.000000
  0.142857  0.000000  0.200000      2.000000
  0.285714  0.000000  0.200000      2.000000
  0.428571  0.000000  0.200000      2.000000
 -0.428571  0.000000  0.200000      2.000000
 -0.285714  0.000000  0.200000      2.000000
 -0.142857  0.000000  0.200000      2.000000
 -0.000000  0.142857  0.200000      2.000000
  0.142857  0.142857  0.200000      2.000000
  0.285714  0.142857  0.200000      2.000000
  0.428571  0.142857  0.200000      2.000000
 -0.428571  0.142857  0.200000      2.000000
 -0.285714  0.142857  0.200000      2.000000
 -0.142857  0.142857  0.200000      2.000000
  0.000000  0.285714  0.200000      2.000000
  0.142857  0.285714  0.200000      2.000000
  0.285714  0.285714  0.200000      2.000000
  0.428571  0.285714  0.200000      2.000000
 -0.428571  0.285714  0.200000      2.000000
 -0.285714  0.285714  0.200000      2.000000
 -0.142857  0.285714  0.200000      2.000000
  0.000000  0.428571  0.200000      2.000000
  0.142857  0.428571  0.200000      2.000000
  0.285714  0.428571  0.200000      2.000000
  0.428571  0.428571  0.200000      2.000000
 -0.428571  0.428571  0.200000      2.000000
 -0.285714  0.428571  0.200000      2.000000
 -0.142857  0.428571  0.200000      2.000000
 -0.000000 -0.428571  0.200000      2.000000
  0.142857 -0.428571  0.200000      2.000000
  0.285714 -0.428571  0.200000      2.000000
  0.428571 -0.428571  0.200000      2.000000
 -0.428571 -0.428571  0.200000      2.000000
 -0.285714 -0.428571  0.200000      2.000000
 -0.142857 -0.428571  0.200000      2.000000
 -0.000000 -0.285714  0.200000      2.000000
  0.142857 -0.285714  0.200000      2.000000
  0.285714 -0.285714  0.200000      2.000000
  0.428571 -0.285714  0.200000      2.000000
 -0.428571 -0.285714  0.200000      2.000000
 -0.285714 -0.285714  0.200000      2.000000
 -0.142857 -0.285714  0.200000      2.000000
  0.000000 -0.142857  0.200000      2.000000
  0.142857 -0.142857  0.200000      2.000000
  0.285714 -0.142857  0.200000      2.000000
  0.428571 -0.142857  0.200000      2.000000
 -0.428571 -0.142857  0.200000      2.000000
 -0.285714 -0.142857  0.200000      2.000000
 -0.142857 -0.142857  0.200000      2.000000
  0.000000  0.000000  0.400000      2.000000
  0.142857  0.000000  0.400000      2.000000
  0.285714  0.000000  0.400000      2.000000
  0.428571  0.000000  0.400000      2.000000
 -0.428571  0.000000  0.400000      2.000000
 -0.285714  0.000000  0.400000      2.000000
 -0.142857  0.000000  0.400000      2.000000
 -0.000000  0.142857  0.400000      2.000000
  0.142857  0.142857  0.400000      2.000000
  0.285714  0.142857  0.400000      2.000000
  0.428571  0.142857  0.400000      2.000000
 -0.428571  0.142857  0.400000      2.000000
 -0.285714  0.142857  0.400000      2.000000
 -0.142857  0.142857  0.400000      2.000000
  0.000000  0.285714  0.400000      2.000000
  0.142857  0.285714  0.400000      2.000000
  0.285714  0.285714  0.400000      2.000000
  0.428571  0.285714  0.400000      2.000000
 -0.428571  0.285714  0.400000      2.000000
 -0.285714  0.285714  0.400000      2.000000
 -0.142857  0.285714  0.400000      2.000000
  0.000000  0.428571  0.400000      2.000000
  0.142857  0.428571  0.400000      2.000000
  0.285714  0.428571  0.400000      2.000000
  0.428571  0.428571  0.400000      2.000000
 -0.428571  0.428571  0.400000      2.000000
 -0.285714  0.428571  0.400000      2.000000
 -0.142857  0.428571  0.400000      2.000000
 -0.000000 -0.428571  0.400000      2.000000
  0.142857 -0.428571  0.400000      2.000000
  0.285714 -0.428571  0.400000      2.000000
  0.428571 -0.428571  0.400000      2.000000
 -0.428571 -0.428571  0.400000      2.000000
 -0.285714 -0.428571  0.400000      2.000000
 -0.142857 -0.428571  0.400000      2.000000
 -0.000000 -0.285714  0.400000      2.000000
  0.142857 -0.285714  0.400000      2.000000
  0.285714 -0.285714  0.400000      2.000000
  0.428571 -0.285714  0.400000      2.000000
 -0.428571 -0.285714  0.400000      2.000000
 -0.285714 -0.285714  0.400000      2.000000
 -0.142857 -0.285714  0.400000      2.000000
  0.000000 -0.142857  0.400000      2.000000
  0.142857 -0.142857  0.400000      2.000000
  0.285714 -0.142857  0.400000      2.000000
  0.428571 -0.142857  0.400000      2.000000
 -0.428571 -0.142857  0.400000      2.000000
 -0.285714 -0.142857  0.400000      2.000000
 -0.142857 -0.142857  0.400000      2.000000
 
 Following cartesian coordinates:
            Coordinates               Weight
  0.000000  0.000000  0.000000      1.000000
  0.016170  0.009275  0.000000      2.000000
  0.032339  0.018550  0.000000      2.000000
  0.048509  0.027825  0.000000      2.000000
 -0.000052  0.018641  0.000000      2.000000
  0.016117  0.027916  0.000000      2.000000
  0.032287  0.037191  0.000000      2.000000
  0.048457  0.046466  0.000000      2.000000
 -0.048561 -0.009184  0.000000      2.000000
 -0.032392  0.000091  0.000000      2.000000
 -0.016222  0.009366  0.000000      2.000000
 -0.000105  0.037282  0.000000      2.000000
  0.016065  0.046557  0.000000      2.000000
  0.032235  0.055832  0.000000      2.000000
  0.048404  0.065107  0.000000      2.000000
 -0.048614  0.009456  0.000000      2.000000
 -0.032444  0.018732  0.000000      2.000000
 -0.016274  0.028007  0.000000      2.000000
 -0.000157  0.055923  0.000000      2.000000
  0.016013  0.065198  0.000000      2.000000
  0.032182  0.074473  0.000000      2.000000
  0.048352  0.083748  0.000000      2.000000
 -0.048666  0.028097  0.000000      2.000000
 -0.032496  0.037373  0.000000      2.000000
 -0.016327  0.046648  0.000000      2.000000
  0.000000  0.000000  0.021941      2.000000
  0.016170  0.009275  0.021941      2.000000
  0.032339  0.018550  0.021941      2.000000
  0.048509  0.027825  0.021941      2.000000
 -0.048509 -0.027825  0.021941      2.000000
 -0.032339 -0.018550  0.021941      2.000000
 -0.016170 -0.009275  0.021941      2.000000
 -0.000052  0.018641  0.021941      2.000000
  0.016117  0.027916  0.021941      2.000000
  0.032287  0.037191  0.021941      2.000000
  0.048457  0.046466  0.021941      2.000000
 -0.048561 -0.009184  0.021941      2.000000
 -0.032392  0.000091  0.021941      2.000000
 -0.016222  0.009366  0.021941      2.000000
 -0.000105  0.037282  0.021941      2.000000
  0.016065  0.046557  0.021941      2.000000
  0.032235  0.055832  0.021941      2.000000
  0.048404  0.065107  0.021941      2.000000
 -0.048614  0.009456  0.021941      2.000000
 -0.032444  0.018732  0.021941      2.000000
 -0.016274  0.028007  0.021941      2.000000
 -0.000157  0.055923  0.021941      2.000000
  0.016013  0.065198  0.021941      2.000000
  0.032182  0.074473  0.021941      2.000000
  0.048352  0.083748  0.021941      2.000000
 -0.048666  0.028097  0.021941      2.000000
 -0.032496  0.037373  0.021941      2.000000
 -0.016327  0.046648  0.021941      2.000000
  0.000157 -0.055923  0.021941      2.000000
  0.016327 -0.046648  0.021941      2.000000
  0.032496 -0.037373  0.021941      2.000000
  0.048666 -0.028097  0.021941      2.000000
 -0.048352 -0.083748  0.021941      2.000000
 -0.032182 -0.074473  0.021941      2.000000
 -0.016013 -0.065198  0.021941      2.000000
  0.000105 -0.037282  0.021941      2.000000
  0.016274 -0.028007  0.021941      2.000000
  0.032444 -0.018732  0.021941      2.000000
  0.048614 -0.009456  0.021941      2.000000
 -0.048404 -0.065107  0.021941      2.000000
 -0.032235 -0.055832  0.021941      2.000000
 -0.016065 -0.046557  0.021941      2.000000
  0.000052 -0.018641  0.021941      2.000000
  0.016222 -0.009366  0.021941      2.000000
  0.032392 -0.000091  0.021941      2.000000
  0.048561  0.009184  0.021941      2.000000
 -0.048457 -0.046466  0.021941      2.000000
 -0.032287 -0.037191  0.021941      2.000000
 -0.016117 -0.027916  0.021941      2.000000
  0.000000  0.000000  0.043882      2.000000
  0.016170  0.009275  0.043882      2.000000
  0.032339  0.018550  0.043882      2.000000
  0.048509  0.027825  0.043882      2.000000
 -0.048509 -0.027825  0.043882      2.000000
 -0.032339 -0.018550  0.043882      2.000000
 -0.016170 -0.009275  0.043882      2.000000
 -0.000052  0.018641  0.043882      2.000000
  0.016117  0.027916  0.043882      2.000000
  0.032287  0.037191  0.043882      2.000000
  0.048457  0.046466  0.043882      2.000000
 -0.048561 -0.009184  0.043882      2.000000
 -0.032392  0.000091  0.043882      2.000000
 -0.016222  0.009366  0.043882      2.000000
 -0.000105  0.037282  0.043882      2.000000
  0.016065  0.046557  0.043882      2.000000
  0.032235  0.055832  0.043882      2.000000
  0.048404  0.065107  0.043882      2.000000
 -0.048614  0.009456  0.043882      2.000000
 -0.032444  0.018732  0.043882      2.000000
 -0.016274  0.028007  0.043882      2.000000
 -0.000157  0.055923  0.043882      2.000000
  0.016013  0.065198  0.043882      2.000000
  0.032182  0.074473  0.043882      2.000000
  0.048352  0.083748  0.043882      2.000000
 -0.048666  0.028097  0.043882      2.000000
 -0.032496  0.037373  0.043882      2.000000
 -0.016327  0.046648  0.043882      2.000000
  0.000157 -0.055923  0.043882      2.000000
  0.016327 -0.046648  0.043882      2.000000
  0.032496 -0.037373  0.043882      2.000000
  0.048666 -0.028097  0.043882      2.000000
 -0.048352 -0.083748  0.043882      2.000000
 -0.032182 -0.074473  0.043882      2.000000
 -0.016013 -0.065198  0.043882      2.000000
  0.000105 -0.037282  0.043882      2.000000
  0.016274 -0.028007  0.043882      2.000000
  0.032444 -0.018732  0.043882      2.000000
  0.048614 -0.009456  0.043882      2.000000
 -0.048404 -0.065107  0.043882      2.000000
 -0.032235 -0.055832  0.043882      2.000000
 -0.016065 -0.046557  0.043882      2.000000
  0.000052 -0.018641  0.043882      2.000000
  0.016222 -0.009366  0.043882      2.000000
  0.032392 -0.000091  0.043882      2.000000
  0.048561  0.009184  0.043882      2.000000
 -0.048457 -0.046466  0.043882      2.000000
 -0.032287 -0.037191  0.043882      2.000000
 -0.016117 -0.027916  0.043882      2.000000
 


--------------------------------------------------------------------------------------------------------




 Dimension of arrays:
   k-Points           NKPTS =    123   number of bands    NBANDS=    216
   number of dos      NEDOS =    301   number of ions     NIONS =     36
   non local maximal  LDIM  =      6   non local SUM 2l+1 LMDIM =     18
   total plane-waves  NPLWV = 286720
   max r-space proj   IRMAX =      1   max aug-charges    IRDMAX=  18263
   dimension x,y,z NGX =    64 NGY =   64 NGZ =   70
   dimension x,y,z NGXF=   128 NGYF=  128 NGZF=  140
   support grid    NGXF=   128 NGYF=  128 NGZF=  140
   ions per type =              36
 NGX,Y,Z   is equivalent  to a cutoff of  12.06, 12.06, 12.77 a.u.
 NGXF,Y,Z  is equivalent  to a cutoff of  24.12, 24.12, 25.53 a.u.


 I would recommend the setting:
   dimension x,y,z NGX =    64 NGY =   64 NGZ =   66
 SYSTEM =  unknown system                          
 POSCAR =  Ti                                      

 Startparameter for this run:
   NWRITE =      2    write-flag & timer
   PREC   = accura    medium, high low
   ISTART =      0    job   : 0-new  1-cont  2-samecut
   ICHARG =      2    charge: 1-file 2-atom 10-const
   ISPIN  =      1    spin polarized calculation?
   LNONCOLLINEAR =      F non collinear calculations
   LSORBIT =      F    spin-orbit coupling
   INIWAV =      1    electr: 0-lowe 1-rand  2-diag
   LASPH  =      F    aspherical Exc in radial PAW
   METAGGA=      F    non-selfconsistent MetaGGA calc.

 Electronic Relaxation 1
   ENCUT  =  500.0 eV  36.75 Ry    6.06 a.u.  16.08 16.08 16.62*2*pi/ulx,y,z
   ENINI  =  500.0     initial cutoff
   ENAUG  =  482.8 eV  augmentation charge cutoff
   NELM   =     60;   NELMIN=  2; NELMDL= -5     # of ELM steps 
   EDIFF  = 0.1E-07   stopping-criterion for ELM
   LREAL  =      F    real-space projection
   LCOMPAT=      F    compatible to vasp.4.4
   LREAL_COMPAT= F    compatible to vasp.4.5.1-3
   GGA_COMPAT  = T    GGA compatible to vasp.4.4-vasp.4.6
   LMAXPAW     = -100 max onsite density
   LMAXMIX     =    2 max onsite mixed and CHGCAR
   VOSKOWN=      0    Vosko Wilk Nusair interpolation
   ROPT   =    0.00000
 Ionic relaxation
   EDIFFG = 0.1E-06   stopping-criterion for IOM
   NSW    =      0    number of steps for IOM
   NBLOCK =      1;   KBLOCK =      1    inner block; outer block 
   IBRION =     -1    ionic relax: 0-MD 1-quasi-New 2-CG
   NFREE  =      0    steps in history (QN), initial steepest desc. (CG)
   ISIF   =      2    stress and relaxation
   IWAVPR =     10    prediction:  0-non 1-charg 2-wave 3-comb
   ISYM   =      2    0-nonsym 1-usesym 2-fastsym
   LCORR  =      T    Harris-Foulkes like correction to forces

   POTIM  =   0.50    time-step for ionic-motion
   TEIN   =    0.0    initial temperature
   TEBEG  =    0.0;   TEEND  =   0.0 temperature during run
   SMASS  =  -3.00    Nose mass-parameter (am)
   estimated Nose-frequenzy (Omega)   =  0.10E-29 period in steps =****** mass=  -0.178E-26a.u.
   NPACO  =    256;   APACO  = 16.0  distance and # of slots for P.C.
   PSTRESS=    0.0 pullay stress

  Mass of Ions in am
   POMASS =  47.88
  Ionic Valenz
   ZVAL   =  10.00
  Atomic Wigner-Seitz radii
   RWIGS  =  -1.00
   NELECT =     360.0000    total number of electrons
   NUPDOWN=      -1.0000    fix difference up-down

 DOS related values:
   EMIN   =  10.00;   EMAX   =-10.00  energy-range for DOS
   ISMEAR =     0;   SIGMA  =   0.01  broadening in eV -4-tet -1-fermi 0-gaus

 Electronic relaxation 2 (details)
   IALGO  =     38    algorithm
   LDIAG  =      T    sub-space diagonalisation
   IMIX   =      4    mixing-type and parameters
     AMIX     =   0.40;   BMIX     =  1.00
     AMIX_MAG =   1.60;   BMIX_MAG =  1.00
     AMIN     =   0.10
     WC   =   100.;   INIMIX=   1;  MIXPRE=   1

 Intra band minimization:
   WEIMIN = 0.0000     energy-eigenvalue tresh-hold
   EBREAK =  0.12E-10  absolut break condition
   DEPER  =   0.30     relativ break condition  

   TIME   =   0.10     timestep for ELM

  volume/ion in A,a.u.               =      17.12       115.51
  Fermi-wavevector in a.u.,eV,Ry     =   1.368585 25.484057  1.873025

 Second variation
   LSECVAR=     F    do a second variation
 
 Write flags
   LWAVE  =      F    write WAVECAR
   LCHARG =      F    write CHGCAR
   LVTOT  =      F    write LOCPOT, local potential
   LELF   =      F    write electronic localiz. function (ELF)
   LORBIT =      0    0 simple, 1 ext, 2 COOP (PROOUT)


 Dipole corrections
   IDIPOL =      0    1-x, 2-y, 3-z
   LDIPOL =      F    correct potential



--------------------------------------------------------------------------------------------------------


 Static calculation
 charge density will be updated during run
 non-spin polarized calculation
 Variant of blocked Davidson
 Davidson routine will perform the subspace rotation
 performe sub-space diagonalisation
    after iterative eigenvector-optimisation
 modified Broyden-mixing scheme, WC =      100.0
 initial mixing is a Kerker type mixing with AMIX =  0.4000 and BMIX =      1.0000
 Hartree-type preconditioning will be used
 using additional bands           36
 reciprocal scheme for non local part
 use partial core corrections
 calculate Harris-corrections to forces 
   (improved forces if not selfconsistent)
 use gradient corrections 
 use of overlap-Matrix (Vanderbilt PP)
 Gauss-broadening in eV      SIGMA  =   0.01


--------------------------------------------------------------------------------------------------------


  energy-cutoff  :      500.00
  volume of cell :      616.19
      direct lattice vectors                 reciprocal lattice vectors
     8.820667100  0.024765440  0.000000000     0.113187820  0.064925977  0.000000000
    -4.388885871  7.651304610  0.000000000    -0.000366362  0.130486516  0.000000000
     0.000000000  0.000000000  9.115399722     0.000000000  0.000000000  0.109704460

  length of vectors
     8.820701866  8.820701867  9.115399722     0.130487030  0.130487030  0.109704460


 
 k-points in units of 2pi/SCALE and weight: Automatic mesh                          
   0.00000000  0.00000000  0.00000000       0.004
   0.01616969  0.00927514  0.00000000       0.008
   0.03233938  0.01855028  0.00000000       0.008
   0.04850907  0.02782542  0.00000000       0.008
  -0.00005234  0.01864093  0.00000000       0.008
   0.01611735  0.02791607  0.00000000       0.008
   0.03228704  0.03719121  0.00000000       0.008
   0.04845673  0.04646635  0.00000000       0.008
  -0.04856140 -0.00918449  0.00000000       0.008
  -0.03239171  0.00009065  0.00000000       0.008
  -0.01622203  0.00936579  0.00000000       0.008
  -0.00010467  0.03728186  0.00000000       0.008
   0.01606501  0.04655700  0.00000000       0.008
   0.03223470  0.05583214  0.00000000       0.008
   0.04840439  0.06510728  0.00000000       0.008
  -0.04861374  0.00945644  0.00000000       0.008
  -0.03244405  0.01873158  0.00000000       0.008
  -0.01627436  0.02800672  0.00000000       0.008
  -0.00015701  0.05592279  0.00000000       0.008
   0.01601268  0.06519793  0.00000000       0.008
   0.03218236  0.07447307  0.00000000       0.008
   0.04835205  0.08374821  0.00000000       0.008
  -0.04866608  0.02809737  0.00000000       0.008
  -0.03249639  0.03737251  0.00000000       0.008
  -0.01632670  0.04664765  0.00000000       0.008
   0.00000000  0.00000000  0.02194089       0.008
   0.01616969  0.00927514  0.02194089       0.008
   0.03233938  0.01855028  0.02194089       0.008
   0.04850907  0.02782542  0.02194089       0.008
  -0.04850907 -0.02782542  0.02194089       0.008
  -0.03233938 -0.01855028  0.02194089       0.008
  -0.01616969 -0.00927514  0.02194089       0.008
  -0.00005234  0.01864093  0.02194089       0.008
   0.01611735  0.02791607  0.02194089       0.008
   0.03228704  0.03719121  0.02194089       0.008
   0.04845673  0.04646635  0.02194089       0.008
  -0.04856140 -0.00918449  0.02194089       0.008
  -0.03239171  0.00009065  0.02194089       0.008
  -0.01622203  0.00936579  0.02194089       0.008
  -0.00010467  0.03728186  0.02194089       0.008
   0.01606501  0.04655700  0.02194089       0.008
   0.03223470  0.05583214  0.02194089       0.008
   0.04840439  0.06510728  0.02194089       0.008
  -0.04861374  0.00945644  0.02194089       0.008
  -0.03244405  0.01873158  0.02194089       0.008
  -0.01627436  0.02800672  0.02194089       0.008
  -0.00015701  0.05592279  0.02194089       0.008
   0.01601268  0.06519793  0.02194089       0.008
   0.03218236  0.07447307  0.02194089       0.008
   0.04835205  0.08374821  0.02194089       0.008
  -0.04866608  0.02809737  0.02194089       0.008
  -0.03249639  0.03737251  0.02194089       0.008
  -0.01632670  0.04664765  0.02194089       0.008
   0.00015701 -0.05592279  0.02194089       0.008
   0.01632670 -0.04664765  0.02194089       0.008
   0.03249639 -0.03737251  0.02194089       0.008
   0.04866608 -0.02809737  0.02194089       0.008
  -0.04835205 -0.08374821  0.02194089       0.008
  -0.03218236 -0.07447307  0.02194089       0.008
  -0.01601268 -0.06519793  0.02194089       0.008
   0.00010467 -0.03728186  0.02194089       0.008
   0.01627436 -0.02800672  0.02194089       0.008
   0.03244405 -0.01873158  0.02194089       0.008
   0.04861374 -0.00945644  0.02194089       0.008
  -0.04840439 -0.06510728  0.02194089       0.008
  -0.03223470 -0.05583214  0.02194089       0.008
  -0.01606501 -0.04655700  0.02194089       0.008
   0.00005234 -0.01864093  0.02194089       0.008
   0.01622203 -0.00936579  0.02194089       0.008
   0.03239171 -0.00009065  0.02194089       0.008
   0.04856140  0.00918449  0.02194089       0.008
  -0.04845673 -0.04646635  0.02194089       0.008
  -0.03228704 -0.03719121  0.02194089       0.008
  -0.01611735 -0.02791607  0.02194089       0.008
   0.00000000  0.00000000  0.04388178       0.008
   0.01616969  0.00927514  0.04388178       0.008
   0.03233938  0.01855028  0.04388178       0.008
   0.04850907  0.02782542  0.04388178       0.008
  -0.04850907 -0.02782542  0.04388178       0.008
  -0.03233938 -0.01855028  0.04388178       0.008
  -0.01616969 -0.00927514  0.04388178       0.008
  -0.00005234  0.01864093  0.04388178       0.008
   0.01611735  0.02791607  0.04388178       0.008
   0.03228704  0.03719121  0.04388178       0.008
   0.04845673  0.04646635  0.04388178       0.008
  -0.04856140 -0.00918449  0.04388178       0.008
  -0.03239171  0.00009065  0.04388178       0.008
  -0.01622203  0.00936579  0.04388178       0.008
  -0.00010467  0.03728186  0.04388178       0.008
   0.01606501  0.04655700  0.04388178       0.008
   0.03223470  0.05583214  0.04388178       0.008
   0.04840439  0.06510728  0.04388178       0.008
  -0.04861374  0.00945644  0.04388178       0.008
  -0.03244405  0.01873158  0.04388178       0.008
  -0.01627436  0.02800672  0.04388178       0.008
  -0.00015701  0.05592279  0.04388178       0.008
   0.01601268  0.06519793  0.04388178       0.008
   0.03218236  0.07447307  0.04388178       0.008
   0.04835205  0.08374821  0.04388178       0.008
  -0.04866608  0.02809737  0.04388178       0.008
  -0.03249639  0.03737251  0.04388178       0.008
  -0.01632670  0.04664765  0.04388178       0.008
   0.00015701 -0.05592279  0.04388178       0.008
   0.01632670 -0.04664765  0.04388178       0.008
   0.03249639 -0.03737251  0.04388178       0.008
   0.04866608 -0.02809737  0.04388178       0.008
  -0.04835205 -0.08374821  0.04388178       0.008
  -0.03218236 -0.07447307  0.04388178       0.008
  -0.01601268 -0.06519793  0.04388178       0.008
   0.00010467 -0.03728186  0.04388178       0.008
   0.01627436 -0.02800672  0.04388178       0.008
   0.03244405 -0.01873158  0.04388178       0.008
   0.04861374 -0.00945644  0.04388178       0.008
  -0.04840439 -0.06510728  0.04388178       0.008
  -0.03223470 -0.05583214  0.04388178       0.008
  -0.01606501 -0.04655700  0.04388178       0.008
   0.00005234 -0.01864093  0.04388178       0.008
   0.01622203 -0.00936579  0.04388178       0.008
   0.03239171 -0.00009065  0.04388178       0.008
   0.04856140  0.00918449  0.04388178       0.008
  -0.04845673 -0.04646635  0.04388178       0.008
  -0.03228704 -0.03719121  0.04388178       0.008
  -0.01611735 -0.02791607  0.04388178       0.008
 
 k-points in reciprocal lattice and weights: Automatic mesh                          
   0.00000000  0.00000000  0.00000000       0.004
   0.14285714  0.00000000  0.00000000       0.008
   0.28571429  0.00000000  0.00000000       0.008
   0.42857143  0.00000000  0.00000000       0.008
  -0.00000000  0.14285714  0.00000000       0.008
   0.14285714  0.14285714  0.00000000       0.008
   0.28571429  0.14285714  0.00000000       0.008
   0.42857143  0.14285714  0.00000000       0.008
  -0.42857143  0.14285714  0.00000000       0.008
  -0.28571429  0.14285714  0.00000000       0.008
  -0.14285714  0.14285714  0.00000000       0.008
   0.00000000  0.28571429  0.00000000       0.008
   0.14285714  0.28571429  0.00000000       0.008
   0.28571429  0.28571429  0.00000000       0.008
   0.42857143  0.28571429  0.00000000       0.008
  -0.42857143  0.28571429  0.00000000       0.008
  -0.28571429  0.28571429  0.00000000       0.008
  -0.14285714  0.28571429  0.00000000       0.008
   0.00000000  0.42857143  0.00000000       0.008
   0.14285714  0.42857143  0.00000000       0.008
   0.28571429  0.42857143  0.00000000       0.008
   0.42857143  0.42857143  0.00000000       0.008
  -0.42857143  0.42857143  0.00000000       0.008
  -0.28571429  0.42857143  0.00000000       0.008
  -0.14285714  0.42857143  0.00000000       0.008
   0.00000000  0.00000000  0.20000000       0.008
   0.14285714  0.00000000  0.20000000       0.008
   0.28571429  0.00000000  0.20000000       0.008
   0.42857143  0.00000000  0.20000000       0.008
  -0.42857143  0.00000000  0.20000000       0.008
  -0.28571429  0.00000000  0.20000000       0.008
  -0.14285714  0.00000000  0.20000000       0.008
  -0.00000000  0.14285714  0.20000000       0.008
   0.14285714  0.14285714  0.20000000       0.008
   0.28571429  0.14285714  0.20000000       0.008
   0.42857143  0.14285714  0.20000000       0.008
  -0.42857143  0.14285714  0.20000000       0.008
  -0.28571429  0.14285714  0.20000000       0.008
  -0.14285714  0.14285714  0.20000000       0.008
   0.00000000  0.28571429  0.20000000       0.008
   0.14285714  0.28571429  0.20000000       0.008
   0.28571429  0.28571429  0.20000000       0.008
   0.42857143  0.28571429  0.20000000       0.008
  -0.42857143  0.28571429  0.20000000       0.008
  -0.28571429  0.28571429  0.20000000       0.008
  -0.14285714  0.28571429  0.20000000       0.008
   0.00000000  0.42857143  0.20000000       0.008
   0.14285714  0.42857143  0.20000000       0.008
   0.28571429  0.42857143  0.20000000       0.008
   0.42857143  0.42857143  0.20000000       0.008
  -0.42857143  0.42857143  0.20000000       0.008
  -0.28571429  0.42857143  0.20000000       0.008
  -0.14285714  0.42857143  0.20000000       0.008
  -0.00000000 -0.42857143  0.20000000       0.008
   0.14285714 -0.42857143  0.20000000       0.008
   0.28571429 -0.42857143  0.20000000       0.008
   0.42857143 -0.42857143  0.20000000       0.008
  -0.42857143 -0.42857143  0.20000000       0.008
  -0.28571429 -0.42857143  0.20000000       0.008
  -0.14285714 -0.42857143  0.20000000       0.008
  -0.00000000 -0.28571429  0.20000000       0.008
   0.14285714 -0.28571429  0.20000000       0.008
   0.28571429 -0.28571429  0.20000000       0.008
   0.42857143 -0.28571429  0.20000000       0.008
  -0.42857143 -0.28571429  0.20000000       0.008
  -0.28571429 -0.28571429  0.20000000       0.008
  -0.14285714 -0.28571429  0.20000000       0.008
   0.00000000 -0.14285714  0.20000000       0.008
   0.14285714 -0.14285714  0.20000000       0.008
   0.28571429 -0.14285714  0.20000000       0.008
   0.42857143 -0.14285714  0.20000000       0.008
  -0.42857143 -0.14285714  0.20000000       0.008
  -0.28571429 -0.14285714  0.20000000       0.008
  -0.14285714 -0.14285714  0.20000000       0.008
   0.00000000  0.00000000  0.40000000       0.008
   0.14285714  0.00000000  0.40000000       0.008
   0.28571429  0.00000000  0.40000000       0.008
   0.42857143  0.00000000  0.40000000       0.008
  -0.42857143  0.00000000  0.40000000       0.008
  -0.28571429  0.00000000  0.40000000       0.008
  -0.14285714  0.00000000  0.40000000       0.008
  -0.00000000  0.14285714  0.40000000       0.008
   0.14285714  0.14285714  0.40000000       0.008
   0.28571429  0.14285714  0.40000000       0.008
   0.42857143  0.14285714  0.40000000       0.008
  -0.42857143  0.14285714  0.40000000       0.008
  -0.28571429  0.14285714  0.40000000       0.008
  -0.14285714  0.14285714  0.40000000       0.008
   0.00000000  0.28571429  0.40000000       0.008
   0.14285714  0.28571429  0.40000000       0.008
   0.28571429  0.28571429  0.40000000       0.008
   0.42857143  0.28571429  0.40000000       0.008
  -0.42857143  0.28571429  0.40000000       0.008
  -0.28571429  0.28571429  0.40000000       0.008
  -0.14285714  0.28571429  0.40000000       0.008
   0.00000000  0.42857143  0.40000000       0.008
   0.14285714  0.42857143  0.40000000       0.008
   0.28571429  0.42857143  0.40000000       0.008
   0.42857143  0.42857143  0.40000000       0.008
  -0.42857143  0.42857143  0.40000000       0.008
  -0.28571429  0.42857143  0.40000000       0.008
  -0.14285714  0.42857143  0.40000000       0.008
  -0.00000000 -0.42857143  0.40000000       0.008
   0.14285714 -0.42857143  0.40000000       0.008
   0.28571429 -0.42857143  0.40000000       0.008
   0.42857143 -0.42857143  0.40000000       0.008
  -0.42857143 -0.42857143  0.40000000       0.008
  -0.28571429 -0.42857143  0.40000000       0.008
  -0.14285714 -0.42857143  0.40000000       0.008
  -0.00000000 -0.28571429  0.40000000       0.008
   0.14285714 -0.28571429  0.40000000       0.008
   0.28571429 -0.28571429  0.40000000       0.008
   0.42857143 -0.28571429  0.40000000       0.008
  -0.42857143 -0.28571429  0.40000000       0.008
  -0.28571429 -0.28571429  0.40000000       0.008
  -0.14285714 -0.28571429  0.40000000       0.008
   0.00000000 -0.14285714  0.40000000       0.008
   0.14285714 -0.14285714  0.40000000       0.008
   0.28571429 -0.14285714  0.40000000       0.008
   0.42857143 -0.14285714  0.40000000       0.008
  -0.42857143 -0.14285714  0.40000000       0.008
  -0.28571429 -0.14285714  0.40000000       0.008
  -0.14285714 -0.14285714  0.40000000       0.008
 
 position of ions in fractional coordinates (direct lattice) 
   0.11153176  0.22258994  0.12578837
   0.44407673  0.22258994  0.12500000
   0.77741006  0.22258994  0.12500000
   0.11074339  0.55592327  0.12500000
   0.44407673  0.55592327  0.12500000
   0.77741006  0.55592327  0.12500000
   0.11074339  0.88925661  0.12500000
   0.44407673  0.88925661  0.12500000
   0.77741006  0.88925661  0.12500000
   0.11074339  0.22258994  0.62500000
   0.44407673  0.22258994  0.62500000
   0.77741006  0.22258994  0.62500000
   0.11074339  0.55592327  0.62500000
   0.44407673  0.55592327  0.62500000
   0.77741006  0.55592327  0.62500000
   0.11074339  0.88925661  0.62500000
   0.44407673  0.88925661  0.62500000
   0.77741006  0.88925661  0.62500000
   0.22258994  0.11074339  0.37500000
   0.55592327  0.11074339  0.37500000
   0.88925661  0.11074339  0.37500000
   0.22258994  0.44407673  0.37500000
   0.55592327  0.44407673  0.37500000
   0.88925661  0.44407673  0.37500000
   0.22258994  0.77741006  0.37500000
   0.55592327  0.77741006  0.37500000
   0.88925661  0.77741006  0.37500000
   0.22258994  0.11074339  0.87500000
   0.55592327  0.11074339  0.87500000
   0.88925661  0.11074339  0.87500000
   0.22258994  0.44407673  0.87500000
   0.55592327  0.44407673  0.87500000
   0.88925661  0.44407673  0.87500000
   0.22258994  0.77741006  0.87500000
   0.55592327  0.77741006  0.87500000
   0.88925661  0.77741006  0.87500000
 
 position of ions in cartesian coordinates  (Angst):
   0.00686270  1.70586556  1.14661124
   2.94013115  1.71410118  1.13942497
   5.88035352  1.72235633  1.13942497
  -1.46305318  4.25628090  1.13942497
   1.47716919  4.26453605  1.13942497
   4.41739156  4.27279120  1.13942497
  -2.92601513  6.80671577  1.13942497
   0.01420723  6.81497092  1.13942497
   2.95442960  6.82322607  1.13942497
  -0.00009122  1.70584603  5.69712483
   2.94013115  1.71410118  5.69712483
   5.88035352  1.72235633  5.69712483
  -1.46305318  4.25628090  5.69712483
   1.47716919  4.26453605  5.69712483
   4.41739156  4.27279120  5.69712483
  -2.92601513  6.80671577  5.69712483
   0.01420723  6.81497092  5.69712483
   2.95442960  6.82322607  5.69712483
   1.47735163  0.85284398  3.41827490
   4.41757399  0.86109913  3.41827490
   7.35779636  0.86935428  3.41827490
   0.01438967  3.40327885  3.41827490
   2.95461204  3.41153400  3.41827490
   5.89483440  3.41978915  3.41827490
  -1.44857229  5.95371372  3.41827490
   1.49165008  5.96196887  3.41827490
   4.43187245  5.97022402  3.41827490
   1.47735163  0.85284398  7.97597476
   4.41757399  0.86109913  7.97597476
   7.35779636  0.86935428  7.97597476
   0.01438967  3.40327885  7.97597476
   2.95461204  3.41153400  7.97597476
   5.89483440  3.41978915  7.97597476
  -1.44857229  5.95371372  7.97597476
   1.49165008  5.96196887  7.97597476
   4.43187245  5.97022402  7.97597476
 


--------------------------------------------------------------------------------------------------------


 k-point  1 :  0.00000.00000.0000  plane waves:  15623
 k-point  2 :  0.14290.00000.0000  plane waves:  15631
 k-point  3 :  0.28570.00000.0000  plane waves:  15639
 k-point  4 :  0.42860.00000.0000  plane waves:  15650
 k-point  5 :  -.00000.14290.0000  plane waves:  15631
 k-point  6 :  0.14290.14290.0000  plane waves:  15612
 k-point  7 :  0.28570.14290.0000  plane waves:  15644
 k-point  8 :  0.42860.14290.0000  plane waves:  15676
 k-point  9 :  -.42860.14290.0000  plane waves:  15640
 k-point 10 :  -.28570.14290.0000  plane waves:  15632
 k-point 11 :  -.14290.14290.0000  plane waves:  15626
 k-point 12 :  0.00000.28570.0000  plane waves:  15639
 k-point 13 :  0.14290.28570.0000  plane waves:  15644
 k-point 14 :  0.28570.28570.0000  plane waves:  15682
 k-point 15 :  0.42860.28570.0000  plane waves:  15673
 k-point 16 :  -.42860.28570.0000  plane waves:  15667
 k-point 17 :  -.28570.28570.0000  plane waves:  15678
 k-point 18 :  -.14290.28570.0000  plane waves:  15632
 k-point 19 :  0.00000.42860.0000  plane waves:  15650
 k-point 20 :  0.14290.42860.0000  plane waves:  15676
 k-point 21 :  0.28570.42860.0000  plane waves:  15673
 k-point 22 :  0.42860.42860.0000  plane waves:  15678
 k-point 23 :  -.42860.42860.0000  plane waves:  15670
 k-point 24 :  -.28570.42860.0000  plane waves:  15667
 k-point 25 :  -.14290.42860.0000  plane waves:  15640
 k-point 26 :  0.00000.00000.2000  plane waves:  15617
 k-point 27 :  0.14290.00000.2000  plane waves:  15618
 k-point 28 :  0.28570.00000.2000  plane waves:  15642
 k-point 29 :  0.42860.00000.2000  plane waves:  15639
 k-point 30 :  -.42860.00000.2000  plane waves:  15639
 k-point 31 :  -.28570.00000.2000  plane waves:  15642
 k-point 32 :  -.14290.00000.2000  plane waves:  15618
 k-point 33 :  -.00000.14290.2000  plane waves:  15618
 k-point 34 :  0.14290.14290.2000  plane waves:  15652
 k-point 35 :  0.28570.14290.2000  plane waves:  15651
 k-point 36 :  0.42860.14290.2000  plane waves:  15650
 k-point 37 :  -.42860.14290.2000  plane waves:  15649
 k-point 38 :  -.28570.14290.2000  plane waves:  15636
 k-point 39 :  -.14290.14290.2000  plane waves:  15640
 k-point 40 :  0.00000.28570.2000  plane waves:  15642
 k-point 41 :  0.14290.28570.2000  plane waves:  15651
 k-point 42 :  0.28570.28570.2000  plane waves:  15657
 k-point 43 :  0.42860.28570.2000  plane waves:  15642
 k-point 44 :  -.42860.28570.2000  plane waves:  15663
 k-point 45 :  -.28570.28570.2000  plane waves:  15636
 k-point 46 :  -.14290.28570.2000  plane waves:  15636
 k-point 47 :  0.00000.42860.2000  plane waves:  15639
 k-point 48 :  0.14290.42860.2000  plane waves:  15650
 k-point 49 :  0.28570.42860.2000  plane waves:  15642
 k-point 50 :  0.42860.42860.2000  plane waves:  15649
 k-point 51 :  -.42860.42860.2000  plane waves:  15660
 k-point 52 :  -.28570.42860.2000  plane waves:  15663
 k-point 53 :  -.14290.42860.2000  plane waves:  15649
 k-point 54 :  -.0000-.42860.2000  plane waves:  15639
 k-point 55 :  0.1429-.42860.2000  plane waves:  15649
 k-point 56 :  0.2857-.42860.2000  plane waves:  15663
 k-point 57 :  0.4286-.42860.2000  plane waves:  15660
 k-point 58 :  -.4286-.42860.2000  plane waves:  15649
 k-point 59 :  -.2857-.42860.2000  plane waves:  15642
 k-point 60 :  -.1429-.42860.2000  plane waves:  15650
 k-point 61 :  -.0000-.28570.2000  plane waves:  15642
 k-point 62 :  0.1429-.28570.2000  plane waves:  15636
 k-point 63 :  0.2857-.28570.2000  plane waves:  15636
 k-point 64 :  0.4286-.28570.2000  plane waves:  15663
 k-point 65 :  -.4286-.28570.2000  plane waves:  15642
 k-point 66 :  -.2857-.28570.2000  plane waves:  15657
 k-point 67 :  -.1429-.28570.2000  plane waves:  15651
 k-point 68 :  0.0000-.14290.2000  plane waves:  15618
 k-point 69 :  0.1429-.14290.2000  plane waves:  15640
 k-point 70 :  0.2857-.14290.2000  plane waves:  15636
 k-point 71 :  0.4286-.14290.2000  plane waves:  15649
 k-point 72 :  -.4286-.14290.2000  plane waves:  15650
 k-point 73 :  -.2857-.14290.2000  plane waves:  15651
 k-point 74 :  -.1429-.14290.2000  plane waves:  15652
 k-point 75 :  0.00000.00000.4000  plane waves:  15606
 k-point 76 :  0.14290.00000.4000  plane waves:  15627
 k-point 77 :  0.28570.00000.4000  plane waves:  15641
 k-point 78 :  0.42860.00000.4000  plane waves:  15657
 k-point 79 :  -.42860.00000.4000  plane waves:  15657
 k-point 80 :  -.28570.00000.4000  plane waves:  15641
 k-point 81 :  -.14290.00000.4000  plane waves:  15627
 k-point 82 :  -.00000.14290.4000  plane waves:  15627
 k-point 83 :  0.14290.14290.4000  plane waves:  15642
 k-point 84 :  0.28570.14290.4000  plane waves:  15647
 k-point 85 :  0.42860.14290.4000  plane waves:  15622
 k-point 86 :  -.42860.14290.4000  plane waves:  15642
 k-point 87 :  -.28570.14290.4000  plane waves:  15628
 k-point 88 :  -.14290.14290.4000  plane waves:  15626
 k-point 89 :  0.00000.28570.4000  plane waves:  15641
 k-point 90 :  0.14290.28570.4000  plane waves:  15647
 k-point 91 :  0.28570.28570.4000  plane waves:  15631
 k-point 92 :  0.42860.28570.4000  plane waves:  15636
 k-point 93 :  -.42860.28570.4000  plane waves:  15630
 k-point 94 :  -.28570.28570.4000  plane waves:  15633
 k-point 95 :  -.14290.28570.4000  plane waves:  15628
 k-point 96 :  0.00000.42860.4000  plane waves:  15657
 k-point 97 :  0.14290.42860.4000  plane waves:  15622
 k-point 98 :  0.28570.42860.4000  plane waves:  15636
 k-point 99 :  0.42860.42860.4000  plane waves:  15651
 k-point ** :  -.42860.42860.4000  plane waves:  15646
 k-point ** :  -.28570.42860.4000  plane waves:  15630
 k-point ** :  -.14290.42860.4000  plane waves:  15642
 k-point ** :  -.0000-.42860.4000  plane waves:  15657
 k-point ** :  0.1429-.42860.4000  plane waves:  15642
 k-point ** :  0.2857-.42860.4000  plane waves:  15630
 k-point ** :  0.4286-.42860.4000  plane waves:  15646
 k-point ** :  -.4286-.42860.4000  plane waves:  15651
 k-point ** :  -.2857-.42860.4000  plane waves:  15636
 k-point ** :  -.1429-.42860.4000  plane waves:  15622
 k-point ** :  -.0000-.28570.4000  plane waves:  15641
 k-point ** :  0.1429-.28570.4000  plane waves:  15628
 k-point ** :  0.2857-.28570.4000  plane waves:  15633
 k-point ** :  0.4286-.28570.4000  plane waves:  15630
 k-point ** :  -.4286-.28570.4000  plane waves:  15636
 k-point ** :  -.2857-.28570.4000  plane waves:  15631
 k-point ** :  -.1429-.28570.4000  plane waves:  15647
 k-point ** :  0.0000-.14290.4000  plane waves:  15627
 k-point ** :  0.1429-.14290.4000  plane waves:  15626
 k-point ** :  0.2857-.14290.4000  plane waves:  15628
 k-point ** :  0.4286-.14290.4000  plane waves:  15642
 k-point ** :  -.4286-.14290.4000  plane waves:  15622
 k-point ** :  -.2857-.14290.4000  plane waves:  15647
 k-point ** :  -.1429-.14290.4000  plane waves:  15642

 maximum and minimum number of plane-waves per node :  15682 15606

 maximum number of plane-waves:  15682
 maximal index in each direction: 
   IXMAX= 16   IYMAX= 16   IZMAX= 16
   IXMIN=-16   IYMIN=-16   IZMIN=-17

 WARNING: wrap around error must be expected set NGX to  66
 WARNING: wrap around error must be expected set NGY to  66
 NGZ is ok and might be reduce to  68

 parallel 3dFFT wavefunction:
    minimum data exchange during FFTs selected (reduces bandwidth)
 parallel 3dFFT charge:
    minimum data exchange during FFTs selected (reduces bandwidth)

 For storing wavefunctions 6649.42 MBYTES are necessary
 For predicting wavefunctions  118.58 MBYTES are necessary
Broyden mixing: mesh for mixing (old mesh)
   NGX = 33   NGY = 33   NGZ = 33
  (NGX  =128   NGY  =128   NGZ  =140)
 gives a total of  35937 points
 initial charge density was supplied:
 charge density of overlapping atoms calculated
 number of electron  360.0000000 magnetization 
 keeping initial charge density in first step


--------------------------------------------------------------------------------------------------------


 Maximum index for augmentation-charges         4406 (set IRDMAX)


--------------------------------------------------------------------------------------------------------


 First call to EWALD:  gamma=   0.208
 Maximum number of real-space cells 3x 3x 3
 Maximum number of reciprocal cells 3x 3x 3

    FEWALD:  VPU time    0.01: CPU time    0.01


----------------------------------------- Iteration    1(   1)  ---------------------------------------


    POTLOK:  VPU time    0.52: CPU time    0.52
    SETDIJ:  VPU time    0.04: CPU time    0.04
    EDDAV :  VPU time 1004.97: CPU time 1006.81
    DOS   :  VPU time    0.00: CPU time   -0.00
    ------------------------------------------
      LOOP:  VPU time 1005.73: CPU time 1007.57

 eigenvalue-minimisations  : 53776
 total energy-change (2. order) : 0.5003050E+04  (-0.1716976E+05)
 number of electron  360.0000000 magnetization 
 augmentation part   360.0000000 magnetization 

 Free energy of the ion-electron system (eV)
  ---------------------------------------------------
  alpha Z        PSCENC =      2293.44647913
  Ewald energy   TEWEN  =    -29036.13862582
  -1/2 Hartree   DENC   =     -7928.63102779
  -V(xc)+E(xc)   XCENC  =      1294.39693983
  PAW double counting   =     25711.31321228   -25685.71707589
  entropy T*S    EENTRO =        -0.00076684
  eigenvalues    EBANDS =       828.85631237
  atomic energy  EATOM  =     37525.52423787
  ---------------------------------------------------
  free energy    TOTEN  =      5003.04968515 eV

  energy without entropy =     5003.05045199  energy(sigma->0) =     5003.05006857


--------------------------------------------------------------------------------------------------------




----------------------------------------- Iteration    1(   2)  ---------------------------------------


    EDDAV :  VPU time 1016.09: CPU time 1016.93
    DOS   :  VPU time    0.00: CPU time   -0.00
    ------------------------------------------
      LOOP:  VPU time 1016.29: CPU time 1017.13

 eigenvalue-minimisations  : 53136
 total energy-change (2. order) :-0.4910650E+04  (-0.4834293E+04)
 number of electron  360.0000000 magnetization 
 augmentation part   360.0000000 magnetization 

 Free energy of the ion-electron system (eV)
  ---------------------------------------------------
  alpha Z        PSCENC =      2293.44647913
  Ewald energy   TEWEN  =    -29036.13862582
  -1/2 Hartree   DENC   =     -7928.63102779
  -V(xc)+E(xc)   XCENC  =      1294.39693983
  PAW double counting   =     25711.31321228   -25685.71707589
  entropy T*S    EENTRO =        -0.00149530
  eigenvalues    EBANDS =     -4081.79253254
  atomic energy  EATOM  =     37525.52423787
  ---------------------------------------------------
  free energy    TOTEN  =        92.40011178 eV

  energy without entropy =       92.40160708  energy(sigma->0) =       92.40085943


--------------------------------------------------------------------------------------------------------




----------------------------------------- Iteration    1(   3)  ---------------------------------------


    EDDAV :  VPU time 1339.23: CPU time 1339.96
    DOS   :  VPU time    0.00: CPU time   -0.00
    ------------------------------------------
      LOOP:  VPU time 1339.43: CPU time 1340.17

 eigenvalue-minimisations  : 77408
 total energy-change (2. order) :-0.3843331E+03  (-0.3615657E+03)
 number of electron  360.0000000 magnetization 
 augmentation part   360.0000000 magnetization 

 Free energy of the ion-electron system (eV)
  ---------------------------------------------------
  alpha Z        PSCENC =      2293.44647913
  Ewald energy   TEWEN  =    -29036.13862582
  -1/2 Hartree   DENC   =     -7928.63102779
  -V(xc)+E(xc)   XCENC  =      1294.39693983
  PAW double counting   =     25711.31321228   -25685.71707589
  entropy T*S    EENTRO =        -0.00136458
  eigenvalues    EBANDS =     -4466.12576448
  atomic energy  EATOM  =     37525.52423787
  ---------------------------------------------------
  free energy    TOTEN  =      -291.93298944 eV

  energy without entropy =     -291.93162486  energy(sigma->0) =     -291.93230715


--------------------------------------------------------------------------------------------------------




----------------------------------------- Iteration    1(   4)  ---------------------------------------


    EDDAV :  VPU time 1262.11: CPU time 1262.88
    DOS   :  VPU time    0.00: CPU time   -0.00
    ------------------------------------------
      LOOP:  VPU time 1262.30: CPU time 1263.08

 eigenvalue-minimisations  : 72496
 total energy-change (2. order) :-0.3102472E+02  (-0.3018287E+02)
 number of electron  360.0000000 magnetization 
 augmentation part   360.0000000 magnetization 

 Free energy of the ion-electron system (eV)
  ---------------------------------------------------
  alpha Z        PSCENC =      2293.44647913
  Ewald energy   TEWEN  =    -29036.13862582
  -1/2 Hartree   DENC   =     -7928.63102779
  -V(xc)+E(xc)   XCENC  =      1294.39693983
  PAW double counting   =     25711.31321228   -25685.71707589
  entropy T*S    EENTRO =        -0.00101451
  eigenvalues    EBANDS =     -4497.15083178
  atomic energy  EATOM  =     37525.52423787
  ---------------------------------------------------
  free energy    TOTEN  =      -322.95770666 eV

  energy without entropy =     -322.95669216  energy(sigma->0) =     -322.95719941


--------------------------------------------------------------------------------------------------------




----------------------------------------- Iteration    1(   5)  ---------------------------------------


    EDDAV :  VPU time 1228.68: CPU time 1230.28
    DOS   :  VPU time    0.00: CPU time   -0.00
    CHARGE:  VPU time   55.21: CPU time   55.56
    MIXING:  VPU time    0.03: CPU time    0.10
    ------------------------------------------
      LOOP:  VPU time 1284.11: CPU time 1286.14

 eigenvalue-minimisations  : 69544
 total energy-change (2. order) :-0.9145846E+00  (-0.8952325E+00)
 number of electron  360.0000031 magnetization 
 augmentation part   157.4049976 magnetization 

 Broyden mixing:
  rms(total) = 0.35608E+01    rms(broyden)= 0.35608E+01
  rms(prec ) = 0.50988E+01
  weight for this iteration     100.00

 Free energy of the ion-electron system (eV)
  ---------------------------------------------------
  alpha Z        PSCENC =      2293.44647913
  Ewald energy   TEWEN  =    -29036.13862582
  -1/2 Hartree   DENC   =     -7928.63102779
  -V(xc)+E(xc)   XCENC  =      1294.39693983
  PAW double counting   =     25711.31321228   -25685.71707589
  entropy T*S    EENTRO =        -0.00124423
  eigenvalues    EBANDS =     -4498.06518663
  atomic energy  EATOM  =     37525.52423787
  ---------------------------------------------------
  free energy    TOTEN  =      -323.87229124 eV

  energy without entropy =     -323.87104701  energy(sigma->0) =     -323.87166912


--------------------------------------------------------------------------------------------------------




----------------------------------------- Iteration    1(   6)  ---------------------------------------


    POTLOK:  VPU time    0.60: CPU time    0.85
    SETDIJ:  VPU time    0.04: CPU time    0.09
    EDDAV :  VPU time 1050.91: CPU time 1051.32
    DOS   :  VPU time    0.00: CPU time   -0.00
    CHARGE:  VPU time   47.58: CPU time   47.59
    MIXING:  VPU time    0.01: CPU time    0.01
    ------------------------------------------
      LOOP:  VPU time 1099.34: CPU time 1100.07

 eigenvalue-minimisations  : 57896
 total energy-change (2. order) : 0.3784268E+02  (-0.1174342E+02)
 number of electron  360.0000033 magnetization 
 augmentation part   166.6541015 magnetization 

 Broyden mixing:
  rms(total) = 0.91369E+00    rms(broyden)= 0.91366E+00
  rms(prec ) = 0.13240E+01
  weight for this iteration     100.00

 eigenvalues of (default mixing * dielectric matrix)
  average eigenvalue GAMMA=   1.2695
  1.2695

 Free energy of the ion-electron system (eV)
  ---------------------------------------------------
  alpha Z        PSCENC =      2293.44647913
  Ewald energy   TEWEN  =    -29036.13862582
  -1/2 Hartree   DENC   =     -7226.85742238
  -V(xc)+E(xc)   XCENC  =      1257.15204625
  PAW double counting   =     24969.24064488   -25011.87002693
  entropy T*S    EENTRO =        -0.00196991
  eigenvalues    EBANDS =     -5056.52497771
  atomic energy  EATOM  =     37525.52423787
  ---------------------------------------------------
  free energy    TOTEN  =      -286.02961461 eV

  energy without entropy =     -286.02764470  energy(sigma->0) =     -286.02862966


--------------------------------------------------------------------------------------------------------




----------------------------------------- Iteration    1(   7)  ---------------------------------------


    POTLOK:  VPU time    0.55: CPU time    0.55
    SETDIJ:  VPU time    0.04: CPU time    0.04
    EDDAV :  VPU time 1219.44: CPU time 1220.34
    DOS   :  VPU time    0.00: CPU time   -0.00
    CHARGE:  VPU time   59.98: CPU time   60.14
    MIXING:  VPU time    0.02: CPU time    0.33
    ------------------------------------------
      LOOP:  VPU time 1280.23: CPU time 1281.60

 eigenvalue-minimisations  : 70288
 total energy-change (2. order) : 0.1917199E+01  (-0.1558031E+01)
 number of electron  360.0000033 magnetization 
 augmentation part   170.0093731 magnetization 

 Broyden mixing:
  rms(total) = 0.34978E+00    rms(broyden)= 0.34976E+00
  rms(prec ) = 0.41912E+00
  weight for this iteration     100.00

 eigenvalues of (default mixing * dielectric matrix)
  average eigenvalue GAMMA=   1.8650
  1.4063  2.3236

 Free energy of the ion-electron system (eV)
  ---------------------------------------------------
  alpha Z        PSCENC =      2293.44647913
  Ewald energy   TEWEN  =    -29036.13862582
  -1/2 Hartree   DENC   =     -7016.23551205
  -V(xc)+E(xc)   XCENC  =      1246.69827320
  PAW double counting   =     25131.32766590   -25213.25946186
  entropy T*S    EENTRO =        -0.00155701
  eigenvalues    EBANDS =     -5215.47391532
  atomic energy  EATOM  =     37525.52423787
  ---------------------------------------------------
  free energy    TOTEN  =      -284.11241595 eV

  energy without entropy =     -284.11085894  energy(sigma->0) =     -284.11163745


--------------------------------------------------------------------------------------------------------




----------------------------------------- Iteration    1(   8)  ---------------------------------------


    POTLOK:  VPU time    0.51: CPU time    0.52
    SETDIJ:  VPU time    0.04: CPU time    0.04
    EDDAV :  VPU time 1235.46: CPU time 1237.43
    DOS   :  VPU time    0.00: CPU time   -0.00
    CHARGE:  VPU time   60.51: CPU time   60.60
    MIXING:  VPU time    0.01: CPU time    0.01
    ------------------------------------------
      LOOP:  VPU time 1296.73: CPU time 1298.83

 eigenvalue-minimisations  : 70608
 total energy-change (2. order) :-0.6618190E-01  (-0.2758694E+00)
 number of electron  360.0000033 magnetization 
 augmentation part   169.0617821 magnetization 

 Broyden mixing:
  rms(total) = 0.36373E+00    rms(broyden)= 0.36372E+00
  rms(prec ) = 0.79633E+00
  weight for this iteration     100.00

 eigenvalues of (default mixing * dielectric matrix)
  average eigenvalue GAMMA=   1.3767
  2.5146  1.3675  0.2481

 Free energy of the ion-electron system (eV)
  ---------------------------------------------------
  alpha Z        PSCENC =      2293.44647913
  Ewald energy   TEWEN  =    -29036.13862582
  -1/2 Hartree   DENC   =     -7054.15726683
  -V(xc)+E(xc)   XCENC  =      1249.73365173
  PAW double counting   =     25677.81307543   -25776.57223969
  entropy T*S    EENTRO =        -0.00166270
  eigenvalues    EBANDS =     -5163.82624699
  atomic energy  EATOM  =     37525.52423787
  ---------------------------------------------------
  free energy    TOTEN  =      -284.17859785 eV

  energy without entropy =     -284.17693515  energy(sigma->0) =     -284.17776650


--------------------------------------------------------------------------------------------------------




----------------------------------------- Iteration    1(   9)  ---------------------------------------


    POTLOK:  VPU time    0.58: CPU time    0.59
    SETDIJ:  VPU time    0.04: CPU time    0.04
    EDDAV :  VPU time 1283.26: CPU time 1284.29
    DOS   :  VPU time    0.00: CPU time   -0.00
    CHARGE:  VPU time   61.35: CPU time   61.35
    MIXING:  VPU time    0.01: CPU time    0.01
    ------------------------------------------
      LOOP:  VPU time 1345.45: CPU time 1346.49

 eigenvalue-minimisations  : 74520
 total energy-change (2. order) : 0.1660884E+00  (-0.9201162E-01)
 number of electron  360.0000033 magnetization 
 augmentation part   169.0230948 magnetization 

 Broyden mixing:
  rms(total) = 0.16666E+00    rms(broyden)= 0.16665E+00
  rms(prec ) = 0.24145E+00
  weight for this iteration     100.00

 eigenvalues of (default mixing * dielectric matrix)
  average eigenvalue GAMMA=   1.1753
  2.5616  1.2850  0.6242  0.2304

 Free energy of the ion-electron system (eV)
  ---------------------------------------------------
  alpha Z        PSCENC =      2293.44647913
  Ewald energy   TEWEN  =    -29036.13862582
  -1/2 Hartree   DENC   =     -7051.20705239
  -V(xc)+E(xc)   XCENC  =      1249.83482678
  PAW double counting   =     25789.86182082   -25893.24686671
  entropy T*S    EENTRO =        -0.00187674
  eigenvalues    EBANDS =     -5162.08545237
  atomic energy  EATOM  =     37525.52423787
  ---------------------------------------------------
  free energy    TOTEN  =      -284.01250942 eV

  energy without entropy =     -284.01063268  energy(sigma->0) =     -284.01157105


--------------------------------------------------------------------------------------------------------




----------------------------------------- Iteration    1(  10)  ---------------------------------------


    POTLOK:  VPU time    0.60: CPU time    0.60
    SETDIJ:  VPU time    0.04: CPU time    0.04
    EDDAV :  VPU time 1239.91: CPU time 1242.44
    DOS   :  VPU time    0.00: CPU time   -0.00
    CHARGE:  VPU time   56.31: CPU time   56.32
    MIXING:  VPU time    0.02: CPU time    0.11
    ------------------------------------------
      LOOP:  VPU time 1297.08: CPU time 1299.71

 eigenvalue-minimisations  : 70904
 total energy-change (2. order) : 0.6012831E-01  (-0.1582002E-01)
 number of electron  360.0000033 magnetization 
 augmentation part   169.2889404 magnetization 

 Broyden mixing:
  rms(total) = 0.91612E-01    rms(broyden)= 0.91611E-01
  rms(prec ) = 0.13510E+00
  weight for this iteration     100.00

 eigenvalues of (default mixing * dielectric matrix)
  average eigenvalue GAMMA=   1.0967
  2.5947  1.2049  1.2049  0.2394  0.2394

 Free energy of the ion-electron system (eV)
  ---------------------------------------------------
  alpha Z        PSCENC =      2293.44647913
  Ewald energy   TEWEN  =    -29036.13862582
  -1/2 Hartree   DENC   =     -7034.36315674
  -V(xc)+E(xc)   XCENC  =      1248.93150846
  PAW double counting   =     25760.98013552   -25864.87871755
  entropy T*S    EENTRO =        -0.00191864
  eigenvalues    EBANDS =     -5177.45232335
  atomic energy  EATOM  =     37525.52423787
  ---------------------------------------------------
  free energy    TOTEN  =      -283.95238110 eV

  energy without entropy =     -283.95046247  energy(sigma->0) =     -283.95142179


--------------------------------------------------------------------------------------------------------




----------------------------------------- Iteration    1(  11)  ---------------------------------------


    POTLOK:  VPU time    0.55: CPU time    0.56
    SETDIJ:  VPU time    0.04: CPU time    0.04
    EDDAV :  VPU time 1130.34: CPU time 1131.64
    DOS   :  VPU time    0.00: CPU time   -0.00
    CHARGE:  VPU time   59.88: CPU time   59.89
    MIXING:  VPU time    0.01: CPU time    0.02
    ------------------------------------------
      LOOP:  VPU time 1191.03: CPU time 1192.38

 eigenvalue-minimisations  : 62944
 total energy-change (2. order) : 0.2531912E-01  (-0.1948169E-01)
 number of electron  360.0000033 magnetization 
 augmentation part   169.6756845 magnetization 

 Broyden mixing:
  rms(total) = 0.25848E-01    rms(broyden)= 0.25846E-01
  rms(prec ) = 0.39209E-01
  weight for this iteration     100.00

 eigenvalues of (default mixing * dielectric matrix)
  average eigenvalue GAMMA=   1.0015
  2.5899  1.2702  1.2702  0.3907  0.2248  0.2632

 Free energy of the ion-electron system (eV)
  ---------------------------------------------------
  alpha Z        PSCENC =      2293.44647913
  Ewald energy   TEWEN  =    -29036.13862582
  -1/2 Hartree   DENC   =     -7012.47316208
  -V(xc)+E(xc)   XCENC  =      1247.74280774
  PAW double counting   =     25717.59430784   -25821.55499550
  entropy T*S    EENTRO =        -0.00147941
  eigenvalues    EBANDS =     -5198.06663177
  atomic energy  EATOM  =     37525.52423787
  ---------------------------------------------------
  free energy    TOTEN  =      -283.92706199 eV

  energy without entropy =     -283.92558257  energy(sigma->0) =     -283.92632228


--------------------------------------------------------------------------------------------------------




----------------------------------------- Iteration    1(  12)  ---------------------------------------


    POTLOK:  VPU time    0.60: CPU time    0.60
    SETDIJ:  VPU time    0.04: CPU time    0.04
    EDDAV :  VPU time 1240.07: CPU time 1241.25
    DOS   :  VPU time    0.00: CPU time   -0.00
    CHARGE:  VPU time   57.49: CPU time   57.49
    MIXING:  VPU time    0.01: CPU time    0.01
    ------------------------------------------
      LOOP:  VPU time 1298.41: CPU time 1299.60

 eigenvalue-minimisations  : 71648
 total energy-change (2. order) :-0.6858017E-03  (-0.8854807E-03)
 number of electron  360.0000033 magnetization 
 augmentation part   169.6963397 magnetization 

 Broyden mixing:
  rms(total) = 0.26453E-01    rms(broyden)= 0.26453E-01
  rms(prec ) = 0.36800E-01
  weight for this iteration     100.00

 eigenvalues of (default mixing * dielectric matrix)
  average eigenvalue GAMMA=   1.0556
  2.5472  1.9707  1.1746  0.9411  0.2242  0.2657  0.2657

 Free energy of the ion-electron system (eV)
  ---------------------------------------------------
  alpha Z        PSCENC =      2293.44647913
  Ewald energy   TEWEN  =    -29036.13862582
  -1/2 Hartree   DENC   =     -7012.24243893
  -V(xc)+E(xc)   XCENC  =      1247.72915489
  PAW double counting   =     25716.55989946   -25820.04395538
  entropy T*S    EENTRO =        -0.00147274
  eigenvalues    EBANDS =     -5198.76102627
  atomic energy  EATOM  =     37525.52423787
  ---------------------------------------------------
  free energy    TOTEN  =      -283.92774779 eV

  energy without entropy =     -283.92627505  energy(sigma->0) =     -283.92701142


--------------------------------------------------------------------------------------------------------




----------------------------------------- Iteration    1(  13)  ---------------------------------------


    POTLOK:  VPU time    0.60: CPU time    0.60
    SETDIJ:  VPU time    0.04: CPU time    0.04
    EDDAV :  VPU time 1206.79: CPU time 1207.59
    DOS   :  VPU time    0.00: CPU time   -0.00
    CHARGE:  VPU time   47.85: CPU time   47.87
    MIXING:  VPU time    0.01: CPU time    0.01
    ------------------------------------------
      LOOP:  VPU time 1255.48: CPU time 1256.30

 eigenvalue-minimisations  : 67600
 total energy-change (2. order) : 0.1307686E-02  (-0.3296856E-03)
 number of electron  360.0000033 magnetization 
 augmentation part   169.6523800 magnetization 

 Broyden mixing:
  rms(total) = 0.11685E-01    rms(broyden)= 0.11685E-01
  rms(prec ) = 0.17489E-01
  weight for this iteration     100.00

 eigenvalues of (default mixing * dielectric matrix)
  average eigenvalue GAMMA=   1.0066
  2.5185  2.2836  1.0666  1.0666  0.3704  0.2256  0.2606  0.2606

 Free energy of the ion-electron system (eV)
  ---------------------------------------------------
  alpha Z        PSCENC =      2293.44647913
  Ewald energy   TEWEN  =    -29036.13862582
  -1/2 Hartree   DENC   =     -7016.11967177
  -V(xc)+E(xc)   XCENC  =      1247.93919740
  PAW double counting   =     25723.10228277   -25825.24103909
  entropy T*S    EENTRO =        -0.00151273
  eigenvalues    EBANDS =     -5196.43778787
  atomic energy  EATOM  =     37525.52423787
  ---------------------------------------------------
  free energy    TOTEN  =      -283.92644010 eV

  energy without entropy =     -283.92492737  energy(sigma->0) =     -283.92568374


--------------------------------------------------------------------------------------------------------




----------------------------------------- Iteration    1(  14)  ---------------------------------------


    POTLOK:  VPU time    0.51: CPU time    0.51
    SETDIJ:  VPU time    0.04: CPU time    0.04
    EDDAV :  VPU time 1223.26: CPU time 1225.46
    DOS   :  VPU time    0.00: CPU time   -0.00
    CHARGE:  VPU time   57.27: CPU time   57.42
    MIXING:  VPU time    0.02: CPU time    0.02
    ------------------------------------------
      LOOP:  VPU time 1281.29: CPU time 1283.65

 eigenvalue-minimisations  : 69344
 total energy-change (2. order) : 0.2988328E-03  (-0.1018763E-03)
 number of electron  360.0000033 magnetization 
 augmentation part   169.6298450 magnetization 

 Broyden mixing:
  rms(total) = 0.45128E-02    rms(broyden)= 0.45126E-02
  rms(prec ) = 0.75789E-02
  weight for this iteration     100.00

 eigenvalues of (default mixing * dielectric matrix)
  average eigenvalue GAMMA=   0.9820
  2.6058  1.9879  1.2571  0.9851  0.9851  0.2244  0.2677  0.2677  0.2571

 Free energy of the ion-electron system (eV)
  ---------------------------------------------------
  alpha Z        PSCENC =      2293.44647913
  Ewald energy   TEWEN  =    -29036.13862582
  -1/2 Hartree   DENC   =     -7017.93693579
  -V(xc)+E(xc)   XCENC  =      1248.03922889
  PAW double counting   =     25726.63479603   -25828.17225249
  entropy T*S    EENTRO =        -0.00153492
  eigenvalues    EBANDS =     -5195.32153418
  atomic energy  EATOM  =     37525.52423787
  ---------------------------------------------------
  free energy    TOTEN  =      -283.92614127 eV

  energy without entropy =     -283.92460635  energy(sigma->0) =     -283.92537381


--------------------------------------------------------------------------------------------------------




----------------------------------------- Iteration    1(  15)  ---------------------------------------


    POTLOK:  VPU time    0.58: CPU time    0.58
    SETDIJ:  VPU time    0.04: CPU time    0.04
    EDDAV :  VPU time 1247.00: CPU time 1247.83
    DOS   :  VPU time    0.00: CPU time   -0.00
    CHARGE:  VPU time   48.93: CPU time   49.00
    MIXING:  VPU time    0.02: CPU time    0.02
    ------------------------------------------
      LOOP:  VPU time 1296.77: CPU time 1297.68

 eigenvalue-minimisations  : 71360
 total energy-change (2. order) : 0.8434603E-05  (-0.1297679E-04)
 number of electron  360.0000033 magnetization 
 augmentation part   169.6285320 magnetization 

 Broyden mixing:
  rms(total) = 0.28641E-02    rms(broyden)= 0.28641E-02
  rms(prec ) = 0.45702E-02
  weight for this iteration     100.00

 eigenvalues of (default mixing * dielectric matrix)
  average eigenvalue GAMMA=   0.9295
  2.6136  1.9057  1.3579  1.0427  1.0427  0.3062  0.3062  0.2241  0.2483  0.2483

 Free energy of the ion-electron system (eV)
  ---------------------------------------------------
  alpha Z        PSCENC =      2293.44647913
  Ewald energy   TEWEN  =    -29036.13862582
  -1/2 Hartree   DENC   =     -7018.01875004
  -V(xc)+E(xc)   XCENC  =      1248.04641396
  PAW double counting   =     25727.50638721   -25829.03142862
  entropy T*S    EENTRO =        -0.00153577
  eigenvalues    EBANDS =     -5195.25931076
  atomic energy  EATOM  =     37525.52423787
  ---------------------------------------------------
  free energy    TOTEN  =      -283.92613284 eV

  energy without entropy =     -283.92459706  energy(sigma->0) =     -283.92536495


--------------------------------------------------------------------------------------------------------




----------------------------------------- Iteration    1(  16)  ---------------------------------------


    POTLOK:  VPU time    0.61: CPU time    0.62
    SETDIJ:  VPU time    0.04: CPU time    0.04
    EDDAV :  VPU time 1234.88: CPU time 1234.96
    DOS   :  VPU time    0.00: CPU time   -0.00
    CHARGE:  VPU time   56.22: CPU time   56.22
    MIXING:  VPU time    0.02: CPU time    0.02
    ------------------------------------------
      LOOP:  VPU time 1291.97: CPU time 1292.06

 eigenvalue-minimisations  : 73240
 total energy-change (2. order) : 0.7257782E-05  (-0.3297412E-05)
 number of electron  360.0000033 magnetization 
 augmentation part   169.6275228 magnetization 

 Broyden mixing:
  rms(total) = 0.21750E-02    rms(broyden)= 0.21749E-02
  rms(prec ) = 0.31002E-02
  weight for this iteration     100.00

 eigenvalues of (default mixing * dielectric matrix)
  average eigenvalue GAMMA=   0.9845
  2.6092  1.9492  1.9492  1.1086  1.1086  0.8544  0.2779  0.2610  0.2610  0.2254
  0.2254

 Free energy of the ion-electron system (eV)
  ---------------------------------------------------
  alpha Z        PSCENC =      2293.44647913
  Ewald energy   TEWEN  =    -29036.13862582
  -1/2 Hartree   DENC   =     -7018.07695864
  -V(xc)+E(xc)   XCENC  =      1248.05014333
  PAW double counting   =     25727.67075227   -25829.17293723
  entropy T*S    EENTRO =        -0.00153650
  eigenvalues    EBANDS =     -5195.22768000
  atomic energy  EATOM  =     37525.52423787
  ---------------------------------------------------
  free energy    TOTEN  =      -283.92612558 eV

  energy without entropy =     -283.92458908  energy(sigma->0) =     -283.92535733


--------------------------------------------------------------------------------------------------------




----------------------------------------- Iteration    1(  17)  ---------------------------------------


    POTLOK:  VPU time    0.56: CPU time    0.56
    SETDIJ:  VPU time    0.04: CPU time    0.04
    EDDAV :  VPU time 1221.91: CPU time 1224.89
    DOS   :  VPU time    0.00: CPU time   -0.00
    CHARGE:  VPU time   62.64: CPU time   62.64
    MIXING:  VPU time    0.02: CPU time    0.02
    ------------------------------------------
      LOOP:  VPU time 1285.38: CPU time 1288.35

 eigenvalue-minimisations  : 69792
 total energy-change (2. order) : 0.3250937E-04  (-0.2376039E-05)
 number of electron  360.0000033 magnetization 
 augmentation part   169.6239883 magnetization 

 Broyden mixing:
[...]
     97     -26.7048      2.00000
     98     -26.7046      2.00000
     99     -26.6986      2.00000
    100     -26.6984      2.00000
    101     -26.6879      2.00000
    102     -26.6877      2.00000
    103     -26.6704      2.00000
    104     -26.6702      2.00000
    105     -26.6591      2.00000
    106     -26.6471      2.00000
    107     -26.6460      2.00000
    108     -26.6334      2.00000
    109       0.3844      2.00000
    110       0.7933      2.00000
    111       1.8709      2.00000
    112       1.8713      2.00000
    113       2.1728      2.00000
    114       2.1732      2.00000
    115       2.7288      2.00000
    116       2.7289      2.00000
    117       2.9149      2.00000
    118       2.9151      2.00000
    119       3.0391      2.00000
    120       3.1626      2.00000
    121       3.1628      2.00000
    122       3.2023      2.00000
    123       3.2024      2.00000
    124       3.3331      2.00000
    125       3.9020      2.00000
    126       3.9027      2.00000
    127       3.9777      2.00000
    128       3.9785      2.00000
    129       4.0355      2.00000
    130       4.0364      2.00000
    131       4.0806      2.00000
    132       4.0815      2.00000
    133       4.0918      2.00000
    134       4.1007      2.00000
    135       4.2655      2.00000
    136       4.2660      2.00000
    137       4.2714      2.00000
    138       4.3050      2.00000
    139       4.3103      2.00000
    140       4.3134      2.00000
    141       4.3143      2.00000
    142       4.3307      2.00000
    143       4.5277      2.00000
    144       4.5492      2.00000
    145       4.6214      2.00000
    146       4.6218      2.00000
    147       4.6377      2.00000
    148       4.6381      2.00000
    149       4.7360      2.00000
    150       4.7391      2.00000
    151       4.8260      2.00000
    152       4.8264      2.00000
    153       4.8389      2.00000
    154       4.8480      2.00000
    155       4.8486      2.00000
    156       4.8768      2.00000
    157       4.8776      2.00000
    158       4.8788      2.00000
    159       4.9417      2.00000
    160       4.9468      2.00000
    161       4.9525      2.00000
    162       4.9531      2.00000
    163       5.0475      2.00000
    164       5.1853      2.00000
    165       5.2532      2.00000
    166       5.2539      2.00000
    167       5.3711      2.00000
    168       5.3727      2.00000
    169       5.3747      2.00000
    170       5.3759      2.00000
    171       5.5007      2.00000
    172       5.5022      2.00000
    173       5.5731      2.00000
    174       5.5739      2.00000
    175       5.6683      2.00000
    176       5.6692      2.00000
    177       5.9129      2.00000
    178       5.9664      2.00000
    179       5.9858      2.00000
    180       6.1114      0.00000
    181       6.1495      0.00000
    182       6.1574      0.00000
    183       6.2002      0.00000
    184       6.2219      0.00000
    185       6.2465      0.00000
    186       6.3484      0.00000
    187       6.3497      0.00000
    188       6.3524      0.00000
    189       6.3530      0.00000
    190       6.3804      0.00000
    191       6.3989      0.00000
    192       6.4090      0.00000
    193       6.4383      0.00000
    194       6.4390      0.00000
    195       6.5187      0.00000
    196       6.5200      0.00000
    197       6.6059      0.00000
    198       6.6063      0.00000
    199       6.6173      0.00000
    200       6.6375      0.00000
    201       6.6380      0.00000
    202       6.6966      0.00000
    203       6.7662      0.00000
    204       6.7956      0.00000
    205       6.7965      0.00000
    206       6.8393      0.00000
    207       6.8403      0.00000
    208       6.8646      0.00000
    209       6.9092      0.00000
    210       6.9101      0.00000
    211       6.9108      0.00000
    212       6.9118      0.00000
    213       6.9513      0.00000
    214       6.9645      0.00000
    215       7.0226      0.00000
    216       7.0428      0.00000


--------------------------------------------------------------------------------------------------------


 soft charge-density along one line, spin component           1
         0         1         2         3         4         5         6         7         8         9
 total charge-density along one line
 
 pseudopotential strength for first ion, spin component:           1
-28.914   0.000  -0.001  12.880  -0.000   0.001  -0.000  -0.001
  0.000 -28.972   0.000  -0.000  12.922  -0.000  -0.000  -0.000
 -0.001   0.000 -28.914   0.001  -0.000  12.879   0.005  -0.000
 12.880  -0.000   0.001  -0.786   0.000  -0.000   0.000   0.001
 -0.000  12.922  -0.000   0.000  -0.813   0.000   0.000   0.000
  0.001  -0.000  12.879  -0.000   0.000  -0.786  -0.003   0.000
 -0.000  -0.000   0.005   0.000   0.000  -0.003  -2.806   0.000
 -0.001  -0.000  -0.000   0.001   0.000   0.000   0.000  -2.835
  0.000  -0.001   0.000  -0.000   0.001  -0.000   0.000  -0.000
 -0.000  -0.000  -0.001   0.000   0.000   0.001   0.000  -0.000
  0.006   0.000  -0.000  -0.003  -0.000   0.000  -0.000   0.000
 -0.000  -0.000   0.001   0.000   0.000  -0.001   0.539   0.000
 -0.000  -0.000  -0.000   0.000   0.000   0.000   0.000   0.533
  0.000  -0.000   0.000  -0.000   0.000  -0.000   0.000  -0.000
 -0.000  -0.000  -0.000   0.000   0.000   0.000   0.000  -0.000
  0.001   0.000  -0.000  -0.001  -0.000   0.000  -0.000   0.000
  0.000   0.001   0.000  -0.000  -0.000  -0.000   0.000  -0.000
 -0.000  -0.000  -0.000   0.000   0.000   0.000  -0.000   0.000
 total augmentation occupancy for first ion, spin component:           1
  1.977   0.000  -0.000   0.006   0.000  -0.000   0.000   0.000  -0.000  -0.000  -0.016  -0.000  -0.000  -0.000  -0.000   0.007
  0.000   1.978   0.000   0.000   0.003  -0.000  -0.000   0.000   0.001   0.000  -0.000  -0.000   0.000  -0.000  -0.000   0.000
 -0.000   0.000   1.977  -0.000  -0.000   0.006  -0.016  -0.000  -0.000   0.000   0.000   0.007  -0.000   0.000  -0.000  -0.000
  0.006   0.000  -0.000   0.193   0.000  -0.000   0.001   0.001  -0.000  -0.000  -0.068  -0.001  -0.001   0.000   0.000   0.020
  0.000   0.003  -0.000   0.000   0.171  -0.000  -0.000  -0.000   0.001   0.001   0.000   0.000  -0.000  -0.001  -0.001  -0.000
 -0.000  -0.000   0.006  -0.000  -0.000   0.193  -0.068  -0.000  -0.000   0.001   0.001   0.020   0.000   0.000  -0.001  -0.001
  0.000  -0.000  -0.016   0.001  -0.000  -0.068   0.595   0.000   0.001   0.000  -0.000  -0.282  -0.000  -0.000  -0.000   0.001
  0.000   0.000  -0.000   0.001  -0.000  -0.000   0.000   0.485  -0.000  -0.002   0.000  -0.000  -0.253   0.000   0.001  -0.000
 -0.000   0.001  -0.000  -0.000   0.001  -0.000   0.001  -0.000   0.650  -0.000  -0.000  -0.000   0.000  -0.301   0.000  -0.000
 -0.000   0.000   0.000  -0.000   0.001   0.001   0.000  -0.002  -0.000   0.486   0.000  -0.000   0.001   0.000  -0.254  -0.000
 -0.016  -0.000   0.000  -0.068   0.000   0.001  -0.000   0.000  -0.000   0.000   0.595   0.001  -0.000  -0.000  -0.000  -0.281
 -0.000  -0.000   0.007  -0.001   0.000   0.020  -0.282  -0.000  -0.000  -0.000   0.001   0.154   0.000   0.000   0.000  -0.001
 -0.000   0.000  -0.000  -0.001  -0.000   0.000  -0.000  -0.253   0.000   0.001  -0.000   0.000   0.150  -0.000  -0.001   0.000
 -0.000  -0.000   0.000   0.000  -0.001   0.000  -0.000   0.000  -0.301   0.000  -0.000   0.000  -0.000   0.160  -0.000   0.000
 -0.000  -0.000  -0.000   0.000  -0.001  -0.001  -0.000   0.001   0.000  -0.254  -0.000   0.000  -0.001  -0.000   0.150   0.000
  0.007   0.000  -0.000   0.020  -0.000  -0.001   0.001  -0.000  -0.000  -0.000  -0.281  -0.001   0.000   0.000   0.000   0.153
 -0.000   0.001   0.001  -0.001   0.002   0.003  -0.003  -0.000   0.058  -0.000   0.001   0.001   0.000  -0.030   0.000  -0.000
  0.000   0.001  -0.000  -0.000  -0.000  -0.000   0.000   0.000   0.015   0.000  -0.000  -0.000   0.000  -0.006  -0.000   0.000


------------------------ aborting loop because EDIFF is reached ----------------------------------------




--------------------------------------------------------------------------------------------------------


    CHARGE:  VPU time   53.68: CPU time   53.68
    FORLOC:  VPU time    0.11: CPU time    0.12
    FORNL :  VPU time  365.63: CPU time  365.78
    STRESS:  VPU time  632.91: CPU time  632.89
    FORCOR:  VPU time    0.74: CPU time    0.74
    FORHAR:  VPU time    0.30: CPU time    0.30
    MIXING:  VPU time    0.02: CPU time    0.02


--------------------------------------------------------------------------------------------------------



  FREE ENERGIE OF THE ION-ELECTRON SYSTEM (eV)
  ---------------------------------------------------
  free  energy   TOTEN  =      -283.926069 eV

  energy  without entropy=     -283.924526  energy(sigma->0) =     -283.925298
 

  FORCE on cell =-STRESS in cart. coord.  units (eV/reduce length):
  Direction    X        Y        Z        XY       YZ       ZX
  --------------------------------------------------------------------------------------
  Alpha Z   2293.45   2293.45   2293.45
  Ewald    -9877.86  -9888.91  -9269.47    -10.10     -0.00     -0.01
  Hartree   2255.50   2250.34   2512.78     -4.73     -0.00     -0.00
  E(xc)    -1697.23  -1697.23  -1696.69     -0.00      0.00     -0.00
  Local     2689.08   2705.27   1891.87     14.80      0.00      0.01
  n-local   -861.57   -861.43   -845.17      0.11     -0.00     -0.00
  augment   1839.24   1838.96   1810.42     -0.25     -0.00      0.00
  Kinetic   3363.28   3362.46   3315.12     -0.72     -0.00      0.00
  -------------------------------------------------------------------------------------
  Total        3.90      2.90     12.30     -0.89      0.00     -0.00
  in kB       10.15      7.54     31.99     -2.31      0.00     -0.00
  external pressure =       16.56 kB  Pullay stress =        0.00 kB


 VOLUME and BASIS-vectors are now :
 -----------------------------------------------------------------------------
  energy-cutoff  :      500.00
  volume of cell :      616.19
      direct lattice vectors                 reciprocal lattice vectors
     8.820667100  0.024765440  0.000000000     0.113187820  0.064925977  0.000000000
    -4.388885871  7.651304610  0.000000000    -0.000366362  0.130486516  0.000000000
     0.000000000  0.000000000  9.115399722     0.000000000  0.000000000  0.109704460

  length of vectors
     8.820701866  8.820701867  9.115399722     0.130487030  0.130487030  0.109704460


 FORCES acting on ions
    electron-ion (+dipol)            ewald-force                    non-local-force                 convergence-correction
 -----------------------------------------------------------------------------------------------
   0.242E+01 -.917E-01 0.257E+01   -.242E+01 0.702E-01 -.264E+01   -.425E-01 0.223E-01 0.125E-01   -.510E-03 -.301E-03 0.142E-03
   -.743E+00 -.102E+00 0.398E+00   0.785E+00 0.744E-01 -.395E+00   -.330E-01 0.239E-01 -.107E-02   0.225E-03 -.171E-03 0.956E-04
   -.741E+00 -.914E-01 0.392E+00   0.783E+00 0.744E-01 -.390E+00   -.324E-01 0.212E-01 -.115E-02   0.265E-03 -.112E-03 0.646E-03
   0.182E+00 0.433E+00 0.394E+00   -.143E+00 -.459E+00 -.391E+00   -.359E-01 0.179E-01 -.115E-02   -.260E-03 -.207E-03 0.510E-03
   0.177E+00 -.615E+00 0.390E+00   -.138E+00 0.597E+00 -.388E+00   -.353E-01 0.264E-01 -.116E-02   -.424E-04 -.357E-03 0.423E-03
   -.565E-02 -.942E-01 0.136E+00   0.457E-01 0.719E-01 -.139E+00   -.387E-01 0.224E-01 0.364E-02   0.289E-03 -.266E-03 0.469E-03
   0.188E+00 0.436E+00 0.397E+00   -.147E+00 -.457E+00 -.394E+00   -.391E-01 0.215E-01 -.105E-02   0.500E-04 0.113E-03 0.109E-03
   -.453E-02 -.938E-01 0.138E+00   0.457E-01 0.708E-01 -.139E+00   -.389E-01 0.228E-01 0.121E-02   -.295E-03 0.485E-03 0.555E-03
   0.176E+00 -.624E+00 0.387E+00   -.134E+00 0.599E+00 -.385E+00   -.384E-01 0.240E-01 -.113E-02   0.226E-03 0.845E-03 0.564E-03
   0.288E+00 -.931E-01 -.458E+00   -.251E+00 0.711E-01 0.475E+00   -.392E-01 0.222E-01 -.269E-02   -.170E-03 -.335E-03 -.165E-03
   0.102E+00 -.923E-01 -.199E+00   -.617E-01 0.719E-01 0.200E+00   -.389E-01 0.216E-01 -.116E-02   0.115E-03 -.216E-03 -.105E-03
   0.102E+00 -.962E-01 -.197E+00   -.620E-01 0.719E-01 0.199E+00   -.388E-01 0.234E-01 -.114E-02   0.370E-04 -.989E-04 -.651E-03
   0.187E+00 -.444E-01 -.197E+00   -.147E+00 0.231E-01 0.199E+00   -.392E-01 0.213E-01 -.115E-02   -.268E-03 -.526E-04 -.511E-03
   0.185E+00 -.143E+00 -.197E+00   -.145E+00 0.120E+00 0.198E+00   -.389E-01 0.232E-01 -.134E-02   0.617E-04 -.535E-03 -.421E-03
   0.116E+00 -.941E-01 -.120E+00   -.789E-01 0.719E-01 0.118E+00   -.383E-01 0.222E-01 0.236E-02   0.193E-03 -.314E-03 -.472E-03
   0.186E+00 -.477E-01 -.198E+00   -.147E+00 0.227E-01 0.200E+00   -.390E-01 0.234E-01 -.116E-02   0.169E-03 0.256E-03 -.121E-03
   0.117E+00 -.947E-01 -.117E+00   -.789E-01 0.717E-01 0.118E+00   -.385E-01 0.226E-01 -.117E-02   -.512E-03 0.580E-03 -.560E-03
   0.184E+00 -.141E+00 -.196E+00   -.145E+00 0.120E+00 0.197E+00   -.389E-01 0.219E-01 -.134E-02   0.322E-03 0.746E-03 -.573E-03
   -.668E+00 0.604E+00 -.101E+01   0.641E+00 -.588E+00 0.101E+01   0.400E-01 -.230E-01 0.884E-02   -.908E-04 -.761E-04 0.140E-03
   -.387E+00 0.113E+00 -.170E-01   0.348E+00 -.905E-01 0.172E-01   0.377E-01 -.229E-01 -.554E-03   0.384E-03 0.248E-03 0.102E-04
   0.392E+00 0.202E+00 0.254E-01   -.433E+00 -.181E+00 -.226E-01   0.387E-01 -.231E-01 -.406E-02   -.275E-03 0.300E-03 -.173E-03
   0.208E+00 -.522E+00 -.500E+00   -.247E+00 0.553E+00 0.504E+00   0.397E-01 -.215E-01 0.222E-02   -.504E-03 -.368E-03 -.910E-04
   -.449E+00 -.105E+00 -.171E+00   0.412E+00 0.129E+00 0.176E+00   0.336E-01 -.242E-01 -.654E-02   0.398E-03 -.360E-03 0.735E-04
   -.172E+00 0.136E+00 0.875E-01   0.135E+00 -.114E+00 -.889E-01   0.367E-01 -.214E-01 0.211E-02   0.126E-03 -.486E-03 -.124E-03
   -.207E+00 0.196E+00 -.325E-01   0.168E+00 -.174E+00 0.338E-01   0.391E-01 -.218E-01 -.168E-02   -.116E-03 0.775E-05 -.140E-04
   -.176E+00 -.279E-01 -.193E-02   0.138E+00 0.502E-01 0.128E-02   0.389E-01 -.234E-01 0.342E-03   -.146E-04 0.524E-03 -.110E-03
   -.103E+00 0.251E+00 -.415E-01   0.636E-01 -.228E+00 0.431E-01   0.376E-01 -.210E-01 -.216E-02   0.150E-03 0.164E-03 -.283E-04
   0.389E+00 -.953E-02 0.226E-01   -.430E+00 0.328E-01 -.203E-01   0.381E-01 -.218E-01 -.397E-02   -.638E-04 0.229E-04 -.121E-03
   -.386E+00 0.728E-01 -.178E-01   0.348E+00 -.507E-01 0.181E-01   0.377E-01 -.229E-01 -.587E-03   -.200E-03 0.323E-03 -.895E-05
   -.660E+00 -.415E+00 -.101E+01   0.633E+00 0.444E+00 0.101E+01   0.403E-01 -.221E-01 0.912E-02   0.292E-03 0.318E-03 0.190E-03
   0.214E+00 0.702E+00 -.489E+00   -.253E+00 -.686E+00 0.492E+00   0.397E-01 -.232E-01 0.269E-02   -.157E-03 -.742E-03 0.961E-04
   -.177E+00 0.538E-01 0.842E-01   0.140E+00 -.294E-01 -.858E-01   0.357E-01 -.230E-01 0.219E-02   0.121E-03 -.704E-03 -.781E-04
   -.451E+00 0.296E+00 -.177E+00   0.413E+00 -.274E+00 0.182E+00   0.348E-01 -.203E-01 -.627E-02   0.628E-04 -.357E-03 0.127E-03
   -.172E+00 0.215E+00 -.237E-02   0.134E+00 -.194E+00 0.152E-02   0.392E-01 -.218E-01 0.518E-03   -.385E-03 0.338E-03 0.127E-04
   -.208E+00 -.828E-02 -.319E-01   0.170E+00 0.308E-01 0.331E-01   0.388E-01 -.233E-01 -.181E-02   0.314E-04 0.332E-03 0.113E-03
   -.105E+00 -.622E-01 -.446E-01   0.652E-01 0.843E-01 0.461E-01   0.376E-01 -.235E-01 -.220E-02   0.373E-03 0.434E-03 0.332E-04
 -----------------------------------------------------------------------------------------------
   -.140E-04 -.106E-03 -.220E-04   0.119E-12 0.260E-12 0.766E-12   -.110E-03 0.162E-03 0.367E-04   0.265E-04 -.225E-04 -.184E-04
 
 
 POSITION                                       TOTAL-FORCE (eV/Angst)
 -----------------------------------------------------------------------------------
      0.00686      1.70587      1.14661        -0.045399      0.000474     -0.053039
      2.94013      1.71410      1.13942         0.009819     -0.004078      0.001796
      5.88035      1.72236      1.13942         0.009634      0.004013      0.001781
     -1.46305      4.25628      1.13942         0.002917     -0.008381      0.001772
      1.47717      4.26454      1.13942         0.003138      0.007744      0.001593
      4.41739      4.27279      1.13942         0.001628     -0.000158      0.000775
     -2.92602      6.80672      1.13942         0.002763      0.000456      0.001786
      0.01421      6.81497      1.13942         0.002006      0.000277      0.000777
      2.95443      6.82323      1.13942         0.002992     -0.000477      0.001593
     -0.00009      1.70585      5.69712        -0.003141     -0.000174      0.013262
      2.94013      1.71410      5.69712         0.001461      0.001005     -0.000052
      5.88035      1.72236      5.69712         0.001457     -0.001035     -0.000025
     -1.46305      4.25628      5.69712         0.000457      0.000005     -0.000040
      1.47717      4.26454      5.69712         0.000506     -0.000396     -0.000249
      4.41739      4.27279      5.69712        -0.001038     -0.000248     -0.000963
     -2.92602      6.80672      5.69712         0.000320     -0.001297     -0.000056
      0.01421      6.81497      5.69712        -0.000666      0.000192     -0.000970
      2.95443      6.82323      5.69712         0.000356      0.001670     -0.000241
      1.47735      0.85284      3.41827         0.012782     -0.007613      0.013526
      4.41757      0.86110      3.41827        -0.000412     -0.000457     -0.000349
      7.35780      0.86935      3.41827        -0.002581     -0.001794     -0.001409
      0.01439      3.40328      3.41827         0.000195      0.009433      0.006335
      2.95461      3.41153      3.41827        -0.003405     -0.000664     -0.001742
      5.89483      3.41979      3.41827        -0.000105     -0.000099      0.000613
     -1.44857      5.95371      3.41827         0.000312      0.000250     -0.000354
      1.49165      5.96197      3.41827         0.000137     -0.000562     -0.000415
      4.43187      5.97022      3.41827        -0.001348      0.001672     -0.000587
      1.47735      0.85284      7.97597        -0.002949      0.001503     -0.001722
      4.41757      0.86110      7.97597        -0.000383     -0.000467     -0.000324
      7.35780      0.86935      7.97597         0.012885      0.007129      0.013527
      0.01439      3.40328      7.97597         0.000230     -0.008600      0.006078
      2.95461      3.41153      7.97597        -0.001100      0.000734      0.000493
      5.89483      3.41979      7.97597        -0.002491      0.001274     -0.001715
     -1.44857      5.95371      7.97597         0.000348      0.000228     -0.000322
      1.49165      5.96197      7.97597         0.000079     -0.000536     -0.000469
      4.43187      5.97022      7.97597        -0.001406     -0.001024     -0.000662
 -----------------------------------------------------------------------------------
    total drift:                               -0.000098      0.000033     -0.000004


--------------------------------------------------------------------------------------------------------



 mean value of Nose-termostat <S>:     1.000 mean value of <T> :     0.000
 mean temperature <T/S>/<1/S>  :     0.000

     LOOP+:  VPU time27274.16: CPU time27302.65
  
  
 General timing and accounting informations for this job:
 ========================================================
  
                  Total CPU time used (sec):    27432.138
                            User time (sec):    25486.381
                          System time (sec):     1945.756
                         Elapsed time (sec):    27464.303
  
                   Maximum memory used (kb):    10910744.
                   Average memory used (kb):           0.
  
                          Minor page faults:      2505169
                          Major page faults:         3044
                 Voluntary context switches:         6912
