32   
1    

1    
  0.0100000000000000   0.0000000000000000   0.0000000000000000
  -0.0530448500    0.0000000000    0.0000000000
   0.0033996200    0.0000000000   -0.0000000000
  -0.0001645100    0.0000000000    0.0000000000
  -0.0002260500    0.0000000000   -0.0000000000
  -0.0001645100    0.0000000000    0.0000000000
  -0.0002260500    0.0000000000    0.0000000000
   0.0002085400   -0.0000000000    0.0000000000
  -0.0012266100   -0.0000000000    0.0000000000
  -0.0015318300    0.0000232400   -0.0000232400
  -0.0004310300    0.0000012900   -0.0000012900
  -0.0015318300   -0.0000232400   -0.0000232400
  -0.0004310300   -0.0000012900   -0.0000012900
  -0.0015318300    0.0000232400    0.0000232400
  -0.0004310300    0.0000012900    0.0000012900
  -0.0015318300   -0.0000232400    0.0000232400
  -0.0004310300   -0.0000012900    0.0000012900
   0.0070022700    0.0000000000   -0.0079400800
   0.0071713000   -0.0000000000    0.0081764800
   0.0003239000   -0.0000000000    0.0001967100
   0.0003264900   -0.0000000000   -0.0001966700
   0.0070022700   -0.0000000000    0.0079400800
   0.0071713000    0.0000000000   -0.0081764800
   0.0003239000    0.0000000000   -0.0001967100
   0.0003264900   -0.0000000000    0.0001966700
   0.0070022700    0.0079400800   -0.0000000000
   0.0071713000   -0.0081764800   -0.0000000000
   0.0070022700   -0.0079400800   -0.0000000000
   0.0071713000    0.0081764800   -0.0000000000
   0.0003239000   -0.0001967100   -0.0000000000
   0.0003264900    0.0001966700   -0.0000000000
   0.0003239000    0.0001967100    0.0000000000
   0.0003264900   -0.0001966700    0.0000000000
