 running on    4 nodes
 distr:  one band on    1 nodes,    4 groups
 vasp.4.6.28 25Jul05 complex 
 POSCAR found :  1 types and    2 ions
 LDA part: xc-table for Pade appr. of Perdew
 POSCAR, INCAR and KPOINTS ok, starting setup
 FFT: planning ...           1
 reading WAVECAR
 WARNING: random wavefunctions but no delay for mixing, default for NELMDL
 entering main loop
       N       E                     dE             d eps       ncg     rms          rms(c)
DAV:   1     0.153407290331E+03    0.15341E+03   -0.10940E+04   864   0.135E+03
DAV:   2    -0.133770255325E+02   -0.16678E+03   -0.16507E+03   880   0.393E+02
DAV:   3    -0.178840555576E+02   -0.45070E+01   -0.44259E+01  1144   0.679E+01
DAV:   4    -0.179597442578E+02   -0.75689E-01   -0.66374E-01   944   0.914E+00
DAV:   5    -0.179613047523E+02   -0.15605E-02   -0.15605E-02  1112   0.138E+00    0.838E+00
DAV:   6    -0.159079466486E+02    0.20534E+01   -0.65202E+00   960   0.275E+01    0.201E+00
DAV:   7    -0.158015418454E+02    0.10640E+00   -0.61503E-01  1088   0.771E+00    0.765E-01
DAV:   8    -0.157910858614E+02    0.10456E-01   -0.31603E-02   896   0.212E+00    0.177E-01
DAV:   9    -0.157899482970E+02    0.11376E-02   -0.67339E-03   976   0.859E-01    0.243E-02
DAV:  10    -0.157899436714E+02    0.46256E-05   -0.14776E-04  1168   0.130E-01    0.158E-02
DAV:  11    -0.157899357870E+02    0.78844E-05   -0.20390E-05   912   0.476E-02    0.313E-03
DAV:  12    -0.157899348826E+02    0.90432E-06   -0.95480E-07  1056   0.103E-02    0.397E-04
DAV:  13    -0.157899347165E+02    0.16613E-06   -0.37362E-08   912   0.208E-03    0.248E-04
DAV:  14    -0.157899347886E+02   -0.72128E-07   -0.86524E-09   504   0.108E-03    0.845E-05
DAV:  15    -0.157899348110E+02   -0.22375E-07   -0.11825E-09   472   0.446E-04    0.210E-05
DAV:  16    -0.157899348082E+02    0.27703E-08   -0.12876E-10   488   0.127E-04
   1 F= -.15789935E+02 E0= -.15789794E+02  d E =-.280704E-03
