   2   2   0   0
  0.1711627E+02  0.2940234E-09  0.2940234E-09  0.4557700E-09  0.5000000E-15
  1.000000000000000E-004
  CAR 
 unknown system                          
     11.39444181    -29.26137587  301      5.90549463      1.00000000
    -29.261  0.0000E+00  0.0000E+00
    -29.126  0.0000E+00  0.0000E+00
    -28.990  0.0000E+00  0.0000E+00
    -28.855  0.0000E+00  0.0000E+00
    -28.719  0.0000E+00  0.0000E+00
    -28.584  0.0000E+00  0.0000E+00
    -28.448  0.0000E+00  0.0000E+00
    -28.313  0.0000E+00  0.0000E+00
    -28.177  0.0000E+00  0.0000E+00
    -28.042  0.0000E+00  0.0000E+00
    -27.906  0.0000E+00  0.0000E+00
    -27.771  0.0000E+00  0.0000E+00
    -27.635  0.0000E+00  0.0000E+00
    -27.500  0.0000E+00  0.0000E+00
    -27.364  0.1184E+00  0.1604E-01
    -27.229  0.5474E+01  0.8858E+00
    -27.093  0.6686E+01  0.2874E+01
    -26.958  0.7868E+01  0.4346E+01
    -26.822  0.1618E+02  0.7008E+01
    -26.687  0.2041E+02  0.1078E+02
    -26.551  0.1417E+01  0.1200E+02
    -26.415  0.0000E+00  0.1200E+02
    -26.280  0.0000E+00  0.1200E+02
    -26.144  0.0000E+00  0.1200E+02
    -26.009  0.0000E+00  0.1200E+02
    -25.873  0.0000E+00  0.1200E+02
    -25.738  0.0000E+00  0.1200E+02
    -25.602  0.0000E+00  0.1200E+02
    -25.467  0.0000E+00  0.1200E+02
    -25.331  0.0000E+00  0.1200E+02
    -25.196  0.0000E+00  0.1200E+02
    -25.060  0.0000E+00  0.1200E+02
    -24.925  0.0000E+00  0.1200E+02
    -24.789  0.0000E+00  0.1200E+02
    -24.654  0.0000E+00  0.1200E+02
    -24.518  0.0000E+00  0.1200E+02
    -24.383  0.0000E+00  0.1200E+02
    -24.247  0.0000E+00  0.1200E+02
    -24.112  0.0000E+00  0.1200E+02
    -23.976  0.0000E+00  0.1200E+02
    -23.841  0.0000E+00  0.1200E+02
    -23.705  0.0000E+00  0.1200E+02
    -23.570  0.0000E+00  0.1200E+02
    -23.434  0.0000E+00  0.1200E+02
    -23.299  0.0000E+00  0.1200E+02
    -23.163  0.0000E+00  0.1200E+02
    -23.027  0.0000E+00  0.1200E+02
    -22.892  0.0000E+00  0.1200E+02
    -22.756  0.0000E+00  0.1200E+02
    -22.621  0.0000E+00  0.1200E+02
    -22.485  0.0000E+00  0.1200E+02
    -22.350  0.0000E+00  0.1200E+02
    -22.214  0.0000E+00  0.1200E+02
    -22.079  0.0000E+00  0.1200E+02
    -21.943  0.0000E+00  0.1200E+02
    -21.808  0.0000E+00  0.1200E+02
    -21.672  0.0000E+00  0.1200E+02
    -21.537  0.0000E+00  0.1200E+02
    -21.401  0.0000E+00  0.1200E+02
    -21.266  0.0000E+00  0.1200E+02
    -21.130  0.0000E+00  0.1200E+02
    -20.995  0.0000E+00  0.1200E+02
    -20.859  0.0000E+00  0.1200E+02
    -20.724  0.0000E+00  0.1200E+02
    -20.588  0.0000E+00  0.1200E+02
    -20.453  0.0000E+00  0.1200E+02
    -20.317  0.0000E+00  0.1200E+02
    -20.182  0.0000E+00  0.1200E+02
    -20.046  0.0000E+00  0.1200E+02
    -19.911  0.0000E+00  0.1200E+02
    -19.775  0.0000E+00  0.1200E+02
    -19.639  0.0000E+00  0.1200E+02
    -19.504  0.0000E+00  0.1200E+02
    -19.368  0.0000E+00  0.1200E+02
    -19.233  0.0000E+00  0.1200E+02
    -19.097  0.0000E+00  0.1200E+02
    -18.962  0.0000E+00  0.1200E+02
    -18.826  0.0000E+00  0.1200E+02
    -18.691  0.0000E+00  0.1200E+02
    -18.555  0.0000E+00  0.1200E+02
    -18.420  0.0000E+00  0.1200E+02
    -18.284  0.0000E+00  0.1200E+02
    -18.149  0.0000E+00  0.1200E+02
    -18.013  0.0000E+00  0.1200E+02
    -17.878  0.0000E+00  0.1200E+02
    -17.742  0.0000E+00  0.1200E+02
    -17.607  0.0000E+00  0.1200E+02
    -17.471  0.0000E+00  0.1200E+02
    -17.336  0.0000E+00  0.1200E+02
    -17.200  0.0000E+00  0.1200E+02
    -17.065  0.0000E+00  0.1200E+02
    -16.929  0.0000E+00  0.1200E+02
    -16.794  0.0000E+00  0.1200E+02
    -16.658  0.0000E+00  0.1200E+02
    -16.523  0.0000E+00  0.1200E+02
    -16.387  0.0000E+00  0.1200E+02
    -16.252  0.0000E+00  0.1200E+02
    -16.116  0.0000E+00  0.1200E+02
    -15.980  0.0000E+00  0.1200E+02
    -15.845  0.0000E+00  0.1200E+02
    -15.709  0.0000E+00  0.1200E+02
    -15.574  0.0000E+00  0.1200E+02
    -15.438  0.0000E+00  0.1200E+02
    -15.303  0.0000E+00  0.1200E+02
    -15.167  0.0000E+00  0.1200E+02
    -15.032  0.0000E+00  0.1200E+02
    -14.896  0.0000E+00  0.1200E+02
    -14.761  0.0000E+00  0.1200E+02
    -14.625  0.0000E+00  0.1200E+02
    -14.490  0.0000E+00  0.1200E+02
    -14.354  0.0000E+00  0.1200E+02
    -14.219  0.0000E+00  0.1200E+02
    -14.083  0.0000E+00  0.1200E+02
    -13.948  0.0000E+00  0.1200E+02
    -13.812  0.0000E+00  0.1200E+02
    -13.677  0.0000E+00  0.1200E+02
    -13.541  0.0000E+00  0.1200E+02
    -13.406  0.0000E+00  0.1200E+02
    -13.270  0.0000E+00  0.1200E+02
    -13.135  0.0000E+00  0.1200E+02
    -12.999  0.0000E+00  0.1200E+02
    -12.864  0.0000E+00  0.1200E+02
    -12.728  0.0000E+00  0.1200E+02
    -12.592  0.0000E+00  0.1200E+02
    -12.457  0.0000E+00  0.1200E+02
    -12.321  0.0000E+00  0.1200E+02
    -12.186  0.0000E+00  0.1200E+02
    -12.050  0.0000E+00  0.1200E+02
    -11.915  0.0000E+00  0.1200E+02
    -11.779  0.0000E+00  0.1200E+02
    -11.644  0.0000E+00  0.1200E+02
    -11.508  0.0000E+00  0.1200E+02
    -11.373  0.0000E+00  0.1200E+02
    -11.237  0.0000E+00  0.1200E+02
    -11.102  0.0000E+00  0.1200E+02
    -10.966  0.0000E+00  0.1200E+02
    -10.831  0.0000E+00  0.1200E+02
    -10.695  0.0000E+00  0.1200E+02
    -10.560  0.0000E+00  0.1200E+02
    -10.424  0.0000E+00  0.1200E+02
    -10.289  0.0000E+00  0.1200E+02
    -10.153  0.0000E+00  0.1200E+02
    -10.018  0.0000E+00  0.1200E+02
     -9.882  0.0000E+00  0.1200E+02
     -9.747  0.0000E+00  0.1200E+02
     -9.611  0.0000E+00  0.1200E+02
     -9.476  0.0000E+00  0.1200E+02
     -9.340  0.0000E+00  0.1200E+02
     -9.205  0.0000E+00  0.1200E+02
     -9.069  0.0000E+00  0.1200E+02
     -8.933  0.0000E+00  0.1200E+02
     -8.798  0.0000E+00  0.1200E+02
     -8.662  0.0000E+00  0.1200E+02
     -8.527  0.0000E+00  0.1200E+02
     -8.391  0.0000E+00  0.1200E+02
     -8.256  0.0000E+00  0.1200E+02
     -8.120  0.0000E+00  0.1200E+02
     -7.985  0.0000E+00  0.1200E+02
     -7.849  0.0000E+00  0.1200E+02
     -7.714  0.0000E+00  0.1200E+02
     -7.578  0.0000E+00  0.1200E+02
     -7.443  0.0000E+00  0.1200E+02
     -7.307  0.0000E+00  0.1200E+02
     -7.172  0.0000E+00  0.1200E+02
     -7.036  0.0000E+00  0.1200E+02
     -6.901  0.0000E+00  0.1200E+02
     -6.765  0.0000E+00  0.1200E+02
     -6.630  0.0000E+00  0.1200E+02
     -6.494  0.0000E+00  0.1200E+02
     -6.359  0.0000E+00  0.1200E+02
     -6.223  0.0000E+00  0.1200E+02
     -6.088  0.0000E+00  0.1200E+02
     -5.952  0.0000E+00  0.1200E+02
     -5.817  0.0000E+00  0.1200E+02
     -5.681  0.0000E+00  0.1200E+02
     -5.545  0.0000E+00  0.1200E+02
     -5.410  0.0000E+00  0.1200E+02
     -5.274  0.0000E+00  0.1200E+02
     -5.139  0.0000E+00  0.1200E+02
     -5.003  0.0000E+00  0.1200E+02
     -4.868  0.0000E+00  0.1200E+02
     -4.732  0.0000E+00  0.1200E+02
     -4.597  0.0000E+00  0.1200E+02
     -4.461  0.0000E+00  0.1200E+02
     -4.326  0.0000E+00  0.1200E+02
     -4.190  0.0000E+00  0.1200E+02
     -4.055  0.0000E+00  0.1200E+02
     -3.919  0.0000E+00  0.1200E+02
     -3.784  0.0000E+00  0.1200E+02
     -3.648  0.0000E+00  0.1200E+02
     -3.513  0.0000E+00  0.1200E+02
     -3.377  0.0000E+00  0.1200E+02
     -3.242  0.0000E+00  0.1200E+02
     -3.106  0.0000E+00  0.1200E+02
     -2.971  0.0000E+00  0.1200E+02
     -2.835  0.0000E+00  0.1200E+02
     -2.700  0.0000E+00  0.1200E+02
     -2.564  0.0000E+00  0.1200E+02
     -2.429  0.0000E+00  0.1200E+02
     -2.293  0.0000E+00  0.1200E+02
     -2.157  0.0000E+00  0.1200E+02
     -2.022  0.0000E+00  0.1200E+02
     -1.886  0.0000E+00  0.1200E+02
     -1.751  0.0000E+00  0.1200E+02
     -1.615  0.0000E+00  0.1200E+02
     -1.480  0.0000E+00  0.1200E+02
     -1.344  0.0000E+00  0.1200E+02
     -1.209  0.0000E+00  0.1200E+02
     -1.073  0.0000E+00  0.1200E+02
     -0.938  0.0000E+00  0.1200E+02
     -0.802  0.0000E+00  0.1200E+02
     -0.667  0.0000E+00  0.1200E+02
     -0.531  0.0000E+00  0.1200E+02
     -0.396  0.0000E+00  0.1200E+02
     -0.260  0.0000E+00  0.1200E+02
     -0.125  0.1180E+00  0.1202E+02
      0.011  0.0000E+00  0.1202E+02
      0.146  0.2490E-15  0.1202E+02
      0.282  0.2361E+00  0.1205E+02
      0.417  0.0000E+00  0.1205E+02
      0.553  0.0000E+00  0.1205E+02
      0.688  0.0000E+00  0.1205E+02
      0.824  0.0000E+00  0.1205E+02
      0.959  0.7084E+00  0.1214E+02
      1.095  0.0000E+00  0.1214E+02
      1.230  0.1599E+01  0.1236E+02
      1.366  0.0000E+00  0.1237E+02
      1.502  0.0000E+00  0.1237E+02
      1.637  0.0000E+00  0.1237E+02
      1.773  0.0000E+00  0.1237E+02
      1.908  0.0000E+00  0.1237E+02
      2.044  0.2779E+00  0.1241E+02
      2.179  0.0000E+00  0.1256E+02
      2.315  0.0000E+00  0.1256E+02
      2.450  0.2361E+00  0.1259E+02
      2.586  0.1442E-15  0.1259E+02
      2.721  0.7084E+00  0.1269E+02
      2.857  0.1414E+01  0.1288E+02
      2.992  0.0000E+00  0.1288E+02
      3.128  0.2116E+01  0.1317E+02
      3.263  0.4176E+00  0.1345E+02
      3.399  0.1181E+00  0.1379E+02
      3.534  0.0000E+00  0.1379E+02
      3.670  0.7143E+00  0.1389E+02
      3.805  0.0000E+00  0.1398E+02
      3.941  0.2611E+01  0.1434E+02
      4.076  0.2241E+01  0.1506E+02
      4.212  0.7511E+00  0.1524E+02
      4.347  0.8590E+00  0.1564E+02
      4.483  0.2822E+01  0.1609E+02
      4.618  0.6143E+00  0.1618E+02
      4.754  0.2361E+00  0.1648E+02
      4.890  0.2429E+01  0.1700E+02
      5.025  0.7084E+00  0.1725E+02
      5.161  0.8978E-03  0.1763E+02
      5.296  0.4080E+01  0.1838E+02
      5.432  0.3440E+01  0.1893E+02
      5.567  0.5390E-01  0.1908E+02
      5.703  0.0000E+00  0.1936E+02
      5.838  0.2086E+01  0.1964E+02
      5.974  0.9445E+00  0.2003E+02
      6.109  0.6757E-01  0.2004E+02
      6.245  0.1450E+01  0.2052E+02
      6.380  0.3833E+01  0.2132E+02
      6.516  0.1628E+01  0.2166E+02
      6.651  0.7477E+00  0.2196E+02
      6.787  0.3191E+01  0.2261E+02
      6.922  0.2632E+01  0.2340E+02
      7.058  0.2726E+01  0.2418E+02
      7.193  0.2312E+01  0.2479E+02
      7.329  0.3165E+01  0.2564E+02
      7.464  0.7648E+00  0.2590E+02
      7.600  0.6957E+00  0.2621E+02
      7.735  0.1417E+01  0.2659E+02
      7.871  0.2125E+01  0.2688E+02
      8.006  0.1309E+01  0.2709E+02
      8.142  0.1847E+01  0.2748E+02
      8.277  0.1636E+01  0.2803E+02
      8.413  0.0000E+00  0.2810E+02
      8.549  0.4586E+00  0.2816E+02
      8.684  0.2361E+00  0.2835E+02
      8.820  0.1410E+01  0.2854E+02
      8.955  0.8442E+00  0.2866E+02
      9.091  0.1632E+01  0.2944E+02
      9.226  0.3542E+01  0.3037E+02
      9.362  0.2125E+01  0.3085E+02
      9.497  0.2631E+01  0.3175E+02
      9.633  0.0000E+00  0.3200E+02
      9.768  0.0000E+00  0.3200E+02
      9.904  0.0000E+00  0.3200E+02
     10.039  0.0000E+00  0.3200E+02
     10.175  0.0000E+00  0.3200E+02
     10.310  0.0000E+00  0.3200E+02
     10.446  0.0000E+00  0.3200E+02
     10.581  0.0000E+00  0.3200E+02
     10.717  0.0000E+00  0.3200E+02
     10.852  0.0000E+00  0.3200E+02
     10.988  0.0000E+00  0.3200E+02
     11.123  0.0000E+00  0.3200E+02
     11.259  0.0000E+00  0.3200E+02
     11.394  0.0000E+00  0.3200E+02
