    2    2    1    1
  0.1711627E+02  0.2940234E-09  0.2940234E-09  0.4557700E-09  0.5000000E-15
  1.000000000000000E-004
  CAR 
 unknown system                          
   20   27   16
 
  0.0000000E+00  0.0000000E+00  0.0000000E+00  0.8000000E-02
   1      -27.4134
   2      -26.7232
   3      -26.7160
   4      -26.6381
   5      -26.6014
   6      -26.6002
   7       -0.1474
   8        3.3386
   9        6.7474
  10        6.8412
  11        7.0689
  12        7.0802
  13        7.3179
  14        7.3728
  15        7.5318
  16        7.5911
 
  0.2000000E+00  0.1387779E-16  0.0000000E+00  0.3200000E-01
   1      -27.3263
   2      -26.8778
   3      -26.7704
   4      -26.7618
   5      -26.6827
   6      -26.6196
   7        0.9101
   8        4.0303
   9        5.5916
  10        5.7938
  11        6.9166
  12        7.0885
  13        7.2128
  14        7.5648
  15        7.8373
  16        8.0037
 
  0.4000000E+00  0.2775558E-16  0.0000000E+00  0.3200000E-01
   1      -27.1374
   2      -27.1361
   3      -27.0021
   4      -26.8487
   5      -26.8024
   6      -26.6563
   7        3.1018
   8        4.0885
   9        4.3580
  10        5.3221
  11        6.5048
  12        6.8070
  13        7.1476
  14        9.0676
  15        9.3031
  16        9.4563
 
  0.2000000E+00  0.2000000E+00  0.0000000E+00  0.1600000E-01
   1      -27.1833
   2      -27.0085
   3      -26.9914
   4      -26.8201
   5      -26.7701
   6      -26.7081
   7        2.6423
   8        4.6694
   9        4.6771
  10        4.9416
  11        6.3445
  12        6.9579
  13        7.0240
  14        8.2709
  15        8.8788
  16        9.3936
 
  0.4000000E+00  0.2000000E+00  0.0000000E+00  0.3200000E-01
   1      -27.1350
   2      -27.0349
   3      -26.9994
   4      -26.9398
   5      -26.8827
   6      -26.7664
   7        4.1669
   8        4.2623
   9        4.3425
  10        4.9462
  11        6.2516
  12        6.5314
  13        7.4692
  14        9.1613
  15        9.4054
  16        9.5443
 
 -0.4000000E+00  0.2000000E+00  0.0000000E+00  0.3200000E-01
   1      -27.1838
   2      -27.0164
   3      -26.9975
   4      -26.8206
   5      -26.7676
   6      -26.7067
   7        2.6649
   8        4.6536
   9        4.6700
  10        4.9440
  11        6.3336
  12        6.9459
  13        7.0365
  14        8.2891
  15        8.8866
  16        9.4030
 
 -0.2000000E+00  0.2000000E+00  0.0000000E+00  0.1600000E-01
   1      -27.3263
   2      -26.8762
   3      -26.7772
   4      -26.7623
   5      -26.6815
   6      -26.6225
   7        0.9197
   8        4.0329
   9        5.5739
  10        5.8312
  11        6.9531
  12        7.0418
  13        7.2627
  14        7.5125
  15        7.8406
  16        7.9767
 
  0.4000000E+00  0.4000000E+00  0.0000000E+00  0.1600000E-01
   1      -27.1402
   2      -27.0383
   3      -27.0012
   4      -26.9443
   5      -26.8773
   6      -26.7680
   7        4.1615
   8        4.2446
   9        4.3225
  10        4.9838
  11        6.2044
  12        6.5848
  13        7.5016
  14        9.1648
  15        9.4251
  16        9.5465
 
 -0.4000000E+00  0.4000000E+00  0.0000000E+00  0.1600000E-01
   1      -27.1409
   2      -27.1391
   3      -27.0038
   4      -26.8580
   5      -26.7974
   6      -26.6620
   7        3.1127
   8        4.0781
   9        4.3312
  10        5.3555
  11        6.4495
  12        6.8693
  13        7.2013
  14        9.0738
  15        9.2993
  16        9.4602
 
  0.0000000E+00  0.0000000E+00  0.2000000E+00  0.1600000E-01
   1      -27.3428
   2      -26.7159
   3      -26.7117
   4      -26.7050
   5      -26.6132
   6      -26.6114
   7        0.2024
   8        3.1802
   9        6.5345
  10        6.5973
  11        6.6785
  12        6.8749
  13        7.1192
  14        7.1717
  15        7.9187
  16        7.9814
 
  0.2000000E+00  0.1387779E-16  0.2000000E+00  0.6400000E-01
   1      -27.2824
   2      -26.8641
   3      -26.8298
   4      -26.7561
   5      -26.6759
   6      -26.6342
   7        1.2120
   8        3.9513
   9        5.2765
  10        5.8663
  11        6.6866
  12        7.0003
  13        7.1133
  14        7.6880
  15        8.0174
  16        8.1486
 
  0.4000000E+00  0.2775558E-16  0.2000000E+00  0.6400000E-01
   1      -27.2390
   2      -27.0904
   3      -26.9792
   4      -26.8307
   5      -26.7673
   6      -26.6750
   7        3.1005
   8        4.0225
   9        4.6239
  10        5.2740
  11        6.7132
  12        6.8603
  13        7.1837
  14        8.9706
  15        9.1216
  16        9.3373
 
  0.2000000E+00  0.2000000E+00  0.2000000E+00  0.3200000E-01
   1      -27.2083
   2      -27.0412
   3      -26.9226
   4      -26.8676
   5      -26.7246
   6      -26.7167
   7        2.8175
   8        4.4691
   9        4.8653
  10        5.0702
  11        6.3369
  12        6.7800
  13        6.9741
  14        8.2211
  15        8.9882
  16        9.0809
 
  0.4000000E+00  0.2000000E+00  0.2000000E+00  0.6400000E-01
   1      -27.1942
   2      -27.0973
   3      -27.0099
   4      -26.8607
   5      -26.8350
   6      -26.7583
   7        3.9251
   8        4.4172
   9        4.8042
  10        4.8785
  11        6.1791
  12        6.4967
  13        7.4610
  14        8.9678
  15        9.1474
  16        9.5021
 
 -0.4000000E+00  0.2000000E+00  0.2000000E+00  0.6400000E-01
   1      -27.2088
   2      -27.0466
   3      -26.9288
   4      -26.8677
   5      -26.7233
   6      -26.7169
   7        2.8374
   8        4.4522
   9        4.8670
  10        5.0717
  11        6.3380
  12        6.8007
  13        6.9565
  14        8.2337
  15        8.9853
  16        9.0902
 
 -0.2000000E+00  0.2000000E+00  0.2000000E+00  0.3200000E-01
   1      -27.2818
   2      -26.8635
   3      -26.8280
   4      -26.7626
   5      -26.6766
   6      -26.6374
   7        1.2216
   8        3.9537
   9        5.2706
  10        5.9022
  11        6.7257
  12        6.9569
  13        7.1378
  14        7.6468
  15        7.9839
  16        8.1653
 
  0.4000000E+00  0.4000000E+00  0.2000000E+00  0.3200000E-01
   1      -27.1968
   2      -27.0961
   3      -27.0150
   4      -26.8641
   5      -26.8372
   6      -26.7573
   7        3.9195
   8        4.4108
   9        4.7922
  10        4.8940
  11        6.1441
  12        6.5531
  13        7.4832
  14        8.9680
  15        9.1499
  16        9.5069
 
 -0.4000000E+00  0.4000000E+00  0.2000000E+00  0.3200000E-01
   1      -27.2399
   2      -27.0900
   3      -26.9835
   4      -26.8395
   5      -26.7660
   6      -26.6810
   7        3.1114
   8        4.0213
   9        4.6109
  10        5.2847
  11        6.6611
  12        6.9168
  13        7.2448
  14        8.9624
  15        9.1240
  16        9.3377
 
  0.0000000E+00  0.0000000E+00  0.4000000E+00  0.1600000E-01
   1      -27.1547
   2      -26.9155
   3      -26.6813
   4      -26.6761
   5      -26.6437
   6      -26.6404
   7        1.1615
   8        2.3895
   9        6.1146
  10        6.4213
  11        6.5503
  12        6.6169
  13        6.7627
  14        6.8183
  15        8.5773
  16        8.6266
 
  0.2000000E+00  0.1387779E-16  0.4000000E+00  0.6400000E-01
   1      -27.1626
   2      -27.0013
   3      -26.7820
   4      -26.7187
   5      -26.7120
   6      -26.6721
   7        2.0478
   8        3.1720
   9        5.3568
  10        5.8724
  11        6.3741
  12        6.7667
  13        7.0599
  14        7.3488
  15        8.5703
  16        8.7906
 
  0.4000000E+00  0.2775558E-16  0.4000000E+00  0.6400000E-01
   1      -27.2629
   2      -27.2021
   3      -26.8435
   4      -26.7835
   5      -26.7639
   6      -26.7234
   7        3.2645
   8        3.6658
   9        5.0645
  10        5.4383
  11        6.8069
  12        7.2199
  13        7.3026
  14        8.1494
  15        9.2488
  16        9.3878
 
  0.2000000E+00  0.2000000E+00  0.4000000E+00  0.3200000E-01
   1      -27.2040
   2      -27.1347
   3      -26.8524
   4      -26.8329
   5      -26.7471
   6      -26.7091
   7        3.2974
   8        3.9381
   9        5.2823
  10        5.3979
  11        6.1223
  12        6.2807
  13        7.2564
  14        7.8478
  15        9.1240
  16        9.3924
 
  0.4000000E+00  0.2000000E+00  0.4000000E+00  0.6400000E-01
   1      -27.2387
   2      -27.2035
   3      -26.9499
   4      -26.8775
   5      -26.7580
   6      -26.7232
   7        3.9557
   8        4.2239
   9        5.1932
  10        5.5832
  11        5.7839
  12        6.2506
  13        7.6498
  14        8.1363
  15        9.2015
  16        9.4240
 
 -0.4000000E+00  0.2000000E+00  0.4000000E+00  0.6400000E-01
   1      -27.2044
   2      -27.1361
   3      -26.8552
   4      -26.8393
   5      -26.7460
   6      -26.7106
   7        3.3081
   8        3.9338
   9        5.2883
  10        5.4011
  11        6.1419
  12        6.3087
  13        7.2315
  14        7.8389
  15        9.1167
  16        9.4082
 
 -0.2000000E+00  0.2000000E+00  0.4000000E+00  0.3200000E-01
   1      -27.1610
   2      -26.9992
   3      -26.7823
   4      -26.7241
   5      -26.7133
   6      -26.6764
   7        2.0564
   8        3.1770
   9        5.3668
  10        5.8990
  11        6.3997
  12        6.7950
  13        7.0225
  14        7.3163
  15        8.5353
  16        8.8042
 
  0.4000000E+00  0.4000000E+00  0.4000000E+00  0.3200000E-01
   1      -27.2390
   2      -27.2021
   3      -26.9550
   4      -26.8817
   5      -26.7608
   6      -26.7237
   7        3.9578
   8        4.2339
   9        5.1810
  10        5.5844
  11        5.7669
  12        6.2864
  13        7.6599
  14        8.1383
  15        9.1989
  16        9.4179
 
 -0.4000000E+00  0.4000000E+00  0.4000000E+00  0.3200000E-01
   1      -27.2617
   2      -27.2000
   3      -26.8480
   4      -26.7910
   5      -26.7668
   6      -26.7304
   7        3.2781
   8        3.6799
   9        5.0620
  10        5.4327
  11        6.8490
  12        7.2598
  13        7.2748
  14        8.1218
  15        9.2514
  16        9.4008
