 running on    4 nodes
 distr:  one band on    1 nodes,    4 groups
 vasp.4.6.28 25Jul05 complex 
 POSCAR found :  1 types and   32 ions

 ----------------------------------------------------------------------------- 
|                                                                             |
|  ADVICE TO THIS USER RUNNING 'VASP/VAMP'   (HEAR YOUR MASTER'S VOICE ...):  |
|                                                                             |
|      You have a (more or less) 'large supercell' and for larger cells       |
|      it might be more efficient to use real space projection operators      |
|      So try LREAL= Auto  in the INCAR   file.                               |
|      Mind: If you want to do an extremely accurate calculations keep the    |
|      reciprocal projection scheme          (i.e. LREAL=.FALSE.)             |
|                                                                             |
 ----------------------------------------------------------------------------- 

 LDA part: xc-table for Pade appr. of Perdew
 POSCAR, INCAR and KPOINTS ok, starting setup
 FFT: planning ...           1
 reading WAVECAR
 WARNING: random wavefunctions but no delay for mixing, default for NELMDL
 entering main loop
       N       E                     dE             d eps       ncg     rms          rms(c)
DAV:   1     0.131079164725E+03    0.13108E+03   -0.33109E+04 26656   0.111E+03
DAV:   2    -0.106331616194E+03   -0.23741E+03   -0.22210E+03 31392   0.145E+02
DAV:   3    -0.120156521569E+03   -0.13825E+02   -0.13098E+02 33012   0.281E+01
DAV:   4    -0.120451748682E+03   -0.29523E+00   -0.29169E+00 31564   0.423E+00
DAV:   5    -0.120455711310E+03   -0.39626E-02   -0.39565E-02 31624   0.555E-01    0.538E+00
DAV:   6    -0.120026538901E+03    0.42917E+00   -0.46349E-02 30744   0.705E-01    0.334E+00
DAV:   7    -0.119713489766E+03    0.31305E+00   -0.13907E-01 29412   0.113E+00    0.136E-01
DAV:   8    -0.119713650227E+03   -0.16046E-03   -0.12205E-03 31720   0.138E-01    0.475E-02
DAV:   9    -0.119713683123E+03   -0.32896E-04   -0.54687E-05 31176   0.213E-02    0.398E-03
DAV:  10    -0.119713684146E+03   -0.10233E-05   -0.35108E-06 31932   0.596E-03    0.203E-03
DAV:  11    -0.119713681566E+03    0.25807E-05   -0.24134E-07 31280   0.150E-03    0.804E-04
DAV:  12    -0.119713680432E+03    0.11335E-05   -0.22793E-08 21716   0.488E-04    0.128E-04
DAV:  13    -0.119713680278E+03    0.15388E-06   -0.30413E-09 17728   0.204E-04    0.343E-05
DAV:  14    -0.119713680271E+03    0.74992E-08   -0.52299E-10 17248   0.777E-05
   1 F= -.11971368E+03 E0= -.11971330E+03  d E =-.756982E-03
