  32  32   0   0
  0.1596323E+02  0.7993867E-09  0.7993867E-09  0.7993867E-09  0.5000000E-15
  1.000000000000000E-004
  CAR 
 unknown system                          
     12.84904871     -3.77080641  301      8.36416933      1.00000000
     -3.771  0.0000E+00  0.0000E+00
     -3.715  0.0000E+00  0.0000E+00
     -3.660  0.0000E+00  0.0000E+00
     -3.605  0.0000E+00  0.0000E+00
     -3.549  0.0000E+00  0.0000E+00
     -3.494  0.0000E+00  0.0000E+00
     -3.438  0.0000E+00  0.0000E+00
     -3.383  0.0000E+00  0.0000E+00
     -3.328  0.0000E+00  0.0000E+00
     -3.272  0.0000E+00  0.0000E+00
     -3.217  0.0000E+00  0.0000E+00
     -3.161  0.0000E+00  0.0000E+00
     -3.106  0.0000E+00  0.0000E+00
     -3.051  0.6449E-08  0.3573E-09
     -2.995  0.1220E+00  0.6759E-02
     -2.940  0.6844E+00  0.4467E-01
     -2.884  0.1059E+01  0.1034E+00
     -2.829  0.1692E+01  0.1971E+00
     -2.774  0.1679E+01  0.2901E+00
     -2.718  0.1850E+01  0.3926E+00
     -2.663  0.2252E+01  0.5173E+00
     -2.607  0.1433E+01  0.5967E+00
     -2.552  0.2717E+01  0.7472E+00
     -2.497  0.2198E+01  0.8690E+00
     -2.441  0.3156E+01  0.1044E+01
     -2.386  0.2504E+01  0.1183E+01
     -2.330  0.3552E+01  0.1379E+01
     -2.275  0.3070E+01  0.1549E+01
     -2.220  0.1909E+01  0.1655E+01
     -2.164  0.3908E+01  0.1872E+01
     -2.109  0.3667E+01  0.2075E+01
     -2.053  0.2975E+01  0.2240E+01
     -1.998  0.3522E+01  0.2435E+01
     -1.943  0.4323E+01  0.2674E+01
     -1.887  0.4134E+01  0.2903E+01
     -1.832  0.2920E+01  0.3065E+01
     -1.776  0.4857E+01  0.3334E+01
     -1.721  0.2598E+01  0.3478E+01
     -1.666  0.4705E+01  0.3739E+01
     -1.610  0.3865E+01  0.3953E+01
     -1.555  0.6569E+01  0.4317E+01
     -1.499  0.3195E+01  0.4494E+01
     -1.444  0.3249E+01  0.4674E+01
     -1.389  0.6325E+01  0.5024E+01
     -1.333  0.3840E+01  0.5237E+01
     -1.278  0.4603E+01  0.5492E+01
     -1.222  0.4245E+01  0.5727E+01
     -1.167  0.5237E+01  0.6017E+01
     -1.112  0.5248E+01  0.6308E+01
     -1.056  0.5162E+01  0.6594E+01
     -1.001  0.5854E+01  0.6918E+01
     -0.945  0.4373E+01  0.7161E+01
     -0.890  0.5239E+01  0.7451E+01
     -0.835  0.5146E+01  0.7736E+01
     -0.779  0.5835E+01  0.8059E+01
     -0.724  0.3479E+01  0.8252E+01
     -0.668  0.7236E+01  0.8653E+01
     -0.613  0.6772E+01  0.9028E+01
     -0.558  0.6023E+01  0.9362E+01
     -0.502  0.4547E+01  0.9614E+01
     -0.447  0.4830E+01  0.9881E+01
     -0.391  0.6443E+01  0.1024E+02
     -0.336  0.4894E+01  0.1051E+02
     -0.281  0.7406E+01  0.1092E+02
     -0.225  0.7041E+01  0.1131E+02
     -0.170  0.4118E+01  0.1154E+02
     -0.114  0.8048E+01  0.1198E+02
     -0.059  0.6647E+01  0.1235E+02
     -0.004  0.6280E+01  0.1270E+02
      0.052  0.2500E+01  0.1284E+02
      0.107  0.8715E+01  0.1332E+02
      0.163  0.5784E+01  0.1364E+02
      0.218  0.7295E+01  0.1405E+02
      0.273  0.8201E+01  0.1450E+02
      0.329  0.7456E+01  0.1491E+02
      0.384  0.5902E+01  0.1524E+02
      0.440  0.4868E+01  0.1551E+02
      0.495  0.6689E+01  0.1588E+02
      0.550  0.6240E+01  0.1623E+02
      0.606  0.7838E+01  0.1666E+02
      0.661  0.7993E+01  0.1710E+02
      0.717  0.8660E+01  0.1758E+02
      0.772  0.6657E+01  0.1795E+02
      0.827  0.5277E+01  0.1824E+02
      0.883  0.8700E+01  0.1873E+02
      0.938  0.6726E+01  0.1910E+02
      0.994  0.7340E+01  0.1951E+02
      1.049  0.5186E+01  0.1979E+02
      1.104  0.8659E+01  0.2027E+02
      1.160  0.7277E+01  0.2068E+02
      1.215  0.9201E+01  0.2119E+02
      1.271  0.1019E+02  0.2175E+02
      1.326  0.5507E+01  0.2205E+02
      1.381  0.7900E+01  0.2249E+02
      1.437  0.7568E+01  0.2291E+02
      1.492  0.6130E+01  0.2325E+02
      1.548  0.6195E+01  0.2359E+02
      1.603  0.9629E+01  0.2413E+02
      1.658  0.8933E+01  0.2462E+02
      1.714  0.1022E+02  0.2519E+02
      1.769  0.7296E+01  0.2559E+02
      1.825  0.8726E+01  0.2608E+02
      1.880  0.8255E+01  0.2653E+02
      1.935  0.4827E+01  0.2680E+02
      1.991  0.1037E+02  0.2738E+02
      2.046  0.5689E+01  0.2769E+02
      2.102  0.9597E+01  0.2822E+02
      2.157  0.1004E+02  0.2878E+02
      2.212  0.9839E+01  0.2932E+02
      2.268  0.7128E+01  0.2972E+02
      2.323  0.6945E+01  0.3010E+02
      2.379  0.1372E+02  0.3086E+02
      2.434  0.6730E+01  0.3124E+02
      2.489  0.7800E+01  0.3167E+02
      2.545  0.7755E+01  0.3210E+02
      2.600  0.1097E+02  0.3271E+02
      2.656  0.5295E+01  0.3300E+02
      2.711  0.1054E+02  0.3358E+02
      2.766  0.8513E+01  0.3405E+02
      2.822  0.1121E+02  0.3468E+02
      2.877  0.1174E+02  0.3533E+02
      2.933  0.9628E+01  0.3586E+02
      2.988  0.8097E+01  0.3631E+02
      3.043  0.4707E+01  0.3657E+02
      3.099  0.1129E+02  0.3719E+02
      3.154  0.8904E+01  0.3769E+02
      3.210  0.1028E+02  0.3826E+02
      3.265  0.7281E+01  0.3866E+02
      3.320  0.1103E+02  0.3927E+02
      3.376  0.1138E+02  0.3990E+02
      3.431  0.1033E+02  0.4047E+02
      3.487  0.1076E+02  0.4107E+02
      3.542  0.7129E+01  0.4147E+02
      3.597  0.9830E+01  0.4201E+02
      3.653  0.1094E+02  0.4262E+02
      3.708  0.1162E+02  0.4326E+02
      3.764  0.7061E+01  0.4365E+02
      3.819  0.1133E+02  0.4428E+02
      3.874  0.8615E+01  0.4476E+02
      3.930  0.1038E+02  0.4533E+02
      3.985  0.8597E+01  0.4581E+02
      4.041  0.1313E+02  0.4653E+02
      4.096  0.9289E+01  0.4705E+02
      4.151  0.9357E+01  0.4757E+02
      4.207  0.1272E+02  0.4827E+02
      4.262  0.9932E+01  0.4882E+02
      4.318  0.1038E+02  0.4940E+02
      4.373  0.9662E+01  0.4993E+02
      4.428  0.7961E+01  0.5037E+02
      4.484  0.9353E+01  0.5089E+02
      4.539  0.1101E+02  0.5150E+02
      4.595  0.1236E+02  0.5219E+02
      4.650  0.1254E+02  0.5288E+02
      4.705  0.9896E+01  0.5343E+02
      4.761  0.1202E+02  0.5410E+02
      4.816  0.9770E+01  0.5464E+02
      4.872  0.1230E+02  0.5532E+02
      4.927  0.9565E+01  0.5585E+02
      4.982  0.8896E+01  0.5634E+02
      5.038  0.9548E+01  0.5687E+02
      5.093  0.1456E+02  0.5768E+02
      5.149  0.1466E+02  0.5849E+02
      5.204  0.1011E+02  0.5905E+02
      5.259  0.1104E+02  0.5966E+02
      5.315  0.1105E+02  0.6027E+02
      5.370  0.1006E+02  0.6083E+02
      5.426  0.9887E+01  0.6138E+02
      5.481  0.1580E+02  0.6225E+02
      5.536  0.1552E+02  0.6311E+02
      5.592  0.1274E+02  0.6382E+02
      5.647  0.8022E+01  0.6426E+02
      5.703  0.1166E+02  0.6491E+02
      5.758  0.8640E+01  0.6539E+02
      5.813  0.1459E+02  0.6620E+02
      5.869  0.1555E+02  0.6706E+02
      5.924  0.7431E+01  0.6747E+02
      5.980  0.1148E+02  0.6810E+02
      6.035  0.1221E+02  0.6878E+02
      6.090  0.1239E+02  0.6947E+02
      6.146  0.1223E+02  0.7014E+02
      6.201  0.6528E+01  0.7051E+02
      6.257  0.1363E+02  0.7126E+02
      6.312  0.1380E+02  0.7203E+02
      6.367  0.9739E+01  0.7257E+02
      6.423  0.1254E+02  0.7326E+02
      6.478  0.7979E+01  0.7370E+02
      6.534  0.7357E+01  0.7411E+02
      6.589  0.1312E+02  0.7484E+02
      6.644  0.1467E+02  0.7565E+02
      6.700  0.9715E+01  0.7619E+02
      6.755  0.9544E+01  0.7672E+02
      6.811  0.1331E+02  0.7745E+02
      6.866  0.1065E+02  0.7804E+02
      6.921  0.9959E+01  0.7860E+02
      6.977  0.1075E+02  0.7919E+02
      7.032  0.1090E+02  0.7979E+02
      7.087  0.1473E+02  0.8061E+02
      7.143  0.9803E+01  0.8115E+02
      7.198  0.1182E+02  0.8181E+02
      7.254  0.1422E+02  0.8260E+02
      7.309  0.1410E+02  0.8338E+02
      7.364  0.1020E+02  0.8394E+02
      7.420  0.1227E+02  0.8462E+02
      7.475  0.1060E+02  0.8521E+02
      7.531  0.1536E+02  0.8606E+02
      7.586  0.1296E+02  0.8678E+02
      7.641  0.1088E+02  0.8738E+02
      7.697  0.1336E+02  0.8812E+02
      7.752  0.1054E+02  0.8871E+02
      7.808  0.1428E+02  0.8950E+02
      7.863  0.1167E+02  0.9014E+02
      7.918  0.8409E+01  0.9061E+02
      7.974  0.1181E+02  0.9126E+02
      8.029  0.1430E+02  0.9206E+02
      8.085  0.1091E+02  0.9266E+02
      8.140  0.1089E+02  0.9326E+02
      8.195  0.1112E+02  0.9388E+02
      8.251  0.1309E+02  0.9460E+02
      8.306  0.1247E+02  0.9530E+02
      8.362  0.1206E+02  0.9596E+02
      8.417  0.1522E+02  0.9681E+02
      8.472  0.1097E+02  0.9741E+02
      8.528  0.1434E+02  0.9821E+02
      8.583  0.1100E+02  0.9882E+02
      8.639  0.1228E+02  0.9950E+02
      8.694  0.1696E+02  0.1004E+03
      8.749  0.7515E+01  0.1009E+03
      8.805  0.1487E+02  0.1017E+03
      8.860  0.1382E+02  0.1024E+03
      8.916  0.1823E+02  0.1035E+03
      8.971  0.1584E+02  0.1043E+03
      9.026  0.9871E+01  0.1049E+03
      9.082  0.1417E+02  0.1057E+03
      9.137  0.1225E+02  0.1063E+03
      9.193  0.9049E+01  0.1068E+03
      9.248  0.1121E+02  0.1075E+03
      9.303  0.7862E+01  0.1079E+03
      9.359  0.1720E+02  0.1089E+03
      9.414  0.1828E+02  0.1099E+03
      9.470  0.1599E+02  0.1108E+03
      9.525  0.1195E+02  0.1114E+03
      9.580  0.1462E+02  0.1122E+03
      9.636  0.1519E+02  0.1131E+03
      9.691  0.1285E+02  0.1138E+03
      9.747  0.1096E+02  0.1144E+03
      9.802  0.9465E+01  0.1149E+03
      9.857  0.1059E+02  0.1155E+03
      9.913  0.1258E+02  0.1162E+03
      9.968  0.1608E+02  0.1171E+03
     10.024  0.1399E+02  0.1179E+03
     10.079  0.1559E+02  0.1187E+03
     10.134  0.1487E+02  0.1195E+03
     10.190  0.1081E+02  0.1201E+03
     10.245  0.1616E+02  0.1210E+03
     10.301  0.1583E+02  0.1219E+03
     10.356  0.1269E+02  0.1226E+03
     10.411  0.1072E+02  0.1232E+03
     10.467  0.1300E+02  0.1239E+03
     10.522  0.1558E+02  0.1248E+03
     10.578  0.1428E+02  0.1256E+03
     10.633  0.9886E+01  0.1261E+03
     10.688  0.1753E+02  0.1271E+03
     10.744  0.7900E+01  0.1275E+03
     10.799  0.1266E+02  0.1282E+03
     10.855  0.1559E+02  0.1291E+03
     10.910  0.1380E+02  0.1299E+03
     10.965  0.8388E+01  0.1303E+03
     11.021  0.1211E+02  0.1310E+03
     11.076  0.1710E+02  0.1320E+03
     11.132  0.1402E+02  0.1327E+03
     11.187  0.7109E+01  0.1331E+03
     11.242  0.9292E+01  0.1336E+03
     11.298  0.6121E+01  0.1340E+03
     11.353  0.7990E+01  0.1344E+03
     11.409  0.1003E+02  0.1350E+03
     11.464  0.7267E+01  0.1354E+03
     11.519  0.2576E+01  0.1355E+03
     11.575  0.2274E+01  0.1357E+03
     11.630  0.1835E+01  0.1358E+03
     11.686  0.1904E+01  0.1359E+03
     11.741  0.1785E+00  0.1359E+03
     11.796  0.1300E+01  0.1359E+03
     11.852  0.3773E+00  0.1360E+03
     11.907  0.1237E+00  0.1360E+03
     11.963  0.5010E+00  0.1360E+03
     12.018  0.0000E+00  0.1360E+03
     12.073  0.3319E-03  0.1360E+03
     12.129  0.8324E-01  0.1360E+03
     12.184  0.0000E+00  0.1360E+03
     12.240  0.0000E+00  0.1360E+03
     12.295  0.0000E+00  0.1360E+03
     12.350  0.0000E+00  0.1360E+03
     12.406  0.0000E+00  0.1360E+03
     12.461  0.0000E+00  0.1360E+03
     12.517  0.0000E+00  0.1360E+03
     12.572  0.0000E+00  0.1360E+03
     12.627  0.0000E+00  0.1360E+03
     12.683  0.0000E+00  0.1360E+03
     12.738  0.0000E+00  0.1360E+03
     12.794  0.0000E+00  0.1360E+03
     12.849  0.0000E+00  0.1360E+03
