   32   32    1    1
  0.1596323E+02  0.7993867E-09  0.7993867E-09  0.7993867E-09  0.5000000E-15
  1.000000000000000E-004
  CAR 
 unknown system                          
   96  196   68
 
  0.0000000E+00  0.0000000E+00  0.0000000E+00  0.5787037E-03
   1       -3.0154
   2       -0.7222
   3       -0.7184
   4       -0.7184
   5       -0.7184
   6       -0.7184
   7       -0.7146
   8        1.5343
   9        1.5387
  10        1.5387
  11        1.5405
  12        1.5406
  13        1.5406
  14        1.5406
  15        1.5406
  16        1.5408
  17        1.5425
  18        1.5425
  19        1.5470
  20        3.6238
  21        3.6239
  22        3.6239
  23        3.6239
  24        3.9248
  25        3.9248
  26        3.9248
  27        3.9249
  28        5.3458
  29        5.3458
  30        5.3459
  31        6.7413
  32        6.7413
  33        6.7413
  34        7.4571
  35        7.4571
  36        7.4615
  37        7.4615
  38        7.4617
  39        7.4617
  40        7.4617
  41        7.4617
  42        7.4618
  43        7.4618
  44        7.4662
  45        7.4662
  46        8.4559
  47        8.4602
  48        8.4602
  49        8.4602
  50        8.4602
  51        8.4645
  52        9.5813
  53        9.5813
  54        9.5829
  55        9.5854
  56        9.5855
  57        9.5855
  58        9.5855
  59        9.5855
  60        9.5857
  61        9.5881
  62        9.5896
  63        9.5897
  64        9.6426
  65        9.6435
  66        9.6435
  67        9.6436
  68        9.6440
 
  0.8333333E-01  0.0000000E+00  0.0000000E+00  0.1157407E-02
   1       -2.9993
   2       -1.0826
   3       -0.7026
   4       -0.7025
   5       -0.7025
   6       -0.7025
   7       -0.3236
   8        1.1824
   9        1.1824
  10        1.1824
  11        1.1824
  12        1.5562
  13        1.5562
  14        1.5562
  15        1.5562
  16        1.9288
  17        1.9288
  18        1.9288
  19        1.9288
  20        3.3909
  21        3.3909
  22        3.3909
  23        3.3909
  24        4.1876
  25        4.1876
  26        4.1876
  27        4.1876
  28        5.0447
  29        5.3605
  30        5.3605
  31        6.7567
  32        6.7567
  33        7.0701
  34        7.1231
  35        7.1231
  36        7.1681
  37        7.1681
  38        7.1681
  39        7.1681
  40        7.4764
  41        7.4764
  42        7.4764
  43        7.4764
  44        7.8299
  45        7.8299
  46        8.3690
  47        8.3691
  48        8.6548
  49        8.6548
  50        8.6548
  51        8.6548
  52        9.2459
  53        9.2459
  54        9.2459
  55        9.2459
  56        9.3268
  57        9.3268
  58        9.3269
  59        9.3269
  60        9.7620
  61        9.7621
  62        9.7850
  63        9.7850
  64        9.7851
  65        9.7851
  66        9.9548
  67        9.9548
  68        9.9548
 
  0.1666667E+00  0.0000000E+00  0.0000000E+00  0.1157407E-02
   1       -2.9510
   2       -1.4160
   3       -0.6551
   4       -0.6551
   5       -0.6551
   6       -0.6551
   7        0.1012
   8        0.8545
   9        0.8545
  10        0.8545
  11        0.8545
  12        1.6029
  13        1.6029
  14        1.6029
  15        1.6029
  16        2.3465
  17        2.3465
  18        2.3465
  19        2.3465
  20        3.0812
  21        3.0812
  22        3.0812
  23        3.0812
  24        4.4737
  25        4.5863
  26        4.5863
  27        4.5863
  28        4.5864
  29        5.4045
  30        5.4045
  31        6.6187
  32        6.6187
  33        6.6187
  34        6.6187
  35        6.8029
  36        6.8029
  37        6.8142
  38        6.8142
  39        7.5206
  40        7.5206
  41        7.5206
  42        7.5206
  43        7.7241
  44        8.1639
  45        8.1639
  46        8.2277
  47        8.2277
  48        8.8015
  49        8.8015
  50        8.8015
  51        8.8016
  52        8.9024
  53        8.9024
  54        8.9025
  55        8.9026
  56        8.9360
  57        8.9360
  58        8.9361
  59        8.9361
  60       10.0494
  61       10.0494
  62       10.2143
  63       10.2143
  64       10.2143
  65       10.2144
  66       10.3537
  67       10.3537
  68       10.3537
 
  0.2500000E+00  0.0000000E+00  0.0000000E+00  0.1157407E-02
   1       -2.8706
   2       -1.7184
   3       -0.5761
   4       -0.5761
   5       -0.5761
   6       -0.5761
   7        0.5538
   8        0.5570
   9        0.5570
  10        0.5570
  11        0.5591
  12        1.6806
  13        1.6806
  14        1.6806
  15        1.6806
  16        2.7896
  17        2.7915
  18        2.7915
  19        2.7925
  20        2.7934
  21        2.7944
  22        2.7944
  23        2.7962
  24        3.8592
  25        5.0234
  26        5.0234
  27        5.0234
  28        5.0234
  29        5.4778
  30        5.4778
  31        6.0249
  32        6.0249
  33        6.0249
  34        6.0249
  35        6.5349
  36        6.5349
  37        6.8795
  38        6.8795
  39        7.5942
  40        7.5942
  41        7.5942
  42        7.5942
  43        7.9270
  44        7.9270
  45        8.2178
  46        8.2178
  47        8.2178
  48        8.2178
  49        8.4769
  50        8.6531
  51        8.6531
  52        8.6556
  53        8.6556
  54        8.6579
  55        8.6579
  56        9.0744
  57        9.0744
  58        9.0744
  59        9.0744
  60       10.2604
  61       10.2604
  62       10.2604
  63       10.2604
  64       10.4224
  65       10.4224
  66       10.7823
  67       10.7827
  68       10.7845
 
  0.3333333E+00  0.0000000E+00  0.0000000E+00  0.1157407E-02
   1       -2.7582
   2       -1.9896
   3       -0.4655
   4       -0.4655
   5       -0.4655
   6       -0.4655
   7        0.2903
   8        0.2903
   9        0.2903
  10        0.2903
  11        1.0397
  12        1.7893
  13        1.7894
  14        1.7894
  15        1.7894
  16        2.5317
  17        2.5317
  18        2.5317
  19        2.5317
  20        3.2498
  21        3.2688
  22        3.2688
  23        3.2688
  24        3.2688
  25        5.4326
  26        5.4326
  27        5.4326
  28        5.4326
  29        5.4914
  30        5.4914
  31        5.4914
  32        5.4914
  33        5.5805
  34        5.5805
  35        6.2851
  36        6.2851
  37        6.9863
  38        6.9863
  39        7.6318
  40        7.6318
  41        7.6318
  42        7.6318
  43        7.6941
  44        7.6942
  45        7.6974
  46        7.6974
  47        7.6974
  48        7.6974
  49        8.4049
  50        8.4049
  51        8.4049
  52        8.4049
  53        9.1126
  54        9.1126
  55        9.2243
  56        9.2243
  57        9.2244
  58        9.2244
  59        9.2798
  60       10.0006
  61       10.0007
  62       10.0007
  63       10.0007
  64       10.8441
  65       10.8441
  66       11.2380
  67       11.2399
  68       11.2405
 
  0.4166667E+00  0.0000000E+00  0.0000000E+00  0.1157407E-02
   1       -2.6137
   2       -2.2293
   3       -0.3235
   4       -0.3235
   5       -0.3235
   6       -0.3235
   7        0.0546
   8        0.0546
   9        0.0546
  10        0.0546
  11        1.5523
  12        1.9290
  13        1.9290
  14        1.9290
  15        1.9290
  16        2.3005
  17        2.3005
  18        2.3005
  19        2.3005
  20        2.6593
  21        3.7719
  22        3.7719
  23        3.7719
  24        3.7719
  25        4.8562
  26        4.8562
  27        4.8562
  28        4.8562
  29        5.7125
  30        5.7125
  31        5.9881
  32        5.9881
  33        5.9882
  34        5.9882
  35        6.0648
  36        6.0648
  37        7.0610
  38        7.0610
  39        7.0610
  40        7.0610
  41        7.1226
  42        7.1226
  43        7.4789
  44        7.4789
  45        7.8300
  46        7.8300
  47        7.8300
  48        7.8300
  49        8.1837
  50        8.1837
  51        8.1837
  52        8.1837
  53        9.3835
  54        9.3835
  55        9.3835
  56        9.3835
  57        9.5997
  58        9.5997
  59        9.7685
  60        9.7685
  61        9.7685
  62        9.7685
  63       10.1190
  64       10.6626
  65       10.6626
  66       11.2985
  67       11.2985
  68       11.7284
 
  0.5000000E+00  0.0000000E+00  0.0000000E+00  0.5787037E-03
   1       -2.4389
   2       -2.4360
   3       -0.1541
   4       -0.1509
   5       -0.1509
   6       -0.1501
   7       -0.1500
   8       -0.1492
   9       -0.1492
  10       -0.1461
  11        2.0904
  12        2.0927
  13        2.0977
  14        2.0982
  15        2.0982
  16        2.0990
  17        2.0999
  18        2.1007
  19        2.1007
  20        2.1032
  21        4.3008
  22        4.3008
  23        4.3010
  24        4.3015
  25        4.3018
  26        4.3023
  27        4.3025
  28        4.3025
  29        5.8724
  30        5.8724
  31        5.8755
  32        5.8755
  33        6.5110
  34        6.5110
  35        6.5114
  36        6.5119
  37        6.5121
  38        6.5126
  39        6.5130
  40        6.5130
  41        7.2854
  42        7.2865
  43        7.2882
  44        7.2893
  45        7.9897
  46        7.9897
  47        7.9906
  48        7.9920
  49        7.9921
  50        7.9935
  51        7.9945
  52        7.9945
  53        9.5612
  54        9.5621
  55        9.5621
  56        9.5622
  57        9.5645
  58        9.5647
  59        9.5647
  60        9.5656
  61       10.1152
  62       10.1152
  63       10.1175
  64       10.1175
  65       10.9888
  66       10.9900
  67       11.7755
  68       11.7768
 
  0.0000000E+00  0.8333333E-01  0.0000000E+00  0.2314815E-02
   1       -2.9993
   2       -1.0826
   3       -0.7055
   4       -0.7025
   5       -0.7025
   6       -0.6996
   7       -0.3237
   8        1.1795
   9        1.1824
  10        1.1824
  11        1.1854
  12        1.5540
  13        1.5550
  14        1.5574
  15        1.5584
  16        1.9258
  17        1.9288
  18        1.9288
  19        1.9318
  20        3.3888
  21        3.3897
  22        3.3920
  23        3.3929
  24        4.1855
  25        4.1864
  26        4.1887
  27        4.1896
  28        5.0446
  29        5.3605
  30        5.3605
  31        6.7567
  32        6.7567
  33        7.0701
  34        7.1230
  35        7.1231
  36        7.1648
  37        7.1681
  38        7.1681
  39        7.1714
  40        7.4736
  41        7.4764
  42        7.4764
  43        7.4792
  44        7.8299
  45        7.8299
  46        8.3690
  47        8.3691
  48        8.6519
  49        8.6548
  50        8.6548
  51        8.6577
  52        9.2431
  53        9.2459
  54        9.2459
  55        9.2487
  56        9.3241
  57        9.3257
  58        9.3280
  59        9.3296
  60        9.7620
  61        9.7621
  62        9.7840
  63        9.7850
  64        9.7851
  65        9.7861
  66        9.9520
  67        9.9548
  68        9.9566
 
  0.8333333E-01  0.8333333E-01  0.0000000E+00  0.4629630E-02
   1       -2.9832
   2       -1.0680
   3       -1.0655
   4       -0.6867
   5       -0.6867
   6       -0.3091
   7       -0.3067
   8        0.8232
   9        1.1963
  10        1.1973
  11        1.1988
  12        1.1997
  13        1.5711
  14        1.5721
  15        1.9426
  16        1.9436
  17        1.9451
  18        1.9460
  19        2.3158
  20        3.0506
  21        3.0506
  22        3.6535
  23        3.6536
  24        3.9562
  25        3.9562
  26        4.5559
  27        4.5559
  28        5.0592
  29        5.0599
  30        5.3752
  31        6.7721
  32        6.8321
  33        6.8344
  34        7.0849
  35        7.0857
  36        7.1142
  37        7.1143
  38        7.1365
  39        7.1392
  40        7.2642
  41        7.2642
  42        7.5223
  43        7.5242
  44        7.8432
  45        7.8460
  46        8.5054
  47        8.5077
  48        8.6323
  49        8.6350
  50        8.8678
  51        8.8678
  52        8.9064
  53        8.9843
  54        8.9853
  55        8.9867
  56        8.9877
  57        9.6141
  58        9.6160
  59        9.6958
  60        9.6967
  61        9.6973
  62        9.6983
  63        9.8296
  64        9.8303
  65        9.8954
  66        9.8954
  67        9.9728
  68        9.9745
 
  0.1666667E+00  0.8333333E-01  0.0000000E+00  0.4629630E-02
   1       -2.9350
   2       -1.4001
   3       -1.0192
   4       -0.6393
   5       -0.6393
   6       -0.2606
   7        0.1169
   8        0.4944
   9        0.8701
  10        0.8701
  11        1.2440
  12        1.2448
  13        1.2454
  14        1.9900
  15        1.9908
  16        1.9914
  17        2.3620
  18        2.3620
  19        2.7309
  20        2.7310
  21        2.7324
  22        3.4515
  23        3.4515
  24        4.2490
  25        4.2490
  26        4.4888
  27        4.9630
  28        4.9630
  29        5.1041
  30        5.4191
  31        6.2813
  32        6.5250
  33        6.6246
  34        6.6246
  35        6.8181
  36        6.8289
  37        6.9791
  38        7.1308
  39        7.1820
  40        7.2562
  41        7.2562
  42        7.7390
  43        7.8581
  44        7.8888
  45        8.2425
  46        8.3309
  47        8.4590
  48        8.4591
  49        8.4608
  50        8.5967
  51        8.6532
  52        8.6747
  53        8.6748
  54        9.0586
  55        9.1622
  56        9.1625
  57        9.1734
  58        9.1738
  59        9.3050
  60       10.0139
  61       10.0844
  62       10.0846
  63       10.0965
  64       10.0967
  65       10.2048
  66       10.2700
  67       10.2700
  68       10.2943
 
  0.2500000E+00  0.8333333E-01  0.0000000E+00  0.4629630E-02
   1       -2.8546
   2       -1.7025
   3       -0.9399
   4       -0.5603
   5       -0.5603
   6       -0.1818
   7        0.1962
   8        0.5702
   9        0.5727
  10        0.5740
  11        0.9481
  12        1.3228
  13        1.3228
  14        2.0683
  15        2.0683
  16        2.4371
  17        2.4392
  18        2.4408
  19        2.8088
  20        2.8088
  21        3.1722
  22        3.1729
  23        3.1783
  24        3.8744
  25        4.6775
  26        4.6775
  27        5.1783
  28        5.4015
  29        5.4016
  30        5.4925
  31        5.6834
  32        6.0369
  33        6.0369
  34        6.2449
  35        6.3922
  36        6.5496
  37        6.8946
  38        7.2064
  39        7.2556
  40        7.3264
  41        7.3264
  42        7.8739
  43        7.8739
  44        7.8935
  45        7.9625
  46        8.2359
  47        8.3164
  48        8.3929
  49        8.3930
  50        8.4719
  51        8.4916
  52        8.5909
  53        8.5910
  54        8.6701
  55        8.7737
  56        9.0245
  57        9.3577
  58        9.3582
  59        9.3582
  60        9.9172
  61       10.4424
  62       10.4461
  63       10.5252
  64       10.5252
  65       10.5500
  66       10.5500
  67       10.5981
  68       10.6333
 
  0.3333333E+00  0.8333333E-01  0.0000000E+00  0.4629630E-02
   1       -2.7421
   2       -1.9736
   3       -0.8290
   4       -0.4497
   5       -0.4497
   6       -0.0720
   7       -0.0708
   8        0.3060
   9        0.3060
  10        0.6821
  11        1.0554
  12        1.4318
  13        1.4319
  14        2.1759
  15        2.1764
  16        2.1772
  17        2.1776
  18        2.9148
  19        2.9152
  20        2.9158
  21        3.2651
  22        3.2840
  23        3.2841
  24        3.6514
  25        5.0877
  26        5.1439
  27        5.1439
  28        5.2823
  29        5.4464
  30        5.4464
  31        5.5951
  32        5.8049
  33        5.8695
  34        5.8695
  35        5.9937
  36        6.2998
  37        7.0011
  38        7.2867
  39        7.2867
  40        7.3117
  41        7.3587
  42        7.4292
  43        7.4292
  44        7.6965
  45        8.0057
  46        8.0063
  47        8.0094
  48        8.0649
  49        8.0666
  50        8.1408
  51        8.1408
  52        8.7736
  53        8.8864
  54        8.9014
  55        9.1274
  56        9.2941
  57        9.5153
  58        9.5153
  59        9.5583
  60        9.6578
  61       10.2915
  62       10.2915
  63       10.3696
  64       10.8633
  65       10.9006
  66       10.9801
  67       10.9830
  68       10.9834
 
  0.4166667E+00  0.8333333E-01  0.0000000E+00  0.4629630E-02
   1       -2.5977
   2       -2.2133
   3       -0.6866
   4       -0.3090
   5       -0.3077
   6       -0.3063
   7        0.0688
   8        0.0703
   9        0.0716
  10        0.4471
  11        1.5674
  12        1.5719
  13        1.5724
  14        1.9446
  15        1.9446
  16        2.3158
  17        2.3158
  18        2.6745
  19        2.6856
  20        2.6857
  21        3.4202
  22        3.7870
  23        3.7870
  24        4.1527
  25        4.5086
  26        4.8708
  27        4.8708
  28        5.2320
  29        5.4158
  30        5.6406
  31        5.6407
  32        5.7272
  33        5.7716
  34        6.0795
  35        6.3657
  36        6.3657
  37        6.7149
  38        6.7149
  39        7.1367
  40        7.4364
  41        7.4366
  42        7.4463
  43        7.4891
  44        7.4912
  45        7.5624
  46        7.5624
  47        7.7973
  48        7.8448
  49        7.9183
  50        7.9183
  51        8.1984
  52        8.5524
  53        9.0500
  54        9.3613
  55        9.4271
  56        9.6144
  57        9.6763
  58        9.6763
  59        9.7373
  60       10.0606
  61       10.0606
  62       10.1329
  63       10.1356
  64       10.4122
  65       10.6774
  66       11.3157
  67       11.3887
  68       11.4697
 
  0.5000000E+00  0.8333333E-01  0.0000000E+00  0.2314815E-02
   1       -2.4228
   2       -2.4199
   3       -0.5142
   4       -0.5113
   5       -0.1364
   6       -0.1352
   7       -0.1335
   8       -0.1323
   9        0.2415
  10        0.2445
  11        1.7408
  12        1.7421
  13        1.7438
  14        1.7450
  15        2.1074
  16        2.1087
  17        2.4835
  18        2.4847
  19        2.4864
  20        2.4877
  21        3.9512
  22        3.9524
  23        4.3157
  24        4.3162
  25        4.3170
  26        4.3174
  27        4.6796
  28        4.6808
  29        5.5774
  30        5.5805
  31        5.8870
  32        5.8901
  33        6.1643
  34        6.1645
  35        6.1657
  36        6.1659
  37        6.8879
  38        6.8881
  39        6.8892
  40        6.8895
  41        7.2989
  42        7.3017
  43        7.6072
  44        7.6101
  45        7.6516
  46        7.6548
  47        7.7231
  48        7.7246
  49        7.7263
  50        7.7277
  51        8.3590
  52        8.3622
  53        9.2232
  54        9.2261
  55        9.8544
  56        9.8550
  57        9.8574
  58        9.8580
  59        9.8706
  60        9.8726
  61        9.9246
  62        9.9276
  63       10.1300
  64       10.1323
  65       11.0022
  66       11.0034
  67       11.7921
  68       11.7954
 
  0.0000000E+00  0.1666667E+00  0.0000000E+00  0.2314815E-02
   1       -2.9510
   2       -1.4160
   3       -0.6580
   4       -0.6551
   5       -0.6551
   6       -0.6522
   7        0.1012
   8        0.8515
   9        0.8545
  10        0.8545
  11        0.8574
  12        1.6007
  13        1.6017
  14        1.6040
  15        1.6050
  16        2.3436
  17        2.3465
  18        2.3465
  19        2.3495
  20        3.0791
  21        3.0800
  22        3.0824
  23        3.0833
  24        4.4737
  25        4.5842
  26        4.5851
  27        4.5875
  28        4.5885
  29        5.4045
  30        5.4045
  31        6.6155
  32        6.6187
  33        6.6188
  34        6.6219
  35        6.8027
  36        6.8029
  37        6.8142
  38        6.8143
  39        7.5178
  40        7.5206
  41        7.5206
  42        7.5234
  43        7.7241
  44        8.1638
  45        8.1639
  46        8.2277
  47        8.2278
  48        8.7990
  49        8.8004
  50        8.8028
  51        8.8041
  52        8.8998
  53        8.9025
  54        8.9025
  55        8.9051
  56        8.9332
  57        8.9360
  58        8.9361
  59        8.9388
  60       10.0494
  61       10.0494
  62       10.2126
  63       10.2143
  64       10.2143
  65       10.2160
  66       10.3510
  67       10.3537
  68       10.3556
 
  0.8333333E-01  0.1666667E+00  0.0000000E+00  0.4629630E-02
   1       -2.9350
   2       -1.4001
   3       -1.0192
   4       -0.6393
   5       -0.6393
   6       -0.2606
   7        0.1169
   8        0.4944
   9        0.8701
  10        0.8701
  11        1.2433
  12        1.2448
  13        1.2461
  14        1.9893
  15        1.9908
  16        1.9921
  17        2.3620
  18        2.3620
  19        2.7309
  20        2.7310
  21        2.7324
  22        3.4515
  23        3.4515
  24        4.2490
  25        4.2490
  26        4.4887
  27        4.9630
  28        4.9630
  29        5.1041
  30        5.4191
  31        6.2813
  32        6.5250
  33        6.6246
  34        6.6246
  35        6.8181
  36        6.8289
  37        6.9792
  38        7.1308
  39        7.1820
  40        7.2563
  41        7.2563
  42        7.7390
  43        7.8581
  44        7.8888
  45        8.2425
  46        8.3309
  47        8.4591
  48        8.4591
  49        8.4607
  50        8.5966
  51        8.6533
  52        8.6747
  53        8.6748
  54        9.0586
  55        9.1626
  56        9.1626
  57        9.1733
  58        9.1733
  59        9.3050
  60       10.0138
  61       10.0842
  62       10.0848
  63       10.0965
  64       10.0967
  65       10.2048
  66       10.2700
  67       10.2700
  68       10.2943
 
  0.1666667E+00  0.1666667E+00  0.0000000E+00  0.4629630E-02
   1       -2.8867
   2       -1.3537
   3       -1.3512
   4       -0.5919
   5       -0.5919
   6        0.1624
   7        0.1644
   8        0.1662
   9        0.9153
  10        0.9163
  11        0.9178
  12        0.9187
  13        1.6641
  14        1.6651
  15        2.4058
  16        2.4070
  17        2.4083
  18        2.4083
  19        2.4096
  20        2.4108
  21        3.1472
  22        3.7426
  23        3.7426
  24        4.0502
  25        4.0502
  26        4.5335
  27        4.5344
  28        5.3715
  29        5.3716
  30        5.4631
  31        5.9694
  32        5.9718
  33        6.5558
  34        6.5558
  35        6.8315
  36        6.8316
  37        6.8639
  38        6.8717
  39        6.8744
  40        7.3489
  41        7.3509
  42        7.7832
  43        7.7842
  44        8.1443
  45        8.1453
  46        8.1468
  47        8.1478
  48        8.2845
  49        8.2868
  50        8.2891
  51        8.4037
  52        8.4053
  53        9.0163
  54        9.0189
  55        9.5728
  56        9.5739
  57        9.5743
  58        9.5752
  59        9.6064
  60        9.6066
  61        9.7028
  62        9.7046
  63        9.8890
  64       10.2094
  65       10.2101
  66       10.4913
  67       10.4913
  68       10.8556
 
  0.2500000E+00  0.1666667E+00  0.0000000E+00  0.4629630E-02
   1       -2.8064
   2       -1.6547
   3       -1.2730
   4       -0.5129
   5       -0.5129
   6       -0.1342
   7        0.2426
   8        0.6172
   9        0.6197
  10        0.6210
  11        0.9952
  12        0.9952
  13        1.3689
  14        2.1125
  15        2.1150
  16        2.1164
  17        2.4855
  18        2.4855
  19        2.8549
  20        2.8549
  21        3.5724
  22        3.5726
  23        3.5912
  24        3.9200
  25        4.3716
  26        4.3716
  27        4.6092
  28        5.3696
  29        5.5365
  30        5.6880
  31        5.8100
  32        5.8100
  33        6.0660
  34        6.0660
  35        6.5937
  36        6.7805
  37        6.8050
  38        6.8050
  39        6.9397
  40        6.9466
  41        7.5595
  42        7.5595
  43        7.6611
  44        7.8578
  45        7.8626
  46        7.8626
  47        8.0069
  48        8.2544
  49        8.3605
  50        8.4903
  51        8.5354
  52        8.7144
  53        8.8435
  54        8.9931
  55        8.9931
  56        9.4231
  57        9.5332
  58        9.6014
  59        9.9167
  60        9.9167
  61       10.0037
  62       10.0037
  63       10.1321
  64       10.5080
  65       10.5232
  66       10.9833
  67       10.9854
  68       11.0273
 
  0.3333333E+00  0.1666667E+00  0.0000000E+00  0.4629630E-02
   1       -2.6940
   2       -1.9258
   3       -1.1619
   4       -0.4037
   5       -0.4024
   6       -0.4009
   7        0.3514
   8        0.3531
   9        0.3543
  10        1.1010
  11        1.1039
  12        1.1045
  13        1.1056
  14        1.8516
  15        1.8516
  16        2.5917
  17        2.5934
  18        2.5936
  19        3.3109
  20        3.3250
  21        3.3252
  22        3.3301
  23        3.3304
  24        4.0629
  25        4.7144
  26        4.7713
  27        4.8291
  28        4.8291
  29        5.4342
  30        5.4865
  31        5.4865
  32        5.6392
  33        6.2023
  34        6.2774
  35        6.2774
  36        6.3439
  37        6.8976
  38        6.8977
  39        6.9713
  40        6.9714
  41        7.0451
  42        7.0496
  43        7.6089
  44        7.6089
  45        7.6787
  46        7.7564
  47        7.9611
  48        8.4098
  49        8.4098
  50        8.4471
  51        8.4638
  52        8.6020
  53        8.6360
  54        9.1702
  55        9.1736
  56        9.3369
  57        9.3426
  58        9.8712
  59       10.1120
  60       10.1120
  61       10.4609
  62       10.4617
  63       10.4629
  64       10.5902
  65       10.7629
  66       10.9036
  67       10.9037
  68       10.9232
 
  0.4166667E+00  0.1666667E+00  0.0000000E+00  0.4629630E-02
   1       -2.5496
   2       -2.1654
   3       -1.0191
   4       -0.6391
   5       -0.2604
   6       -0.2604
   7        0.1175
   8        0.1175
   9        0.4937
  10        0.8695
  11        1.2449
  12        1.2450
  13        1.6140
  14        1.6187
  15        1.6191
  16        2.7207
  17        2.7319
  18        2.7320
  19        3.0979
  20        3.0990
  21        3.0992
  22        3.8324
  23        3.8324
  24        4.1899
  25        4.5620
  26        4.8497
  27        4.9140
  28        4.9141
  29        5.2098
  30        5.3241
  31        5.3241
  32        5.6349
  33        5.7712
  34        6.1235
  35        6.3987
  36        6.3987
  37        6.7726
  38        6.7726
  39        7.0286
  40        7.0286
  41        7.1786
  42        7.1820
  43        7.3851
  44        7.3851
  45        7.5145
  46        7.5354
  47        7.8414
  48        7.8414
  49        8.0927
  50        8.4341
  51        8.5965
  52        8.7426
  53        8.8747
  54        8.9507
  55        9.1129
  56        9.6588
  57        9.9021
  58       10.1004
  59       10.1745
  60       10.2846
  61       10.2847
  62       10.5252
  63       10.6733
  64       10.6733
  65       10.7219
  66       10.9476
  67       10.9476
  68       11.0781
 
  0.5000000E+00  0.1666667E+00  0.0000000E+00  0.2314815E-02
   1       -2.3748
   2       -2.3719
   3       -0.8463
   4       -0.8434
   5       -0.0891
   6       -0.0879
   7       -0.0862
   8       -0.0850
   9        0.6646
  10        0.6676
  11        1.4143
  12        1.4155
  13        1.4172
  14        1.4185
  15        2.1539
  16        2.1552
  17        2.8985
  18        2.8998
  19        2.9015
  20        2.9027
  21        3.6306
  22        3.6319
  23        4.3604
  24        4.3608
  25        4.3616
  26        4.3621
  27        5.0134
  28        5.0164
  29        5.0861
  30        5.0874
  31        5.8476
  32        5.8478
  33        5.8489
  34        5.8491
  35        5.9311
  36        5.9342
  37        7.1893
  38        7.1906
  39        7.1924
  40        7.1936
  41        7.2937
  42        7.2940
  43        7.2951
  44        7.2954
  45        7.3362
  46        7.3390
  47        7.3424
  48        7.3456
  49        8.2498
  50        8.2527
  51        8.7572
  52        8.7604
  53        8.9115
  54        8.9143
  55        9.3690
  56        9.3708
  57       10.1744
  58       10.1767
  59       10.3063
  60       10.3094
  61       10.4663
  62       10.4671
  63       10.4694
  64       10.4702
  65       11.0419
  66       11.0431
  67       11.4602
  68       11.4615
 
  0.0000000E+00  0.2500000E+00  0.0000000E+00  0.2314815E-02
   1       -2.8706
   2       -1.7184
   3       -0.5790
   4       -0.5761
   5       -0.5761
   6       -0.5731
   7        0.5539
   8        0.5560
   9        0.5570
  10        0.5570
  11        0.5601
  12        1.6784
  13        1.6794
  14        1.6818
  15        1.6828
  16        2.7895
  17        2.7911
  18        2.7912
  19        2.7931
  20        2.7934
  21        2.7940
  22        2.7943
  23        2.7967
  24        3.8592
  25        5.0212
  26        5.0222
  27        5.0246
  28        5.0256
  29        5.4778
  30        5.4778
  31        6.0217
  32        6.0249
  33        6.0249
  34        6.0280
  35        6.5349
  36        6.5349
  37        6.8795
  38        6.8795
  39        7.5914
  40        7.5942
  41        7.5942
  42        7.5970
  43        7.9270
  44        7.9270
  45        8.2153
  46        8.2166
  47        8.2190
  48        8.2202
  49        8.4769
  50        8.6524
  51        8.6553
  52        8.6554
  53        8.6557
  54        8.6557
  55        8.6588
  56        9.0719
  57        9.0744
  58        9.0744
  59        9.0769
  60       10.2581
  61       10.2604
  62       10.2604
  63       10.2628
  64       10.4224
  65       10.4224
  66       10.7807
  67       10.7847
  68       10.7897
 