 vasp.4.6.28 25Jul05 complex 
 executed on             LinuxIFC date 2016.10.21  16:38:36
 running on    4 nodes
 distr:  one band on    1 nodes,    4 groups


--------------------------------------------------------------------------------------------------------


 INCAR:
 POTCAR:   PAW_PBE Al 04Jan2001                   
 POTCAR:   PAW_PBE Al 04Jan2001                   
   VRHFIN =Al: s2p1                                                             
   LEXCH  = PE                                                                  
   EATOM  =    53.5387 eV,    3.9350 Ry                                         
                                                                                
   TITEL  = PAW_PBE Al 04Jan2001                                                
   LULTRA =        F    use ultrasoft PP ?                                      
   IUNSCR =        1    unscreen: 0-lin 1-nonlin 2-no                           
   RPACOR =    1.500    partial core radius                                     
   POMASS =   26.982; ZVAL   =    3.000    mass and valenz                      
   RCORE  =    1.900    outmost cutoff radius                                   
   RWIGS  =    2.650; RWIGS  =    1.402    wigner-seitz radius (au A)           
   ENMAX  =  240.300; ENMIN  =  180.225 eV                                      
   ICORE  =        2    local potential                                         
   LCOR   =        T    correct aug charges                                     
   LPAW   =        T    paw PP                                                  
   EAUG   =  291.052                                                            
   DEXC   =    -.041                                                            
   RMAX   =    2.974    core radius for proj-oper                               
   RAUG   =    1.300    factor for augmentation sphere                          
   RDEP   =    1.966    radius for radial grids                                 
   QCUT   =   -4.203; QGAM   =    8.405    optimization parameters              
                                                                                
   Description                                                                  
     l     E      TYP  RCUT    TYP  RCUT                                        
     0   .000     23  1.900                                                     
     0   .000     23  1.900                                                     
     1   .000     23  1.900                                                     
     1  1.000     23  1.900                                                     
     2   .000      7  1.900                                                     
  local pseudopotential read in
  partial core-charges read in
  atomic valenz-charges read in
  non local Contribution for L=           0  read in
    real space projection operators read in
  non local Contribution for L=           0  read in
    real space projection operators read in
  non local Contribution for L=           1  read in
    real space projection operators read in
  non local Contribution for L=           1  read in
    real space projection operators read in
    PAW grid and wavefunctions read in
 
   number of l-projection  operators is LMAX  =           4
   number of lm-projection operators is LMMAX =           8
 

 ----------------------------------------------------------------------------- 
|                                                                             |
|  ADVICE TO THIS USER RUNNING 'VASP/VAMP'   (HEAR YOUR MASTER'S VOICE ...):  |
|                                                                             |
|      You have a (more or less) 'large supercell' and for larger cells       |
|      it might be more efficient to use real space projection operators      |
|      So try LREAL= Auto  in the INCAR   file.                               |
|      Mind: If you want to do an extremely accurate calculations keep the    |
|      reciprocal projection scheme          (i.e. LREAL=.FALSE.)             |
|                                                                             |
 ----------------------------------------------------------------------------- 

 PAW_PBE Al 04Jan2001                   :
 energy of atom  1       EATOM=  -53.5387
 kinetic energy error for atom=    0.0003 (will be added to EATOM!!)
 
 EXHCAR: internal setup
 exchange correlation table for  LEXCH =        8
   RHO(1)=    0.500       N(1)  =     2000
   RHO(2)=  100.500       N(2)  =     4000
 
 POSCAR: Al                                      
  positions in direct lattice
  No initial velocities read in
 


--------------------------------------------------------------------------------------------------------


 ion  position               nearest neighbor table
   1  0.251  0.250  0.000-  18 2.82  22 2.82  26 2.82  28 2.82   9 2.83  11 2.83  13 2.83  15 2.83
                            25 2.83  21 2.83  27 2.83  17 2.83
   2  0.750  0.250  0.000-  10 2.83  12 2.83  14 2.83  16 2.83  17 2.83  18 2.83  21 2.83  22 2.83
                            25 2.83  26 2.83  27 2.83  28 2.83
   3  0.250  0.750  0.000-   9 2.83  11 2.83  13 2.83  15 2.83  19 2.83  20 2.83  23 2.83  24 2.83
                            25 2.83  26 2.83  27 2.83  28 2.83
   4  0.750  0.750  0.000-  10 2.83  12 2.83  14 2.83  16 2.83  19 2.83  20 2.83  23 2.83  24 2.83
                            25 2.83  26 2.83  27 2.83  28 2.83
   5  0.250  0.250  0.500-   9 2.83  11 2.83  13 2.83  15 2.83  17 2.83  18 2.83  21 2.83  22 2.83
                            29 2.83  30 2.83  31 2.83  32 2.83
   6  0.750  0.250  0.500-  10 2.83  12 2.83  14 2.83  16 2.83  17 2.83  18 2.83  21 2.83  22 2.83
                            29 2.83  30 2.83  31 2.83  32 2.83
   7  0.250  0.750  0.500-   9 2.83  11 2.83  13 2.83  15 2.83  19 2.83  20 2.83  23 2.83  24 2.83
                            29 2.83  30 2.83  31 2.83  32 2.83
   8  0.750  0.750  0.500-  10 2.83  12 2.83  14 2.83  16 2.83  19 2.83  20 2.83  23 2.83  24 2.83
                            29 2.83  30 2.83  31 2.83  32 2.83
   9  0.250  0.000  0.250-   3 2.83   5 2.83   7 2.83  17 2.83  18 2.83  19 2.83  20 2.83  25 2.83
                            26 2.83  29 2.83  30 2.83   1 2.83
  10  0.750  0.000  0.250-   2 2.83   4 2.83   6 2.83   8 2.83  17 2.83  18 2.83  19 2.83  20 2.83
                            25 2.83  26 2.83  29 2.83  30 2.83
  11  0.250  0.500  0.250-   3 2.83   5 2.83   7 2.83  17 2.83  18 2.83  19 2.83  20 2.83  27 2.83
                            28 2.83  31 2.83  32 2.83   1 2.83
  12  0.750  0.500  0.250-   2 2.83   4 2.83   6 2.83   8 2.83  17 2.83  18 2.83  19 2.83  20 2.83
                            27 2.83  28 2.83  31 2.83  32 2.83
  13  0.250  0.000  0.750-   3 2.83   5 2.83   7 2.83  21 2.83  22 2.83  23 2.83  24 2.83  25 2.83
                            26 2.83  29 2.83  30 2.83   1 2.83
  14  0.750  0.000  0.750-   2 2.83   4 2.83   6 2.83   8 2.83  21 2.83  22 2.83  23 2.83  24 2.83
                            25 2.83  26 2.83  29 2.83  30 2.83
  15  0.250  0.500  0.750-   3 2.83   5 2.83   7 2.83  21 2.83  22 2.83  23 2.83  24 2.83  27 2.83
                            28 2.83  31 2.83  32 2.83   1 2.83
  16  0.750  0.500  0.750-   2 2.83   4 2.83   6 2.83   8 2.83  21 2.83  22 2.83  23 2.83  24 2.83
                            27 2.83  28 2.83  31 2.83  32 2.83
  17  0.000  0.250  0.250-   2 2.83   5 2.83   6 2.83   9 2.83  10 2.83  11 2.83  12 2.83  25 2.83
                            27 2.83  29 2.83  31 2.83   1 2.83
  18  0.500  0.250  0.250-   1 2.82   2 2.83   5 2.83   6 2.83   9 2.83  10 2.83  11 2.83  12 2.83
                            26 2.83  28 2.83  30 2.83  32 2.83
  19  0.000  0.750  0.250-   3 2.83   4 2.83   7 2.83   8 2.83   9 2.83  10 2.83  11 2.83  12 2.83
                            25 2.83  27 2.83  29 2.83  31 2.83
  20  0.500  0.750  0.250-   3 2.83   4 2.83   7 2.83   8 2.83   9 2.83  10 2.83  11 2.83  12 2.83
                            26 2.83  28 2.83  30 2.83  32 2.83
  21  0.000  0.250  0.750-   2 2.83   5 2.83   6 2.83  13 2.83  14 2.83  15 2.83  16 2.83  25 2.83
                            27 2.83  29 2.83  31 2.83   1 2.83
  22  0.500  0.250  0.750-   1 2.82   2 2.83   5 2.83   6 2.83  13 2.83  14 2.83  15 2.83  16 2.83
                            26 2.83  28 2.83  30 2.83  32 2.83
  23  0.000  0.750  0.750-   3 2.83   4 2.83   7 2.83   8 2.83  13 2.83  14 2.83  15 2.83  16 2.83
                            25 2.83  27 2.83  29 2.83  31 2.83
  24  0.500  0.750  0.750-   3 2.83   4 2.83   7 2.83   8 2.83  13 2.83  14 2.83  15 2.83  16 2.83
                            26 2.83  28 2.83  30 2.83  32 2.83
  25  0.000  0.000  0.000-   2 2.83   3 2.83   4 2.83   9 2.83  10 2.83  13 2.83  14 2.83  17 2.83
                            19 2.83  21 2.83  23 2.83   1 2.83
  26  0.500  0.000  0.000-   1 2.82   2 2.83   3 2.83   4 2.83   9 2.83  10 2.83  13 2.83  14 2.83
                            18 2.83  20 2.83  22 2.83  24 2.83
  27  0.000  0.500  0.000-   2 2.83   3 2.83   4 2.83  11 2.83  12 2.83  15 2.83  16 2.83  17 2.83
                            19 2.83  21 2.83  23 2.83   1 2.83
  28  0.500  0.500  0.000-   1 2.82   2 2.83   3 2.83   4 2.83  11 2.83  12 2.83  15 2.83  16 2.83
                            18 2.83  20 2.83  22 2.83  24 2.83
  29  0.000  0.000  0.500-   5 2.83   6 2.83   7 2.83   8 2.83   9 2.83  10 2.83  13 2.83  14 2.83
                            17 2.83  19 2.83  21 2.83  23 2.83
  30  0.500  0.000  0.500-   5 2.83   6 2.83   7 2.83   8 2.83   9 2.83  10 2.83  13 2.83  14 2.83
                            18 2.83  20 2.83  22 2.83  24 2.83
  31  0.000  0.500  0.500-   5 2.83   6 2.83   7 2.83   8 2.83  11 2.83  12 2.83  15 2.83  16 2.83
                            17 2.83  19 2.83  21 2.83  23 2.83
  32  0.500  0.500  0.500-   5 2.83   6 2.83   7 2.83   8 2.83  11 2.83  12 2.83  15 2.83  16 2.83
                            18 2.83  20 2.83  22 2.83  24 2.83
 
  LATTYP: Found a simple cubic cell.
 ALAT       =     7.9938666120
  
  Lattice vectors:
  
 A1 = (   7.9938666120,   0.0000000000,   0.0000000000)
 A2 = (   0.0000000000,   7.9938666120,   0.0000000000)
 A3 = (   0.0000000000,   0.0000000000,   7.9938666120)
 Subroutine PRICEL returns:
 Original cell was already a primitive cell.
 

Analysis of symmetry for initial positions (statically):

 Routine SETGRP: Setting up the symmetry group for a 
 simple cubic supercell.


 Subroutine GETGRP returns: Found  8 space group operations
 (whereof  2 operations were pure point group operations)
 out of a pool of 48 trial point group operations.


The static configuration has the point symmetry C_1h.
 The point group associated with its full space group is C_4v.

Analysis of symmetry for dynamics (positions and initial velocities):

 Subroutine DYNSYM returns: Found  8 space group operations
 (whereof  2 operations were pure point group operations)
 out of a pool of  8 trial space group operations
 (whereof  2 operations were pure point group operations)
 and found also     1 'primitive' translations


The dynamic configuration has the point symmetry C_1h.
 The point group associated with its full space group is C_4v.
 
 
 KPOINTS: Automatic mesh                          

Automatic generation of k-mesh.
 
 Subroutine IBZKPT returns following result:
 ===========================================
 
 Found    196 irreducible k-points:
 
 Following reciprocal coordinates:
            Coordinates               Weight
  0.000000  0.000000  0.000000      1.000000
  0.083333  0.000000  0.000000      2.000000
  0.166667  0.000000  0.000000      2.000000
  0.250000  0.000000  0.000000      2.000000
  0.333333  0.000000  0.000000      2.000000
  0.416667  0.000000  0.000000      2.000000
  0.500000  0.000000  0.000000      1.000000
  0.000000  0.083333  0.000000      4.000000
  0.083333  0.083333  0.000000      8.000000
  0.166667  0.083333  0.000000      8.000000
  0.250000  0.083333  0.000000      8.000000
  0.333333  0.083333  0.000000      8.000000
  0.416667  0.083333  0.000000      8.000000
  0.500000  0.083333  0.000000      4.000000
  0.000000  0.166667  0.000000      4.000000
  0.083333  0.166667  0.000000      8.000000
  0.166667  0.166667  0.000000      8.000000
  0.250000  0.166667  0.000000      8.000000
  0.333333  0.166667  0.000000      8.000000
  0.416667  0.166667  0.000000      8.000000
  0.500000  0.166667  0.000000      4.000000
  0.000000  0.250000  0.000000      4.000000
  0.083333  0.250000  0.000000      8.000000
  0.166667  0.250000  0.000000      8.000000
  0.250000  0.250000  0.000000      8.000000
  0.333333  0.250000  0.000000      8.000000
  0.416667  0.250000  0.000000      8.000000
  0.500000  0.250000  0.000000      4.000000
  0.000000  0.333333  0.000000      4.000000
  0.083333  0.333333  0.000000      8.000000
  0.166667  0.333333  0.000000      8.000000
  0.250000  0.333333  0.000000      8.000000
  0.333333  0.333333  0.000000      8.000000
  0.416667  0.333333  0.000000      8.000000
  0.500000  0.333333  0.000000      4.000000
  0.000000  0.416667  0.000000      4.000000
  0.083333  0.416667  0.000000      8.000000
  0.166667  0.416667  0.000000      8.000000
  0.250000  0.416667  0.000000      8.000000
  0.333333  0.416667  0.000000      8.000000
  0.416667  0.416667  0.000000      8.000000
  0.500000  0.416667  0.000000      4.000000
  0.000000  0.500000  0.000000      2.000000
  0.083333  0.500000  0.000000      4.000000
  0.166667  0.500000  0.000000      4.000000
  0.250000  0.500000  0.000000      4.000000
  0.333333  0.500000  0.000000      4.000000
  0.416667  0.500000  0.000000      4.000000
  0.500000  0.500000  0.000000      2.000000
  0.000000  0.083333  0.083333      4.000000
  0.083333  0.083333  0.083333      8.000000
  0.166667  0.083333  0.083333      8.000000
  0.250000  0.083333  0.083333      8.000000
  0.333333  0.083333  0.083333      8.000000
  0.416667  0.083333  0.083333      8.000000
  0.500000  0.083333  0.083333      4.000000
  0.000000  0.166667  0.083333      8.000000
  0.083333  0.166667  0.083333     16.000000
  0.166667  0.166667  0.083333     16.000000
  0.250000  0.166667  0.083333     16.000000
  0.333333  0.166667  0.083333     16.000000
  0.416667  0.166667  0.083333     16.000000
  0.500000  0.166667  0.083333      8.000000
  0.000000  0.250000  0.083333      8.000000
  0.083333  0.250000  0.083333     16.000000
  0.166667  0.250000  0.083333     16.000000
  0.250000  0.250000  0.083333     16.000000
  0.333333  0.250000  0.083333     16.000000
  0.416667  0.250000  0.083333     16.000000
  0.500000  0.250000  0.083333      8.000000
  0.000000  0.333333  0.083333      8.000000
  0.083333  0.333333  0.083333     16.000000
  0.166667  0.333333  0.083333     16.000000
  0.250000  0.333333  0.083333     16.000000
  0.333333  0.333333  0.083333     16.000000
  0.416667  0.333333  0.083333     16.000000
  0.500000  0.333333  0.083333      8.000000
  0.000000  0.416667  0.083333      8.000000
  0.083333  0.416667  0.083333     16.000000
  0.166667  0.416667  0.083333     16.000000
  0.250000  0.416667  0.083333     16.000000
  0.333333  0.416667  0.083333     16.000000
  0.416667  0.416667  0.083333     16.000000
  0.500000  0.416667  0.083333      8.000000
  0.000000  0.500000  0.083333      4.000000
  0.083333  0.500000  0.083333      8.000000
  0.166667  0.500000  0.083333      8.000000
  0.250000  0.500000  0.083333      8.000000
  0.333333  0.500000  0.083333      8.000000
  0.416667  0.500000  0.083333      8.000000
  0.500000  0.500000  0.083333      4.000000
  0.000000  0.166667  0.166667      4.000000
  0.083333  0.166667  0.166667      8.000000
  0.166667  0.166667  0.166667      8.000000
  0.250000  0.166667  0.166667      8.000000
  0.333333  0.166667  0.166667      8.000000
  0.416667  0.166667  0.166667      8.000000
  0.500000  0.166667  0.166667      4.000000
  0.000000  0.250000  0.166667      8.000000
  0.083333  0.250000  0.166667     16.000000
  0.166667  0.250000  0.166667     16.000000
  0.250000  0.250000  0.166667     16.000000
  0.333333  0.250000  0.166667     16.000000
  0.416667  0.250000  0.166667     16.000000
  0.500000  0.250000  0.166667      8.000000
  0.000000  0.333333  0.166667      8.000000
  0.083333  0.333333  0.166667     16.000000
  0.166667  0.333333  0.166667     16.000000
  0.250000  0.333333  0.166667     16.000000
  0.333333  0.333333  0.166667     16.000000
  0.416667  0.333333  0.166667     16.000000
  0.500000  0.333333  0.166667      8.000000
  0.000000  0.416667  0.166667      8.000000
  0.083333  0.416667  0.166667     16.000000
  0.166667  0.416667  0.166667     16.000000
  0.250000  0.416667  0.166667     16.000000
  0.333333  0.416667  0.166667     16.000000
  0.416667  0.416667  0.166667     16.000000
  0.500000  0.416667  0.166667      8.000000
  0.000000  0.500000  0.166667      4.000000
  0.083333  0.500000  0.166667      8.000000
  0.166667  0.500000  0.166667      8.000000
  0.250000  0.500000  0.166667      8.000000
  0.333333  0.500000  0.166667      8.000000
  0.416667  0.500000  0.166667      8.000000
  0.500000  0.500000  0.166667      4.000000
  0.000000  0.250000  0.250000      4.000000
  0.083333  0.250000  0.250000      8.000000
  0.166667  0.250000  0.250000      8.000000
  0.250000  0.250000  0.250000      8.000000
  0.333333  0.250000  0.250000      8.000000
  0.416667  0.250000  0.250000      8.000000
  0.500000  0.250000  0.250000      4.000000
  0.000000  0.333333  0.250000      8.000000
  0.083333  0.333333  0.250000     16.000000
  0.166667  0.333333  0.250000     16.000000
  0.250000  0.333333  0.250000     16.000000
  0.333333  0.333333  0.250000     16.000000
  0.416667  0.333333  0.250000     16.000000
  0.500000  0.333333  0.250000      8.000000
  0.000000  0.416667  0.250000      8.000000
  0.083333  0.416667  0.250000     16.000000
  0.166667  0.416667  0.250000     16.000000
  0.250000  0.416667  0.250000     16.000000
  0.333333  0.416667  0.250000     16.000000
  0.416667  0.416667  0.250000     16.000000
  0.500000  0.416667  0.250000      8.000000
  0.000000  0.500000  0.250000      4.000000
  0.083333  0.500000  0.250000      8.000000
  0.166667  0.500000  0.250000      8.000000
  0.250000  0.500000  0.250000      8.000000
  0.333333  0.500000  0.250000      8.000000
  0.416667  0.500000  0.250000      8.000000
  0.500000  0.500000  0.250000      4.000000
  0.000000  0.333333  0.333333      4.000000
  0.083333  0.333333  0.333333      8.000000
  0.166667  0.333333  0.333333      8.000000
  0.250000  0.333333  0.333333      8.000000
  0.333333  0.333333  0.333333      8.000000
  0.416667  0.333333  0.333333      8.000000
  0.500000  0.333333  0.333333      4.000000
  0.000000  0.416667  0.333333      8.000000
  0.083333  0.416667  0.333333     16.000000
  0.166667  0.416667  0.333333     16.000000
  0.250000  0.416667  0.333333     16.000000
  0.333333  0.416667  0.333333     16.000000
  0.416667  0.416667  0.333333     16.000000
  0.500000  0.416667  0.333333      8.000000
  0.000000  0.500000  0.333333      4.000000
  0.083333  0.500000  0.333333      8.000000
  0.166667  0.500000  0.333333      8.000000
  0.250000  0.500000  0.333333      8.000000
  0.333333  0.500000  0.333333      8.000000
  0.416667  0.500000  0.333333      8.000000
  0.500000  0.500000  0.333333      4.000000
  0.000000  0.416667  0.416667      4.000000
  0.083333  0.416667  0.416667      8.000000
  0.166667  0.416667  0.416667      8.000000
  0.250000  0.416667  0.416667      8.000000
  0.333333  0.416667  0.416667      8.000000
  0.416667  0.416667  0.416667      8.000000
  0.500000  0.416667  0.416667      4.000000
  0.000000  0.500000  0.416667      4.000000
  0.083333  0.500000  0.416667      8.000000
  0.166667  0.500000  0.416667      8.000000
  0.250000  0.500000  0.416667      8.000000
  0.333333  0.500000  0.416667      8.000000
  0.416667  0.500000  0.416667      8.000000
  0.500000  0.500000  0.416667      4.000000
  0.000000  0.500000  0.500000      1.000000
  0.083333  0.500000  0.500000      2.000000
  0.166667  0.500000  0.500000      2.000000
  0.250000  0.500000  0.500000      2.000000
  0.333333  0.500000  0.500000      2.000000
  0.416667  0.500000  0.500000      2.000000
  0.500000  0.500000  0.500000      1.000000
 
 Following cartesian coordinates:
            Coordinates               Weight
  0.000000  0.000000  0.000000      1.000000
  0.010425  0.000000  0.000000      2.000000
  0.020849  0.000000  0.000000      2.000000
  0.031274  0.000000  0.000000      2.000000
  0.041699  0.000000  0.000000      2.000000
  0.052123  0.000000  0.000000      2.000000
  0.062548  0.000000  0.000000      1.000000
  0.000000  0.010425  0.000000      4.000000
  0.010425  0.010425  0.000000      8.000000
  0.020849  0.010425  0.000000      8.000000
  0.031274  0.010425  0.000000      8.000000
  0.041699  0.010425  0.000000      8.000000
  0.052123  0.010425  0.000000      8.000000
  0.062548  0.010425  0.000000      4.000000
  0.000000  0.020849  0.000000      4.000000
  0.010425  0.020849  0.000000      8.000000
  0.020849  0.020849  0.000000      8.000000
  0.031274  0.020849  0.000000      8.000000
  0.041699  0.020849  0.000000      8.000000
  0.052123  0.020849  0.000000      8.000000
  0.062548  0.020849  0.000000      4.000000
  0.000000  0.031274  0.000000      4.000000
  0.010425  0.031274  0.000000      8.000000
  0.020849  0.031274  0.000000      8.000000
  0.031274  0.031274  0.000000      8.000000
  0.041699  0.031274  0.000000      8.000000
  0.052123  0.031274  0.000000      8.000000
  0.062548  0.031274  0.000000      4.000000
  0.000000  0.041699  0.000000      4.000000
  0.010425  0.041699  0.000000      8.000000
  0.020849  0.041699  0.000000      8.000000
  0.031274  0.041699  0.000000      8.000000
  0.041699  0.041699  0.000000      8.000000
  0.052123  0.041699  0.000000      8.000000
  0.062548  0.041699  0.000000      4.000000
  0.000000  0.052123  0.000000      4.000000
  0.010425  0.052123  0.000000      8.000000
  0.020849  0.052123  0.000000      8.000000
  0.031274  0.052123  0.000000      8.000000
  0.041699  0.052123  0.000000      8.000000
  0.052123  0.052123  0.000000      8.000000
  0.062548  0.052123  0.000000      4.000000
  0.000000  0.062548  0.000000      2.000000
  0.010425  0.062548  0.000000      4.000000
  0.020849  0.062548  0.000000      4.000000
  0.031274  0.062548  0.000000      4.000000
  0.041699  0.062548  0.000000      4.000000
  0.052123  0.062548  0.000000      4.000000
  0.062548  0.062548  0.000000      2.000000
  0.000000  0.010425  0.010425      4.000000
  0.010425  0.010425  0.010425      8.000000
  0.020849  0.010425  0.010425      8.000000
  0.031274  0.010425  0.010425      8.000000
  0.041699  0.010425  0.010425      8.000000
  0.052123  0.010425  0.010425      8.000000
  0.062548  0.010425  0.010425      4.000000
  0.000000  0.020849  0.010425      8.000000
  0.010425  0.020849  0.010425     16.000000
  0.020849  0.020849  0.010425     16.000000
  0.031274  0.020849  0.010425     16.000000
  0.041699  0.020849  0.010425     16.000000
  0.052123  0.020849  0.010425     16.000000
  0.062548  0.020849  0.010425      8.000000
  0.000000  0.031274  0.010425      8.000000
  0.010425  0.031274  0.010425     16.000000
  0.020849  0.031274  0.010425     16.000000
  0.031274  0.031274  0.010425     16.000000
  0.041699  0.031274  0.010425     16.000000
  0.052123  0.031274  0.010425     16.000000
  0.062548  0.031274  0.010425      8.000000
  0.000000  0.041699  0.010425      8.000000
  0.010425  0.041699  0.010425     16.000000
  0.020849  0.041699  0.010425     16.000000
  0.031274  0.041699  0.010425     16.000000
  0.041699  0.041699  0.010425     16.000000
  0.052123  0.041699  0.010425     16.000000
  0.062548  0.041699  0.010425      8.000000
  0.000000  0.052123  0.010425      8.000000
  0.010425  0.052123  0.010425     16.000000
  0.020849  0.052123  0.010425     16.000000
  0.031274  0.052123  0.010425     16.000000
  0.041699  0.052123  0.010425     16.000000
  0.052123  0.052123  0.010425     16.000000
  0.062548  0.052123  0.010425      8.000000
  0.000000  0.062548  0.010425      4.000000
  0.010425  0.062548  0.010425      8.000000
  0.020849  0.062548  0.010425      8.000000
  0.031274  0.062548  0.010425      8.000000
  0.041699  0.062548  0.010425      8.000000
  0.052123  0.062548  0.010425      8.000000
  0.062548  0.062548  0.010425      4.000000
  0.000000  0.020849  0.020849      4.000000
  0.010425  0.020849  0.020849      8.000000
  0.020849  0.020849  0.020849      8.000000
  0.031274  0.020849  0.020849      8.000000
  0.041699  0.020849  0.020849      8.000000
  0.052123  0.020849  0.020849      8.000000
  0.062548  0.020849  0.020849      4.000000
  0.000000  0.031274  0.020849      8.000000
  0.010425  0.031274  0.020849     16.000000
  0.020849  0.031274  0.020849     16.000000
  0.031274  0.031274  0.020849     16.000000
  0.041699  0.031274  0.020849     16.000000
  0.052123  0.031274  0.020849     16.000000
  0.062548  0.031274  0.020849      8.000000
  0.000000  0.041699  0.020849      8.000000
  0.010425  0.041699  0.020849     16.000000
  0.020849  0.041699  0.020849     16.000000
  0.031274  0.041699  0.020849     16.000000
  0.041699  0.041699  0.020849     16.000000
  0.052123  0.041699  0.020849     16.000000
  0.062548  0.041699  0.020849      8.000000
  0.000000  0.052123  0.020849      8.000000
  0.010425  0.052123  0.020849     16.000000
  0.020849  0.052123  0.020849     16.000000
  0.031274  0.052123  0.020849     16.000000
  0.041699  0.052123  0.020849     16.000000
  0.052123  0.052123  0.020849     16.000000
  0.062548  0.052123  0.020849      8.000000
  0.000000  0.062548  0.020849      4.000000
  0.010425  0.062548  0.020849      8.000000
  0.020849  0.062548  0.020849      8.000000
  0.031274  0.062548  0.020849      8.000000
  0.041699  0.062548  0.020849      8.000000
  0.052123  0.062548  0.020849      8.000000
  0.062548  0.062548  0.020849      4.000000
  0.000000  0.031274  0.031274      4.000000
  0.010425  0.031274  0.031274      8.000000
  0.020849  0.031274  0.031274      8.000000
  0.031274  0.031274  0.031274      8.000000
  0.041699  0.031274  0.031274      8.000000
  0.052123  0.031274  0.031274      8.000000
  0.062548  0.031274  0.031274      4.000000
  0.000000  0.041699  0.031274      8.000000
  0.010425  0.041699  0.031274     16.000000
  0.020849  0.041699  0.031274     16.000000
  0.031274  0.041699  0.031274     16.000000
  0.041699  0.041699  0.031274     16.000000
  0.052123  0.041699  0.031274     16.000000
  0.062548  0.041699  0.031274      8.000000
  0.000000  0.052123  0.031274      8.000000
  0.010425  0.052123  0.031274     16.000000
  0.020849  0.052123  0.031274     16.000000
  0.031274  0.052123  0.031274     16.000000
  0.041699  0.052123  0.031274     16.000000
  0.052123  0.052123  0.031274     16.000000
  0.062548  0.052123  0.031274      8.000000
  0.000000  0.062548  0.031274      4.000000
  0.010425  0.062548  0.031274      8.000000
  0.020849  0.062548  0.031274      8.000000
  0.031274  0.062548  0.031274      8.000000
  0.041699  0.062548  0.031274      8.000000
  0.052123  0.062548  0.031274      8.000000
  0.062548  0.062548  0.031274      4.000000
  0.000000  0.041699  0.041699      4.000000
  0.010425  0.041699  0.041699      8.000000
  0.020849  0.041699  0.041699      8.000000
  0.031274  0.041699  0.041699      8.000000
  0.041699  0.041699  0.041699      8.000000
  0.052123  0.041699  0.041699      8.000000
  0.062548  0.041699  0.041699      4.000000
  0.000000  0.052123  0.041699      8.000000
  0.010425  0.052123  0.041699     16.000000
  0.020849  0.052123  0.041699     16.000000
  0.031274  0.052123  0.041699     16.000000
  0.041699  0.052123  0.041699     16.000000
  0.052123  0.052123  0.041699     16.000000
  0.062548  0.052123  0.041699      8.000000
  0.000000  0.062548  0.041699      4.000000
  0.010425  0.062548  0.041699      8.000000
  0.020849  0.062548  0.041699      8.000000
  0.031274  0.062548  0.041699      8.000000
  0.041699  0.062548  0.041699      8.000000
  0.052123  0.062548  0.041699      8.000000
  0.062548  0.062548  0.041699      4.000000
  0.000000  0.052123  0.052123      4.000000
  0.010425  0.052123  0.052123      8.000000
  0.020849  0.052123  0.052123      8.000000
  0.031274  0.052123  0.052123      8.000000
  0.041699  0.052123  0.052123      8.000000
  0.052123  0.052123  0.052123      8.000000
  0.062548  0.052123  0.052123      4.000000
  0.000000  0.062548  0.052123      4.000000
  0.010425  0.062548  0.052123      8.000000
  0.020849  0.062548  0.052123      8.000000
  0.031274  0.062548  0.052123      8.000000
  0.041699  0.062548  0.052123      8.000000
  0.052123  0.062548  0.052123      8.000000
  0.062548  0.062548  0.052123      4.000000
  0.000000  0.062548  0.062548      1.000000
  0.010425  0.062548  0.062548      2.000000
  0.020849  0.062548  0.062548      2.000000
  0.031274  0.062548  0.062548      2.000000
  0.041699  0.062548  0.062548      2.000000
  0.052123  0.062548  0.062548      2.000000
  0.062548  0.062548  0.062548      1.000000
 


--------------------------------------------------------------------------------------------------------




 Dimension of arrays:
   k-Points           NKPTS =    196   number of bands    NBANDS=     68
   number of dos      NEDOS =    301   number of ions     NIONS =     32
   non local maximal  LDIM  =      4   non local SUM 2l+1 LMDIM =      8
   total plane-waves  NPLWV = 216000
   max r-space proj   IRMAX =      1   max aug-charges    IRDMAX=  16655
   dimension x,y,z NGX =    60 NGY =   60 NGZ =   60
   dimension x,y,z NGXF=   120 NGYF=  120 NGZF=  120
   support grid    NGXF=   120 NGYF=  120 NGZF=  120
   ions per type =              32
 NGX,Y,Z   is equivalent  to a cutoff of  12.48, 12.48, 12.48 a.u.
 NGXF,Y,Z  is equivalent  to a cutoff of  24.96, 24.96, 24.96 a.u.


 I would recommend the setting:
   dimension x,y,z NGX =    58 NGY =   58 NGZ =   58
 SYSTEM =  unknown system                          
 POSCAR =  Al                                      

 Startparameter for this run:
   NWRITE =      2    write-flag & timer
   PREC   = accura    medium, high low
   ISTART =      0    job   : 0-new  1-cont  2-samecut
   ICHARG =      2    charge: 1-file 2-atom 10-const
   ISPIN  =      1    spin polarized calculation?
   LNONCOLLINEAR =      F non collinear calculations
   LSORBIT =      F    spin-orbit coupling
   INIWAV =      1    electr: 0-lowe 1-rand  2-diag
   LASPH  =      F    aspherical Exc in radial PAW
   METAGGA=      F    non-selfconsistent MetaGGA calc.

 Electronic Relaxation 1
   ENCUT  =  500.0 eV  36.75 Ry    6.06 a.u.  14.57 14.57 14.57*2*pi/ulx,y,z
   ENINI  =  500.0     initial cutoff
   ENAUG  =  291.1 eV  augmentation charge cutoff
   NELM   =     60;   NELMIN=  2; NELMDL=  0     # of ELM steps 
   EDIFF  = 0.1E-07   stopping-criterion for ELM
   LREAL  =      F    real-space projection
   LCOMPAT=      F    compatible to vasp.4.4
   LREAL_COMPAT= F    compatible to vasp.4.5.1-3
   GGA_COMPAT  = T    GGA compatible to vasp.4.4-vasp.4.6
   LMAXPAW     = -100 max onsite density
   LMAXMIX     =    2 max onsite mixed and CHGCAR
   VOSKOWN=      0    Vosko Wilk Nusair interpolation
   ROPT   =    0.00000
 Ionic relaxation
   EDIFFG = 0.1E-06   stopping-criterion for IOM
   NSW    =      0    number of steps for IOM
   NBLOCK =      1;   KBLOCK =      1    inner block; outer block 
   IBRION =     -1    ionic relax: 0-MD 1-quasi-New 2-CG
   NFREE  =      0    steps in history (QN), initial steepest desc. (CG)
   ISIF   =      2    stress and relaxation
   IWAVPR =     10    prediction:  0-non 1-charg 2-wave 3-comb
   ISYM   =      2    0-nonsym 1-usesym 2-fastsym
   LCORR  =      T    Harris-Foulkes like correction to forces

   POTIM  =   0.50    time-step for ionic-motion
   TEIN   =    0.0    initial temperature
   TEBEG  =    0.0;   TEEND  =   0.0 temperature during run
   SMASS  =  -3.00    Nose mass-parameter (am)
   estimated Nose-frequenzy (Omega)   =  0.10E-29 period in steps =****** mass=  -0.146E-26a.u.
   NPACO  =    256;   APACO  = 16.0  distance and # of slots for P.C.
   PSTRESS=    0.0 pullay stress

  Mass of Ions in am
   POMASS =  26.98
  Ionic Valenz
   ZVAL   =   3.00
  Atomic Wigner-Seitz radii
   RWIGS  =  -1.00
   NELECT =      96.0000    total number of electrons
   NUPDOWN=      -1.0000    fix difference up-down

 DOS related values:
   EMIN   =  10.00;   EMAX   =-10.00  energy-range for DOS
   ISMEAR =     0;   SIGMA  =   0.01  broadening in eV -4-tet -1-fermi 0-gaus

 Electronic relaxation 2 (details)
   IALGO  =     38    algorithm
   LDIAG  =      T    sub-space diagonalisation
   IMIX   =      4    mixing-type and parameters
     AMIX     =   0.40;   BMIX     =  1.00
     AMIX_MAG =   1.60;   BMIX_MAG =  1.00
     AMIN     =   0.10
     WC   =   100.;   INIMIX=   1;  MIXPRE=   1

 Intra band minimization:
   WEIMIN = 0.0000     energy-eigenvalue tresh-hold
   EBREAK =  0.38E-10  absolut break condition
   DEPER  =   0.30     relativ break condition  

   TIME   =   0.10     timestep for ELM

  volume/ion in A,a.u.               =      15.96       107.73
  Fermi-wavevector in a.u.,eV,Ry     =   0.937724 11.963960  0.879326

 Second variation
   LSECVAR=     F    do a second variation
 
 Write flags
   LWAVE  =      F    write WAVECAR
   LCHARG =      F    write CHGCAR
   LVTOT  =      F    write LOCPOT, local potential
   LELF   =      F    write electronic localiz. function (ELF)
   LORBIT =      0    0 simple, 1 ext, 2 COOP (PROOUT)


 Dipole corrections
   IDIPOL =      0    1-x, 2-y, 3-z
   LDIPOL =      F    correct potential



--------------------------------------------------------------------------------------------------------


 Static calculation
 charge density will be updated during run
 non-spin polarized calculation
 Variant of blocked Davidson
 Davidson routine will perform the subspace rotation
 performe sub-space diagonalisation
    after iterative eigenvector-optimisation
 modified Broyden-mixing scheme, WC =      100.0
 initial mixing is a Kerker type mixing with AMIX =  0.4000 and BMIX =      1.0000
 Hartree-type preconditioning will be used
 using additional bands           20
 reciprocal scheme for non local part
 use partial core corrections
 calculate Harris-corrections to forces 
   (improved forces if not selfconsistent)
 use gradient corrections 
 use of overlap-Matrix (Vanderbilt PP)
 Gauss-broadening in eV      SIGMA  =   0.01


--------------------------------------------------------------------------------------------------------


  energy-cutoff  :      500.00
  volume of cell :      510.82
      direct lattice vectors                 reciprocal lattice vectors
     7.993866612  0.000000000  0.000000000     0.125095908  0.000000000  0.000000000
     0.000000000  7.993866612  0.000000000     0.000000000  0.125095908  0.000000000
     0.000000000  0.000000000  7.993866612     0.000000000  0.000000000  0.125095908

  length of vectors
     7.993866612  7.993866612  7.993866612     0.125095908  0.125095908  0.125095908


 
 k-points in units of 2pi/SCALE and weight: Automatic mesh                          
   0.00000000  0.00000000  0.00000000       0.001
   0.01042466  0.00000000  0.00000000       0.001
   0.02084932  0.00000000  0.00000000       0.001
   0.03127398  0.00000000  0.00000000       0.001
   0.04169864  0.00000000  0.00000000       0.001
   0.05212329  0.00000000  0.00000000       0.001
   0.06254795  0.00000000  0.00000000       0.001
   0.00000000  0.01042466  0.00000000       0.002
   0.01042466  0.01042466  0.00000000       0.005
   0.02084932  0.01042466  0.00000000       0.005
   0.03127398  0.01042466  0.00000000       0.005
   0.04169864  0.01042466  0.00000000       0.005
   0.05212329  0.01042466  0.00000000       0.005
   0.06254795  0.01042466  0.00000000       0.002
   0.00000000  0.02084932  0.00000000       0.002
   0.01042466  0.02084932  0.00000000       0.005
   0.02084932  0.02084932  0.00000000       0.005
   0.03127398  0.02084932  0.00000000       0.005
   0.04169864  0.02084932  0.00000000       0.005
   0.05212329  0.02084932  0.00000000       0.005
   0.06254795  0.02084932  0.00000000       0.002
   0.00000000  0.03127398  0.00000000       0.002
   0.01042466  0.03127398  0.00000000       0.005
   0.02084932  0.03127398  0.00000000       0.005
   0.03127398  0.03127398  0.00000000       0.005
   0.04169864  0.03127398  0.00000000       0.005
   0.05212329  0.03127398  0.00000000       0.005
   0.06254795  0.03127398  0.00000000       0.002
   0.00000000  0.04169864  0.00000000       0.002
   0.01042466  0.04169864  0.00000000       0.005
   0.02084932  0.04169864  0.00000000       0.005
   0.03127398  0.04169864  0.00000000       0.005
   0.04169864  0.04169864  0.00000000       0.005
   0.05212329  0.04169864  0.00000000       0.005
   0.06254795  0.04169864  0.00000000       0.002
   0.00000000  0.05212329  0.00000000       0.002
   0.01042466  0.05212329  0.00000000       0.005
   0.02084932  0.05212329  0.00000000       0.005
   0.03127398  0.05212329  0.00000000       0.005
   0.04169864  0.05212329  0.00000000       0.005
   0.05212329  0.05212329  0.00000000       0.005
   0.06254795  0.05212329  0.00000000       0.002
   0.00000000  0.06254795  0.00000000       0.001
   0.01042466  0.06254795  0.00000000       0.002
   0.02084932  0.06254795  0.00000000       0.002
   0.03127398  0.06254795  0.00000000       0.002
   0.04169864  0.06254795  0.00000000       0.002
   0.05212329  0.06254795  0.00000000       0.002
   0.06254795  0.06254795  0.00000000       0.001
   0.00000000  0.01042466  0.01042466       0.002
   0.01042466  0.01042466  0.01042466       0.005
   0.02084932  0.01042466  0.01042466       0.005
   0.03127398  0.01042466  0.01042466       0.005
   0.04169864  0.01042466  0.01042466       0.005
   0.05212329  0.01042466  0.01042466       0.005
   0.06254795  0.01042466  0.01042466       0.002
   0.00000000  0.02084932  0.01042466       0.005
   0.01042466  0.02084932  0.01042466       0.009
   0.02084932  0.02084932  0.01042466       0.009
   0.03127398  0.02084932  0.01042466       0.009
   0.04169864  0.02084932  0.01042466       0.009
   0.05212329  0.02084932  0.01042466       0.009
   0.06254795  0.02084932  0.01042466       0.005
   0.00000000  0.03127398  0.01042466       0.005
   0.01042466  0.03127398  0.01042466       0.009
   0.02084932  0.03127398  0.01042466       0.009
   0.03127398  0.03127398  0.01042466       0.009
   0.04169864  0.03127398  0.01042466       0.009
   0.05212329  0.03127398  0.01042466       0.009
   0.06254795  0.03127398  0.01042466       0.005
   0.00000000  0.04169864  0.01042466       0.005
   0.01042466  0.04169864  0.01042466       0.009
   0.02084932  0.04169864  0.01042466       0.009
   0.03127398  0.04169864  0.01042466       0.009
   0.04169864  0.04169864  0.01042466       0.009
   0.05212329  0.04169864  0.01042466       0.009
   0.06254795  0.04169864  0.01042466       0.005
   0.00000000  0.05212329  0.01042466       0.005
   0.01042466  0.05212329  0.01042466       0.009
   0.02084932  0.05212329  0.01042466       0.009
   0.03127398  0.05212329  0.01042466       0.009
   0.04169864  0.05212329  0.01042466       0.009
   0.05212329  0.05212329  0.01042466       0.009
   0.06254795  0.05212329  0.01042466       0.005
   0.00000000  0.06254795  0.01042466       0.002
   0.01042466  0.06254795  0.01042466       0.005
   0.02084932  0.06254795  0.01042466       0.005
   0.03127398  0.06254795  0.01042466       0.005
   0.04169864  0.06254795  0.01042466       0.005
   0.05212329  0.06254795  0.01042466       0.005
   0.06254795  0.06254795  0.01042466       0.002
   0.00000000  0.02084932  0.02084932       0.002
   0.01042466  0.02084932  0.02084932       0.005
   0.02084932  0.02084932  0.02084932       0.005
   0.03127398  0.02084932  0.02084932       0.005
   0.04169864  0.02084932  0.02084932       0.005
   0.05212329  0.02084932  0.02084932       0.005
   0.06254795  0.02084932  0.02084932       0.002
   0.00000000  0.03127398  0.02084932       0.005
   0.01042466  0.03127398  0.02084932       0.009
   0.02084932  0.03127398  0.02084932       0.009
   0.03127398  0.03127398  0.02084932       0.009
   0.04169864  0.03127398  0.02084932       0.009
   0.05212329  0.03127398  0.02084932       0.009
   0.06254795  0.03127398  0.02084932       0.005
   0.00000000  0.04169864  0.02084932       0.005
   0.01042466  0.04169864  0.02084932       0.009
   0.02084932  0.04169864  0.02084932       0.009
   0.03127398  0.04169864  0.02084932       0.009
   0.04169864  0.04169864  0.02084932       0.009
   0.05212329  0.04169864  0.02084932       0.009
   0.06254795  0.04169864  0.02084932       0.005
   0.00000000  0.05212329  0.02084932       0.005
   0.01042466  0.05212329  0.02084932       0.009
   0.02084932  0.05212329  0.02084932       0.009
   0.03127398  0.05212329  0.02084932       0.009
   0.04169864  0.05212329  0.02084932       0.009
   0.05212329  0.05212329  0.02084932       0.009
   0.06254795  0.05212329  0.02084932       0.005
   0.00000000  0.06254795  0.02084932       0.002
   0.01042466  0.06254795  0.02084932       0.005
   0.02084932  0.06254795  0.02084932       0.005
   0.03127398  0.06254795  0.02084932       0.005
   0.04169864  0.06254795  0.02084932       0.005
   0.05212329  0.06254795  0.02084932       0.005
   0.06254795  0.06254795  0.02084932       0.002
   0.00000000  0.03127398  0.03127398       0.002
   0.01042466  0.03127398  0.03127398       0.005
   0.02084932  0.03127398  0.03127398       0.005
   0.03127398  0.03127398  0.03127398       0.005
   0.04169864  0.03127398  0.03127398       0.005
   0.05212329  0.03127398  0.03127398       0.005
   0.06254795  0.03127398  0.03127398       0.002
   0.00000000  0.04169864  0.03127398       0.005
   0.01042466  0.04169864  0.03127398       0.009
   0.02084932  0.04169864  0.03127398       0.009
   0.03127398  0.04169864  0.03127398       0.009
   0.04169864  0.04169864  0.03127398       0.009
   0.05212329  0.04169864  0.03127398       0.009
   0.06254795  0.04169864  0.03127398       0.005
   0.00000000  0.05212329  0.03127398       0.005
   0.01042466  0.05212329  0.03127398       0.009
   0.02084932  0.05212329  0.03127398       0.009
   0.03127398  0.05212329  0.03127398       0.009
   0.04169864  0.05212329  0.03127398       0.009
   0.05212329  0.05212329  0.03127398       0.009
   0.06254795  0.05212329  0.03127398       0.005
   0.00000000  0.06254795  0.03127398       0.002
   0.01042466  0.06254795  0.03127398       0.005
   0.02084932  0.06254795  0.03127398       0.005
   0.03127398  0.06254795  0.03127398       0.005
   0.04169864  0.06254795  0.03127398       0.005
   0.05212329  0.06254795  0.03127398       0.005
   0.06254795  0.06254795  0.03127398       0.002
   0.00000000  0.04169864  0.04169864       0.002
   0.01042466  0.04169864  0.04169864       0.005
   0.02084932  0.04169864  0.04169864       0.005
   0.03127398  0.04169864  0.04169864       0.005
   0.04169864  0.04169864  0.04169864       0.005
   0.05212329  0.04169864  0.04169864       0.005
   0.06254795  0.04169864  0.04169864       0.002
   0.00000000  0.05212329  0.04169864       0.005
   0.01042466  0.05212329  0.04169864       0.009
   0.02084932  0.05212329  0.04169864       0.009
   0.03127398  0.05212329  0.04169864       0.009
   0.04169864  0.05212329  0.04169864       0.009
   0.05212329  0.05212329  0.04169864       0.009
   0.06254795  0.05212329  0.04169864       0.005
   0.00000000  0.06254795  0.04169864       0.002
   0.01042466  0.06254795  0.04169864       0.005
   0.02084932  0.06254795  0.04169864       0.005
   0.03127398  0.06254795  0.04169864       0.005
   0.04169864  0.06254795  0.04169864       0.005
   0.05212329  0.06254795  0.04169864       0.005
   0.06254795  0.06254795  0.04169864       0.002
   0.00000000  0.05212329  0.05212329       0.002
   0.01042466  0.05212329  0.05212329       0.005
   0.02084932  0.05212329  0.05212329       0.005
   0.03127398  0.05212329  0.05212329       0.005
   0.04169864  0.05212329  0.05212329       0.005
   0.05212329  0.05212329  0.05212329       0.005
   0.06254795  0.05212329  0.05212329       0.002
   0.00000000  0.06254795  0.05212329       0.002
   0.01042466  0.06254795  0.05212329       0.005
   0.02084932  0.06254795  0.05212329       0.005
   0.03127398  0.06254795  0.05212329       0.005
   0.04169864  0.06254795  0.05212329       0.005
   0.05212329  0.06254795  0.05212329       0.005
   0.06254795  0.06254795  0.05212329       0.002
   0.00000000  0.06254795  0.06254795       0.001
   0.01042466  0.06254795  0.06254795       0.001
   0.02084932  0.06254795  0.06254795       0.001
   0.03127398  0.06254795  0.06254795       0.001
   0.04169864  0.06254795  0.06254795       0.001
   0.05212329  0.06254795  0.06254795       0.001
   0.06254795  0.06254795  0.06254795       0.001
 
 k-points in reciprocal lattice and weights: Automatic mesh                          
   0.00000000  0.00000000  0.00000000       0.001
   0.08333333  0.00000000  0.00000000       0.001
   0.16666667  0.00000000  0.00000000       0.001
   0.25000000  0.00000000  0.00000000       0.001
   0.33333333  0.00000000  0.00000000       0.001
   0.41666667  0.00000000  0.00000000       0.001
   0.50000000  0.00000000  0.00000000       0.001
   0.00000000  0.08333333  0.00000000       0.002
   0.08333333  0.08333333  0.00000000       0.005
   0.16666667  0.08333333  0.00000000       0.005
   0.25000000  0.08333333  0.00000000       0.005
   0.33333333  0.08333333  0.00000000       0.005
   0.41666667  0.08333333  0.00000000       0.005
   0.50000000  0.08333333  0.00000000       0.002
   0.00000000  0.16666667  0.00000000       0.002
   0.08333333  0.16666667  0.00000000       0.005
   0.16666667  0.16666667  0.00000000       0.005
   0.25000000  0.16666667  0.00000000       0.005
   0.33333333  0.16666667  0.00000000       0.005
   0.41666667  0.16666667  0.00000000       0.005
   0.50000000  0.16666667  0.00000000       0.002
   0.00000000  0.25000000  0.00000000       0.002
   0.08333333  0.25000000  0.00000000       0.005
   0.16666667  0.25000000  0.00000000       0.005
   0.25000000  0.25000000  0.00000000       0.005
   0.33333333  0.25000000  0.00000000       0.005
   0.41666667  0.25000000  0.00000000       0.005
   0.50000000  0.25000000  0.00000000       0.002
   0.00000000  0.33333333  0.00000000       0.002
   0.08333333  0.33333333  0.00000000       0.005
   0.16666667  0.33333333  0.00000000       0.005
   0.25000000  0.33333333  0.00000000       0.005
   0.33333333  0.33333333  0.00000000       0.005
   0.41666667  0.33333333  0.00000000       0.005
   0.50000000  0.33333333  0.00000000       0.002
   0.00000000  0.41666667  0.00000000       0.002
   0.08333333  0.41666667  0.00000000       0.005
   0.16666667  0.41666667  0.00000000       0.005
   0.25000000  0.41666667  0.00000000       0.005
   0.33333333  0.41666667  0.00000000       0.005
   0.41666667  0.41666667  0.00000000       0.005
   0.50000000  0.41666667  0.00000000       0.002
   0.00000000  0.50000000  0.00000000       0.001
   0.08333333  0.50000000  0.00000000       0.002
   0.16666667  0.50000000  0.00000000       0.002
   0.25000000  0.50000000  0.00000000       0.002
   0.33333333  0.50000000  0.00000000       0.002
   0.41666667  0.50000000  0.00000000       0.002
   0.50000000  0.50000000  0.00000000       0.001
   0.00000000  0.08333333  0.08333333       0.002
   0.08333333  0.08333333  0.08333333       0.005
   0.16666667  0.08333333  0.08333333       0.005
   0.25000000  0.08333333  0.08333333       0.005
   0.33333333  0.08333333  0.08333333       0.005
   0.41666667  0.08333333  0.08333333       0.005
   0.50000000  0.08333333  0.08333333       0.002
   0.00000000  0.16666667  0.08333333       0.005
   0.08333333  0.16666667  0.08333333       0.009
   0.16666667  0.16666667  0.08333333       0.009
   0.25000000  0.16666667  0.08333333       0.009
   0.33333333  0.16666667  0.08333333       0.009
   0.41666667  0.16666667  0.08333333       0.009
   0.50000000  0.16666667  0.08333333       0.005
   0.00000000  0.25000000  0.08333333       0.005
   0.08333333  0.25000000  0.08333333       0.009
   0.16666667  0.25000000  0.08333333       0.009
   0.25000000  0.25000000  0.08333333       0.009
   0.33333333  0.25000000  0.08333333       0.009
   0.41666667  0.25000000  0.08333333       0.009
   0.50000000  0.25000000  0.08333333       0.005
   0.00000000  0.33333333  0.08333333       0.005
   0.08333333  0.33333333  0.08333333       0.009
   0.16666667  0.33333333  0.08333333       0.009
   0.25000000  0.33333333  0.08333333       0.009
   0.33333333  0.33333333  0.08333333       0.009
   0.41666667  0.33333333  0.08333333       0.009
   0.50000000  0.33333333  0.08333333       0.005
   0.00000000  0.41666667  0.08333333       0.005
   0.08333333  0.41666667  0.08333333       0.009
   0.16666667  0.41666667  0.08333333       0.009
   0.25000000  0.41666667  0.08333333       0.009
   0.33333333  0.41666667  0.08333333       0.009
   0.41666667  0.41666667  0.08333333       0.009
   0.50000000  0.41666667  0.08333333       0.005
   0.00000000  0.50000000  0.08333333       0.002
   0.08333333  0.50000000  0.08333333       0.005
   0.16666667  0.50000000  0.08333333       0.005
   0.25000000  0.50000000  0.08333333       0.005
   0.33333333  0.50000000  0.08333333       0.005
   0.41666667  0.50000000  0.08333333       0.005
   0.50000000  0.50000000  0.08333333       0.002
   0.00000000  0.16666667  0.16666667       0.002
   0.08333333  0.16666667  0.16666667       0.005
   0.16666667  0.16666667  0.16666667       0.005
   0.25000000  0.16666667  0.16666667       0.005
   0.33333333  0.16666667  0.16666667       0.005
   0.41666667  0.16666667  0.16666667       0.005
   0.50000000  0.16666667  0.16666667       0.002
   0.00000000  0.25000000  0.16666667       0.005
   0.08333333  0.25000000  0.16666667       0.009
   0.16666667  0.25000000  0.16666667       0.009
   0.25000000  0.25000000  0.16666667       0.009
   0.33333333  0.25000000  0.16666667       0.009
   0.41666667  0.25000000  0.16666667       0.009
   0.50000000  0.25000000  0.16666667       0.005
   0.00000000  0.33333333  0.16666667       0.005
   0.08333333  0.33333333  0.16666667       0.009
   0.16666667  0.33333333  0.16666667       0.009
   0.25000000  0.33333333  0.16666667       0.009
   0.33333333  0.33333333  0.16666667       0.009
   0.41666667  0.33333333  0.16666667       0.009
   0.50000000  0.33333333  0.16666667       0.005
   0.00000000  0.41666667  0.16666667       0.005
   0.08333333  0.41666667  0.16666667       0.009
   0.16666667  0.41666667  0.16666667       0.009
   0.25000000  0.41666667  0.16666667       0.009
   0.33333333  0.41666667  0.16666667       0.009
   0.41666667  0.41666667  0.16666667       0.009
   0.50000000  0.41666667  0.16666667       0.005
   0.00000000  0.50000000  0.16666667       0.002
   0.08333333  0.50000000  0.16666667       0.005
   0.16666667  0.50000000  0.16666667       0.005
   0.25000000  0.50000000  0.16666667       0.005
   0.33333333  0.50000000  0.16666667       0.005
   0.41666667  0.50000000  0.16666667       0.005
   0.50000000  0.50000000  0.16666667       0.002
   0.00000000  0.25000000  0.25000000       0.002
   0.08333333  0.25000000  0.25000000       0.005
   0.16666667  0.25000000  0.25000000       0.005
   0.25000000  0.25000000  0.25000000       0.005
   0.33333333  0.25000000  0.25000000       0.005
   0.41666667  0.25000000  0.25000000       0.005
   0.50000000  0.25000000  0.25000000       0.002
   0.00000000  0.33333333  0.25000000       0.005
   0.08333333  0.33333333  0.25000000       0.009
   0.16666667  0.33333333  0.25000000       0.009
   0.25000000  0.33333333  0.25000000       0.009
   0.33333333  0.33333333  0.25000000       0.009
   0.41666667  0.33333333  0.25000000       0.009
   0.50000000  0.33333333  0.25000000       0.005
   0.00000000  0.41666667  0.25000000       0.005
   0.08333333  0.41666667  0.25000000       0.009
   0.16666667  0.41666667  0.25000000       0.009
   0.25000000  0.41666667  0.25000000       0.009
   0.33333333  0.41666667  0.25000000       0.009
   0.41666667  0.41666667  0.25000000       0.009
   0.50000000  0.41666667  0.25000000       0.005
   0.00000000  0.50000000  0.25000000       0.002
   0.08333333  0.50000000  0.25000000       0.005
   0.16666667  0.50000000  0.25000000       0.005
   0.25000000  0.50000000  0.25000000       0.005
   0.33333333  0.50000000  0.25000000       0.005
   0.41666667  0.50000000  0.25000000       0.005
   0.50000000  0.50000000  0.25000000       0.002
   0.00000000  0.33333333  0.33333333       0.002
   0.08333333  0.33333333  0.33333333       0.005
   0.16666667  0.33333333  0.33333333       0.005
   0.25000000  0.33333333  0.33333333       0.005
   0.33333333  0.33333333  0.33333333       0.005
   0.41666667  0.33333333  0.33333333       0.005
   0.50000000  0.33333333  0.33333333       0.002
   0.00000000  0.41666667  0.33333333       0.005
   0.08333333  0.41666667  0.33333333       0.009
   0.16666667  0.41666667  0.33333333       0.009
   0.25000000  0.41666667  0.33333333       0.009
   0.33333333  0.41666667  0.33333333       0.009
   0.41666667  0.41666667  0.33333333       0.009
   0.50000000  0.41666667  0.33333333       0.005
   0.00000000  0.50000000  0.33333333       0.002
   0.08333333  0.50000000  0.33333333       0.005
   0.16666667  0.50000000  0.33333333       0.005
   0.25000000  0.50000000  0.33333333       0.005
   0.33333333  0.50000000  0.33333333       0.005
   0.41666667  0.50000000  0.33333333       0.005
   0.50000000  0.50000000  0.33333333       0.002
   0.00000000  0.41666667  0.41666667       0.002
   0.08333333  0.41666667  0.41666667       0.005
   0.16666667  0.41666667  0.41666667       0.005
   0.25000000  0.41666667  0.41666667       0.005
   0.33333333  0.41666667  0.41666667       0.005
   0.41666667  0.41666667  0.41666667       0.005
   0.50000000  0.41666667  0.41666667       0.002
   0.00000000  0.50000000  0.41666667       0.002
   0.08333333  0.50000000  0.41666667       0.005
   0.16666667  0.50000000  0.41666667       0.005
   0.25000000  0.50000000  0.41666667       0.005
   0.33333333  0.50000000  0.41666667       0.005
   0.41666667  0.50000000  0.41666667       0.005
   0.50000000  0.50000000  0.41666667       0.002
   0.00000000  0.50000000  0.50000000       0.001
   0.08333333  0.50000000  0.50000000       0.001
   0.16666667  0.50000000  0.50000000       0.001
   0.25000000  0.50000000  0.50000000       0.001
   0.33333333  0.50000000  0.50000000       0.001
   0.41666667  0.50000000  0.50000000       0.001
   0.50000000  0.50000000  0.50000000       0.001
 
 position of ions in fractional coordinates (direct lattice) 
   0.25125096  0.25000000  0.00000000
   0.75000000  0.25000000  0.00000000
   0.25000000  0.75000000  0.00000000
   0.75000000  0.75000000  0.00000000
   0.25000000  0.25000000  0.50000000
   0.75000000  0.25000000  0.50000000
   0.25000000  0.75000000  0.50000000
   0.75000000  0.75000000  0.50000000
   0.25000000  0.00000000  0.25000000
   0.75000000  0.00000000  0.25000000
   0.25000000  0.50000000  0.25000000
   0.75000000  0.50000000  0.25000000
   0.25000000  0.00000000  0.75000000
   0.75000000  0.00000000  0.75000000
   0.25000000  0.50000000  0.75000000
   0.75000000  0.50000000  0.75000000
   0.00000000  0.25000000  0.25000000
   0.50000000  0.25000000  0.25000000
   0.00000000  0.75000000  0.25000000
   0.50000000  0.75000000  0.25000000
   0.00000000  0.25000000  0.75000000
   0.50000000  0.25000000  0.75000000
   0.00000000  0.75000000  0.75000000
   0.50000000  0.75000000  0.75000000
   0.00000000  0.00000000  0.00000000
   0.50000000  0.00000000  0.00000000
   0.00000000  0.50000000  0.00000000
   0.50000000  0.50000000  0.00000000
   0.00000000  0.00000000  0.50000000
   0.50000000  0.00000000  0.50000000
   0.00000000  0.50000000  0.50000000
   0.50000000  0.50000000  0.50000000
 
 position of ions in cartesian coordinates  (Angst):
   2.00846665  1.99846665  0.00000000
   5.99539996  1.99846665  0.00000000
   1.99846665  5.99539996  0.00000000
   5.99539996  5.99539996  0.00000000
   1.99846665  1.99846665  3.99693331
   5.99539996  1.99846665  3.99693331
   1.99846665  5.99539996  3.99693331
   5.99539996  5.99539996  3.99693331
   1.99846665  0.00000000  1.99846665
   5.99539996  0.00000000  1.99846665
   1.99846665  3.99693331  1.99846665
   5.99539996  3.99693331  1.99846665
   1.99846665  0.00000000  5.99539996
   5.99539996  0.00000000  5.99539996
   1.99846665  3.99693331  5.99539996
   5.99539996  3.99693331  5.99539996
   0.00000000  1.99846665  1.99846665
   3.99693331  1.99846665  1.99846665
   0.00000000  5.99539996  1.99846665
   3.99693331  5.99539996  1.99846665
   0.00000000  1.99846665  5.99539996
   3.99693331  1.99846665  5.99539996
   0.00000000  5.99539996  5.99539996
   3.99693331  5.99539996  5.99539996
   0.00000000  0.00000000  0.00000000
   3.99693331  0.00000000  0.00000000
   0.00000000  3.99693331  0.00000000
   3.99693331  3.99693331  0.00000000
   0.00000000  0.00000000  3.99693331
   3.99693331  0.00000000  3.99693331
   0.00000000  3.99693331  3.99693331
   3.99693331  3.99693331  3.99693331
 


--------------------------------------------------------------------------------------------------------


 k-point  1 :  0.00000.00000.0000  plane waves:  13037
 k-point  2 :  0.08330.00000.0000  plane waves:  13041
 k-point  3 :  0.16670.00000.0000  plane waves:  12993
 k-point  4 :  0.25000.00000.0000  plane waves:  12949
 k-point  5 :  0.33330.00000.0000  plane waves:  12969
 k-point  6 :  0.41670.00000.0000  plane waves:  12985
 k-point  7 :  0.50000.00000.0000  plane waves:  13022
 k-point  8 :  0.00000.08330.0000  plane waves:  13041
 k-point  9 :  0.08330.08330.0000  plane waves:  13019
 k-point 10 :  0.16670.08330.0000  plane waves:  12999
 k-point 11 :  0.25000.08330.0000  plane waves:  12989
 k-point 12 :  0.33330.08330.0000  plane waves:  12973
 k-point 13 :  0.41670.08330.0000  plane waves:  12963
 k-point 14 :  0.50000.08330.0000  plane waves:  12968
 k-point 15 :  0.00000.16670.0000  plane waves:  12993
 k-point 16 :  0.08330.16670.0000  plane waves:  12999
 k-point 17 :  0.16670.16670.0000  plane waves:  13009
 k-point 18 :  0.25000.16670.0000  plane waves:  12973
 k-point 19 :  0.33330.16670.0000  plane waves:  12957
 k-point 20 :  0.41670.16670.0000  plane waves:  12981
 k-point 21 :  0.50000.16670.0000  plane waves:  12972
 k-point 22 :  0.00000.25000.0000  plane waves:  12949
 k-point 23 :  0.08330.25000.0000  plane waves:  12989
 k-point 24 :  0.16670.25000.0000  plane waves:  12973
 k-point 25 :  0.25000.25000.0000  plane waves:  12973
 k-point 26 :  0.33330.25000.0000  plane waves:  12958
 k-point 27 :  0.41670.25000.0000  plane waves:  12978
 k-point 28 :  0.50000.25000.0000  plane waves:  12968
 k-point 29 :  0.00000.33330.0000  plane waves:  12969
 k-point 30 :  0.08330.33330.0000  plane waves:  12973
 k-point 31 :  0.16670.33330.0000  plane waves:  12957
 k-point 32 :  0.25000.33330.0000  plane waves:  12958
 k-point 33 :  0.33330.33330.0000  plane waves:  12970
 k-point 34 :  0.41670.33330.0000  plane waves:  12952
 k-point 35 :  0.50000.33330.0000  plane waves:  12964
 k-point 36 :  0.00000.41670.0000  plane waves:  12985
 k-point 37 :  0.08330.41670.0000  plane waves:  12963
 k-point 38 :  0.16670.41670.0000  plane waves:  12981
 k-point 39 :  0.25000.41670.0000  plane waves:  12978
 k-point 40 :  0.33330.41670.0000  plane waves:  12952
 k-point 41 :  0.41670.41670.0000  plane waves:  12942
 k-point 42 :  0.50000.41670.0000  plane waves:  12954
 k-point 43 :  0.00000.50000.0000  plane waves:  13022
 k-point 44 :  0.08330.50000.0000  plane waves:  12968
 k-point 45 :  0.16670.50000.0000  plane waves:  12972
 k-point 46 :  0.25000.50000.0000  plane waves:  12968
 k-point 47 :  0.33330.50000.0000  plane waves:  12964
 k-point 48 :  0.41670.50000.0000  plane waves:  12954
 k-point 49 :  0.50000.50000.0000  plane waves:  12920
 k-point 50 :  0.00000.08330.0833  plane waves:  13019
 k-point 51 :  0.08330.08330.0833  plane waves:  13034
 k-point 52 :  0.16670.08330.0833  plane waves:  13004
 k-point 53 :  0.25000.08330.0833  plane waves:  12979
 k-point 54 :  0.33330.08330.0833  plane waves:  12974
 k-point 55 :  0.41670.08330.0833  plane waves:  12984
 k-point 56 :  0.50000.08330.0833  plane waves:  12946
 k-point 57 :  0.00000.16670.0833  plane waves:  12999
 k-point 58 :  0.08330.16670.0833  plane waves:  13004
 k-point 59 :  0.16670.16670.0833  plane waves:  13001
 k-point 60 :  0.25000.16670.0833  plane waves:  12971
 k-point 61 :  0.33330.16670.0833  plane waves:  12969
 k-point 62 :  0.41670.16670.0833  plane waves:  12975
 k-point 63 :  0.50000.16670.0833  plane waves:  12958
 k-point 64 :  0.00000.25000.0833  plane waves:  12989
 k-point 65 :  0.08330.25000.0833  plane waves:  12979
 k-point 66 :  0.16670.25000.0833  plane waves:  12971
 k-point 67 :  0.25000.25000.0833  plane waves:  12972
 k-point 68 :  0.33330.25000.0833  plane waves:  12962
 k-point 69 :  0.41670.25000.0833  plane waves:  12961
 k-point 70 :  0.50000.25000.0833  plane waves:  12966
 k-point 71 :  0.00000.33330.0833  plane waves:  12973
 k-point 72 :  0.08330.33330.0833  plane waves:  12974
 k-point 73 :  0.16670.33330.0833  plane waves:  12969
 k-point 74 :  0.25000.33330.0833  plane waves:  12962
 k-point 75 :  0.33330.33330.0833  plane waves:  12963
 k-point 76 :  0.41670.33330.0833  plane waves:  12955
 k-point 77 :  0.50000.33330.0833  plane waves:  12968
 k-point 78 :  0.00000.41670.0833  plane waves:  12963
 k-point 79 :  0.08330.41670.0833  plane waves:  12984
 k-point 80 :  0.16670.41670.0833  plane waves:  12975
 k-point 81 :  0.25000.41670.0833  plane waves:  12961
 k-point 82 :  0.33330.41670.0833  plane waves:  12955
 k-point 83 :  0.41670.41670.0833  plane waves:  12945
 k-point 84 :  0.50000.41670.0833  plane waves:  12942
 k-point 85 :  0.00000.50000.0833  plane waves:  12968
 k-point 86 :  0.08330.50000.0833  plane waves:  12946
 k-point 87 :  0.16670.50000.0833  plane waves:  12958
 k-point 88 :  0.25000.50000.0833  plane waves:  12966
 k-point 89 :  0.33330.50000.0833  plane waves:  12968
 k-point 90 :  0.41670.50000.0833  plane waves:  12942
 k-point 91 :  0.50000.50000.0833  plane waves:  12932
 k-point 92 :  0.00000.16670.1667  plane waves:  13009
 k-point 93 :  0.08330.16670.1667  plane waves:  13001
 k-point 94 :  0.16670.16670.1667  plane waves:  12995
 k-point 95 :  0.25000.16670.1667  plane waves:  12974
 k-point 96 :  0.33330.16670.1667  plane waves:  12952
 k-point 97 :  0.41670.16670.1667  plane waves:  12963
 k-point 98 :  0.50000.16670.1667  plane waves:  12998
 k-point 99 :  0.00000.25000.1667  plane waves:  12973
 k-point ** :  0.08330.25000.1667  plane waves:  12971
 k-point ** :  0.16670.25000.1667  plane waves:  12974
 k-point ** :  0.25000.25000.1667  plane waves:  12983
 k-point ** :  0.33330.25000.1667  plane waves:  12975
 k-point ** :  0.41670.25000.1667  plane waves:  12956
 k-point ** :  0.50000.25000.1667  plane waves:  12956
 k-point ** :  0.00000.33330.1667  plane waves:  12957
 k-point ** :  0.08330.33330.1667  plane waves:  12969
 k-point ** :  0.16670.33330.1667  plane waves:  12952
 k-point ** :  0.25000.33330.1667  plane waves:  12975
 k-point ** :  0.33330.33330.1667  plane waves:  12977
 k-point ** :  0.41670.33330.1667  plane waves:  12953
 k-point ** :  0.50000.33330.1667  plane waves:  12980
 k-point ** :  0.00000.41670.1667  plane waves:  12981
 k-point ** :  0.08330.41670.1667  plane waves:  12975
 k-point ** :  0.16670.41670.1667  plane waves:  12963
 k-point ** :  0.25000.41670.1667  plane waves:  12956
 k-point ** :  0.33330.41670.1667  plane waves:  12953
 k-point ** :  0.41670.41670.1667  plane waves:  12952
 k-point ** :  0.50000.41670.1667  plane waves:  12950
 k-point ** :  0.00000.50000.1667  plane waves:  12972
 k-point ** :  0.08330.50000.1667  plane waves:  12958
 k-point ** :  0.16670.50000.1667  plane waves:  12998
 k-point ** :  0.25000.50000.1667  plane waves:  12956
 k-point ** :  0.33330.50000.1667  plane waves:  12980
 k-point ** :  0.41670.50000.1667  plane waves:  12950
 k-point ** :  0.50000.50000.1667  plane waves:  12892
 k-point ** :  0.00000.25000.2500  plane waves:  12973
 k-point ** :  0.08330.25000.2500  plane waves:  12972
 k-point ** :  0.16670.25000.2500  plane waves:  12983
 k-point ** :  0.25000.25000.2500  plane waves:  12983
 k-point ** :  0.33330.25000.2500  plane waves:  12973
 k-point ** :  0.41670.25000.2500  plane waves:  12963
 k-point ** :  0.50000.25000.2500  plane waves:  13000
 k-point ** :  0.00000.33330.2500  plane waves:  12958
 k-point ** :  0.08330.33330.2500  plane waves:  12962
 k-point ** :  0.16670.33330.2500  plane waves:  12975
 k-point ** :  0.25000.33330.2500  plane waves:  12973
 k-point ** :  0.33330.33330.2500  plane waves:  12957
 k-point ** :  0.41670.33330.2500  plane waves:  12961
 k-point ** :  0.50000.33330.2500  plane waves:  12982
 k-point ** :  0.00000.41670.2500  plane waves:  12978
 k-point ** :  0.08330.41670.2500  plane waves:  12961
 k-point ** :  0.16670.41670.2500  plane waves:  12956
 k-point ** :  0.25000.41670.2500  plane waves:  12963
 k-point ** :  0.33330.41670.2500  plane waves:  12961
 k-point ** :  0.41670.41670.2500  plane waves:  12958
 k-point ** :  0.50000.41670.2500  plane waves:  12964
 k-point ** :  0.00000.50000.2500  plane waves:  12968
 k-point ** :  0.08330.50000.2500  plane waves:  12966
 k-point ** :  0.16670.50000.2500  plane waves:  12956
 k-point ** :  0.25000.50000.2500  plane waves:  13000
 k-point ** :  0.33330.50000.2500  plane waves:  12982
 k-point ** :  0.41670.50000.2500  plane waves:  12964
 k-point ** :  0.50000.50000.2500  plane waves:  12920
 k-point ** :  0.00000.33330.3333  plane waves:  12970
 k-point ** :  0.08330.33330.3333  plane waves:  12963
 k-point ** :  0.16670.33330.3333  plane waves:  12977
 k-point ** :  0.25000.33330.3333  plane waves:  12957
 k-point ** :  0.33330.33330.3333  plane waves:  12950
 k-point ** :  0.41670.33330.3333  plane waves:  12972
 k-point ** :  0.50000.33330.3333  plane waves:  12952
 k-point ** :  0.00000.41670.3333  plane waves:  12952
 k-point ** :  0.08330.41670.3333  plane waves:  12955
 k-point ** :  0.16670.41670.3333  plane waves:  12953
 k-point ** :  0.25000.41670.3333  plane waves:  12961
 k-point ** :  0.33330.41670.3333  plane waves:  12972
 k-point ** :  0.41670.41670.3333  plane waves:  12961
 k-point ** :  0.50000.41670.3333  plane waves:  12960
 k-point ** :  0.00000.50000.3333  plane waves:  12964
 k-point ** :  0.08330.50000.3333  plane waves:  12968
 k-point ** :  0.16670.50000.3333  plane waves:  12980
 k-point ** :  0.25000.50000.3333  plane waves:  12982
 k-point ** :  0.33330.50000.3333  plane waves:  12952
 k-point ** :  0.41670.50000.3333  plane waves:  12960
 k-point ** :  0.50000.50000.3333  plane waves:  12932
 k-point ** :  0.00000.41670.4167  plane waves:  12942
 k-point ** :  0.08330.41670.4167  plane waves:  12945
 k-point ** :  0.16670.41670.4167  plane waves:  12952
 k-point ** :  0.25000.41670.4167  plane waves:  12958
 k-point ** :  0.33330.41670.4167  plane waves:  12961
 k-point ** :  0.41670.41670.4167  plane waves:  12967
 k-point ** :  0.50000.41670.4167  plane waves:  12946
 k-point ** :  0.00000.50000.4167  plane waves:  12954
 k-point ** :  0.08330.50000.4167  plane waves:  12942
 k-point ** :  0.16670.50000.4167  plane waves:  12950
 k-point ** :  0.25000.50000.4167  plane waves:  12964
 k-point ** :  0.33330.50000.4167  plane waves:  12960
 k-point ** :  0.41670.50000.4167  plane waves:  12946
 k-point ** :  0.50000.50000.4167  plane waves:  12928
 k-point ** :  0.00000.50000.5000  plane waves:  12920
 k-point ** :  0.08330.50000.5000  plane waves:  12932
 k-point ** :  0.16670.50000.5000  plane waves:  12892
 k-point ** :  0.25000.50000.5000  plane waves:  12920
 k-point ** :  0.33330.50000.5000  plane waves:  12932
 k-point ** :  0.41670.50000.5000  plane waves:  12928
 k-point ** :  0.50000.50000.5000  plane waves:  12856

 maximum and minimum number of plane-waves per node :  13041 12856

 maximum number of plane-waves:  13041
 maximal index in each direction: 
   IXMAX= 14   IYMAX= 14   IZMAX= 14
   IXMIN=-15   IYMIN=-15   IZMIN=-15

 NGX is ok and might be reduce to  60
 NGY is ok and might be reduce to  60
 NGZ is ok and might be reduce to  60

 parallel 3dFFT wavefunction:
    minimum data exchange during FFTs selected (reduces bandwidth)
 parallel 3dFFT charge:
    minimum data exchange during FFTs selected (reduces bandwidth)

 For storing wavefunctions 2765.21 MBYTES are necessary
 For predicting wavefunctions   33.30 MBYTES are necessary
Broyden mixing: mesh for mixing (old mesh)
   NGX = 29   NGY = 29   NGZ = 29
  (NGX  =120   NGY  =120   NGZ  =120)
 gives a total of  24389 points
 initial charge density was supplied:
 charge density of overlapping atoms calculated
 number of electron   96.0000000 magnetization 
 keeping initial charge density in first step


--------------------------------------------------------------------------------------------------------


 Maximum index for augmentation-charges         4028 (set IRDMAX)


--------------------------------------------------------------------------------------------------------


 First call to EWALD:  gamma=   0.222
 Maximum number of real-space cells 3x 3x 3
 Maximum number of reciprocal cells 3x 3x 3

    FEWALD:  VPU time    0.00: CPU time    0.00


----------------------------------------- Iteration    1(   1)  ---------------------------------------


    POTLOK:  VPU time    0.28: CPU time    0.28
    SETDIJ:  VPU time    0.02: CPU time    0.02
    EDDAV :  VPU time  153.39: CPU time  153.37
    DOS   :  VPU time    0.00: CPU time   -0.00
    ------------------------------------------
      LOOP:  VPU time  153.71: CPU time  153.69

 eigenvalue-minimisations  : 26656
 total energy-change (2. order) : 0.1310792E+03  (-0.3310872E+04)
 number of electron   96.0000000 magnetization 
 augmentation part    96.0000000 magnetization 

 Free energy of the ion-electron system (eV)
  ---------------------------------------------------
  alpha Z        PSCENC =        -6.73309839
  Ewald energy   TEWEN  =     -2378.57959861
  -1/2 Hartree   DENC   =        -2.88597594
  -V(xc)+E(xc)   XCENC  =      -837.75442371
  PAW double counting   =      1137.73615723     -115.16745734
  entropy T*S    EENTRO =        -0.00019317
  eigenvalues    EBANDS =       621.23462247
  atomic energy  EATOM  =      1713.22913220
  ---------------------------------------------------
  free energy    TOTEN  =       131.07916472 eV

  energy without entropy =      131.07935790  energy(sigma->0) =      131.07926131


--------------------------------------------------------------------------------------------------------




----------------------------------------- Iteration    1(   2)  ---------------------------------------


    EDDAV :  VPU time  205.67: CPU time  205.62
    DOS   :  VPU time    0.00: CPU time   -0.00
    ------------------------------------------
      LOOP:  VPU time  205.69: CPU time  205.64

 eigenvalue-minimisations  : 31392
 total energy-change (2. order) :-0.2374108E+03  (-0.2220984E+03)
 number of electron   96.0000000 magnetization 
 augmentation part    96.0000000 magnetization 

 Free energy of the ion-electron system (eV)
  ---------------------------------------------------
  alpha Z        PSCENC =        -6.73309839
  Ewald energy   TEWEN  =     -2378.57959861
  -1/2 Hartree   DENC   =        -2.88597594
  -V(xc)+E(xc)   XCENC  =      -837.75442371
  PAW double counting   =      1137.73615723     -115.16745734
  entropy T*S    EENTRO =        -0.00055451
  eigenvalues    EBANDS =       383.82420289
  atomic energy  EATOM  =      1713.22913220
  ---------------------------------------------------
  free energy    TOTEN  =      -106.33161619 eV

  energy without entropy =     -106.33106169  energy(sigma->0) =     -106.33133894


--------------------------------------------------------------------------------------------------------




----------------------------------------- Iteration    1(   3)  ---------------------------------------


    EDDAV :  VPU time  212.99: CPU time  212.93
    DOS   :  VPU time    0.00: CPU time   -0.00
    ------------------------------------------
      LOOP:  VPU time  213.01: CPU time  212.96

 eigenvalue-minimisations  : 33012
 total energy-change (2. order) :-0.1382491E+02  (-0.1309832E+02)
 number of electron   96.0000000 magnetization 
 augmentation part    96.0000000 magnetization 

 Free energy of the ion-electron system (eV)
  ---------------------------------------------------
  alpha Z        PSCENC =        -6.73309839
  Ewald energy   TEWEN  =     -2378.57959861
  -1/2 Hartree   DENC   =        -2.88597594
  -V(xc)+E(xc)   XCENC  =      -837.75442371
  PAW double counting   =      1137.73615723     -115.16745734
  entropy T*S    EENTRO =        -0.00069467
  eigenvalues    EBANDS =       369.99943768
  atomic energy  EATOM  =      1713.22913220
  ---------------------------------------------------
  free energy    TOTEN  =      -120.15652157 eV

  energy without entropy =     -120.15582690  energy(sigma->0) =     -120.15617424


--------------------------------------------------------------------------------------------------------




----------------------------------------- Iteration    1(   4)  ---------------------------------------


    EDDAV :  VPU time  205.69: CPU time  205.63
    DOS   :  VPU time    0.00: CPU time   -0.00
    ------------------------------------------
      LOOP:  VPU time  205.71: CPU time  205.66

 eigenvalue-minimisations  : 31564
 total energy-change (2. order) :-0.2952271E+00  (-0.2916917E+00)
 number of electron   96.0000000 magnetization 
 augmentation part    96.0000000 magnetization 

 Free energy of the ion-electron system (eV)
  ---------------------------------------------------
  alpha Z        PSCENC =        -6.73309839
  Ewald energy   TEWEN  =     -2378.57959861
  -1/2 Hartree   DENC   =        -2.88597594
  -V(xc)+E(xc)   XCENC  =      -837.75442371
  PAW double counting   =      1137.73615723     -115.16745734
  entropy T*S    EENTRO =        -0.00072747
  eigenvalues    EBANDS =       369.70424337
  atomic energy  EATOM  =      1713.22913220
  ---------------------------------------------------
  free energy    TOTEN  =      -120.45174868 eV

  energy without entropy =     -120.45102121  energy(sigma->0) =     -120.45138495


--------------------------------------------------------------------------------------------------------




----------------------------------------- Iteration    1(   5)  ---------------------------------------


    EDDAV :  VPU time  207.51: CPU time  207.46
    DOS   :  VPU time    0.00: CPU time   -0.00
    CHARGE:  VPU time   10.21: CPU time   10.21
    MIXING:  VPU time    0.01: CPU time    0.01
    ------------------------------------------
      LOOP:  VPU time  217.75: CPU time  217.70

 eigenvalue-minimisations  : 31624
 total energy-change (2. order) :-0.3962628E-02  (-0.3956475E-02)
 number of electron   96.0000001 magnetization 
 augmentation part    -1.1661415 magnetization 

 Broyden mixing:
  rms(total) = 0.53792E+00    rms(broyden)= 0.53791E+00
  rms(prec ) = 0.77629E+00
  weight for this iteration     100.00

 Free energy of the ion-electron system (eV)
  ---------------------------------------------------
  alpha Z        PSCENC =        -6.73309839
  Ewald energy   TEWEN  =     -2378.57959861
  -1/2 Hartree   DENC   =        -2.88597594
  -V(xc)+E(xc)   XCENC  =      -837.75442371
  PAW double counting   =      1137.73615723     -115.16745734
  entropy T*S    EENTRO =        -0.00072582
  eigenvalues    EBANDS =       369.70027908
  atomic energy  EATOM  =      1713.22913220
  ---------------------------------------------------
  free energy    TOTEN  =      -120.45571131 eV

  energy without entropy =     -120.45498549  energy(sigma->0) =     -120.45534840


--------------------------------------------------------------------------------------------------------




----------------------------------------- Iteration    1(   6)  ---------------------------------------


    POTLOK:  VPU time    0.34: CPU time    0.34
    SETDIJ:  VPU time    0.02: CPU time    0.02
    EDDAV :  VPU time  207.48: CPU time  207.43
    DOS   :  VPU time    0.00: CPU time   -0.00
    CHARGE:  VPU time   10.40: CPU time   10.40
    MIXING:  VPU time    0.01: CPU time    0.01
    ------------------------------------------
      LOOP:  VPU time  218.27: CPU time  218.22

 eigenvalue-minimisations  : 30744
 total energy-change (2. order) : 0.4291724E+00  (-0.4634879E-02)
 number of electron   96.0000001 magnetization 
 augmentation part    -1.1824560 magnetization 

 Broyden mixing:
  rms(total) = 0.33411E+00    rms(broyden)= 0.33411E+00
  rms(prec ) = 0.48405E+00
  weight for this iteration     100.00

 eigenvalues of (default mixing * dielectric matrix)
  average eigenvalue GAMMA=   2.6304
  2.6304

 Free energy of the ion-electron system (eV)
  ---------------------------------------------------
  alpha Z        PSCENC =        -6.73309839
  Ewald energy   TEWEN  =     -2378.57959861
  -1/2 Hartree   DENC   =        -2.56371835
  -V(xc)+E(xc)   XCENC  =      -836.54040275
  PAW double counting   =      1140.29285192     -117.89886185
  entropy T*S    EENTRO =        -0.00077180
  eigenvalues    EBANDS =       368.76792873
  atomic energy  EATOM  =      1713.22913220
  ---------------------------------------------------
  free energy    TOTEN  =      -120.02653890 eV

  energy without entropy =     -120.02576710  energy(sigma->0) =     -120.02615300


--------------------------------------------------------------------------------------------------------




----------------------------------------- Iteration    1(   7)  ---------------------------------------


    POTLOK:  VPU time    0.34: CPU time    0.34
    SETDIJ:  VPU time    0.02: CPU time    0.02
    EDDAV :  VPU time  200.01: CPU time  199.96
    DOS   :  VPU time    0.00: CPU time   -0.00
    CHARGE:  VPU time   11.41: CPU time   11.41
    MIXING:  VPU time    0.01: CPU time    0.01
    ------------------------------------------
      LOOP:  VPU time  211.81: CPU time  211.76

 eigenvalue-minimisations  : 29412
 total energy-change (2. order) : 0.3130491E+00  (-0.1390738E-01)
 number of electron   96.0000001 magnetization 
 augmentation part    -1.2146525 magnetization 

 Broyden mixing:
  rms(total) = 0.13613E-01    rms(broyden)= 0.13613E-01
  rms(prec ) = 0.16239E-01
  weight for this iteration     100.00

 eigenvalues of (default mixing * dielectric matrix)
  average eigenvalue GAMMA=   2.5095
  2.5095  2.5095

 Free energy of the ion-electron system (eV)
  ---------------------------------------------------
  alpha Z        PSCENC =        -6.73309839
  Ewald energy   TEWEN  =     -2378.57959861
  -1/2 Hartree   DENC   =        -3.44753453
  -V(xc)+E(xc)   XCENC  =      -834.10026362
  PAW double counting   =      1143.95493108     -121.90394925
  entropy T*S    EENTRO =        -0.00075509
  eigenvalues    EBANDS =       367.86764645
  atomic energy  EATOM  =      1713.22913220
  ---------------------------------------------------
  free energy    TOTEN  =      -119.71348977 eV

  energy without entropy =     -119.71273468  energy(sigma->0) =     -119.71311222


[...]
     64      10.4034      0.00000
     65      11.6767      0.00000
     66      11.6771      0.00000
     67      11.6773      0.00000
     68      11.6776      0.00000

 k-point 194 :       0.3333    0.5000    0.5000
  band No.  band energies     occupation 
      1      -1.6070      2.00000
      2      -1.6069      2.00000
      3      -1.6069      2.00000
      4      -1.6069      2.00000
      5      -0.8448      2.00000
      6      -0.8448      2.00000
      7      -0.8448      2.00000
      8      -0.8448      2.00000
      9       2.1591      2.00000
     10       2.1591      2.00000
     11       2.1591      2.00000
     12       2.1591      2.00000
     13       2.8949      2.00000
     14       2.8949      2.00000
     15       2.8949      2.00000
     16       2.8949      2.00000
     17       2.8949      2.00000
     18       2.8949      2.00000
     19       2.8950      2.00000
     20       2.8950      2.00000
     21       3.6293      2.00000
     22       3.6293      2.00000
     23       3.6294      2.00000
     24       3.6294      2.00000
     25       3.6294      2.00000
     26       3.6295      2.00000
     27       3.6296      2.00000
     28       3.6296      2.00000
     29       4.3454      2.00000
     30       4.3454      2.00000
     31       4.3454      2.00000
     32       4.3454      2.00000
     33       6.5673      2.00000
     34       6.5673      2.00000
     35       6.5677      2.00000
     36       6.5677      2.00000
     37       6.5677      2.00000
     38       6.5677      2.00000
     39       6.5681      2.00000
     40       6.5681      2.00000
     41       7.2720      2.00000
     42       7.2720      2.00000
     43       7.2720      2.00000
     44       7.2720      2.00000
     45       8.0003      2.00000
     46       8.0003      2.00000
     47       8.0003      2.00000
     48       8.0003      2.00000
     49       8.6844      0.00000
     50       8.6844      0.00000
     51       8.6848      0.00000
     52       8.6848      0.00000
     53       8.6848      0.00000
     54       8.6848      0.00000
     55       8.6852      0.00000
     56       8.6852      0.00000
     57      10.4072      0.00000
     58      10.4073      0.00000
     59      10.4073      0.00000
     60      10.4073      0.00000
     61      10.8610      0.00000
     62      10.8610      0.00000
     63      10.8610      0.00000
     64      10.8610      0.00000
     65      11.7919      0.00000
     66      11.7921      0.00000
     67      11.7924      0.00000
     68      11.7926      0.00000

 k-point 195 :       0.4167    0.5000    0.5000
  band No.  band energies     occupation 
      1      -1.4638      2.00000
      2      -1.4637      2.00000
      3      -1.4637      2.00000
      4      -1.4637      2.00000
      5      -1.0825      2.00000
      6      -1.0825      2.00000
      7      -1.0825      2.00000
      8      -1.0825      2.00000
      9       2.6669      2.00000
     10       2.6669      2.00000
     11       2.6669      2.00000
     12       2.6669      2.00000
     13       3.0332      2.00000
     14       3.0332      2.00000
     15       3.0332      2.00000
     16       3.0332      2.00000
     17       3.0332      2.00000
     18       3.0332      2.00000
     19       3.0332      2.00000
     20       3.0332      2.00000
     21       3.4007      2.00000
     22       3.4007      2.00000
     23       3.4008      2.00000
     24       3.4008      2.00000
     25       3.4008      2.00000
     26       3.4008      2.00000
     27       3.4009      2.00000
     28       3.4009      2.00000
     29       3.7623      2.00000
     30       3.7623      2.00000
     31       3.7623      2.00000
     32       3.7624      2.00000
     33       7.0588      2.00000
     34       7.0588      2.00000
     35       7.0592      2.00000
     36       7.0592      2.00000
     37       7.0592      2.00000
     38       7.0592      2.00000
     39       7.0595      2.00000
     40       7.0595      2.00000
     41       7.4103      2.00000
     42       7.4103      2.00000
     43       7.4103      2.00000
     44       7.4103      2.00000
     45       7.7741      2.00000
     46       7.7741      2.00000
     47       7.7741      2.00000
     48       7.7741      2.00000
     49       8.1201      2.00000
     50       8.1201      2.00000
     51       8.1205      2.00000
     52       8.1205      2.00000
     53       8.1205      2.00000
     54       8.1205      2.00000
     55       8.1209      2.00000
     56       8.1209      2.00000
     57      11.2339      0.00000
     58      11.2340      0.00000
     59      11.2340      0.00000
     60      11.2340      0.00000
     61      11.3457      0.00000
     62      11.3457      0.00000
     63      11.3457      0.00000
     64      11.3457      0.00000
     65      11.9294      0.00000
     66      11.9296      0.00000
     67      11.9299      0.00000
     68      11.9302      0.00000

 k-point 196 :       0.5000    0.5000    0.5000
  band No.  band energies     occupation 
      1      -1.2937      2.00000
      2      -1.2893      2.00000
      3      -1.2893      2.00000
      4      -1.2889      2.00000
      5      -1.2889      2.00000
      6      -1.2884      2.00000
      7      -1.2884      2.00000
      8      -1.2840      2.00000
      9       3.1916      2.00000
     10       3.1977      2.00000
     11       3.1977      2.00000
     12       3.2010      2.00000
     13       3.2013      2.00000
     14       3.2014      2.00000
     15       3.2018      2.00000
     16       3.2018      2.00000
     17       3.2019      2.00000
     18       3.2019      2.00000
     19       3.2019      2.00000
     20       3.2019      2.00000
     21       3.2019      2.00000
     22       3.2019      2.00000
     23       3.2019      2.00000
     24       3.2019      2.00000
     25       3.2020      2.00000
     26       3.2020      2.00000
     27       3.2024      2.00000
     28       3.2025      2.00000
     29       3.2028      2.00000
     30       3.2061      2.00000
     31       3.2061      2.00000
     32       3.2122      2.00000
     33       7.5713      2.00000
     34       7.5713      2.00000
     35       7.5735      2.00000
     36       7.5752      2.00000
     37       7.5767      2.00000
     38       7.5771      2.00000
     39       7.5772      2.00000
     40       7.5772      2.00000
     41       7.5775      2.00000
     42       7.5775      2.00000
     43       7.5775      2.00000
     44       7.5775      2.00000
     45       7.5775      2.00000
     46       7.5775      2.00000
     47       7.5775      2.00000
     48       7.5775      2.00000
     49       7.5778      2.00000
     50       7.5778      2.00000
     51       7.5779      2.00000
     52       7.5783      2.00000
     53       7.5798      2.00000
     54       7.5816      2.00000
     55       7.5837      2.00000
     56       7.5837      2.00000
     57      11.8549      0.00000
     58      11.8551      0.00000
     59      11.8551      0.00000
     60      11.8555      0.00000
     61      11.8572      0.00000
     62      11.8577      0.00000
     63      11.8577      0.00000
     64      11.8581      0.00000
     65      12.0913      0.00000
     66      12.0920      0.00000
     67      12.0925      0.00000
     68      12.0936      0.00000


--------------------------------------------------------------------------------------------------------


 soft charge-density along one line, spin component           1
         0         1         2         3         4         5         6         7         8         9
 total charge-density along one line
 
 pseudopotential strength for first ion, spin component:           1
  8.433  -0.007  -0.000   0.000  -0.000  -0.000   0.000  -0.000
 -0.007   0.000  -0.000   0.000  -0.000   0.000  -0.000   0.000
 -0.000  -0.000   1.990  -0.000  -0.000  -0.028   0.000   0.000
  0.000   0.000  -0.000   1.990   0.000   0.000  -0.028  -0.000
 -0.000  -0.000  -0.000   0.000   1.990   0.000  -0.000  -0.028
 -0.000   0.000  -0.028   0.000   0.000  -0.012   0.000   0.000
  0.000  -0.000   0.000  -0.028  -0.000   0.000  -0.012  -0.000
 -0.000   0.000   0.000  -0.000  -0.028   0.000  -0.000  -0.012
 total augmentation occupancy for first ion, spin component:           1
  1.318  -0.515  -0.000   0.000   0.002   0.000  -0.000  -0.002
 -0.515   0.512   0.000   0.000  -0.003   0.000  -0.000   0.001
 -0.000   0.000   0.755   0.003   0.007  -0.157  -0.001  -0.001
  0.000   0.000   0.003   0.763  -0.002  -0.001  -0.154  -0.001
  0.002  -0.003   0.007  -0.002   0.759  -0.001  -0.001  -0.155
  0.000   0.000  -0.157  -0.001  -0.001   0.037   0.000   0.000
 -0.000  -0.000  -0.001  -0.154  -0.001   0.000   0.036   0.000
 -0.002   0.001  -0.001  -0.001  -0.155   0.000   0.000   0.037


------------------------ aborting loop because EDIFF is reached ----------------------------------------




--------------------------------------------------------------------------------------------------------


    CHARGE:  VPU time    8.90: CPU time    8.89
    FORLOC:  VPU time    0.06: CPU time    0.06
    FORNL :  VPU time   58.01: CPU time   57.99
    STRESS:  VPU time  121.68: CPU time  121.63
    FORCOR:  VPU time    0.34: CPU time    0.34
    FORHAR:  VPU time    0.11: CPU time    0.11
    MIXING:  VPU time    0.01: CPU time    0.01


--------------------------------------------------------------------------------------------------------



  FREE ENERGIE OF THE ION-ELECTRON SYSTEM (eV)
  ---------------------------------------------------
  free  energy   TOTEN  =      -119.713680 eV

  energy  without entropy=     -119.712923  energy(sigma->0) =     -119.713302
 

  FORCE on cell =-STRESS in cart. coord.  units (eV/reduce length):
  Direction    X        Y        Z        XY       YZ       ZX
  --------------------------------------------------------------------------------------
  Alpha Z     -6.73     -6.73     -6.73
  Ewald     -792.87   -792.86   -792.86     -0.00     -0.00     -0.00
  Hartree      1.17      1.18      1.18     -0.00     -0.00     -0.00
  E(xc)     -276.97   -276.97   -276.97      0.00     -0.00      0.00
  Local       15.65     15.65     15.65     -0.00      0.00      0.00
  n-local    609.88    609.80    609.96     -1.06     -0.28      0.50
  augment    -32.47    -32.47    -32.47      0.00      0.00      0.00
  Kinetic    490.85    483.59    498.11      6.43      0.75     -4.92
  -------------------------------------------------------------------------------------
  Total        8.53      8.53      8.53      0.00      0.00      0.00
  in kB       26.76     26.76     26.76      0.00      0.00      0.00
  external pressure =       26.76 kB  Pullay stress =        0.00 kB


 VOLUME and BASIS-vectors are now :
 -----------------------------------------------------------------------------
  energy-cutoff  :      500.00
  volume of cell :      510.82
      direct lattice vectors                 reciprocal lattice vectors
     7.993866612  0.000000000  0.000000000     0.125095908  0.000000000  0.000000000
     0.000000000  7.993866612  0.000000000     0.000000000  0.125095908  0.000000000
     0.000000000  0.000000000  7.993866612     0.000000000  0.000000000  0.125095908

  length of vectors
     7.993866612  7.993866612  7.993866612     0.125095908  0.125095908  0.125095908


 FORCES acting on ions
    electron-ion (+dipol)            ewald-force                    non-local-force                 convergence-correction
 -----------------------------------------------------------------------------------------------
   0.402E+00 -.242E-14 -.127E-07   -.329E+00 -.400E-14 -.452E-14   -.125E+00 -.155E-19 0.207E-19   -.308E-06 0.470E-14 -.182E-13
   -.880E-01 0.230E-12 -.995E-13   0.869E-01 0.622E-14 -.457E-14   0.341E-02 -.306E-20 0.127E-20   0.238E-05 0.675E-14 -.254E-13
   0.284E-01 0.986E-14 -.125E-13   -.275E-01 0.444E-14 -.590E-14   -.100E-02 0.242E-19 -.318E-21   0.155E-05 -.542E-14 -.167E-13
   -.216E-01 -.348E-12 -.302E-13   0.216E-01 0.444E-14 -.945E-14   0.459E-03 0.210E-19 0.506E-20   -.311E-05 -.739E-14 -.218E-13
   0.284E-01 0.107E-13 -.772E-13   -.275E-01 0.711E-14 -.911E-14   -.100E-02 -.352E-20 0.763E-20   0.156E-05 0.246E-14 0.186E-13
   -.216E-01 -.591E-13 -.972E-14   0.216E-01 0.711E-14 -.911E-14   0.459E-03 -.319E-19 -.158E-19   -.312E-05 0.269E-14 0.258E-13
   0.124E-01 -.224E-13 -.369E-13   -.114E-01 0.533E-14 -.379E-14   -.434E-03 -.140E-19 0.436E-20   -.210E-05 -.315E-14 0.171E-13
   -.108E-01 0.135E-12 0.359E-12   0.106E-01 0.533E-14 -.233E-15   -.365E-03 -.367E-20 0.364E-20   0.151E-05 -.331E-14 0.222E-13
   0.497E-01 -.231E-03 0.231E-03   -.519E-01 0.204E-03 -.204E-03   0.758E-03 0.499E-04 -.499E-04   -.696E-06 -.173E-06 0.173E-06
   -.316E-01 0.796E-04 -.796E-04   0.292E-01 -.612E-04 0.612E-04   0.170E-02 -.197E-04 0.197E-04   -.135E-06 -.123E-06 0.123E-06
   0.497E-01 0.231E-03 0.231E-03   -.519E-01 -.204E-03 -.204E-03   0.758E-03 -.499E-04 -.499E-04   -.696E-06 0.173E-06 0.173E-06
   -.316E-01 -.796E-04 -.796E-04   0.292E-01 0.612E-04 0.612E-04   0.170E-02 0.197E-04 0.197E-04   -.135E-06 0.123E-06 0.123E-06
   0.497E-01 -.231E-03 -.231E-03   -.519E-01 0.204E-03 0.204E-03   0.758E-03 0.499E-04 0.499E-04   -.696E-06 -.173E-06 -.173E-06
   -.316E-01 0.796E-04 0.796E-04   0.292E-01 -.612E-04 -.612E-04   0.170E-02 -.197E-04 -.197E-04   -.135E-06 -.123E-06 -.123E-06
   0.497E-01 0.231E-03 -.231E-03   -.519E-01 -.204E-03 0.204E-03   0.758E-03 -.499E-04 0.499E-04   -.696E-06 0.173E-06 -.173E-06
   -.316E-01 -.796E-04 0.796E-04   0.292E-01 0.612E-04 -.612E-04   0.170E-02 0.197E-04 -.197E-04   -.135E-06 0.123E-06 -.123E-06
   -.494E-01 0.650E-15 0.872E-01   0.420E-01 -.311E-14 -.796E-01   0.146E-01 -.107E-19 -.151E-01   0.374E-07 0.363E-14 -.169E-05
   -.493E-01 -.312E-12 -.881E-01   0.418E-01 -.355E-14 0.803E-01   0.148E-01 -.338E-20 0.155E-01   -.347E-07 0.280E-14 0.197E-05
   -.963E-03 -.109E-13 0.683E-02   0.140E-02 -.400E-14 -.659E-02   -.458E-03 0.307E-20 -.125E-03   0.714E-06 -.424E-14 0.217E-05
   -.836E-03 -.506E-13 -.684E-02   0.127E-02 -.355E-14 0.660E-02   -.448E-03 0.539E-20 0.125E-03   0.535E-06 -.352E-14 -.196E-05
   -.494E-01 -.441E-15 -.872E-01   0.420E-01 -.311E-14 0.796E-01   0.146E-01 0.975E-20 0.151E-01   0.374E-07 0.511E-14 0.169E-05
   -.493E-01 0.806E-13 0.881E-01   0.418E-01 -.355E-14 -.803E-01   0.148E-01 -.180E-19 -.155E-01   -.347E-07 0.507E-14 -.197E-05
   -.963E-03 -.148E-13 -.683E-02   0.140E-02 -.577E-14 0.659E-02   -.458E-03 -.139E-20 0.125E-03   0.714E-06 -.569E-14 -.217E-05
   -.836E-03 0.133E-12 0.684E-02   0.127E-02 -.178E-14 -.660E-02   -.448E-03 -.141E-20 -.125E-03   0.535E-06 -.576E-14 0.196E-05
   -.494E-01 -.872E-01 0.489E-14   0.420E-01 0.796E-01 0.763E-14   0.146E-01 0.151E-01 0.164E-19   0.383E-07 0.169E-05 -.205E-13
   -.493E-01 0.881E-01 0.307E-13   0.418E-01 -.803E-01 0.496E-14   0.148E-01 -.155E-01 -.356E-20   -.338E-07 -.197E-05 -.187E-13
   -.494E-01 0.872E-01 -.925E-15   0.420E-01 -.796E-01 0.185E-14   0.146E-01 -.151E-01 0.180E-19   0.383E-07 -.169E-05 -.220E-13
   -.493E-01 -.881E-01 0.397E-13   0.418E-01 0.803E-01 0.318E-14   0.148E-01 0.155E-01 0.222E-19   -.338E-07 0.197E-05 -.209E-13
   -.963E-03 -.683E-02 -.724E-14   0.140E-02 0.659E-02 0.127E-14   -.458E-03 0.125E-03 0.552E-20   0.713E-06 -.217E-05 0.209E-13
   -.836E-03 0.684E-02 -.103E-12   0.127E-02 -.660E-02 0.571E-14   -.448E-03 -.125E-03 0.350E-20   0.534E-06 0.197E-05 0.191E-13
   -.963E-03 0.683E-02 -.360E-14   0.140E-02 -.659E-02 0.348E-14   -.458E-03 -.125E-03 -.110E-20   0.713E-06 0.217E-05 0.224E-13
   -.836E-03 -.684E-02 0.102E-12   0.127E-02 0.660E-02 0.570E-14   -.448E-03 0.125E-03 -.999E-20   0.534E-06 -.197E-05 0.213E-13
 -----------------------------------------------------------------------------------------------
   -.117E-05 0.225E-12 -.127E-07   -.367E-14 -.877E-14 -.227E-13   -.469E-05 0.171E-17 0.192E-17   0.554E-07 0.436E-16 0.668E-17
 
 
 POSITION                                       TOTAL-FORCE (eV/Angst)
 -----------------------------------------------------------------------------------
      2.00847      1.99847      0.00000        -0.052773      0.000000     -0.000000
      5.99540      1.99847      0.00000         0.002361      0.000000      0.000000
      1.99847      5.99540      0.00000        -0.000118      0.000000      0.000000
      5.99540      5.99540      0.00000         0.000515     -0.000000      0.000000
      1.99847      1.99847      3.99693        -0.000118      0.000000      0.000000
      5.99540      1.99847      3.99693         0.000515     -0.000000      0.000000
      1.99847      5.99540      3.99693         0.000605      0.000000      0.000000
      5.99540      5.99540      3.99693        -0.000550     -0.000000      0.000000
      1.99847      0.00000      1.99847        -0.001433      0.000023     -0.000023
      5.99540      0.00000      1.99847        -0.000684     -0.000001      0.000001
      1.99847      3.99693      1.99847        -0.001433     -0.000023     -0.000023
      5.99540      3.99693      1.99847        -0.000684      0.000001      0.000001
      1.99847      0.00000      5.99540        -0.001433      0.000023      0.000023
      5.99540      0.00000      5.99540        -0.000684     -0.000001     -0.000001
      1.99847      3.99693      5.99540        -0.001433     -0.000023      0.000023
      5.99540      3.99693      5.99540        -0.000684      0.000001     -0.000001
      0.00000      1.99847      1.99847         0.007187     -0.000000     -0.007441
      3.99693      1.99847      1.99847         0.007351     -0.000000      0.007676
      0.00000      5.99540      1.99847        -0.000018     -0.000000      0.000119
      3.99693      5.99540      1.99847        -0.000012      0.000000     -0.000116
      0.00000      1.99847      5.99540         0.007187      0.000000      0.007441
      3.99693      1.99847      5.99540         0.007351      0.000000     -0.007676
      0.00000      5.99540      5.99540        -0.000018     -0.000000     -0.000119
      3.99693      5.99540      5.99540        -0.000012     -0.000000      0.000116
      0.00000      0.00000      0.00000         0.007187      0.007441      0.000000
      3.99693      0.00000      0.00000         0.007351     -0.007676     -0.000000
      0.00000      3.99693      0.00000         0.007187     -0.007441     -0.000000
      3.99693      3.99693      0.00000         0.007351      0.007676      0.000000
      0.00000      0.00000      3.99693        -0.000018     -0.000119     -0.000000
      3.99693      0.00000      3.99693        -0.000012      0.000116     -0.000000
      0.00000      3.99693      3.99693        -0.000018      0.000119      0.000000
      3.99693      3.99693      3.99693        -0.000012     -0.000116      0.000000
 -----------------------------------------------------------------------------------
    total drift:                               -0.000006      0.000000     -0.000000


--------------------------------------------------------------------------------------------------------



 mean value of Nose-termostat <S>:     1.000 mean value of <T> :     0.000
 mean temperature <T/S>/<1/S>  :     0.000

     LOOP+:  VPU time 2938.27: CPU time 2937.54
  
  
 General timing and accounting informations for this job:
 ========================================================
  
                  Total CPU time used (sec):     2972.059
                            User time (sec):     2674.786
                          System time (sec):      297.273
                         Elapsed time (sec):     2971.323
  
                   Maximum memory used (kb):     4336632.
                   Average memory used (kb):           0.
  
                          Minor page faults:       857929
                          Major page faults:            0
                 Voluntary context switches:          921
