<?xml version="1.0" encoding="ISO-8859-1"?>
<modeling>
 <generator>
  <i name="program" type="string">vasp</i>
  <i name="version" type="string">4.6.28 </i>
  <i name="subversion" type="string">25Jul05 complex  parallel</i>
  <i name="platform" type="string">LinuxIFC</i>
  <i name="date" type="string">2016 10 21</i>
  <i name="time" type="string">16:38:36</i>
 </generator>
 <incar>
  <i type="string" name="PREC">accurate</i>
  <i type="int" name="IALGO">    38</i>
  <i name="EDIFF">      0.00000001</i>
  <i type="int" name="IBRION">    -1</i>
  <i name="ENCUT">    500.00000000</i>
  <i type="logical" name="LREAL"> F  </i>
  <i type="int" name="ISMEAR">     0</i>
  <i name="SIGMA">      0.01000000</i>
  <i type="logical" name="LWAVE"> F  </i>
  <i type="logical" name="LCHARG"> F  </i>
 </incar>
 <kpoints>
  <generation param="Gamma">
   <v type="int" name="divisions">      12      12      12</v>
   <v name="usershift">      0.00000000      0.00000000      0.00000000</v>
   <v name="genvec1">      0.08333333      0.00000000      0.00000000</v>
   <v name="genvec2">      0.00000000      0.08333333      0.00000000</v>
   <v name="genvec3">      0.00000000      0.00000000      0.08333333</v>
   <v name="shift">      0.00000000      0.00000000      0.00000000</v>
  </generation>
  <varray name="kpointlist" >
   <v>       0.00000000      0.00000000      0.00000000</v>
   <v>       0.08333333      0.00000000      0.00000000</v>
   <v>       0.16666667      0.00000000      0.00000000</v>
   <v>       0.25000000      0.00000000      0.00000000</v>
   <v>       0.33333333      0.00000000      0.00000000</v>
   <v>       0.41666667      0.00000000      0.00000000</v>
   <v>       0.50000000      0.00000000      0.00000000</v>
   <v>       0.00000000      0.08333333      0.00000000</v>
   <v>       0.08333333      0.08333333      0.00000000</v>
   <v>       0.16666667      0.08333333      0.00000000</v>
   <v>       0.25000000      0.08333333      0.00000000</v>
   <v>       0.33333333      0.08333333      0.00000000</v>
   <v>       0.41666667      0.08333333      0.00000000</v>
   <v>       0.50000000      0.08333333      0.00000000</v>
   <v>       0.00000000      0.16666667      0.00000000</v>
   <v>       0.08333333      0.16666667      0.00000000</v>
   <v>       0.16666667      0.16666667      0.00000000</v>
   <v>       0.25000000      0.16666667      0.00000000</v>
   <v>       0.33333333      0.16666667      0.00000000</v>
   <v>       0.41666667      0.16666667      0.00000000</v>
   <v>       0.50000000      0.16666667      0.00000000</v>
   <v>       0.00000000      0.25000000      0.00000000</v>
   <v>       0.08333333      0.25000000      0.00000000</v>
   <v>       0.16666667      0.25000000      0.00000000</v>
   <v>       0.25000000      0.25000000      0.00000000</v>
   <v>       0.33333333      0.25000000      0.00000000</v>
   <v>       0.41666667      0.25000000      0.00000000</v>
   <v>       0.50000000      0.25000000      0.00000000</v>
   <v>       0.00000000      0.33333333      0.00000000</v>
   <v>       0.08333333      0.33333333      0.00000000</v>
   <v>       0.16666667      0.33333333      0.00000000</v>
   <v>       0.25000000      0.33333333      0.00000000</v>
   <v>       0.33333333      0.33333333      0.00000000</v>
   <v>       0.41666667      0.33333333      0.00000000</v>
   <v>       0.50000000      0.33333333      0.00000000</v>
   <v>       0.00000000      0.41666667      0.00000000</v>
   <v>       0.08333333      0.41666667      0.00000000</v>
   <v>       0.16666667      0.41666667      0.00000000</v>
   <v>       0.25000000      0.41666667      0.00000000</v>
   <v>       0.33333333      0.41666667      0.00000000</v>
   <v>       0.41666667      0.41666667      0.00000000</v>
   <v>       0.50000000      0.41666667      0.00000000</v>
   <v>       0.00000000      0.50000000      0.00000000</v>
   <v>       0.08333333      0.50000000      0.00000000</v>
   <v>       0.16666667      0.50000000      0.00000000</v>
   <v>       0.25000000      0.50000000      0.00000000</v>
   <v>       0.33333333      0.50000000      0.00000000</v>
   <v>       0.41666667      0.50000000      0.00000000</v>
   <v>       0.50000000      0.50000000      0.00000000</v>
   <v>       0.00000000      0.08333333      0.08333333</v>
   <v>       0.08333333      0.08333333      0.08333333</v>
   <v>       0.16666667      0.08333333      0.08333333</v>
   <v>       0.25000000      0.08333333      0.08333333</v>
   <v>       0.33333333      0.08333333      0.08333333</v>
   <v>       0.41666667      0.08333333      0.08333333</v>
   <v>       0.50000000      0.08333333      0.08333333</v>
   <v>       0.00000000      0.16666667      0.08333333</v>
   <v>       0.08333333      0.16666667      0.08333333</v>
   <v>       0.16666667      0.16666667      0.08333333</v>
   <v>       0.25000000      0.16666667      0.08333333</v>
   <v>       0.33333333      0.16666667      0.08333333</v>
   <v>       0.41666667      0.16666667      0.08333333</v>
   <v>       0.50000000      0.16666667      0.08333333</v>
   <v>       0.00000000      0.25000000      0.08333333</v>
   <v>       0.08333333      0.25000000      0.08333333</v>
   <v>       0.16666667      0.25000000      0.08333333</v>
   <v>       0.25000000      0.25000000      0.08333333</v>
   <v>       0.33333333      0.25000000      0.08333333</v>
   <v>       0.41666667      0.25000000      0.08333333</v>
   <v>       0.50000000      0.25000000      0.08333333</v>
   <v>       0.00000000      0.33333333      0.08333333</v>
   <v>       0.08333333      0.33333333      0.08333333</v>
   <v>       0.16666667      0.33333333      0.08333333</v>
   <v>       0.25000000      0.33333333      0.08333333</v>
   <v>       0.33333333      0.33333333      0.08333333</v>
   <v>       0.41666667      0.33333333      0.08333333</v>
   <v>       0.50000000      0.33333333      0.08333333</v>
   <v>       0.00000000      0.41666667      0.08333333</v>
   <v>       0.08333333      0.41666667      0.08333333</v>
   <v>       0.16666667      0.41666667      0.08333333</v>
   <v>       0.25000000      0.41666667      0.08333333</v>
   <v>       0.33333333      0.41666667      0.08333333</v>
   <v>       0.41666667      0.41666667      0.08333333</v>
   <v>       0.50000000      0.41666667      0.08333333</v>
   <v>       0.00000000      0.50000000      0.08333333</v>
   <v>       0.08333333      0.50000000      0.08333333</v>
   <v>       0.16666667      0.50000000      0.08333333</v>
   <v>       0.25000000      0.50000000      0.08333333</v>
   <v>       0.33333333      0.50000000      0.08333333</v>
   <v>       0.41666667      0.50000000      0.08333333</v>
   <v>       0.50000000      0.50000000      0.08333333</v>
   <v>       0.00000000      0.16666667      0.16666667</v>
   <v>       0.08333333      0.16666667      0.16666667</v>
   <v>       0.16666667      0.16666667      0.16666667</v>
   <v>       0.25000000      0.16666667      0.16666667</v>
   <v>       0.33333333      0.16666667      0.16666667</v>
   <v>       0.41666667      0.16666667      0.16666667</v>
   <v>       0.50000000      0.16666667      0.16666667</v>
   <v>       0.00000000      0.25000000      0.16666667</v>
   <v>       0.08333333      0.25000000      0.16666667</v>
   <v>       0.16666667      0.25000000      0.16666667</v>
   <v>       0.25000000      0.25000000      0.16666667</v>
   <v>       0.33333333      0.25000000      0.16666667</v>
   <v>       0.41666667      0.25000000      0.16666667</v>
   <v>       0.50000000      0.25000000      0.16666667</v>
   <v>       0.00000000      0.33333333      0.16666667</v>
   <v>       0.08333333      0.33333333      0.16666667</v>
   <v>       0.16666667      0.33333333      0.16666667</v>
   <v>       0.25000000      0.33333333      0.16666667</v>
   <v>       0.33333333      0.33333333      0.16666667</v>
   <v>       0.41666667      0.33333333      0.16666667</v>
   <v>       0.50000000      0.33333333      0.16666667</v>
   <v>       0.00000000      0.41666667      0.16666667</v>
   <v>       0.08333333      0.41666667      0.16666667</v>
   <v>       0.16666667      0.41666667      0.16666667</v>
   <v>       0.25000000      0.41666667      0.16666667</v>
   <v>       0.33333333      0.41666667      0.16666667</v>
   <v>       0.41666667      0.41666667      0.16666667</v>
   <v>       0.50000000      0.41666667      0.16666667</v>
   <v>       0.00000000      0.50000000      0.16666667</v>
   <v>       0.08333333      0.50000000      0.16666667</v>
   <v>       0.16666667      0.50000000      0.16666667</v>
   <v>       0.25000000      0.50000000      0.16666667</v>
   <v>       0.33333333      0.50000000      0.16666667</v>
   <v>       0.41666667      0.50000000      0.16666667</v>
   <v>       0.50000000      0.50000000      0.16666667</v>
   <v>       0.00000000      0.25000000      0.25000000</v>
   <v>       0.08333333      0.25000000      0.25000000</v>
   <v>       0.16666667      0.25000000      0.25000000</v>
   <v>       0.25000000      0.25000000      0.25000000</v>
   <v>       0.33333333      0.25000000      0.25000000</v>
   <v>       0.41666667      0.25000000      0.25000000</v>
   <v>       0.50000000      0.25000000      0.25000000</v>
   <v>       0.00000000      0.33333333      0.25000000</v>
   <v>       0.08333333      0.33333333      0.25000000</v>
   <v>       0.16666667      0.33333333      0.25000000</v>
   <v>       0.25000000      0.33333333      0.25000000</v>
   <v>       0.33333333      0.33333333      0.25000000</v>
   <v>       0.41666667      0.33333333      0.25000000</v>
   <v>       0.50000000      0.33333333      0.25000000</v>
   <v>       0.00000000      0.41666667      0.25000000</v>
   <v>       0.08333333      0.41666667      0.25000000</v>
   <v>       0.16666667      0.41666667      0.25000000</v>
   <v>       0.25000000      0.41666667      0.25000000</v>
   <v>       0.33333333      0.41666667      0.25000000</v>
   <v>       0.41666667      0.41666667      0.25000000</v>
   <v>       0.50000000      0.41666667      0.25000000</v>
   <v>       0.00000000      0.50000000      0.25000000</v>
   <v>       0.08333333      0.50000000      0.25000000</v>
   <v>       0.16666667      0.50000000      0.25000000</v>
   <v>       0.25000000      0.50000000      0.25000000</v>
   <v>       0.33333333      0.50000000      0.25000000</v>
   <v>       0.41666667      0.50000000      0.25000000</v>
   <v>       0.50000000      0.50000000      0.25000000</v>
   <v>       0.00000000      0.33333333      0.33333333</v>
   <v>       0.08333333      0.33333333      0.33333333</v>
   <v>       0.16666667      0.33333333      0.33333333</v>
   <v>       0.25000000      0.33333333      0.33333333</v>
   <v>       0.33333333      0.33333333      0.33333333</v>
   <v>       0.41666667      0.33333333      0.33333333</v>
   <v>       0.50000000      0.33333333      0.33333333</v>
   <v>       0.00000000      0.41666667      0.33333333</v>
   <v>       0.08333333      0.41666667      0.33333333</v>
   <v>       0.16666667      0.41666667      0.33333333</v>
   <v>       0.25000000      0.41666667      0.33333333</v>
   <v>       0.33333333      0.41666667      0.33333333</v>
   <v>       0.41666667      0.41666667      0.33333333</v>
   <v>       0.50000000      0.41666667      0.33333333</v>
   <v>       0.00000000      0.50000000      0.33333333</v>
   <v>       0.08333333      0.50000000      0.33333333</v>
   <v>       0.16666667      0.50000000      0.33333333</v>
   <v>       0.25000000      0.50000000      0.33333333</v>
   <v>       0.33333333      0.50000000      0.33333333</v>
   <v>       0.41666667      0.50000000      0.33333333</v>
   <v>       0.50000000      0.50000000      0.33333333</v>
   <v>       0.00000000      0.41666667      0.41666667</v>
   <v>       0.08333333      0.41666667      0.41666667</v>
   <v>       0.16666667      0.41666667      0.41666667</v>
   <v>       0.25000000      0.41666667      0.41666667</v>
   <v>       0.33333333      0.41666667      0.41666667</v>
   <v>       0.41666667      0.41666667      0.41666667</v>
   <v>       0.50000000      0.41666667      0.41666667</v>
   <v>       0.00000000      0.50000000      0.41666667</v>
   <v>       0.08333333      0.50000000      0.41666667</v>
   <v>       0.16666667      0.50000000      0.41666667</v>
   <v>       0.25000000      0.50000000      0.41666667</v>
   <v>       0.33333333      0.50000000      0.41666667</v>
   <v>       0.41666667      0.50000000      0.41666667</v>
   <v>       0.50000000      0.50000000      0.41666667</v>
   <v>       0.00000000      0.50000000      0.50000000</v>
   <v>       0.08333333      0.50000000      0.50000000</v>
   <v>       0.16666667      0.50000000      0.50000000</v>
   <v>       0.25000000      0.50000000      0.50000000</v>
   <v>       0.33333333      0.50000000      0.50000000</v>
   <v>       0.41666667      0.50000000      0.50000000</v>
   <v>       0.50000000      0.50000000      0.50000000</v>
  </varray>
  <varray name="weights" >
   <v>       0.00057870</v>
   <v>       0.00115741</v>
   <v>       0.00115741</v>
   <v>       0.00115741</v>
   <v>       0.00115741</v>
   <v>       0.00115741</v>
   <v>       0.00057870</v>
   <v>       0.00231481</v>
   <v>       0.00462963</v>
   <v>       0.00462963</v>
   <v>       0.00462963</v>
   <v>       0.00462963</v>
   <v>       0.00462963</v>
   <v>       0.00231481</v>
   <v>       0.00231481</v>
   <v>       0.00462963</v>
   <v>       0.00462963</v>
   <v>       0.00462963</v>
   <v>       0.00462963</v>
   <v>       0.00462963</v>
   <v>       0.00231481</v>
   <v>       0.00231481</v>
   <v>       0.00462963</v>
   <v>       0.00462963</v>
   <v>       0.00462963</v>
   <v>       0.00462963</v>
   <v>       0.00462963</v>
   <v>       0.00231481</v>
   <v>       0.00231481</v>
   <v>       0.00462963</v>
   <v>       0.00462963</v>
   <v>       0.00462963</v>
   <v>       0.00462963</v>
   <v>       0.00462963</v>
   <v>       0.00231481</v>
   <v>       0.00231481</v>
   <v>       0.00462963</v>
   <v>       0.00462963</v>
   <v>       0.00462963</v>
   <v>       0.00462963</v>
   <v>       0.00462963</v>
   <v>       0.00231481</v>
   <v>       0.00115741</v>
   <v>       0.00231481</v>
   <v>       0.00231481</v>
   <v>       0.00231481</v>
   <v>       0.00231481</v>
   <v>       0.00231481</v>
   <v>       0.00115741</v>
   <v>       0.00231481</v>
   <v>       0.00462963</v>
   <v>       0.00462963</v>
   <v>       0.00462963</v>
   <v>       0.00462963</v>
   <v>       0.00462963</v>
   <v>       0.00231481</v>
   <v>       0.00462963</v>
   <v>       0.00925926</v>
   <v>       0.00925926</v>
   <v>       0.00925926</v>
   <v>       0.00925926</v>
   <v>       0.00925926</v>
   <v>       0.00462963</v>
   <v>       0.00462963</v>
   <v>       0.00925926</v>
   <v>       0.00925926</v>
   <v>       0.00925926</v>
   <v>       0.00925926</v>
   <v>       0.00925926</v>
   <v>       0.00462963</v>
   <v>       0.00462963</v>
   <v>       0.00925926</v>
   <v>       0.00925926</v>
   <v>       0.00925926</v>
   <v>       0.00925926</v>
   <v>       0.00925926</v>
   <v>       0.00462963</v>
   <v>       0.00462963</v>
   <v>       0.00925926</v>
   <v>       0.00925926</v>
   <v>       0.00925926</v>
   <v>       0.00925926</v>
   <v>       0.00925926</v>
   <v>       0.00462963</v>
   <v>       0.00231481</v>
   <v>       0.00462963</v>
   <v>       0.00462963</v>
   <v>       0.00462963</v>
   <v>       0.00462963</v>
   <v>       0.00462963</v>
   <v>       0.00231481</v>
   <v>       0.00231481</v>
   <v>       0.00462963</v>
   <v>       0.00462963</v>
   <v>       0.00462963</v>
   <v>       0.00462963</v>
   <v>       0.00462963</v>
   <v>       0.00231481</v>
   <v>       0.00462963</v>
   <v>       0.00925926</v>
   <v>       0.00925926</v>
   <v>       0.00925926</v>
   <v>       0.00925926</v>
   <v>       0.00925926</v>
   <v>       0.00462963</v>
   <v>       0.00462963</v>
   <v>       0.00925926</v>
   <v>       0.00925926</v>
   <v>       0.00925926</v>
   <v>       0.00925926</v>
   <v>       0.00925926</v>
   <v>       0.00462963</v>
   <v>       0.00462963</v>
   <v>       0.00925926</v>
   <v>       0.00925926</v>
   <v>       0.00925926</v>
   <v>       0.00925926</v>
   <v>       0.00925926</v>
   <v>       0.00462963</v>
   <v>       0.00231481</v>
   <v>       0.00462963</v>
   <v>       0.00462963</v>
   <v>       0.00462963</v>
   <v>       0.00462963</v>
   <v>       0.00462963</v>
   <v>       0.00231481</v>
   <v>       0.00231481</v>
   <v>       0.00462963</v>
   <v>       0.00462963</v>
   <v>       0.00462963</v>
   <v>       0.00462963</v>
   <v>       0.00462963</v>
   <v>       0.00231481</v>
   <v>       0.00462963</v>
   <v>       0.00925926</v>
   <v>       0.00925926</v>
   <v>       0.00925926</v>
   <v>       0.00925926</v>
   <v>       0.00925926</v>
   <v>       0.00462963</v>
   <v>       0.00462963</v>
   <v>       0.00925926</v>
   <v>       0.00925926</v>
   <v>       0.00925926</v>
   <v>       0.00925926</v>
   <v>       0.00925926</v>
   <v>       0.00462963</v>
   <v>       0.00231481</v>
   <v>       0.00462963</v>
   <v>       0.00462963</v>
   <v>       0.00462963</v>
   <v>       0.00462963</v>
   <v>       0.00462963</v>
   <v>       0.00231481</v>
   <v>       0.00231481</v>
   <v>       0.00462963</v>
   <v>       0.00462963</v>
   <v>       0.00462963</v>
   <v>       0.00462963</v>
   <v>       0.00462963</v>
   <v>       0.00231481</v>
   <v>       0.00462963</v>
   <v>       0.00925926</v>
   <v>       0.00925926</v>
   <v>       0.00925926</v>
   <v>       0.00925926</v>
   <v>       0.00925926</v>
   <v>       0.00462963</v>
   <v>       0.00231481</v>
   <v>       0.00462963</v>
   <v>       0.00462963</v>
   <v>       0.00462963</v>
   <v>       0.00462963</v>
   <v>       0.00462963</v>
   <v>       0.00231481</v>
   <v>       0.00231481</v>
   <v>       0.00462963</v>
   <v>       0.00462963</v>
   <v>       0.00462963</v>
   <v>       0.00462963</v>
   <v>       0.00462963</v>
   <v>       0.00231481</v>
   <v>       0.00231481</v>
   <v>       0.00462963</v>
   <v>       0.00462963</v>
   <v>       0.00462963</v>
   <v>       0.00462963</v>
   <v>       0.00462963</v>
   <v>       0.00231481</v>
   <v>       0.00057870</v>
   <v>       0.00115741</v>
   <v>       0.00115741</v>
   <v>       0.00115741</v>
   <v>       0.00115741</v>
   <v>       0.00115741</v>
   <v>       0.00057870</v>
  </varray>
 </kpoints>
 <parameters>
  <separator name="general" >
   <i type="string" name="SYSTEM">unknown system</i>
   <i type="logical" name="LCOMPAT"> F  </i>
  </separator>
  <separator name="electronic" >
   <i type="string" name="PREC">accura</i>
   <i name="ENMAX">    500.00000000</i>
   <i name="ENAUG">    291.05200000</i>
   <i name="EDIFF">      0.00000001</i>
   <i type="int" name="IALGO">    38</i>
   <i type="int" name="IWAVPR">    10</i>
   <i type="int" name="NBANDS">    65</i>
   <i name="NELECT">     96.00000000</i>
   <separator name="electronic smearing" >
    <i type="int" name="ISMEAR">     0</i>
    <i name="SIGMA">      0.01000000</i>
   </separator>
   <separator name="electronic projectors" >
    <i type="logical" name="LREAL"> F  </i>
    <v name="ROPT">      0.00000000</v>
    <i type="int" name="LMAXPAW">  -100</i>
    <i type="int" name="LMAXMIX">     2</i>
   </separator>
   <separator name="electronic startup" >
    <i type="int" name="ISTART">     0</i>
    <i type="int" name="ICHARG">     2</i>
    <i type="int" name="INIWAV">     1</i>
   </separator>
   <separator name="electronic spin" >
    <i type="int" name="ISPIN">     1</i>
    <i type="logical" name="LNONCOLLINEAR"> F  </i>
    <v name="MAGMOM">      1.00000000      1.00000000      1.00000000      1.00000000      1.00000000      1.00000000      1.00000000      1.00000000      1.00000000      1.00000000      1.00000000      1.00000000      1.00000000      1.00000000      1.00000000      1.00000000      1.00000000      1.00000000      1.00000000      1.00000000
      1.00000000      1.00000000      1.00000000      1.00000000      1.00000000      1.00000000      1.00000000      1.00000000      1.00000000      1.00000000      1.00000000      1.00000000</v>
    <i name="NUPDOWN">     -1.00000000</i>
    <i type="logical" name="LSORBIT"> F  </i>
    <v name="SAXIS">      0.00000000      0.00000000      1.00000000</v>
    <i type="logical" name="LSPIRAL"> F  </i>
    <v name="QSPIRAL">      0.00000000      0.00000000      0.00000000</v>
    <i type="logical" name="LZEROZ"> F  </i>
   </separator>
   <separator name="electronic exchange-correlation" >
    <i type="string" name="GGA">--</i>
    <i type="int" name="VOSKOWN">     0</i>
    <i type="logical" name="LASPH"> F  </i>
    <i type="logical" name="LMETAGGA"> F  </i>
    <i type="string" name="GGA2">--</i>
   </separator>
   <separator name="electronic convergence" >
    <i type="int" name="NELM">    60</i>
    <i type="int" name="NELMDL">     0</i>
    <i type="int" name="NELMIN">     2</i>
    <i name="ENINI">    500.00000000</i>
    <separator name="electronic convergence detail" >
     <i type="logical" name="LDIAG"> T  </i>
     <i name="WEIMIN">      0.00000000</i>
     <i name="EBREAK">      0.00000000</i>
     <i name="DEPER">      0.30000000</i>
     <i type="int" name="NRMM">     4</i>
     <i name="TIME">      0.10000000</i>
    </separator>
   </separator>
   <separator name="electronic mixer" >
    <i name="AMIX">      0.40000000</i>
    <i name="BMIX">      1.00000000</i>
    <i name="AMIN">      0.10000000</i>
    <i name="AMIX_MAG">      1.60000000</i>
    <i name="BMIX_MAG">      1.00000000</i>
    <separator name="electronic mixer details" >
     <i type="int" name="IMIX">     4</i>
     <i type="int" name="MAXMIX">   -45</i>
     <i name="WC">    100.00000000</i>
     <i type="int" name="INIMIX">     1</i>
     <i type="int" name="MIXPRE">     1</i>
     <i type="int" name="MREMOVE">     5</i>
    </separator>
   </separator>
   <separator name="electronic dipolcorrection" >
    <i type="int" name="IDIPOL">     0</i>
    <i type="logical" name="LDIPOL"> F  </i>
    <v name="DIPOL">   -100.00000000</v>
    <i name="EFIELD">      0.00000000</i>
   </separator>
  </separator>
  <separator name="grids" >
   <i type="int" name="NGX">    60</i>
   <i type="int" name="NGY">    60</i>
   <i type="int" name="NGZ">    60</i>
   <i type="int" name="NGXF">   120</i>
   <i type="int" name="NGYF">   120</i>
   <i type="int" name="NGZF">   120</i>
   <i type="logical" name="ADDGRID"> F  </i>
  </separator>
  <separator name="ionic" >
   <i type="int" name="NSW">     0</i>
   <i type="int" name="IBRION">    -1</i>
   <i type="int" name="ISIF">     2</i>
   <i name="PSTRESS">      0.00000000</i>
   <i name="EDIFFG">      0.00000010</i>
   <i type="int" name="NFREE">     0</i>
   <i name="POTIM">      0.50000000</i>
   <i name="SMASS">     -3.00000000</i>
  </separator>
  <separator name="ionic md" >
   <i name="TEBEG">      0.00010000</i>
   <i name="TEEND">      0.00010000</i>
   <i type="int" name="NBLOCK">     1</i>
   <i type="int" name="KBLOCK">     1</i>
   <i type="int" name="NPACO">   256</i>
   <i name="APACO">     16.00000000</i>
  </separator>
  <separator name="symmetry" >
   <i type="int" name="ISYM">     2</i>
   <i name="SYMPREC">      0.00001000</i>
  </separator>
  <separator name="dos" >
   <i type="logical" name="LORBIT"> F  </i>
   <v name="RWIGS">     -1.00000000</v>
   <i type="int" name="NEDOS">   301</i>
   <i name="EMIN">     10.00000000</i>
   <i name="EMAX">    -10.00000000</i>
  </separator>
  <separator name="writing" >
   <i type="int" name="NWRITE">     2</i>
   <i type="logical" name="LWAVE"> F  </i>
   <i type="logical" name="LCHARG"> F  </i>
   <i type="logical" name="LPARD"> F  </i>
   <i type="logical" name="LVTOT"> F  </i>
   <i type="logical" name="LELF"> F  </i>
   <i type="logical" name="LOPTICS"> F  </i>
   <i name="STM">      0.00000000</i>
  </separator>
  <separator name="performance" >
   <i type="int" name="NPAR">     4</i>
   <i type="int" name="NSIM">     4</i>
   <i type="int" name="NBLK">   256</i>
   <i type="logical" name="LPLANE"> T  </i>
   <i type="logical" name="LCRITICAL_MEM"> F  </i>
   <i type="logical" name="LSCALAPACK"> F  </i>
   <i type="logical" name="LSCALU"> F  </i>
   <i type="logical" name="LASYNC"> F  </i>
  </separator>
  <separator name="miscellaneous" >
   <i type="int" name="IDIOT">     3</i>
   <i type="logical" name="LMUSIC"> F  </i>
   <v name="POMASS">     26.98200000</v>
   <i type="logical" name="LCORR"> T  </i>
  </separator>
  <i type="logical" name="LREAL_COMPAT"> F  </i>
  <i type="logical" name="GGA_COMPAT"> T  </i>
  <i type="logical" name="LBERRY"> F  </i>
  <i type="int" name="ICORELEVEL">     0</i>
  <i type="logical" name="LDAU"> F  </i>
  <i type="int" name="I_CONSTRAINED_M">     0</i>
 </parameters>
 <atominfo>
  <atoms>      32</atoms>
  <types>       1</types>
  <array name="atoms" >
   <dimension dim="1">ion</dimension>
   <field type="string">element</field>
   <field type="int">atomtype</field>
   <set>
    <rc><c>Al</c><c>   1</c></rc>
    <rc><c>Al</c><c>   1</c></rc>
    <rc><c>Al</c><c>   1</c></rc>
    <rc><c>Al</c><c>   1</c></rc>
    <rc><c>Al</c><c>   1</c></rc>
    <rc><c>Al</c><c>   1</c></rc>
    <rc><c>Al</c><c>   1</c></rc>
    <rc><c>Al</c><c>   1</c></rc>
    <rc><c>Al</c><c>   1</c></rc>
    <rc><c>Al</c><c>   1</c></rc>
    <rc><c>Al</c><c>   1</c></rc>
    <rc><c>Al</c><c>   1</c></rc>
    <rc><c>Al</c><c>   1</c></rc>
    <rc><c>Al</c><c>   1</c></rc>
    <rc><c>Al</c><c>   1</c></rc>
    <rc><c>Al</c><c>   1</c></rc>
    <rc><c>Al</c><c>   1</c></rc>
    <rc><c>Al</c><c>   1</c></rc>
    <rc><c>Al</c><c>   1</c></rc>
    <rc><c>Al</c><c>   1</c></rc>
    <rc><c>Al</c><c>   1</c></rc>
    <rc><c>Al</c><c>   1</c></rc>
    <rc><c>Al</c><c>   1</c></rc>
    <rc><c>Al</c><c>   1</c></rc>
    <rc><c>Al</c><c>   1</c></rc>
    <rc><c>Al</c><c>   1</c></rc>
    <rc><c>Al</c><c>   1</c></rc>
    <rc><c>Al</c><c>   1</c></rc>
    <rc><c>Al</c><c>   1</c></rc>
    <rc><c>Al</c><c>   1</c></rc>
    <rc><c>Al</c><c>   1</c></rc>
    <rc><c>Al</c><c>   1</c></rc>
   </set>
  </array>
  <array name="atomtypes" >
   <dimension dim="1">type</dimension>
   <field type="int">atomspertype</field>
   <field type="string">element</field>
   <field>mass</field>
   <field>valence</field>
   <field type="string">pseudopotential</field>
   <set>
    <rc><c>  32</c><c>Al</c><c>     26.98200000</c><c>      3.00000000</c><c> PAW_PBE Al 04Jan2001                   </c></rc>
   </set>
  </array>
 </atominfo>
 <structure name="initialpos" >
  <crystal>
   <varray name="basis" >
    <v>       7.99386661      0.00000000      0.00000000</v>
    <v>       0.00000000      7.99386661      0.00000000</v>
    <v>       0.00000000      0.00000000      7.99386661</v>
   </varray>
   <i name="volume">    510.82329211</i>
   <varray name="rec_basis" >
    <v>       0.12509591      0.00000000      0.00000000</v>
    <v>       0.00000000      0.12509591      0.00000000</v>
    <v>       0.00000000      0.00000000      0.12509591</v>
   </varray>
  </crystal>
  <varray name="positions" >
   <v>       0.25125096      0.25000000      0.00000000</v>
   <v>       0.75000000      0.25000000      0.00000000</v>
   <v>       0.25000000      0.75000000      0.00000000</v>
   <v>       0.75000000      0.75000000      0.00000000</v>
   <v>       0.25000000      0.25000000      0.50000000</v>
   <v>       0.75000000      0.25000000      0.50000000</v>
   <v>       0.25000000      0.75000000      0.50000000</v>
   <v>       0.75000000      0.75000000      0.50000000</v>
   <v>       0.25000000      0.00000000      0.25000000</v>
   <v>       0.75000000      0.00000000      0.25000000</v>
   <v>       0.25000000      0.50000000      0.25000000</v>
   <v>       0.75000000      0.50000000      0.25000000</v>
   <v>       0.25000000      0.00000000      0.75000000</v>
   <v>       0.75000000      0.00000000      0.75000000</v>
   <v>       0.25000000      0.50000000      0.75000000</v>
   <v>       0.75000000      0.50000000      0.75000000</v>
   <v>       0.00000000      0.25000000      0.25000000</v>
   <v>       0.50000000      0.25000000      0.25000000</v>
   <v>       0.00000000      0.75000000      0.25000000</v>
   <v>       0.50000000      0.75000000      0.25000000</v>
   <v>       0.00000000      0.25000000      0.75000000</v>
   <v>       0.50000000      0.25000000      0.75000000</v>
   <v>       0.00000000      0.75000000      0.75000000</v>
   <v>       0.50000000      0.75000000      0.75000000</v>
   <v>       0.00000000      0.00000000      0.00000000</v>
   <v>       0.50000000      0.00000000      0.00000000</v>
   <v>       0.00000000      0.50000000      0.00000000</v>
   <v>       0.50000000      0.50000000      0.00000000</v>
   <v>       0.00000000      0.00000000      0.50000000</v>
   <v>       0.50000000      0.00000000      0.50000000</v>
   <v>       0.00000000      0.50000000      0.50000000</v>
   <v>       0.50000000      0.50000000      0.50000000</v>
  </varray>
 </structure>
 <calculation>
  <scstep>
   <time name="dav">  153.39  153.37</time>
   <time name="total">  153.71  153.69</time>
   <energy>
    <i name="alphaZ">     -6.73309839</i>
    <i name="ewald">  -2378.57959861</i>
    <i name="hartreedc">     -2.88597594</i>
    <i name="XCdc">   -837.75442371</i>
    <i name="pawpsdc">   1137.73615723</i>
    <i name="pawaedc">   -115.16745734</i>
    <i name="eentropy">     -0.00019317</i>
    <i name="bandstr">    621.23462247</i>
    <i name="atom">   1713.22913220</i>
    <i name="e_fr_energy">    131.07916472</i>
    <i name="e_wo_entrp">    131.07935790</i>
    <i name="e_0_energy">    131.07926131</i>
   </energy>
  </scstep>
  <scstep>
   <time name="dav">  205.67  205.62</time>
   <time name="total">  205.69  205.64</time>
   <energy>
    <i name="e_fr_energy">   -106.33161619</i>
    <i name="e_wo_entrp">   -106.33106169</i>
    <i name="e_0_energy">   -106.33133894</i>
   </energy>
  </scstep>
  <scstep>
   <time name="dav">  212.99  212.93</time>
   <time name="total">  213.01  212.96</time>
   <energy>
    <i name="e_fr_energy">   -120.15652157</i>
    <i name="e_wo_entrp">   -120.15582690</i>
    <i name="e_0_energy">   -120.15617424</i>
   </energy>
  </scstep>
  <scstep>
   <time name="dav">  205.69  205.63</time>
   <time name="total">  205.71  205.66</time>
   <energy>
    <i name="e_fr_energy">   -120.45174868</i>
    <i name="e_wo_entrp">   -120.45102121</i>
    <i name="e_0_energy">   -120.45138495</i>
   </energy>
  </scstep>
  <scstep>
   <time name="dav">  207.51  207.46</time>
   <time name="total">  217.75  217.70</time>
   <energy>
    <i name="e_fr_energy">   -120.45571131</i>
    <i name="e_wo_entrp">   -120.45498549</i>
    <i name="e_0_energy">   -120.45534840</i>
   </energy>
  </scstep>
  <scstep>
   <time name="dav">  207.48  207.43</time>
   <time name="total">  218.27  218.22</time>
   <energy>
    <i name="e_fr_energy">   -120.02653890</i>
    <i name="e_wo_entrp">   -120.02576710</i>
    <i name="e_0_energy">   -120.02615300</i>
   </energy>
  </scstep>
  <scstep>
   <time name="dav">  200.01  199.96</time>
   <time name="total">  211.81  211.76</time>
   <energy>
    <i name="e_fr_energy">   -119.71348977</i>
    <i name="e_wo_entrp">   -119.71273468</i>
    <i name="e_0_energy">   -119.71311222</i>
   </energy>
  </scstep>
  <scstep>
   <time name="dav">  208.87  208.81</time>
   <time name="total">  219.43  219.38</time>
   <energy>
    <i name="e_fr_energy">   -119.71365023</i>
    <i name="e_wo_entrp">   -119.71289378</i>
    <i name="e_0_energy">   -119.71327200</i>
   </energy>
  </scstep>
  <scstep>
   <time name="dav">  206.53  206.48</time>
   <time name="total">  216.81  216.76</time>
   <energy>
    <i name="e_fr_energy">   -119.71368312</i>
    <i name="e_wo_entrp">   -119.71292623</i>
    <i name="e_0_energy">   -119.71330467</i>
   </energy>
  </scstep>
  <scstep>
   <time name="dav">  207.61  207.56</time>
   <time name="total">  218.07  218.02</time>
   <energy>
    <i name="e_fr_energy">   -119.71368415</i>
    <i name="e_wo_entrp">   -119.71292718</i>
    <i name="e_0_energy">   -119.71330567</i>
   </energy>
  </scstep>
  <scstep>
   <time name="dav">  203.43  203.37</time>
   <time name="total">  214.15  214.10</time>
   <energy>
    <i name="e_fr_energy">   -119.71368157</i>
    <i name="e_wo_entrp">   -119.71292459</i>
    <i name="e_0_energy">   -119.71330308</i>
   </energy>
  </scstep>
  <scstep>
   <time name="dav">  157.22  157.18</time>
   <time name="total">  168.07  168.03</time>
   <energy>
    <i name="e_fr_energy">   -119.71368043</i>
    <i name="e_wo_entrp">   -119.71292345</i>
    <i name="e_0_energy">   -119.71330194</i>
   </energy>
  </scstep>
  <scstep>
   <time name="dav">  140.59  140.56</time>
   <time name="total">  151.16  151.13</time>
   <energy>
    <i name="e_fr_energy">   -119.71368028</i>
    <i name="e_wo_entrp">   -119.71292330</i>
    <i name="e_0_energy">   -119.71330179</i>
   </energy>
  </scstep>
  <scstep>
   <time name="dav">  135.06  135.03</time>
   <time name="total">  135.44  135.41</time>
   <energy>
    <i name="alphaZ">     -6.73309839</i>
    <i name="ewald">  -2378.57959861</i>
    <i name="hartreedc">     -3.52479572</i>
    <i name="XCdc">   -834.01458719</i>
    <i name="pawpsdc">   1144.76181374</i>
    <i name="pawaedc">   -122.77631665</i>
    <i name="eentropy">     -0.00075698</i>
    <i name="bandstr">    367.92452734</i>
    <i name="atom">   1713.22913220</i>
    <i name="e_fr_energy">   -119.71368027</i>
    <i name="e_wo_entrp">   -119.71292329</i>
    <i name="e_0_energy">   -119.71330178</i>
   </energy>
  </scstep>
  <structure>
   <crystal>
    <varray name="basis" >
     <v>       7.99386661      0.00000000      0.00000000</v>
     <v>       0.00000000      7.99386661      0.00000000</v>
     <v>       0.00000000      0.00000000      7.99386661</v>
    </varray>
    <i name="volume">    510.82329211</i>
    <varray name="rec_basis" >
     <v>       0.12509591      0.00000000      0.00000000</v>
     <v>       0.00000000      0.12509591      0.00000000</v>
     <v>       0.00000000      0.00000000      0.12509591</v>
    </varray>
   </crystal>
   <varray name="positions" >
    <v>       0.25125096      0.25000000      0.00000000</v>
    <v>       0.75000000      0.25000000      0.00000000</v>
    <v>       0.25000000      0.75000000      0.00000000</v>
    <v>       0.75000000      0.75000000      0.00000000</v>
    <v>       0.25000000      0.25000000      0.50000000</v>
    <v>       0.75000000      0.25000000      0.50000000</v>
    <v>       0.25000000      0.75000000      0.50000000</v>
    <v>       0.75000000      0.75000000      0.50000000</v>
    <v>       0.25000000      0.00000000      0.25000000</v>
    <v>       0.75000000      0.00000000      0.25000000</v>
    <v>       0.25000000      0.50000000      0.25000000</v>
    <v>       0.75000000      0.50000000      0.25000000</v>
    <v>       0.25000000      0.00000000      0.75000000</v>
    <v>       0.75000000      0.00000000      0.75000000</v>
    <v>       0.25000000      0.50000000      0.75000000</v>
    <v>       0.75000000      0.50000000      0.75000000</v>
    <v>       0.00000000      0.25000000      0.25000000</v>
    <v>       0.50000000      0.25000000      0.25000000</v>
    <v>       0.00000000      0.75000000      0.25000000</v>
    <v>       0.50000000      0.75000000      0.25000000</v>
    <v>       0.00000000      0.25000000      0.75000000</v>
    <v>       0.50000000      0.25000000      0.75000000</v>
    <v>       0.00000000      0.75000000      0.75000000</v>
    <v>       0.50000000      0.75000000      0.75000000</v>
    <v>       0.00000000      0.00000000      0.00000000</v>
    <v>       0.50000000      0.00000000      0.00000000</v>
    <v>       0.00000000      0.50000000      0.00000000</v>
    <v>       0.50000000      0.50000000      0.00000000</v>
    <v>       0.00000000      0.00000000      0.50000000</v>
    <v>       0.50000000      0.00000000      0.50000000</v>
    <v>       0.00000000      0.50000000      0.50000000</v>
    <v>       0.50000000      0.50000000      0.50000000</v>
   </varray>
  </structure>
  <varray name="forces" >
   <v>      -0.05277330      0.00000000     -0.00000000</v>
   <v>       0.00236109      0.00000000      0.00000000</v>
   <v>      -0.00011762      0.00000000      0.00000000</v>
   <v>       0.00051486     -0.00000000      0.00000000</v>
   <v>      -0.00011762      0.00000000      0.00000000</v>
   <v>       0.00051486     -0.00000000      0.00000000</v>
   <v>       0.00060500      0.00000000      0.00000000</v>
   <v>      -0.00054999     -0.00000000      0.00000000</v>
   <v>      -0.00143292      0.00002328     -0.00002328</v>
   <v>      -0.00068433     -0.00000139      0.00000139</v>
   <v>      -0.00143292     -0.00002328     -0.00002328</v>
   <v>      -0.00068433      0.00000139      0.00000139</v>
   <v>      -0.00143292      0.00002328      0.00002328</v>
   <v>      -0.00068433     -0.00000139     -0.00000139</v>
   <v>      -0.00143292     -0.00002328      0.00002328</v>
   <v>      -0.00068433      0.00000139     -0.00000139</v>
   <v>       0.00718687     -0.00000000     -0.00744139</v>
   <v>       0.00735074     -0.00000000      0.00767611</v>
   <v>      -0.00001785     -0.00000000      0.00011897</v>
   <v>      -0.00001183      0.00000000     -0.00011636</v>
   <v>       0.00718687      0.00000000      0.00744139</v>
   <v>       0.00735074      0.00000000     -0.00767611</v>
   <v>      -0.00001785     -0.00000000     -0.00011897</v>
   <v>      -0.00001183     -0.00000000      0.00011636</v>
   <v>       0.00718687      0.00744139      0.00000000</v>
   <v>       0.00735074     -0.00767611     -0.00000000</v>
   <v>       0.00718687     -0.00744139     -0.00000000</v>
   <v>       0.00735074      0.00767611      0.00000000</v>
   <v>      -0.00001785     -0.00011897     -0.00000000</v>
   <v>      -0.00001183      0.00011636     -0.00000000</v>
   <v>      -0.00001785      0.00011897      0.00000000</v>
   <v>      -0.00001183     -0.00011636      0.00000000</v>
  </varray>
  <varray name="stress" >
   <v>      26.75859790     -0.00000000      0.00000000</v>
   <v>       0.00000000     26.75808433      0.00000000</v>
   <v>       0.00000000      0.00000000     26.75808433</v>
  </varray>
  <energy>
   <i name="e_fr_energy">   -119.71368027</i>
   <i name="e_wo_entrp">   -119.71330178</i>
   <i name="e_0_energy">     -0.00075698</i>
  </energy>
  <eigenvalues>
   <array>
    <dimension dim="1">band</dimension>
    <dimension dim="2">kpoint</dimension>
    <dimension dim="3">spin</dimension>
    <field>eigene</field>
    <field>occ</field>
    <set>
     <set comment="spin 1">
      <set comment="kpoint 1">
       <r>  -3.0154  1.0000</r>
       <r>  -0.7222  1.0000</r>
       <r>  -0.7184  1.0000</r>
       <r>  -0.7184  1.0000</r>
       <r>  -0.7184  1.0000</r>
       <r>  -0.7184  1.0000</r>
       <r>  -0.7146  1.0000</r>
       <r>   1.5343  1.0000</r>
       <r>   1.5387  1.0000</r>
       <r>   1.5387  1.0000</r>
       <r>   1.5405  1.0000</r>
       <r>   1.5406  1.0000</r>
       <r>   1.5406  1.0000</r>
       <r>   1.5406  1.0000</r>
       <r>   1.5406  1.0000</r>
       <r>   1.5408  1.0000</r>
       <r>   1.5425  1.0000</r>
       <r>   1.5425  1.0000</r>
       <r>   1.5470  1.0000</r>
       <r>   3.6238  1.0000</r>
       <r>   3.6239  1.0000</r>
       <r>   3.6239  1.0000</r>
       <r>   3.6239  1.0000</r>
       <r>   3.9248  1.0000</r>
       <r>   3.9248  1.0000</r>
       <r>   3.9248  1.0000</r>
       <r>   3.9249  1.0000</r>
       <r>   5.3458  1.0000</r>
       <r>   5.3458  1.0000</r>
       <r>   5.3459  1.0000</r>
       <r>   6.7413  1.0000</r>
       <r>   6.7413  1.0000</r>
       <r>   6.7413  1.0000</r>
       <r>   7.4571  1.0000</r>
       <r>   7.4571  1.0000</r>
       <r>   7.4615  1.0000</r>
       <r>   7.4615  1.0000</r>
       <r>   7.4617  1.0000</r>
       <r>   7.4617  1.0000</r>
       <r>   7.4617  1.0000</r>
       <r>   7.4617  1.0000</r>
       <r>   7.4618  1.0000</r>
       <r>   7.4618  1.0000</r>
       <r>   7.4662  1.0000</r>
       <r>   7.4662  1.0000</r>
       <r>   8.4559  0.0000</r>
       <r>   8.4602  0.0000</r>
       <r>   8.4602  0.0000</r>
       <r>   8.4602  0.0000</r>
       <r>   8.4602  0.0000</r>
       <r>   8.4645  0.0000</r>
       <r>   9.5813  0.0000</r>
       <r>   9.5813  0.0000</r>
       <r>   9.5829  0.0000</r>
       <r>   9.5854  0.0000</r>
       <r>   9.5855  0.0000</r>
       <r>   9.5855  0.0000</r>
       <r>   9.5855  0.0000</r>
       <r>   9.5855  0.0000</r>
       <r>   9.5857  0.0000</r>
       <r>   9.5881  0.0000</r>
       <r>   9.5896  0.0000</r>
       <r>   9.5897  0.0000</r>
       <r>   9.6426  0.0000</r>
       <r>   9.6435  0.0000</r>
       <r>   9.6435  0.0000</r>
       <r>   9.6436  0.0000</r>
       <r>   9.6440  0.0000</r>
      </set>
      <set comment="kpoint 2">
       <r>  -2.9993  1.0000</r>
       <r>  -1.0826  1.0000</r>
       <r>  -0.7026  1.0000</r>
       <r>  -0.7025  1.0000</r>
       <r>  -0.7025  1.0000</r>
       <r>  -0.7025  1.0000</r>
       <r>  -0.3236  1.0000</r>
       <r>   1.1824  1.0000</r>
       <r>   1.1824  1.0000</r>
       <r>   1.1824  1.0000</r>
       <r>   1.1824  1.0000</r>
       <r>   1.5562  1.0000</r>
       <r>   1.5562  1.0000</r>
       <r>   1.5562  1.0000</r>
       <r>   1.5562  1.0000</r>
       <r>   1.9288  1.0000</r>
       <r>   1.9288  1.0000</r>
       <r>   1.9288  1.0000</r>
       <r>   1.9288  1.0000</r>
       <r>   3.3909  1.0000</r>
       <r>   3.3909  1.0000</r>
       <r>   3.3909  1.0000</r>
       <r>   3.3909  1.0000</r>
       <r>   4.1876  1.0000</r>
       <r>   4.1876  1.0000</r>
       <r>   4.1876  1.0000</r>
       <r>   4.1876  1.0000</r>
       <r>   5.0447  1.0000</r>
       <r>   5.3605  1.0000</r>
       <r>   5.3605  1.0000</r>
       <r>   6.7567  1.0000</r>
       <r>   6.7567  1.0000</r>
       <r>   7.0701  1.0000</r>
       <r>   7.1231  1.0000</r>
       <r>   7.1231  1.0000</r>
       <r>   7.1681  1.0000</r>
       <r>   7.1681  1.0000</r>
       <r>   7.1681  1.0000</r>
       <r>   7.1681  1.0000</r>
       <r>   7.4764  1.0000</r>
       <r>   7.4764  1.0000</r>
       <r>   7.4764  1.0000</r>
       <r>   7.4764  1.0000</r>
       <r>   7.8299  1.0000</r>
       <r>   7.8299  1.0000</r>
       <r>   8.3690  0.2452</r>
       <r>   8.3691  0.2430</r>
       <r>   8.6548  0.0000</r>
       <r>   8.6548  0.0000</r>
       <r>   8.6548  0.0000</r>
       <r>   8.6548  0.0000</r>
       <r>   9.2459  0.0000</r>
       <r>   9.2459  0.0000</r>
       <r>   9.2459  0.0000</r>
       <r>   9.2459  0.0000</r>
       <r>   9.3268  0.0000</r>
       <r>   9.3268  0.0000</r>
       <r>   9.3269  0.0000</r>
       <r>   9.3269  0.0000</r>
       <r>   9.7620  0.0000</r>
       <r>   9.7621  0.0000</r>
       <r>   9.7850  0.0000</r>
       <r>   9.7850  0.0000</r>
       <r>   9.7851  0.0000</r>
       <r>   9.7851  0.0000</r>
       <r>   9.9548  0.0000</r>
       <r>   9.9548  0.0000</r>
       <r>   9.9548  0.0000</r>
      </set>
      <set comment="kpoint 3">
       <r>  -2.9510  1.0000</r>
       <r>  -1.4160  1.0000</r>
       <r>  -0.6551  1.0000</r>
       <r>  -0.6551  1.0000</r>
       <r>  -0.6551  1.0000</r>
       <r>  -0.6551  1.0000</r>
       <r>   0.1012  1.0000</r>
       <r>   0.8545  1.0000</r>
       <r>   0.8545  1.0000</r>
       <r>   0.8545  1.0000</r>
       <r>   0.8545  1.0000</r>
       <r>   1.6029  1.0000</r>
       <r>   1.6029  1.0000</r>
       <r>   1.6029  1.0000</r>
       <r>   1.6029  1.0000</r>
       <r>   2.3465  1.0000</r>
       <r>   2.3465  1.0000</r>
       <r>   2.3465  1.0000</r>
       <r>   2.3465  1.0000</r>
       <r>   3.0812  1.0000</r>
       <r>   3.0812  1.0000</r>
       <r>   3.0812  1.0000</r>
       <r>   3.0812  1.0000</r>
       <r>   4.4737  1.0000</r>
       <r>   4.5863  1.0000</r>
       <r>   4.5863  1.0000</r>
       <r>   4.5863  1.0000</r>
       <r>   4.5864  1.0000</r>
       <r>   5.4045  1.0000</r>
       <r>   5.4045  1.0000</r>
       <r>   6.6187  1.0000</r>
       <r>   6.6187  1.0000</r>
       <r>   6.6187  1.0000</r>
       <r>   6.6187  1.0000</r>
       <r>   6.8029  1.0000</r>
       <r>   6.8029  1.0000</r>
       <r>   6.8142  1.0000</r>
       <r>   6.8142  1.0000</r>
       <r>   7.5206  1.0000</r>
       <r>   7.5206  1.0000</r>
       <r>   7.5206  1.0000</r>
       <r>   7.5206  1.0000</r>
       <r>   7.7241  1.0000</r>
       <r>   8.1639  1.0000</r>
       <r>   8.1639  1.0000</r>
       <r>   8.2277  1.0000</r>
       <r>   8.2277  1.0000</r>
       <r>   8.8015  0.0000</r>
       <r>   8.8015  0.0000</r>
       <r>   8.8015  0.0000</r>
       <r>   8.8016  0.0000</r>
       <r>   8.9024  0.0000</r>
       <r>   8.9024  0.0000</r>
       <r>   8.9025  0.0000</r>
       <r>   8.9026  0.0000</r>
       <r>   8.9360  0.0000</r>
       <r>   8.9360  0.0000</r>
       <r>   8.9361  0.0000</r>
       <r>   8.9361  0.0000</r>
       <r>  10.0494  0.0000</r>
       <r>  10.0494  0.0000</r>
       <r>  10.2143  0.0000</r>
       <r>  10.2143  0.0000</r>
       <r>  10.2143  0.0000</r>
       <r>  10.2144  0.0000</r>
       <r>  10.3537  0.0000</r>
       <r>  10.3537  0.0000</r>
       <r>  10.3537  0.0000</r>
      </set>
      <set comment="kpoint 4">
       <r>  -2.8706  1.0000</r>
       <r>  -1.7184  1.0000</r>
       <r>  -0.5761  1.0000</r>
       <r>  -0.5761  1.0000</r>
       <r>  -0.5761  1.0000</r>
       <r>  -0.5761  1.0000</r>
       <r>   0.5538  1.0000</r>
       <r>   0.5570  1.0000</r>
       <r>   0.5570  1.0000</r>
       <r>   0.5570  1.0000</r>
       <r>   0.5591  1.0000</r>
       <r>   1.6806  1.0000</r>
       <r>   1.6806  1.0000</r>
       <r>   1.6806  1.0000</r>
       <r>   1.6806  1.0000</r>
       <r>   2.7896  1.0000</r>
       <r>   2.7915  1.0000</r>
       <r>   2.7915  1.0000</r>
       <r>   2.7925  1.0000</r>
       <r>   2.7934  1.0000</r>
       <r>   2.7944  1.0000</r>
       <r>   2.7944  1.0000</r>
       <r>   2.7962  1.0000</r>
       <r>   3.8592  1.0000</r>
       <r>   5.0234  1.0000</r>
       <r>   5.0234  1.0000</r>
       <r>   5.0234  1.0000</r>
       <r>   5.0234  1.0000</r>
       <r>   5.4778  1.0000</r>
       <r>   5.4778  1.0000</r>
       <r>   6.0249  1.0000</r>
       <r>   6.0249  1.0000</r>
       <r>   6.0249  1.0000</r>
       <r>   6.0249  1.0000</r>
       <r>   6.5349  1.0000</r>
       <r>   6.5349  1.0000</r>
       <r>   6.8795  1.0000</r>
       <r>   6.8795  1.0000</r>
       <r>   7.5942  1.0000</r>
       <r>   7.5942  1.0000</r>
       <r>   7.5942  1.0000</r>
       <r>   7.5942  1.0000</r>
       <r>   7.9270  1.0000</r>
       <r>   7.9270  1.0000</r>
       <r>   8.2178  1.0000</r>
       <r>   8.2178  1.0000</r>
       <r>   8.2178  1.0000</r>
       <r>   8.2178  1.0000</r>
       <r>   8.4769  0.0000</r>
       <r>   8.6531  0.0000</r>
       <r>   8.6531  0.0000</r>
       <r>   8.6556  0.0000</r>
       <r>   8.6556  0.0000</r>
       <r>   8.6579  0.0000</r>
       <r>   8.6579  0.0000</r>
       <r>   9.0744  0.0000</r>
       <r>   9.0744  0.0000</r>
       <r>   9.0744  0.0000</r>
       <r>   9.0744  0.0000</r>
       <r>  10.2604  0.0000</r>
       <r>  10.2604  0.0000</r>
       <r>  10.2604  0.0000</r>
       <r>  10.2604  0.0000</r>
       <r>  10.4224  0.0000</r>
       <r>  10.4224  0.0000</r>
       <r>  10.7823  0.0000</r>
       <r>  10.7827  0.0000</r>
       <r>  10.7845  0.0000</r>
      </set>
      <set comment="kpoint 5">
       <r>  -2.7582  1.0000</r>
       <r>  -1.9896  1.0000</r>
       <r>  -0.4655  1.0000</r>
       <r>  -0.4655  1.0000</r>
       <r>  -0.4655  1.0000</r>
       <r>  -0.4655  1.0000</r>
       <r>   0.2903  1.0000</r>
       <r>   0.2903  1.0000</r>
       <r>   0.2903  1.0000</r>
       <r>   0.2903  1.0000</r>
       <r>   1.0397  1.0000</r>
       <r>   1.7893  1.0000</r>
       <r>   1.7894  1.0000</r>
       <r>   1.7894  1.0000</r>
       <r>   1.7894  1.0000</r>
       <r>   2.5317  1.0000</r>
       <r>   2.5317  1.0000</r>
       <r>   2.5317  1.0000</r>
       <r>   2.5317  1.0000</r>
       <r>   3.2498  1.0000</r>
       <r>   3.2688  1.0000</r>
       <r>   3.2688  1.0000</r>
       <r>   3.2688  1.0000</r>
       <r>   3.2688  1.0000</r>
       <r>   5.4326  1.0000</r>
       <r>   5.4326  1.0000</r>
       <r>   5.4326  1.0000</r>
       <r>   5.4326  1.0000</r>
       <r>   5.4914  1.0000</r>
       <r>   5.4914  1.0000</r>
       <r>   5.4914  1.0000</r>
       <r>   5.4914  1.0000</r>
       <r>   5.5805  1.0000</r>
       <r>   5.5805  1.0000</r>
       <r>   6.2851  1.0000</r>
       <r>   6.2851  1.0000</r>
       <r>   6.9863  1.0000</r>
       <r>   6.9863  1.0000</r>
       <r>   7.6318  1.0000</r>
       <r>   7.6318  1.0000</r>
       <r>   7.6318  1.0000</r>
       <r>   7.6318  1.0000</r>
       <r>   7.6941  1.0000</r>
       <r>   7.6942  1.0000</r>
       <r>   7.6974  1.0000</r>
       <r>   7.6974  1.0000</r>
       <r>   7.6974  1.0000</r>
       <r>   7.6974  1.0000</r>
       <r>   8.4049  0.0000</r>
       <r>   8.4049  0.0000</r>
       <r>   8.4049  0.0000</r>
       <r>   8.4049  0.0000</r>
       <r>   9.1126  0.0000</r>
       <r>   9.1126  0.0000</r>
       <r>   9.2243  0.0000</r>
       <r>   9.2243  0.0000</r>
       <r>   9.2244  0.0000</r>
       <r>   9.2244  0.0000</r>
       <r>   9.2798  0.0000</r>
       <r>  10.0006  0.0000</r>
       <r>  10.0007  0.0000</r>
       <r>  10.0007  0.0000</r>
       <r>  10.0007  0.0000</r>
       <r>  10.8441  0.0000</r>
       <r>  10.8441  0.0000</r>
       <r>  11.2380  0.0000</r>
       <r>  11.2399  0.0000</r>
       <r>  11.2405  0.0000</r>
      </set>
      <set comment="kpoint 6">
       <r>  -2.6137  1.0000</r>
       <r>  -2.2293  1.0000</r>
       <r>  -0.3235  1.0000</r>
       <r>  -0.3235  1.0000</r>
       <r>  -0.3235  1.0000</r>
       <r>  -0.3235  1.0000</r>
       <r>   0.0546  1.0000</r>
       <r>   0.0546  1.0000</r>
       <r>   0.0546  1.0000</r>
       <r>   0.0546  1.0000</r>
       <r>   1.5523  1.0000</r>
       <r>   1.9290  1.0000</r>
       <r>   1.9290  1.0000</r>
       <r>   1.9290  1.0000</r>
       <r>   1.9290  1.0000</r>
       <r>   2.3005  1.0000</r>
       <r>   2.3005  1.0000</r>
       <r>   2.3005  1.0000</r>
       <r>   2.3005  1.0000</r>
       <r>   2.6593  1.0000</r>
       <r>   3.7719  1.0000</r>
       <r>   3.7719  1.0000</r>
       <r>   3.7719  1.0000</r>
       <r>   3.7719  1.0000</r>
       <r>   4.8562  1.0000</r>
       <r>   4.8562  1.0000</r>
       <r>   4.8562  1.0000</r>
       <r>   4.8562  1.0000</r>
       <r>   5.7125  1.0000</r>
       <r>   5.7125  1.0000</r>
       <r>   5.9881  1.0000</r>
       <r>   5.9881  1.0000</r>
       <r>   5.9882  1.0000</r>
       <r>   5.9882  1.0000</r>
       <r>   6.0648  1.0000</r>
       <r>   6.0648  1.0000</r>
       <r>   7.0610  1.0000</r>
       <r>   7.0610  1.0000</r>
       <r>   7.0610  1.0000</r>
       <r>   7.0610  1.0000</r>
       <r>   7.1226  1.0000</r>
       <r>   7.1226  1.0000</r>
       <r>   7.4789  1.0000</r>
       <r>   7.4789  1.0000</r>
       <r>   7.8300  1.0000</r>
       <r>   7.8300  1.0000</r>
       <r>   7.8300  1.0000</r>
       <r>   7.8300  1.0000</r>
       <r>   8.1837  1.0000</r>
       <r>   8.1837  1.0000</r>
       <r>   8.1837  1.0000</r>
       <r>   8.1837  1.0000</r>
       <r>   9.3835  0.0000</r>
       <r>   9.3835  0.0000</r>
       <r>   9.3835  0.0000</r>
       <r>   9.3835  0.0000</r>
       <r>   9.5997  0.0000</r>
       <r>   9.5997  0.0000</r>
       <r>   9.7685  0.0000</r>
       <r>   9.7685  0.0000</r>
       <r>   9.7685  0.0000</r>
       <r>   9.7685  0.0000</r>
       <r>  10.1190  0.0000</r>
       <r>  10.6626  0.0000</r>
       <r>  10.6626  0.0000</r>
       <r>  11.2985  0.0000</r>
       <r>  11.2985  0.0000</r>
       <r>  11.7284  0.0000</r>
      </set>
      <set comment="kpoint 7">
       <r>  -2.4389  1.0000</r>
       <r>  -2.4360  1.0000</r>
       <r>  -0.1541  1.0000</r>
       <r>  -0.1509  1.0000</r>
       <r>  -0.1509  1.0000</r>
       <r>  -0.1501  1.0000</r>
       <r>  -0.1500  1.0000</r>
       <r>  -0.1492  1.0000</r>
       <r>  -0.1492  1.0000</r>
       <r>  -0.1461  1.0000</r>
       <r>   2.0904  1.0000</r>
       <r>   2.0927  1.0000</r>
       <r>   2.0977  1.0000</r>
       <r>   2.0982  1.0000</r>
       <r>   2.0982  1.0000</r>
       <r>   2.0990  1.0000</r>
       <r>   2.0999  1.0000</r>
       <r>   2.1007  1.0000</r>
       <r>   2.1007  1.0000</r>
       <r>   2.1032  1.0000</r>
       <r>   4.3008  1.0000</r>
       <r>   4.3008  1.0000</r>
       <r>   4.3010  1.0000</r>
       <r>   4.3015  1.0000</r>
       <r>   4.3018  1.0000</r>
       <r>   4.3023  1.0000</r>
       <r>   4.3025  1.0000</r>
       <r>   4.3025  1.0000</r>
       <r>   5.8724  1.0000</r>
       <r>   5.8724  1.0000</r>
       <r>   5.8755  1.0000</r>
       <r>   5.8755  1.0000</r>
       <r>   6.5110  1.0000</r>
       <r>   6.5110  1.0000</r>
       <r>   6.5114  1.0000</r>
       <r>   6.5119  1.0000</r>
       <r>   6.5121  1.0000</r>
       <r>   6.5126  1.0000</r>
       <r>   6.5130  1.0000</r>
       <r>   6.5130  1.0000</r>
       <r>   7.2854  1.0000</r>
       <r>   7.2865  1.0000</r>
       <r>   7.2882  1.0000</r>
       <r>   7.2893  1.0000</r>
       <r>   7.9897  1.0000</r>
       <r>   7.9897  1.0000</r>
       <r>   7.9906  1.0000</r>
       <r>   7.9920  1.0000</r>
       <r>   7.9921  1.0000</r>
       <r>   7.9935  1.0000</r>
       <r>   7.9945  1.0000</r>
       <r>   7.9945  1.0000</r>
       <r>   9.5612  0.0000</r>
       <r>   9.5621  0.0000</r>
       <r>   9.5621  0.0000</r>
       <r>   9.5622  0.0000</r>
       <r>   9.5645  0.0000</r>
       <r>   9.5647  0.0000</r>
       <r>   9.5647  0.0000</r>
       <r>   9.5656  0.0000</r>
       <r>  10.1152  0.0000</r>
       <r>  10.1152  0.0000</r>
       <r>  10.1175  0.0000</r>
       <r>  10.1175  0.0000</r>
       <r>  10.9888  0.0000</r>
       <r>  10.9900  0.0000</r>
       <r>  11.7755  0.0000</r>
       <r>  11.7768  0.0000</r>
      </set>
      <set comment="kpoint 8">
       <r>  -2.9993  1.0000</r>
       <r>  -1.0826  1.0000</r>
       <r>  -0.7055  1.0000</r>
       <r>  -0.7025  1.0000</r>
       <r>  -0.7025  1.0000</r>
       <r>  -0.6996  1.0000</r>
       <r>  -0.3237  1.0000</r>
       <r>   1.1795  1.0000</r>
       <r>   1.1824  1.0000</r>
       <r>   1.1824  1.0000</r>
       <r>   1.1854  1.0000</r>
       <r>   1.5540  1.0000</r>
       <r>   1.5550  1.0000</r>
       <r>   1.5574  1.0000</r>
       <r>   1.5584  1.0000</r>
       <r>   1.9258  1.0000</r>
       <r>   1.9288  1.0000</r>
       <r>   1.9288  1.0000</r>
       <r>   1.9318  1.0000</r>
       <r>   3.3888  1.0000</r>
       <r>   3.3897  1.0000</r>
       <r>   3.3920  1.0000</r>
       <r>   3.3929  1.0000</r>
       <r>   4.1855  1.0000</r>
       <r>   4.1864  1.0000</r>
       <r>   4.1887  1.0000</r>
       <r>   4.1896  1.0000</r>
       <r>   5.0446  1.0000</r>
       <r>   5.3605  1.0000</r>
       <r>   5.3605  1.0000</r>
       <r>   6.7567  1.0000</r>
       <r>   6.7567  1.0000</r>
       <r>   7.0701  1.0000</r>
       <r>   7.1230  1.0000</r>
       <r>   7.1231  1.0000</r>
       <r>   7.1648  1.0000</r>
       <r>   7.1681  1.0000</r>
       <r>   7.1681  1.0000</r>
       <r>   7.1714  1.0000</r>
       <r>   7.4736  1.0000</r>
       <r>   7.4764  1.0000</r>
       <r>   7.4764  1.0000</r>
       <r>   7.4792  1.0000</r>
       <r>   7.8299  1.0000</r>
       <r>   7.8299  1.0000</r>
       <r>   8.3690  0.2451</r>
       <r>   8.3691  0.2427</r>
       <r>   8.6519  0.0000</r>
       <r>   8.6548  0.0000</r>
       <r>   8.6548  0.0000</r>
       <r>   8.6577  0.0000</r>
       <r>   9.2431  0.0000</r>
       <r>   9.2459  0.0000</r>
       <r>   9.2459  0.0000</r>
       <r>   9.2487  0.0000</r>
       <r>   9.3241  0.0000</r>
       <r>   9.3257  0.0000</r>
       <r>   9.3280  0.0000</r>
       <r>   9.3296  0.0000</r>
       <r>   9.7620  0.0000</r>
       <r>   9.7621  0.0000</r>
       <r>   9.7840  0.0000</r>
       <r>   9.7850  0.0000</r>
       <r>   9.7851  0.0000</r>
       <r>   9.7861  0.0000</r>
       <r>   9.9520  0.0000</r>
       <r>   9.9548  0.0000</r>
       <r>   9.9566  0.0000</r>
      </set>
      <set comment="kpoint 9">
       <r>  -2.9832  1.0000</r>
       <r>  -1.0680  1.0000</r>
       <r>  -1.0655  1.0000</r>
       <r>  -0.6867  1.0000</r>
       <r>  -0.6867  1.0000</r>
       <r>  -0.3091  1.0000</r>
       <r>  -0.3067  1.0000</r>
       <r>   0.8232  1.0000</r>
       <r>   1.1963  1.0000</r>
       <r>   1.1973  1.0000</r>
       <r>   1.1988  1.0000</r>
       <r>   1.1997  1.0000</r>
       <r>   1.5711  1.0000</r>
       <r>   1.5721  1.0000</r>
       <r>   1.9426  1.0000</r>
       <r>   1.9436  1.0000</r>
       <r>   1.9451  1.0000</r>
       <r>   1.9460  1.0000</r>
       <r>   2.3158  1.0000</r>
       <r>   3.0506  1.0000</r>
       <r>   3.0506  1.0000</r>
       <r>   3.6535  1.0000</r>
       <r>   3.6536  1.0000</r>
       <r>   3.9562  1.0000</r>
       <r>   3.9562  1.0000</r>
       <r>   4.5559  1.0000</r>
       <r>   4.5559  1.0000</r>
       <r>   5.0592  1.0000</r>
       <r>   5.0599  1.0000</r>
       <r>   5.3752  1.0000</r>
       <r>   6.7721  1.0000</r>
       <r>   6.8321  1.0000</r>
       <r>   6.8344  1.0000</r>
       <r>   7.0849  1.0000</r>
       <r>   7.0857  1.0000</r>
       <r>   7.1142  1.0000</r>
       <r>   7.1143  1.0000</r>
       <r>   7.1365  1.0000</r>
       <r>   7.1392  1.0000</r>
       <r>   7.2642  1.0000</r>
       <r>   7.2642  1.0000</r>
       <r>   7.5223  1.0000</r>
       <r>   7.5242  1.0000</r>
       <r>   7.8432  1.0000</r>
       <r>   7.8460  1.0000</r>
       <r>   8.5054  0.0000</r>
       <r>   8.5077  0.0000</r>
       <r>   8.6323  0.0000</r>
       <r>   8.6350  0.0000</r>
       <r>   8.8678  0.0000</r>
       <r>   8.8678  0.0000</r>
       <r>   8.9064  0.0000</r>
       <r>   8.9843  0.0000</r>
       <r>   8.9853  0.0000</r>
       <r>   8.9867  0.0000</r>
       <r>   8.9877  0.0000</r>
       <r>   9.6141  0.0000</r>
       <r>   9.6160  0.0000</r>
       <r>   9.6958  0.0000</r>
       <r>   9.6967  0.0000</r>
       <r>   9.6973  0.0000</r>
       <r>   9.6983  0.0000</r>
       <r>   9.8296  0.0000</r>
       <r>   9.8303  0.0000</r>
       <r>   9.8954  0.0000</r>
       <r>   9.8954  0.0000</r>
       <r>   9.9728  0.0000</r>
       <r>   9.9745  0.0000</r>
      </set>
      <set comment="kpoint 10">
       <r>  -2.9350  1.0000</r>
       <r>  -1.4001  1.0000</r>
       <r>  -1.0192  1.0000</r>
       <r>  -0.6393  1.0000</r>
       <r>  -0.6393  1.0000</r>
       <r>  -0.2606  1.0000</r>
       <r>   0.1169  1.0000</r>
       <r>   0.4944  1.0000</r>
       <r>   0.8701  1.0000</r>
       <r>   0.8701  1.0000</r>
       <r>   1.2440  1.0000</r>
       <r>   1.2448  1.0000</r>
       <r>   1.2454  1.0000</r>
       <r>   1.9900  1.0000</r>
       <r>   1.9908  1.0000</r>
       <r>   1.9914  1.0000</r>
       <r>   2.3620  1.0000</r>
       <r>   2.3620  1.0000</r>
       <r>   2.7309  1.0000</r>
       <r>   2.7310  1.0000</r>
       <r>   2.7324  1.0000</r>
       <r>   3.4515  1.0000</r>
       <r>   3.4515  1.0000</r>
       <r>   4.2490  1.0000</r>
       <r>   4.2490  1.0000</r>
       <r>   4.4888  1.0000</r>
       <r>   4.9630  1.0000</r>
       <r>   4.9630  1.0000</r>
       <r>   5.1041  1.0000</r>
       <r>   5.4191  1.0000</r>
       <r>   6.2813  1.0000</r>
       <r>   6.5250  1.0000</r>
       <r>   6.6246  1.0000</r>
       <r>   6.6246  1.0000</r>
       <r>   6.8181  1.0000</r>
       <r>   6.8289  1.0000</r>
       <r>   6.9791  1.0000</r>
       <r>   7.1308  1.0000</r>
       <r>   7.1820  1.0000</r>
       <r>   7.2562  1.0000</r>
       <r>   7.2562  1.0000</r>
       <r>   7.7390  1.0000</r>
       <r>   7.8581  1.0000</r>
       <r>   7.8888  1.0000</r>
       <r>   8.2425  1.0000</r>
       <r>   8.3309  1.0000</r>
       <r>   8.4590  0.0000</r>
       <r>   8.4591  0.0000</r>
       <r>   8.4608  0.0000</r>
       <r>   8.5967  0.0000</r>
       <r>   8.6532  0.0000</r>
       <r>   8.6747  0.0000</r>
       <r>   8.6748  0.0000</r>
       <r>   9.0586  0.0000</r>
       <r>   9.1622  0.0000</r>
       <r>   9.1625  0.0000</r>
       <r>   9.1734  0.0000</r>
       <r>   9.1738  0.0000</r>
       <r>   9.3050  0.0000</r>
       <r>  10.0139  0.0000</r>
       <r>  10.0844  0.0000</r>
       <r>  10.0846  0.0000</r>
       <r>  10.0965  0.0000</r>
       <r>  10.0967  0.0000</r>
       <r>  10.2048  0.0000</r>
       <r>  10.2700  0.0000</r>
       <r>  10.2700  0.0000</r>
       <r>  10.2943  0.0000</r>
      </set>
      <set comment="kpoint 11">
       <r>  -2.8546  1.0000</r>
       <r>  -1.7025  1.0000</r>
       <r>  -0.9399  1.0000</r>
       <r>  -0.5603  1.0000</r>
       <r>  -0.5603  1.0000</r>
       <r>  -0.1818  1.0000</r>
       <r>   0.1962  1.0000</r>
       <r>   0.5702  1.0000</r>
       <r>   0.5727  1.0000</r>
       <r>   0.5740  1.0000</r>
       <r>   0.9481  1.0000</r>
       <r>   1.3228  1.0000</r>
       <r>   1.3228  1.0000</r>
       <r>   2.0683  1.0000</r>
       <r>   2.0683  1.0000</r>
       <r>   2.4371  1.0000</r>
       <r>   2.4392  1.0000</r>
       <r>   2.4408  1.0000</r>
       <r>   2.8088  1.0000</r>
       <r>   2.8088  1.0000</r>
       <r>   3.1722  1.0000</r>
       <r>   3.1729  1.0000</r>
       <r>   3.1783  1.0000</r>
       <r>   3.8744  1.0000</r>
       <r>   4.6775  1.0000</r>
       <r>   4.6775  1.0000</r>
       <r>   5.1783  1.0000</r>
       <r>   5.4015  1.0000</r>
       <r>   5.4016  1.0000</r>
       <r>   5.4925  1.0000</r>
       <r>   5.6834  1.0000</r>
       <r>   6.0369  1.0000</r>
       <r>   6.0369  1.0000</r>
       <r>   6.2449  1.0000</r>
       <r>   6.3922  1.0000</r>
       <r>   6.5496  1.0000</r>
       <r>   6.8946  1.0000</r>
       <r>   7.2064  1.0000</r>
       <r>   7.2556  1.0000</r>
       <r>   7.3264  1.0000</r>
       <r>   7.3264  1.0000</r>
       <r>   7.8739  1.0000</r>
       <r>   7.8739  1.0000</r>
       <r>   7.8935  1.0000</r>
       <r>   7.9625  1.0000</r>
       <r>   8.2359  1.0000</r>
       <r>   8.3164  1.0000</r>
       <r>   8.3929  0.0000</r>
       <r>   8.3930  0.0000</r>
       <r>   8.4719  0.0000</r>
       <r>   8.4916  0.0000</r>
       <r>   8.5909  0.0000</r>
       <r>   8.5910  0.0000</r>
       <r>   8.6701  0.0000</r>
       <r>   8.7737  0.0000</r>
       <r>   9.0245  0.0000</r>
       <r>   9.3577  0.0000</r>
       <r>   9.3582  0.0000</r>
       <r>   9.3582  0.0000</r>
       <r>   9.9172  0.0000</r>
       <r>  10.4424  0.0000</r>
       <r>  10.4461  0.0000</r>
       <r>  10.5252  0.0000</r>
       <r>  10.5252  0.0000</r>
       <r>  10.5500  0.0000</r>
       <r>  10.5500  0.0000</r>
       <r>  10.5981  0.0000</r>
       <r>  10.6333  0.0000</r>
      </set>
      <set comment="kpoint 12">
       <r>  -2.7421  1.0000</r>
       <r>  -1.9736  1.0000</r>
       <r>  -0.8290  1.0000</r>
       <r>  -0.4497  1.0000</r>
       <r>  -0.4497  1.0000</r>
       <r>  -0.0720  1.0000</r>
       <r>  -0.0708  1.0000</r>
       <r>   0.3060  1.0000</r>
       <r>   0.3060  1.0000</r>
       <r>   0.6821  1.0000</r>
       <r>   1.0554  1.0000</r>
       <r>   1.4318  1.0000</r>
       <r>   1.4319  1.0000</r>
       <r>   2.1759  1.0000</r>
       <r>   2.1764  1.0000</r>
       <r>   2.1772  1.0000</r>
       <r>   2.1776  1.0000</r>
       <r>   2.9148  1.0000</r>
       <r>   2.9152  1.0000</r>
       <r>   2.9158  1.0000</r>
       <r>   3.2651  1.0000</r>
       <r>   3.2840  1.0000</r>
       <r>   3.2841  1.0000</r>
       <r>   3.6514  1.0000</r>
       <r>   5.0877  1.0000</r>
       <r>   5.1439  1.0000</r>
       <r>   5.1439  1.0000</r>
       <r>   5.2823  1.0000</r>
       <r>   5.4464  1.0000</r>
       <r>   5.4464  1.0000</r>
       <r>   5.5951  1.0000</r>
       <r>   5.8049  1.0000</r>
       <r>   5.8695  1.0000</r>
       <r>   5.8695  1.0000</r>
       <r>   5.9937  1.0000</r>
       <r>   6.2998  1.0000</r>
       <r>   7.0011  1.0000</r>
       <r>   7.2867  1.0000</r>
       <r>   7.2867  1.0000</r>
       <r>   7.3117  1.0000</r>
       <r>   7.3587  1.0000</r>
       <r>   7.4292  1.0000</r>
       <r>   7.4292  1.0000</r>
       <r>   7.6965  1.0000</r>
       <r>   8.0057  1.0000</r>
       <r>   8.0063  1.0000</r>
       <r>   8.0094  1.0000</r>
       <r>   8.0649  1.0000</r>
       <r>   8.0666  1.0000</r>
       <r>   8.1408  1.0000</r>
       <r>   8.1408  1.0000</r>
       <r>   8.7736  0.0000</r>
       <r>   8.8864  0.0000</r>
       <r>   8.9014  0.0000</r>
       <r>   9.1274  0.0000</r>
       <r>   9.2941  0.0000</r>
       <r>   9.5153  0.0000</r>
       <r>   9.5153  0.0000</r>
       <r>   9.5583  0.0000</r>
       <r>   9.6578  0.0000</r>
       <r>  10.2915  0.0000</r>
       <r>  10.2915  0.0000</r>
       <r>  10.3696  0.0000</r>
       <r>  10.8633  0.0000</r>
       <r>  10.9006  0.0000</r>
       <r>  10.9801  0.0000</r>
       <r>  10.9830  0.0000</r>
       <r>  10.9834  0.0000</r>
      </set>
      <set comment="kpoint 13">
       <r>  -2.5977  1.0000</r>
       <r>  -2.2133  1.0000</r>
       <r>  -0.6866  1.0000</r>
       <r>  -0.3090  1.0000</r>
       <r>  -0.3077  1.0000</r>
       <r>  -0.3063  1.0000</r>
       <r>   0.0688  1.0000</r>
       <r>   0.0703  1.0000</r>
       <r>   0.0716  1.0000</r>
       <r>   0.4471  1.0000</r>
       <r>   1.5674  1.0000</r>
       <r>   1.5719  1.0000</r>
       <r>   1.5724  1.0000</r>
       <r>   1.9446  1.0000</r>
       <r>   1.9446  1.0000</r>
       <r>   2.3158  1.0000</r>
       <r>   2.3158  1.0000</r>
       <r>   2.6745  1.0000</r>
       <r>   2.6856  1.0000</r>
       <r>   2.6857  1.0000</r>
       <r>   3.4202  1.0000</r>
       <r>   3.7870  1.0000</r>
       <r>   3.7870  1.0000</r>
       <r>   4.1527  1.0000</r>
       <r>   4.5086  1.0000</r>
       <r>   4.8708  1.0000</r>
       <r>   4.8708  1.0000</r>
       <r>   5.2320  1.0000</r>
       <r>   5.4158  1.0000</r>
       <r>   5.6406  1.0000</r>
       <r>   5.6407  1.0000</r>
       <r>   5.7272  1.0000</r>
       <r>   5.7716  1.0000</r>
       <r>   6.0795  1.0000</r>
       <r>   6.3657  1.0000</r>
       <r>   6.3657  1.0000</r>
       <r>   6.7149  1.0000</r>
       <r>   6.7149  1.0000</r>
       <r>   7.1367  1.0000</r>
       <r>   7.4364  1.0000</r>
       <r>   7.4366  1.0000</r>
       <r>   7.4463  1.0000</r>
       <r>   7.4891  1.0000</r>
       <r>   7.4912  1.0000</r>
       <r>   7.5624  1.0000</r>
       <r>   7.5624  1.0000</r>
       <r>   7.7973  1.0000</r>
       <r>   7.8448  1.0000</r>
       <r>   7.9183  1.0000</r>
       <r>   7.9183  1.0000</r>
       <r>   8.1984  1.0000</r>
       <r>   8.5524  0.0000</r>
       <r>   9.0500  0.0000</r>
       <r>   9.3613  0.0000</r>
       <r>   9.4271  0.0000</r>
       <r>   9.6144  0.0000</r>
       <r>   9.6763  0.0000</r>
       <r>   9.6763  0.0000</r>
       <r>   9.7373  0.0000</r>
       <r>  10.0606  0.0000</r>
       <r>  10.0606  0.0000</r>
       <r>  10.1329  0.0000</r>
       <r>  10.1356  0.0000</r>
       <r>  10.4122  0.0000</r>
       <r>  10.6774  0.0000</r>
       <r>  11.3157  0.0000</r>
       <r>  11.3887  0.0000</r>
       <r>  11.4697  0.0000</r>
      </set>
      <set comment="kpoint 14">
       <r>  -2.4228  1.0000</r>
       <r>  -2.4199  1.0000</r>
       <r>  -0.5142  1.0000</r>
       <r>  -0.5113  1.0000</r>
       <r>  -0.1364  1.0000</r>
       <r>  -0.1352  1.0000</r>
       <r>  -0.1335  1.0000</r>
       <r>  -0.1323  1.0000</r>
       <r>   0.2415  1.0000</r>
       <r>   0.2445  1.0000</r>
       <r>   1.7408  1.0000</r>
       <r>   1.7421  1.0000</r>
       <r>   1.7438  1.0000</r>
       <r>   1.7450  1.0000</r>
       <r>   2.1074  1.0000</r>
       <r>   2.1087  1.0000</r>
       <r>   2.4835  1.0000</r>
       <r>   2.4847  1.0000</r>
       <r>   2.4864  1.0000</r>
       <r>   2.4877  1.0000</r>
       <r>   3.9512  1.0000</r>
       <r>   3.9524  1.0000</r>
       <r>   4.3157  1.0000</r>
       <r>   4.3162  1.0000</r>
       <r>   4.3170  1.0000</r>
       <r>   4.3174  1.0000</r>
       <r>   4.6796  1.0000</r>
       <r>   4.6808  1.0000</r>
       <r>   5.5774  1.0000</r>
       <r>   5.5805  1.0000</r>
       <r>   5.8870  1.0000</r>
       <r>   5.8901  1.0000</r>
       <r>   6.1643  1.0000</r>
       <r>   6.1645  1.0000</r>
       <r>   6.1657  1.0000</r>
       <r>   6.1659  1.0000</r>
       <r>   6.8879  1.0000</r>
       <r>   6.8881  1.0000</r>
       <r>   6.8892  1.0000</r>
       <r>   6.8895  1.0000</r>
       <r>   7.2989  1.0000</r>
       <r>   7.3017  1.0000</r>
       <r>   7.6072  1.0000</r>
       <r>   7.6101  1.0000</r>
       <r>   7.6516  1.0000</r>
       <r>   7.6548  1.0000</r>
       <r>   7.7231  1.0000</r>
       <r>   7.7246  1.0000</r>
       <r>   7.7263  1.0000</r>
       <r>   7.7277  1.0000</r>
       <r>   8.3590  0.7671</r>
       <r>   8.3622  0.6102</r>
       <r>   9.2232  0.0000</r>
       <r>   9.2261  0.0000</r>
       <r>   9.8544  0.0000</r>
       <r>   9.8550  0.0000</r>
       <r>   9.8574  0.0000</r>
       <r>   9.8580  0.0000</r>
       <r>   9.8706  0.0000</r>
       <r>   9.8726  0.0000</r>
       <r>   9.9246  0.0000</r>
       <r>   9.9276  0.0000</r>
       <r>  10.1300  0.0000</r>
       <r>  10.1323  0.0000</r>
       <r>  11.0022  0.0000</r>
       <r>  11.0034  0.0000</r>
       <r>  11.7921  0.0000</r>
       <r>  11.7954  0.0000</r>
      </set>
      <set comment="kpoint 15">
       <r>  -2.9510  1.0000</r>
       <r>  -1.4160  1.0000</r>
       <r>  -0.6580  1.0000</r>
       <r>  -0.6551  1.0000</r>
       <r>  -0.6551  1.0000</r>
       <r>  -0.6522  1.0000</r>
       <r>   0.1012  1.0000</r>
       <r>   0.8515  1.0000</r>
       <r>   0.8545  1.0000</r>
       <r>   0.8545  1.0000</r>
       <r>   0.8574  1.0000</r>
       <r>   1.6007  1.0000</r>
       <r>   1.6017  1.0000</r>
       <r>   1.6040  1.0000</r>
       <r>   1.6050  1.0000</r>
       <r>   2.3436  1.0000</r>
       <r>   2.3465  1.0000</r>
       <r>   2.3465  1.0000</r>
       <r>   2.3495  1.0000</r>
       <r>   3.0791  1.0000</r>
       <r>   3.0800  1.0000</r>
       <r>   3.0824  1.0000</r>
       <r>   3.0833  1.0000</r>
       <r>   4.4737  1.0000</r>
       <r>   4.5842  1.0000</r>
       <r>   4.5851  1.0000</r>
       <r>   4.5875  1.0000</r>
       <r>   4.5885  1.0000</r>
       <r>   5.4045  1.0000</r>
       <r>   5.4045  1.0000</r>
       <r>   6.6155  1.0000</r>
       <r>   6.6187  1.0000</r>
       <r>   6.6188  1.0000</r>
       <r>   6.6219  1.0000</r>
       <r>   6.8027  1.0000</r>
       <r>   6.8029  1.0000</r>
       <r>   6.8142  1.0000</r>
       <r>   6.8143  1.0000</r>
       <r>   7.5178  1.0000</r>
       <r>   7.5206  1.0000</r>
       <r>   7.5206  1.0000</r>
       <r>   7.5234  1.0000</r>
       <r>   7.7241  1.0000</r>
       <r>   8.1638  1.0000</r>
       <r>   8.1639  1.0000</r>
       <r>   8.2277  1.0000</r>
       <r>   8.2278  1.0000</r>
       <r>   8.7990  0.0000</r>
       <r>   8.8004  0.0000</r>
       <r>   8.8028  0.0000</r>
       <r>   8.8041  0.0000</r>
       <r>   8.8998  0.0000</r>
       <r>   8.9025  0.0000</r>
       <r>   8.9025  0.0000</r>
       <r>   8.9051  0.0000</r>
       <r>   8.9332  0.0000</r>
       <r>   8.9360  0.0000</r>
       <r>   8.9361  0.0000</r>
       <r>   8.9388  0.0000</r>
       <r>  10.0494  0.0000</r>
       <r>  10.0494  0.0000</r>
       <r>  10.2126  0.0000</r>
       <r>  10.2143  0.0000</r>
       <r>  10.2143  0.0000</r>
       <r>  10.2160  0.0000</r>
       <r>  10.3510  0.0000</r>
       <r>  10.3537  0.0000</r>
       <r>  10.3556  0.0000</r>
      </set>
      <set comment="kpoint 16">
       <r>  -2.9350  1.0000</r>
       <r>  -1.4001  1.0000</r>
       <r>  -1.0192  1.0000</r>
       <r>  -0.6393  1.0000</r>
       <r>  -0.6393  1.0000</r>
       <r>  -0.2606  1.0000</r>
       <r>   0.1169  1.0000</r>
       <r>   0.4944  1.0000</r>
       <r>   0.8701  1.0000</r>
       <r>   0.8701  1.0000</r>
       <r>   1.2433  1.0000</r>
       <r>   1.2448  1.0000</r>
       <r>   1.2461  1.0000</r>
       <r>   1.9893  1.0000</r>
       <r>   1.9908  1.0000</r>
       <r>   1.9921  1.0000</r>
       <r>   2.3620  1.0000</r>
       <r>   2.3620  1.0000</r>
       <r>   2.7309  1.0000</r>
       <r>   2.7310  1.0000</r>
       <r>   2.7324  1.0000</r>
       <r>   3.4515  1.0000</r>
       <r>   3.4515  1.0000</r>
       <r>   4.2490  1.0000</r>
       <r>   4.2490  1.0000</r>
       <r>   4.4887  1.0000</r>
       <r>   4.9630  1.0000</r>
       <r>   4.9630  1.0000</r>
       <r>   5.1041  1.0000</r>
       <r>   5.4191  1.0000</r>
       <r>   6.2813  1.0000</r>
       <r>   6.5250  1.0000</r>
       <r>   6.6246  1.0000</r>
       <r>   6.6246  1.0000</r>
       <r>   6.8181  1.0000</r>
       <r>   6.8289  1.0000</r>
       <r>   6.9792  1.0000</r>
       <r>   7.1308  1.0000</r>
       <r>   7.1820  1.0000</r>
       <r>   7.2563  1.0000</r>
       <r>   7.2563  1.0000</r>
       <r>   7.7390  1.0000</r>
       <r>   7.8581  1.0000</r>
       <r>   7.8888  1.0000</r>
       <r>   8.2425  1.0000</r>
       <r>   8.3309  1.0000</r>
       <r>   8.4591  0.0000</r>
       <r>   8.4591  0.0000</r>
       <r>   8.4607  0.0000</r>
       <r>   8.5966  0.0000</r>
       <r>   8.6533  0.0000</r>
       <r>   8.6747  0.0000</r>
       <r>   8.6748  0.0000</r>
       <r>   9.0586  0.0000</r>
       <r>   9.1626  0.0000</r>
       <r>   9.1626  0.0000</r>
       <r>   9.1733  0.0000</r>
       <r>   9.1733  0.0000</r>
       <r>   9.3050  0.0000</r>
       <r>  10.0138  0.0000</r>
       <r>  10.0842  0.0000</r>
       <r>  10.0848  0.0000</r>
       <r>  10.0965  0.0000</r>
       <r>  10.0967  0.0000</r>
       <r>  10.2048  0.0000</r>
       <r>  10.2700  0.0000</r>
       <r>  10.2700  0.0000</r>
       <r>  10.2943  0.0000</r>
      </set>
      <set comment="kpoint 17">
       <r>  -2.8867  1.0000</r>
       <r>  -1.3537  1.0000</r>
       <r>  -1.3512  1.0000</r>
       <r>  -0.5919  1.0000</r>
       <r>  -0.5919  1.0000</r>
       <r>   0.1624  1.0000</r>
       <r>   0.1644  1.0000</r>
       <r>   0.1662  1.0000</r>
       <r>   0.9153  1.0000</r>
       <r>   0.9163  1.0000</r>
       <r>   0.9178  1.0000</r>
       <r>   0.9187  1.0000</r>
       <r>   1.6641  1.0000</r>
       <r>   1.6651  1.0000</r>
       <r>   2.4058  1.0000</r>
       <r>   2.4070  1.0000</r>
       <r>   2.4083  1.0000</r>
       <r>   2.4083  1.0000</r>
       <r>   2.4096  1.0000</r>
       <r>   2.4108  1.0000</r>
       <r>   3.1472  1.0000</r>
       <r>   3.7426  1.0000</r>
       <r>   3.7426  1.0000</r>
       <r>   4.0502  1.0000</r>
       <r>   4.0502  1.0000</r>
       <r>   4.5335  1.0000</r>
       <r>   4.5344  1.0000</r>
       <r>   5.3715  1.0000</r>
       <r>   5.3716  1.0000</r>
       <r>   5.4631  1.0000</r>
       <r>   5.9694  1.0000</r>
       <r>   5.9718  1.0000</r>
       <r>   6.5558  1.0000</r>
       <r>   6.5558  1.0000</r>
       <r>   6.8315  1.0000</r>
       <r>   6.8316  1.0000</r>
       <r>   6.8639  1.0000</r>
       <r>   6.8717  1.0000</r>
       <r>   6.8744  1.0000</r>
       <r>   7.3489  1.0000</r>
       <r>   7.3509  1.0000</r>
       <r>   7.7832  1.0000</r>
       <r>   7.7842  1.0000</r>
       <r>   8.1443  1.0000</r>
       <r>   8.1453  1.0000</r>
       <r>   8.1468  1.0000</r>
       <r>   8.1478  1.0000</r>
       <r>   8.2845  1.0000</r>
       <r>   8.2868  1.0000</r>
       <r>   8.2891  1.0000</r>
       <r>   8.4037  0.0000</r>
       <r>   8.4053  0.0000</r>
       <r>   9.0163  0.0000</r>
       <r>   9.0189  0.0000</r>
       <r>   9.5728  0.0000</r>
       <r>   9.5739  0.0000</r>
       <r>   9.5743  0.0000</r>
       <r>   9.5752  0.0000</r>
       <r>   9.6064  0.0000</r>
       <r>   9.6066  0.0000</r>
       <r>   9.7028  0.0000</r>
       <r>   9.7046  0.0000</r>
       <r>   9.8890  0.0000</r>
       <r>  10.2094  0.0000</r>
       <r>  10.2101  0.0000</r>
       <r>  10.4913  0.0000</r>
       <r>  10.4913  0.0000</r>
       <r>  10.8556  0.0000</r>
      </set>
      <set comment="kpoint 18">
       <r>  -2.8064  1.0000</r>
       <r>  -1.6547  1.0000</r>
       <r>  -1.2730  1.0000</r>
       <r>  -0.5129  1.0000</r>
       <r>  -0.5129  1.0000</r>
       <r>  -0.1342  1.0000</r>
       <r>   0.2426  1.0000</r>
       <r>   0.6172  1.0000</r>
       <r>   0.6197  1.0000</r>
       <r>   0.6210  1.0000</r>
       <r>   0.9952  1.0000</r>
       <r>   0.9952  1.0000</r>
       <r>   1.3689  1.0000</r>
       <r>   2.1125  1.0000</r>
       <r>   2.1150  1.0000</r>
       <r>   2.1164  1.0000</r>
       <r>   2.4855  1.0000</r>
       <r>   2.4855  1.0000</r>
       <r>   2.8549  1.0000</r>
       <r>   2.8549  1.0000</r>
       <r>   3.5724  1.0000</r>
       <r>   3.5726  1.0000</r>
       <r>   3.5912  1.0000</r>
       <r>   3.9200  1.0000</r>
       <r>   4.3716  1.0000</r>
       <r>   4.3716  1.0000</r>
       <r>   4.6092  1.0000</r>
       <r>   5.3696  1.0000</r>
       <r>   5.5365  1.0000</r>
       <r>   5.6880  1.0000</r>
       <r>   5.8100  1.0000</r>
       <r>   5.8100  1.0000</r>
       <r>   6.0660  1.0000</r>
       <r>   6.0660  1.0000</r>
       <r>   6.5937  1.0000</r>
       <r>   6.7805  1.0000</r>
       <r>   6.8050  1.0000</r>
       <r>   6.8050  1.0000</r>
       <r>   6.9397  1.0000</r>
       <r>   6.9466  1.0000</r>
       <r>   7.5595  1.0000</r>
       <r>   7.5595  1.0000</r>
       <r>   7.6611  1.0000</r>
       <r>   7.8578  1.0000</r>
       <r>   7.8626  1.0000</r>
       <r>   7.8626  1.0000</r>
       <r>   8.0069  1.0000</r>
       <r>   8.2544  1.0000</r>
       <r>   8.3605  0.6999</r>
       <r>   8.4903  0.0000</r>
       <r>   8.5354  0.0000</r>
       <r>   8.7144  0.0000</r>
       <r>   8.8435  0.0000</r>
       <r>   8.9931  0.0000</r>
       <r>   8.9931  0.0000</r>
       <r>   9.4231  0.0000</r>
       <r>   9.5332  0.0000</r>
       <r>   9.6014  0.0000</r>
       <r>   9.9167  0.0000</r>
       <r>   9.9167  0.0000</r>
       <r>  10.0037  0.0000</r>
       <r>  10.0037  0.0000</r>
       <r>  10.1321  0.0000</r>
       <r>  10.5080  0.0000</r>
       <r>  10.5232  0.0000</r>
       <r>  10.9833  0.0000</r>
       <r>  10.9854  0.0000</r>
       <r>  11.0273  0.0000</r>
      </set>
      <set comment="kpoint 19">
       <r>  -2.6940  1.0000</r>
       <r>  -1.9258  1.0000</r>
       <r>  -1.1619  1.0000</r>
       <r>  -0.4037  1.0000</r>
       <r>  -0.4024  1.0000</r>
       <r>  -0.4009  1.0000</r>
       <r>   0.3514  1.0000</r>
       <r>   0.3531  1.0000</r>
       <r>   0.3543  1.0000</r>
       <r>   1.1010  1.0000</r>
       <r>   1.1039  1.0000</r>
       <r>   1.1045  1.0000</r>
       <r>   1.1056  1.0000</r>
       <r>   1.8516  1.0000</r>
       <r>   1.8516  1.0000</r>
       <r>   2.5917  1.0000</r>
       <r>   2.5934  1.0000</r>
       <r>   2.5936  1.0000</r>
       <r>   3.3109  1.0000</r>
       <r>   3.3250  1.0000</r>
       <r>   3.3252  1.0000</r>
       <r>   3.3301  1.0000</r>
       <r>   3.3304  1.0000</r>
       <r>   4.0629  1.0000</r>
       <r>   4.7144  1.0000</r>
       <r>   4.7713  1.0000</r>
       <r>   4.8291  1.0000</r>
       <r>   4.8291  1.0000</r>
[...]
       <r>   2.6696  1.0000</r>
       <r>   3.0292  1.0000</r>
       <r>   3.0311  1.0000</r>
       <r>   3.0328  1.0000</r>
       <r>   3.0332  1.0000</r>
       <r>   3.0332  1.0000</r>
       <r>   3.0336  1.0000</r>
       <r>   3.0353  1.0000</r>
       <r>   3.0372  1.0000</r>
       <r>   3.3968  1.0000</r>
       <r>   3.3986  1.0000</r>
       <r>   3.4004  1.0000</r>
       <r>   3.4007  1.0000</r>
       <r>   3.4008  1.0000</r>
       <r>   3.4012  1.0000</r>
       <r>   3.4029  1.0000</r>
       <r>   3.4048  1.0000</r>
       <r>   3.7596  1.0000</r>
       <r>   3.7621  1.0000</r>
       <r>   3.7626  1.0000</r>
       <r>   3.7651  1.0000</r>
       <r>   7.0550  1.0000</r>
       <r>   7.0569  1.0000</r>
       <r>   7.0589  1.0000</r>
       <r>   7.0591  1.0000</r>
       <r>   7.0592  1.0000</r>
       <r>   7.0595  1.0000</r>
       <r>   7.0615  1.0000</r>
       <r>   7.0634  1.0000</r>
       <r>   7.4090  1.0000</r>
       <r>   7.4103  1.0000</r>
       <r>   7.4104  1.0000</r>
       <r>   7.4116  1.0000</r>
       <r>   7.7727  1.0000</r>
       <r>   7.7740  1.0000</r>
       <r>   7.7742  1.0000</r>
       <r>   7.7754  1.0000</r>
       <r>   8.1161  1.0000</r>
       <r>   8.1182  1.0000</r>
       <r>   8.1202  1.0000</r>
       <r>   8.1205  1.0000</r>
       <r>   8.1205  1.0000</r>
       <r>   8.1208  1.0000</r>
       <r>   8.1228  1.0000</r>
       <r>   8.1249  1.0000</r>
       <r>  11.2313  0.0000</r>
       <r>  11.2336  0.0000</r>
       <r>  11.2343  0.0000</r>
       <r>  11.2365  0.0000</r>
       <r>  11.3442  0.0000</r>
       <r>  11.3455  0.0000</r>
       <r>  11.3459  0.0000</r>
       <r>  11.3471  0.0000</r>
       <r>  11.9281  0.0000</r>
       <r>  11.9291  0.0000</r>
       <r>  11.9306  0.0000</r>
       <r>  11.9316  0.0000</r>
      </set>
      <set comment="kpoint 190">
       <r>  -1.8620  1.0000</r>
       <r>  -1.8619  1.0000</r>
       <r>  -1.8619  1.0000</r>
       <r>  -1.8619  1.0000</r>
       <r>   0.4107  1.0000</r>
       <r>   0.4153  1.0000</r>
       <r>   0.4153  1.0000</r>
       <r>   0.4159  1.0000</r>
       <r>   0.4161  1.0000</r>
       <r>   0.4166  1.0000</r>
       <r>   0.4166  1.0000</r>
       <r>   0.4212  1.0000</r>
       <r>   2.6487  1.0000</r>
       <r>   2.6487  1.0000</r>
       <r>   2.6487  1.0000</r>
       <r>   2.6487  1.0000</r>
       <r>   2.6487  1.0000</r>
       <r>   2.6487  1.0000</r>
       <r>   2.6487  1.0000</r>
       <r>   2.6487  1.0000</r>
       <r>   4.6897  1.0000</r>
       <r>   4.6897  1.0000</r>
       <r>   4.6912  1.0000</r>
       <r>   4.6912  1.0000</r>
       <r>   4.6912  1.0000</r>
       <r>   4.6912  1.0000</r>
       <r>   4.6928  1.0000</r>
       <r>   4.6928  1.0000</r>
       <r>   5.0343  1.0000</r>
       <r>   5.0343  1.0000</r>
       <r>   5.0361  1.0000</r>
       <r>   5.0361  1.0000</r>
       <r>   5.0361  1.0000</r>
       <r>   5.0362  1.0000</r>
       <r>   5.0379  1.0000</r>
       <r>   5.0379  1.0000</r>
       <r>   6.4026  1.0000</r>
       <r>   6.4026  1.0000</r>
       <r>   6.4026  1.0000</r>
       <r>   6.4027  1.0000</r>
       <r>   6.9281  1.0000</r>
       <r>   6.9282  1.0000</r>
       <r>   6.9282  1.0000</r>
       <r>   6.9282  1.0000</r>
       <r>   8.0133  1.0000</r>
       <r>   8.0134  1.0000</r>
       <r>   8.0134  1.0000</r>
       <r>   8.0134  1.0000</r>
       <r>   9.1972  0.0000</r>
       <r>   9.1972  0.0000</r>
       <r>   9.1976  0.0000</r>
       <r>   9.1988  0.0000</r>
       <r>   9.2003  0.0000</r>
       <r>   9.2015  0.0000</r>
       <r>   9.2019  0.0000</r>
       <r>   9.2019  0.0000</r>
       <r>  10.6490  0.0000</r>
       <r>  10.6490  0.0000</r>
       <r>  10.6490  0.0000</r>
       <r>  10.6491  0.0000</r>
       <r>  10.6491  0.0000</r>
       <r>  10.6491  0.0000</r>
       <r>  10.6491  0.0000</r>
       <r>  10.6491  0.0000</r>
       <r>  11.3670  0.0000</r>
       <r>  11.3670  0.0000</r>
       <r>  11.3670  0.0000</r>
       <r>  11.3670  0.0000</r>
      </set>
      <set comment="kpoint 191">
       <r>  -1.8460  1.0000</r>
       <r>  -1.8460  1.0000</r>
       <r>  -1.8460  1.0000</r>
       <r>  -1.8460  1.0000</r>
       <r>   0.0547  1.0000</r>
       <r>   0.0547  1.0000</r>
       <r>   0.0547  1.0000</r>
       <r>   0.0547  1.0000</r>
       <r>   0.8074  1.0000</r>
       <r>   0.8074  1.0000</r>
       <r>   0.8074  1.0000</r>
       <r>   0.8074  1.0000</r>
       <r>   2.6641  1.0000</r>
       <r>   2.6641  1.0000</r>
       <r>   2.6641  1.0000</r>
       <r>   2.6641  1.0000</r>
       <r>   2.6641  1.0000</r>
       <r>   2.6641  1.0000</r>
       <r>   2.6641  1.0000</r>
       <r>   2.6641  1.0000</r>
       <r>   4.4736  1.0000</r>
       <r>   4.4736  1.0000</r>
       <r>   4.4742  1.0000</r>
       <r>   4.4742  1.0000</r>
       <r>   4.4742  1.0000</r>
       <r>   4.4742  1.0000</r>
       <r>   4.4748  1.0000</r>
       <r>   4.4748  1.0000</r>
       <r>   5.2817  1.0000</r>
       <r>   5.2817  1.0000</r>
       <r>   5.2826  1.0000</r>
       <r>   5.2826  1.0000</r>
       <r>   5.2826  1.0000</r>
       <r>   5.2826  1.0000</r>
       <r>   5.2834  1.0000</r>
       <r>   5.2834  1.0000</r>
       <r>   6.1027  1.0000</r>
       <r>   6.1027  1.0000</r>
       <r>   6.1027  1.0000</r>
       <r>   6.1027  1.0000</r>
       <r>   6.9951  1.0000</r>
       <r>   6.9951  1.0000</r>
       <r>   6.9951  1.0000</r>
       <r>   6.9951  1.0000</r>
       <r>   8.2889  1.0000</r>
       <r>   8.2889  1.0000</r>
       <r>   8.2889  1.0000</r>
       <r>   8.2889  1.0000</r>
       <r>   8.8558  0.0000</r>
       <r>   8.8558  0.0000</r>
       <r>   8.8558  0.0000</r>
       <r>   8.8558  0.0000</r>
       <r>   9.5723  0.0000</r>
       <r>   9.5723  0.0000</r>
       <r>   9.5723  0.0000</r>
       <r>   9.5723  0.0000</r>
       <r>  10.3700  0.0000</r>
       <r>  10.3700  0.0000</r>
       <r>  10.3706  0.0000</r>
       <r>  10.3706  0.0000</r>
       <r>  10.3706  0.0000</r>
       <r>  10.3707  0.0000</r>
       <r>  10.3713  0.0000</r>
       <r>  10.3713  0.0000</r>
       <r>  11.4623  0.0000</r>
       <r>  11.4627  0.0000</r>
       <r>  11.4632  0.0000</r>
       <r>  11.4635  0.0000</r>
      </set>
      <set comment="kpoint 192">
       <r>  -1.7982  1.0000</r>
       <r>  -1.7981  1.0000</r>
       <r>  -1.7981  1.0000</r>
       <r>  -1.7981  1.0000</r>
       <r>  -0.2760  1.0000</r>
       <r>  -0.2760  1.0000</r>
       <r>  -0.2760  1.0000</r>
       <r>  -0.2760  1.0000</r>
       <r>   1.2287  1.0000</r>
       <r>   1.2287  1.0000</r>
       <r>   1.2287  1.0000</r>
       <r>   1.2287  1.0000</r>
       <r>   2.7103  1.0000</r>
       <r>   2.7103  1.0000</r>
       <r>   2.7103  1.0000</r>
       <r>   2.7103  1.0000</r>
       <r>   2.7103  1.0000</r>
       <r>   2.7103  1.0000</r>
       <r>   2.7103  1.0000</r>
       <r>   2.7103  1.0000</r>
       <r>   4.1714  1.0000</r>
       <r>   4.1714  1.0000</r>
       <r>   4.1717  1.0000</r>
       <r>   4.1717  1.0000</r>
       <r>   4.1717  1.0000</r>
       <r>   4.1717  1.0000</r>
       <r>   4.1720  1.0000</r>
       <r>   4.1720  1.0000</r>
       <r>   5.5467  1.0000</r>
       <r>   5.5467  1.0000</r>
       <r>   5.5467  1.0000</r>
       <r>   5.5467  1.0000</r>
       <r>   5.6729  1.0000</r>
       <r>   5.6729  1.0000</r>
       <r>   5.6734  1.0000</r>
       <r>   5.6734  1.0000</r>
       <r>   5.6734  1.0000</r>
       <r>   5.6734  1.0000</r>
       <r>   5.6739  1.0000</r>
       <r>   5.6739  1.0000</r>
       <r>   7.0739  1.0000</r>
       <r>   7.0739  1.0000</r>
       <r>   7.0739  1.0000</r>
       <r>   7.0739  1.0000</r>
       <r>   8.5412  0.0000</r>
       <r>   8.5412  0.0000</r>
       <r>   8.5412  0.0000</r>
       <r>   8.5412  0.0000</r>
       <r>   8.8938  0.0000</r>
       <r>   8.8939  0.0000</r>
       <r>   8.8939  0.0000</r>
       <r>   8.8939  0.0000</r>
       <r>   9.8411  0.0000</r>
       <r>   9.8411  0.0000</r>
       <r>   9.8417  0.0000</r>
       <r>   9.8417  0.0000</r>
       <r>   9.8417  0.0000</r>
       <r>   9.8418  0.0000</r>
       <r>   9.8423  0.0000</r>
       <r>   9.8423  0.0000</r>
       <r>   9.9737  0.0000</r>
       <r>   9.9737  0.0000</r>
       <r>   9.9737  0.0000</r>
       <r>   9.9737  0.0000</r>
       <r>  11.5749  0.0000</r>
       <r>  11.5756  0.0000</r>
       <r>  11.5758  0.0000</r>
       <r>  11.5761  0.0000</r>
      </set>
      <set comment="kpoint 193">
       <r>  -1.7185  1.0000</r>
       <r>  -1.7184  1.0000</r>
       <r>  -1.7184  1.0000</r>
       <r>  -1.7184  1.0000</r>
       <r>  -0.5759  1.0000</r>
       <r>  -0.5759  1.0000</r>
       <r>  -0.5759  1.0000</r>
       <r>  -0.5759  1.0000</r>
       <r>   1.6795  1.0000</r>
       <r>   1.6795  1.0000</r>
       <r>   1.6795  1.0000</r>
       <r>   1.6795  1.0000</r>
       <r>   2.7873  1.0000</r>
       <r>   2.7873  1.0000</r>
       <r>   2.7873  1.0000</r>
       <r>   2.7873  1.0000</r>
       <r>   2.7873  1.0000</r>
       <r>   2.7873  1.0000</r>
       <r>   2.7873  1.0000</r>
       <r>   2.7873  1.0000</r>
       <r>   3.8870  1.0000</r>
       <r>   3.8870  1.0000</r>
       <r>   3.8871  1.0000</r>
       <r>   3.8871  1.0000</r>
       <r>   3.8871  1.0000</r>
       <r>   3.8871  1.0000</r>
       <r>   3.8873  1.0000</r>
       <r>   3.8873  1.0000</r>
       <r>   4.9450  1.0000</r>
       <r>   4.9450  1.0000</r>
       <r>   4.9450  1.0000</r>
       <r>   4.9451  1.0000</r>
       <r>   6.1045  1.0000</r>
       <r>   6.1045  1.0000</r>
       <r>   6.1049  1.0000</r>
       <r>   6.1049  1.0000</r>
       <r>   6.1049  1.0000</r>
       <r>   6.1049  1.0000</r>
       <r>   6.1053  1.0000</r>
       <r>   6.1053  1.0000</r>
       <r>   7.1613  1.0000</r>
       <r>   7.1613  1.0000</r>
       <r>   7.1613  1.0000</r>
       <r>   7.1614  1.0000</r>
       <r>   8.2560  1.0000</r>
       <r>   8.2560  1.0000</r>
       <r>   8.2560  1.0000</r>
       <r>   8.2560  1.0000</r>
       <r>   9.2632  0.0000</r>
       <r>   9.2632  0.0000</r>
       <r>   9.2637  0.0000</r>
       <r>   9.2637  0.0000</r>
       <r>   9.2637  0.0000</r>
       <r>   9.2637  0.0000</r>
       <r>   9.2642  0.0000</r>
       <r>   9.2642  0.0000</r>
       <r>   9.6208  0.0000</r>
       <r>   9.6208  0.0000</r>
       <r>   9.6208  0.0000</r>
       <r>   9.6208  0.0000</r>
       <r>  10.4034  0.0000</r>
       <r>  10.4034  0.0000</r>
       <r>  10.4034  0.0000</r>
       <r>  10.4034  0.0000</r>
       <r>  11.6767  0.0000</r>
       <r>  11.6771  0.0000</r>
       <r>  11.6773  0.0000</r>
       <r>  11.6776  0.0000</r>
      </set>
      <set comment="kpoint 194">
       <r>  -1.6070  1.0000</r>
       <r>  -1.6069  1.0000</r>
       <r>  -1.6069  1.0000</r>
       <r>  -1.6069  1.0000</r>
       <r>  -0.8448  1.0000</r>
       <r>  -0.8448  1.0000</r>
       <r>  -0.8448  1.0000</r>
       <r>  -0.8448  1.0000</r>
       <r>   2.1591  1.0000</r>
       <r>   2.1591  1.0000</r>
       <r>   2.1591  1.0000</r>
       <r>   2.1591  1.0000</r>
       <r>   2.8949  1.0000</r>
       <r>   2.8949  1.0000</r>
       <r>   2.8949  1.0000</r>
       <r>   2.8949  1.0000</r>
       <r>   2.8949  1.0000</r>
       <r>   2.8949  1.0000</r>
       <r>   2.8950  1.0000</r>
       <r>   2.8950  1.0000</r>
       <r>   3.6293  1.0000</r>
       <r>   3.6293  1.0000</r>
       <r>   3.6294  1.0000</r>
       <r>   3.6294  1.0000</r>
       <r>   3.6294  1.0000</r>
       <r>   3.6295  1.0000</r>
       <r>   3.6296  1.0000</r>
       <r>   3.6296  1.0000</r>
       <r>   4.3454  1.0000</r>
       <r>   4.3454  1.0000</r>
       <r>   4.3454  1.0000</r>
       <r>   4.3454  1.0000</r>
       <r>   6.5673  1.0000</r>
       <r>   6.5673  1.0000</r>
       <r>   6.5677  1.0000</r>
       <r>   6.5677  1.0000</r>
       <r>   6.5677  1.0000</r>
       <r>   6.5677  1.0000</r>
       <r>   6.5681  1.0000</r>
       <r>   6.5681  1.0000</r>
       <r>   7.2720  1.0000</r>
       <r>   7.2720  1.0000</r>
       <r>   7.2720  1.0000</r>
       <r>   7.2720  1.0000</r>
       <r>   8.0003  1.0000</r>
       <r>   8.0003  1.0000</r>
       <r>   8.0003  1.0000</r>
       <r>   8.0003  1.0000</r>
       <r>   8.6844  0.0000</r>
       <r>   8.6844  0.0000</r>
       <r>   8.6848  0.0000</r>
       <r>   8.6848  0.0000</r>
       <r>   8.6848  0.0000</r>
       <r>   8.6848  0.0000</r>
       <r>   8.6852  0.0000</r>
       <r>   8.6852  0.0000</r>
       <r>  10.4072  0.0000</r>
       <r>  10.4073  0.0000</r>
       <r>  10.4073  0.0000</r>
       <r>  10.4073  0.0000</r>
       <r>  10.8610  0.0000</r>
       <r>  10.8610  0.0000</r>
       <r>  10.8610  0.0000</r>
       <r>  10.8610  0.0000</r>
       <r>  11.7919  0.0000</r>
       <r>  11.7921  0.0000</r>
       <r>  11.7924  0.0000</r>
       <r>  11.7926  0.0000</r>
      </set>
      <set comment="kpoint 195">
       <r>  -1.4638  1.0000</r>
       <r>  -1.4637  1.0000</r>
       <r>  -1.4637  1.0000</r>
       <r>  -1.4637  1.0000</r>
       <r>  -1.0825  1.0000</r>
       <r>  -1.0825  1.0000</r>
       <r>  -1.0825  1.0000</r>
       <r>  -1.0825  1.0000</r>
       <r>   2.6669  1.0000</r>
       <r>   2.6669  1.0000</r>
       <r>   2.6669  1.0000</r>
       <r>   2.6669  1.0000</r>
       <r>   3.0332  1.0000</r>
       <r>   3.0332  1.0000</r>
       <r>   3.0332  1.0000</r>
       <r>   3.0332  1.0000</r>
       <r>   3.0332  1.0000</r>
       <r>   3.0332  1.0000</r>
       <r>   3.0332  1.0000</r>
       <r>   3.0332  1.0000</r>
       <r>   3.4007  1.0000</r>
       <r>   3.4007  1.0000</r>
       <r>   3.4008  1.0000</r>
       <r>   3.4008  1.0000</r>
       <r>   3.4008  1.0000</r>
       <r>   3.4008  1.0000</r>
       <r>   3.4009  1.0000</r>
       <r>   3.4009  1.0000</r>
       <r>   3.7623  1.0000</r>
       <r>   3.7623  1.0000</r>
       <r>   3.7623  1.0000</r>
       <r>   3.7624  1.0000</r>
       <r>   7.0588  1.0000</r>
       <r>   7.0588  1.0000</r>
       <r>   7.0592  1.0000</r>
       <r>   7.0592  1.0000</r>
       <r>   7.0592  1.0000</r>
       <r>   7.0592  1.0000</r>
       <r>   7.0595  1.0000</r>
       <r>   7.0595  1.0000</r>
       <r>   7.4103  1.0000</r>
       <r>   7.4103  1.0000</r>
       <r>   7.4103  1.0000</r>
       <r>   7.4103  1.0000</r>
       <r>   7.7741  1.0000</r>
       <r>   7.7741  1.0000</r>
       <r>   7.7741  1.0000</r>
       <r>   7.7741  1.0000</r>
       <r>   8.1201  1.0000</r>
       <r>   8.1201  1.0000</r>
       <r>   8.1205  1.0000</r>
       <r>   8.1205  1.0000</r>
       <r>   8.1205  1.0000</r>
       <r>   8.1205  1.0000</r>
       <r>   8.1209  1.0000</r>
       <r>   8.1209  1.0000</r>
       <r>  11.2339  0.0000</r>
       <r>  11.2340  0.0000</r>
       <r>  11.2340  0.0000</r>
       <r>  11.2340  0.0000</r>
       <r>  11.3457  0.0000</r>
       <r>  11.3457  0.0000</r>
       <r>  11.3457  0.0000</r>
       <r>  11.3457  0.0000</r>
       <r>  11.9294  0.0000</r>
       <r>  11.9296  0.0000</r>
       <r>  11.9299  0.0000</r>
       <r>  11.9302  0.0000</r>
      </set>
      <set comment="kpoint 196">
       <r>  -1.2937  1.0000</r>
       <r>  -1.2893  1.0000</r>
       <r>  -1.2893  1.0000</r>
       <r>  -1.2889  1.0000</r>
       <r>  -1.2889  1.0000</r>
       <r>  -1.2884  1.0000</r>
       <r>  -1.2884  1.0000</r>
       <r>  -1.2840  1.0000</r>
       <r>   3.1916  1.0000</r>
       <r>   3.1977  1.0000</r>
       <r>   3.1977  1.0000</r>
       <r>   3.2010  1.0000</r>
       <r>   3.2013  1.0000</r>
       <r>   3.2014  1.0000</r>
       <r>   3.2018  1.0000</r>
       <r>   3.2018  1.0000</r>
       <r>   3.2019  1.0000</r>
       <r>   3.2019  1.0000</r>
       <r>   3.2019  1.0000</r>
       <r>   3.2019  1.0000</r>
       <r>   3.2019  1.0000</r>
       <r>   3.2019  1.0000</r>
       <r>   3.2019  1.0000</r>
       <r>   3.2019  1.0000</r>
       <r>   3.2020  1.0000</r>
       <r>   3.2020  1.0000</r>
       <r>   3.2024  1.0000</r>
       <r>   3.2025  1.0000</r>
       <r>   3.2028  1.0000</r>
       <r>   3.2061  1.0000</r>
       <r>   3.2061  1.0000</r>
       <r>   3.2122  1.0000</r>
       <r>   7.5713  1.0000</r>
       <r>   7.5713  1.0000</r>
       <r>   7.5735  1.0000</r>
       <r>   7.5752  1.0000</r>
       <r>   7.5767  1.0000</r>
       <r>   7.5771  1.0000</r>
       <r>   7.5772  1.0000</r>
       <r>   7.5772  1.0000</r>
       <r>   7.5775  1.0000</r>
       <r>   7.5775  1.0000</r>
       <r>   7.5775  1.0000</r>
       <r>   7.5775  1.0000</r>
       <r>   7.5775  1.0000</r>
       <r>   7.5775  1.0000</r>
       <r>   7.5775  1.0000</r>
       <r>   7.5775  1.0000</r>
       <r>   7.5778  1.0000</r>
       <r>   7.5778  1.0000</r>
       <r>   7.5779  1.0000</r>
       <r>   7.5783  1.0000</r>
       <r>   7.5798  1.0000</r>
       <r>   7.5816  1.0000</r>
       <r>   7.5837  1.0000</r>
       <r>   7.5837  1.0000</r>
       <r>  11.8549  0.0000</r>
       <r>  11.8551  0.0000</r>
       <r>  11.8551  0.0000</r>
       <r>  11.8555  0.0000</r>
       <r>  11.8572  0.0000</r>
       <r>  11.8577  0.0000</r>
       <r>  11.8577  0.0000</r>
       <r>  11.8581  0.0000</r>
       <r>  12.0913  0.0000</r>
       <r>  12.0920  0.0000</r>
       <r>  12.0925  0.0000</r>
       <r>  12.0936  0.0000</r>
      </set>
     </set>
    </set>
   </array>
  </eigenvalues>
 </calculation>
 <structure name="finalpos" >
  <crystal>
   <varray name="basis" >
    <v>       7.99386661      0.00000000      0.00000000</v>
    <v>       0.00000000      7.99386661      0.00000000</v>
    <v>       0.00000000      0.00000000      7.99386661</v>
   </varray>
   <i name="volume">    510.82329211</i>
   <varray name="rec_basis" >
    <v>       0.12509591      0.00000000      0.00000000</v>
    <v>       0.00000000      0.12509591      0.00000000</v>
    <v>       0.00000000      0.00000000      0.12509591</v>
   </varray>
  </crystal>
  <varray name="positions" >
   <v>       0.25125096      0.25000000      0.00000000</v>
   <v>       0.75000000      0.25000000      0.00000000</v>
   <v>       0.25000000      0.75000000      0.00000000</v>
   <v>       0.75000000      0.75000000      0.00000000</v>
   <v>       0.25000000      0.25000000      0.50000000</v>
   <v>       0.75000000      0.25000000      0.50000000</v>
   <v>       0.25000000      0.75000000      0.50000000</v>
   <v>       0.75000000      0.75000000      0.50000000</v>
   <v>       0.25000000      0.00000000      0.25000000</v>
   <v>       0.75000000      0.00000000      0.25000000</v>
   <v>       0.25000000      0.50000000      0.25000000</v>
   <v>       0.75000000      0.50000000      0.25000000</v>
   <v>       0.25000000      0.00000000      0.75000000</v>
   <v>       0.75000000      0.00000000      0.75000000</v>
   <v>       0.25000000      0.50000000      0.75000000</v>
   <v>       0.75000000      0.50000000      0.75000000</v>
   <v>       0.00000000      0.25000000      0.25000000</v>
   <v>       0.50000000      0.25000000      0.25000000</v>
   <v>       0.00000000      0.75000000      0.25000000</v>
   <v>       0.50000000      0.75000000      0.25000000</v>
   <v>       0.00000000      0.25000000      0.75000000</v>
   <v>       0.50000000      0.25000000      0.75000000</v>
   <v>       0.00000000      0.75000000      0.75000000</v>
   <v>       0.50000000      0.75000000      0.75000000</v>
   <v>       0.00000000      0.00000000      0.00000000</v>
   <v>       0.50000000      0.00000000      0.00000000</v>
   <v>       0.00000000      0.50000000      0.00000000</v>
   <v>       0.50000000      0.50000000      0.00000000</v>
   <v>       0.00000000      0.00000000      0.50000000</v>
   <v>       0.50000000      0.00000000      0.50000000</v>
   <v>       0.00000000      0.50000000      0.50000000</v>
   <v>       0.50000000      0.50000000      0.50000000</v>
  </varray>
 </structure>
</modeling>
