mesh: [    48,    48,    48 ]
nqpoint: 2600   
reciprocal_lattice:
- [   0.25535041,   0.00000000,   0.00000000 ] # a*
- [   0.00000000,   0.25535041,   0.00000000 ] # b*
- [   0.00000000,   0.00000000,   0.25535041 ] # c*
natom:   4      
lattice:
- [     3.916187178582630,     0.000000000000000,     0.000000000000000 ] # a
- [     0.000000000000000,     3.916187178582630,     0.000000000000000 ] # b
- [     0.000000000000000,     0.000000000000000,     3.916187178582630 ] # c
points:
- symbol: Al # 1
  coordinates: [  0.500000000000000,  0.500000000000000,  0.000000000000000 ]
  mass: 26.981539
- symbol: Al # 2
  coordinates: [  0.500000000000000,  0.000000000000000,  0.500000000000000 ]
  mass: 26.981539
- symbol: Al # 3
  coordinates: [  0.000000000000000,  0.500000000000000,  0.500000000000000 ]
  mass: 26.981539
- symbol: Al # 4
  coordinates: [  0.000000000000000,  0.000000000000000,  0.000000000000000 ]
  mass: 26.981539
phonon:
- q-position: [    0.0104167,    0.0104167,    0.0104167 ]
  weight: 8    
  band:
  - # 1
    frequency:     0.1752591319
  - # 2
    frequency:     0.1752591319
  - # 3
    frequency:     0.3606048329
  - # 4
    frequency:     6.5105635516
  - # 5
    frequency:     6.5105635516
  - # 6
    frequency:     6.5105635516
  - # 7
    frequency:     6.5156447065
  - # 8
    frequency:     6.5156447065
  - # 9
    frequency:     6.5156447065
  - # 10
    frequency:    11.3764501084
  - # 11
    frequency:    11.3764501084
  - # 12
    frequency:    11.3764501084

- q-position: [    0.0312500,    0.0104167,    0.0104167 ]
  weight: 24   
  band:
  - # 1
    frequency:     0.3514182518
  - # 2
    frequency:     0.3919947677
  - # 3
    frequency:     0.6510490334
  - # 4
    frequency:     6.5060743853
  - # 5
    frequency:     6.5111523317
  - # 6
    frequency:     6.5182006413
  - # 7
    frequency:     6.5182006413
  - # 8
    frequency:     6.5341094653
  - # 9
    frequency:     6.5341094653
  - # 10
    frequency:    11.3636891003
  - # 11
    frequency:    11.3689146107
  - # 12
    frequency:    11.3689146107

- q-position: [    0.0520833,    0.0104167,    0.0104167 ]
  weight: 24   
  band:
  - # 1
    frequency:     0.5966228299
  - # 2
    frequency:     0.6313540436
  - # 3
    frequency:     0.9811820780
  - # 4
    frequency:     6.4970741610
  - # 5
    frequency:     6.5021455612
  - # 6
    frequency:     6.5376013751
  - # 7
    frequency:     6.5376013751
  - # 8
    frequency:     6.5664892614
  - # 9
    frequency:     6.5664892614
  - # 10
    frequency:    11.3381864148
  - # 11
    frequency:    11.3538526213
  - # 12
    frequency:    11.3538526213

- q-position: [    0.0729167,    0.0104167,    0.0104167 ]
  weight: 24   
  band:
  - # 1
    frequency:     0.8463527466
  - # 2
    frequency:     0.8738938629
  - # 3
    frequency:     1.3246154289
  - # 4
    frequency:     6.4835194669
  - # 5
    frequency:     6.4885807266
  - # 6
    frequency:     6.5678265905
  - # 7
    frequency:     6.5678265905
  - # 8
    frequency:     6.6128927725
  - # 9
    frequency:     6.6128927725
  - # 10
    frequency:    11.2999806414
  - # 11
    frequency:    11.3312822823
  - # 12
    frequency:    11.3312822823

- q-position: [    0.0937500,    0.0104167,    0.0104167 ]
  weight: 24   
  band:
  - # 1
    frequency:     1.0942855812
  - # 2
    frequency:     1.1163024246
  - # 3
    frequency:     1.6736121773
  - # 4
    frequency:     6.4653461078
  - # 5
    frequency:     6.4703932503
  - # 6
    frequency:     6.6078936689
  - # 7
    frequency:     6.6078936689
  - # 8
    frequency:     6.6730951585
  - # 9
    frequency:     6.6730951585
  - # 10
    frequency:    11.2491294860
  - # 11
    frequency:    11.3012311315
  - # 12
    frequency:    11.3012311315

- q-position: [    0.1145833,    0.0104167,    0.0104167 ]
  weight: 24   
  band:
  - # 1
    frequency:     1.3394390404
  - # 2
    frequency:     1.3573057442
  - # 3
    frequency:     2.0247633935
  - # 4
    frequency:     6.4424701924
  - # 5
    frequency:     6.4474987364
  - # 6
    frequency:     6.6567564419
  - # 7
    frequency:     6.6567564419
  - # 8
    frequency:     6.7466004997
  - # 9
    frequency:     6.7466004997
  - # 10
    frequency:    11.1857095578
  - # 11
    frequency:    11.2637364913
  - # 12
    frequency:    11.2637364913

- q-position: [    0.1354167,    0.0104167,    0.0104167 ]
  weight: 24   
  band:
  - # 1
    frequency:     1.5814677203
  - # 2
    frequency:     1.5961363448
  - # 3
    frequency:     2.3762584666
  - # 4
    frequency:     6.4147895496
  - # 5
    frequency:     6.4197943912
  - # 6
    frequency:     6.7132861802
  - # 7
    frequency:     6.7132861802
  - # 8
    frequency:     6.8327118870
  - # 9
    frequency:     6.8327118870
  - # 10
    frequency:    11.1098160877
  - # 11
    frequency:    11.2188459839
  - # 12
    frequency:    11.2188459839

- q-position: [    0.1562500,    0.0104167,    0.0104167 ]
  weight: 24   
  band:
  - # 1
    frequency:     1.8200805611
  - # 2
    frequency:     1.8322079792
  - # 3
    frequency:     2.7269798597
  - # 4
    frequency:     6.3821854487
  - # 5
    frequency:     6.3871607485
  - # 6
    frequency:     6.7762713180
  - # 7
    frequency:     6.7762713180
  - # 8
    frequency:     6.9305879331
  - # 9
    frequency:     6.9305879331
  - # 10
    frequency:    11.0215625807
  - # 11
    frequency:    11.1666181736
  - # 12
    frequency:    11.1666181736

- q-position: [    0.1770833,    0.0104167,    0.0104167 ]
  weight: 24   
  band:
  - # 1
    frequency:     2.0549674435
  - # 2
    frequency:     2.0650188306
  - # 3
    frequency:     3.0761435255
  - # 4
    frequency:     6.3445245911
  - # 5
    frequency:     6.3494636668
  - # 6
    frequency:     6.8444318580
  - # 7
    frequency:     6.8444318580
  - # 8
    frequency:     7.0392862891
  - # 9
    frequency:     7.0392862891
  - # 10
    frequency:    10.9210804040
  - # 11
    frequency:    11.1071233316
  - # 12
    frequency:    11.1071233316

- q-position: [    0.1979167,    0.0104167,    0.0104167 ]
  weight: 24   
  band:
  - # 1
    frequency:     2.2858012138
  - # 2
    frequency:     2.2941165410
  - # 3
    frequency:     3.4231394136
  - # 4
    frequency:     6.3016613381
  - # 5
    frequency:     6.3065565631
  - # 6
    frequency:     6.9164416356
  - # 7
    frequency:     6.9164416356
  - # 8
    frequency:     7.1577979747
  - # 9
    frequency:     7.1577979747
  - # 10
    frequency:    10.8085183144
  - # 11
    frequency:    11.0404443238
  - # 12
    frequency:    11.0404443238

- q-position: [    0.2187500,    0.0104167,    0.0104167 ]
  weight: 24   
  band:
  - # 1
    frequency:     2.5122485886
  - # 2
    frequency:     2.5190840986
  - # 3
    frequency:     3.7674543449
  - # 4
    frequency:     6.2534401362
  - # 5
    frequency:     6.2582828442
  - # 6
    frequency:     6.9909533813
  - # 7
    frequency:     6.9909533813
  - # 8
    frequency:     7.2850752342
  - # 9
    frequency:     7.2850752342
  - # 10
    frequency:    10.6840419283
  - # 11
    frequency:    10.9666776166
  - # 12
    frequency:    10.9666776166

- q-position: [    0.2395833,    0.0104167,    0.0104167 ]
  weight: 24   
  band:
  - # 1
    frequency:     2.7339794781
  - # 2
    frequency:     2.7395338928
  - # 3
    frequency:     4.1086319788
  - # 4
    frequency:     6.1996980998
  - # 5
    frequency:     6.2044784959
  - # 6
    frequency:     7.0666235080
  - # 7
    frequency:     7.0666235080
  - # 8
    frequency:     7.4200543844
  - # 9
    frequency:     7.4200543844
  - # 10
    frequency:    10.5478331385
  - # 11
    frequency:    10.8859344005
  - # 12
    frequency:    10.8859344005

- q-position: [    0.2604167,    0.0104167,    0.0104167 ]
  weight: 24   
  band:
  - # 1
    frequency:     2.9506738346
  - # 2
    frequency:     2.9551053135
  - # 3
    frequency:     4.4462507855
  - # 4
    frequency:     6.1402677090
  - # 5
    frequency:     6.1449747859
  - # 6
    frequency:     7.1421349475
  - # 7
    frequency:     7.1421349475
  - # 8
    frequency:     7.5616744331
  - # 9
    frequency:     7.5616744331
  - # 10
    frequency:    10.4000894818
  - # 11
    frequency:    10.7983418283
  - # 12
    frequency:    10.7983418283

- q-position: [    0.2812500,    0.0104167,    0.0104167 ]
  weight: 24   
  band:
  - # 1
    frequency:     3.1620265936
  - # 2
    frequency:     3.1654639900
  - # 3
    frequency:     4.7799113439
  - # 4
    frequency:     6.0749795823
  - # 5
    frequency:     6.0796010422
  - # 6
    frequency:     7.2162172454
  - # 7
    frequency:     7.2162172454
  - # 8
    frequency:     7.7088919643
  - # 9
    frequency:     7.7088919643
  - # 10
    frequency:    10.2410234624
  - # 11
    frequency:    10.7040443655
  - # 12
    frequency:    10.7040443655

- q-position: [    0.3020833,    0.0104167,    0.0104167 ]
  weight: 24   
  band:
  - # 1
    frequency:     3.3677512911
  - # 2
    frequency:     3.3703018070
  - # 3
    frequency:     5.1092287437
  - # 4
    frequency:     6.0036652836
  - # 5
    frequency:     6.0081874640
  - # 6
    frequency:     7.2876636635
  - # 7
    frequency:     7.2876636635
  - # 8
    frequency:     7.8606927065
  - # 9
    frequency:     7.8606927065
  - # 10
    frequency:    10.0708618368
  - # 11
    frequency:    10.6032052518
  - # 12
    frequency:    10.6032052518

- q-position: [    0.3229167,    0.0104167,    0.0104167 ]
  weight: 24   
  band:
  - # 1
    frequency:     3.5675827649
  - # 2
    frequency:     3.5693372720
  - # 3
    frequency:     5.4338279263
  - # 4
    frequency:     5.9261601238
  - # 5
    frequency:     5.9305679261
  - # 6
    frequency:     7.3553453590
  - # 7
    frequency:     7.3553453590
  - # 8
    frequency:     8.0161001943
  - # 9
    frequency:     8.0161001943
  - # 10
    frequency:     9.8898448648
  - # 11
    frequency:    10.4960080709
  - # 12
    frequency:    10.4960080709

- q-position: [    0.3437500,    0.0104167,    0.0104167 ]
  weight: 24   
  band:
  - # 1
    frequency:     3.7612791981
  - # 2
    frequency:     3.7623160092
  - # 3
    frequency:     5.7533407954
  - # 4
    frequency:     5.8423059229
  - # 5
    frequency:     5.8465827428
  - # 6
    frequency:     7.4182228883
  - # 7
    frequency:     7.4182228883
  - # 8
    frequency:     8.1741819352
  - # 9
    frequency:     8.1741819352
  - # 10
    frequency:     9.6982255330
  - # 11
    frequency:    10.3826584305
  - # 12
    frequency:    10.3826584305

- q-position: [    0.3645833,    0.0104167,    0.0104167 ]
  weight: 24   
  band:
  - # 1
    frequency:     3.9486236671
  - # 2
    frequency:     3.9490112554
  - # 3
    frequency:     5.7519536975
  - # 4
    frequency:     5.7560813543
  - # 5
    frequency:     6.0674044375
  - # 6
    frequency:     7.4753553666
  - # 7
    frequency:     7.4753553666
  - # 8
    frequency:     8.3340534879
  - # 9
    frequency:     8.3340534879
  - # 10
    frequency:     9.4962687575
  - # 11
    frequency:    10.2633857497
  - # 12
    frequency:    10.2633857497

- q-position: [    0.3854167,    0.0104167,    0.0104167 ]
  weight: 24   
  band:
  - # 1
    frequency:     4.1292242792
  - # 2
    frequency:     4.1294252899
  - # 3
    frequency:     5.6549662438
  - # 4
    frequency:     5.6589249071
  - # 5
    frequency:     6.3756600683
  - # 6
    frequency:     7.5259076359
  - # 7
    frequency:     7.5259076359
  - # 8
    frequency:     8.4948808274
  - # 9
    frequency:     8.4948808274
  - # 10
    frequency:     9.2842505716
  - # 11
    frequency:    10.1384451634
  - # 12
    frequency:    10.1384451634

- q-position: [    0.4062500,    0.0104167,    0.0104167 ]
  weight: 24   
  band:
  - # 1
    frequency:     4.3027846776
  - # 2
    frequency:     4.3035200379
  - # 3
    frequency:     5.5512205911
  - # 4
    frequency:     5.5549887010
  - # 5
    frequency:     6.6777524705
  - # 6
    frequency:     7.5691557844
  - # 7
    frequency:     7.5691557844
  - # 8
    frequency:     8.6558813232
  - # 9
    frequency:     8.6558813232
  - # 10
    frequency:     9.0624573057
  - # 11
    frequency:    10.0081195602
  - # 12
    frequency:    10.0081195602

- q-position: [    0.4270833,    0.0104167,    0.0104167 ]
  weight: 24   
  band:
  - # 1
    frequency:     4.4695505176
  - # 2
    frequency:     4.4707712457
  - # 3
    frequency:     5.4406103004
  - # 4
    frequency:     5.4441644784
  - # 5
    frequency:     6.9733297770
  - # 6
    frequency:     7.6044913233
  - # 7
    frequency:     7.6044913233
  - # 8
    frequency:     8.8163235604
  - # 9
    frequency:     8.8163235604
  - # 10
    frequency:     8.8311847674
  - # 11
    frequency:     9.8727218239
  - # 12
    frequency:     9.8727218239

- q-position: [    0.4479167,    0.0104167,    0.0104167 ]
  weight: 24   
  band:
  - # 1
    frequency:     4.6294082988
  - # 2
    frequency:     4.6310698436
  - # 3
    frequency:     5.3230475906
  - # 4
    frequency:     5.3263625361
  - # 5
    frequency:     7.2620435048
  - # 6
    frequency:     7.6314242835
  - # 7
    frequency:     7.6314242835
  - # 8
    frequency:     8.5907374275
  - # 9
    frequency:     8.9755259483
  - # 10
    frequency:     8.9755259483
  - # 11
    frequency:     9.7325975861
  - # 12
    frequency:     9.7325975861

- q-position: [    0.4687500,    0.0104167,    0.0104167 ]
  weight: 24   
  band:
  - # 1
    frequency:     4.7822727237
  - # 2
    frequency:     4.7843343246
  - # 3
    frequency:     5.1984652757
  - # 4
    frequency:     5.2015136420
  - # 5
    frequency:     7.5435487769
  - # 6
    frequency:     7.6495854463
  - # 7
    frequency:     7.6495854463
  - # 8
    frequency:     8.3414276228
  - # 9
    frequency:     9.1328523493
  - # 10
    frequency:     9.1328523493
  - # 11
    frequency:     9.5881304569
  - # 12
    frequency:     9.5881304569

- q-position: [    0.4895833,    0.0104167,    0.0104167 ]
  weight: 24   
  band:
  - # 1
    frequency:     4.9280862615
  - # 2
    frequency:     4.9305104567
  - # 3
    frequency:     5.0668184996
  - # 4
    frequency:     5.0695707437
  - # 5
    frequency:     7.6587278763
  - # 6
    frequency:     7.6587278763
  - # 7
    frequency:     7.8175046880
  - # 8
    frequency:     8.0835747826
  - # 9
    frequency:     9.2876713012
  - # 10
    frequency:     9.2876713012
  - # 11
    frequency:     9.4397833169
  - # 12
    frequency:     9.4397833169

- q-position: [    0.0312500,    0.0312500,    0.0104167 ]
  weight: 24   
  band:
  - # 1
    frequency:     0.3907959748
  - # 2
    frequency:     0.5182547889
  - # 3
    frequency:     0.8878117693
  - # 4
    frequency:     6.5136741994
  - # 5
    frequency:     6.5136741994
  - # 6
    frequency:     6.5163545212
  - # 7
    frequency:     6.5295863128
  - # 8
    frequency:     6.5295863128
  - # 9
    frequency:     6.5617731796
  - # 10
    frequency:    11.3562123932
  - # 11
    frequency:    11.3562123932
  - # 12
    frequency:    11.3613821768

- q-position: [    0.0520833,    0.0312500,    0.0104167 ]
  weight: 48   
  band:
  - # 1
    frequency:     0.5647900009
  - # 2
    frequency:     0.7162159808
  - # 3
    frequency:     1.1797183771
  - # 4
    frequency:     6.5045995458
  - # 5
    frequency:     6.5205182522
  - # 6
    frequency:     6.5267820398
  - # 7
    frequency:     6.5329850066
  - # 8
    frequency:     6.5619208033
  - # 9
    frequency:     6.6025658616
  - # 10
    frequency:    11.3308274695
  - # 11
    frequency:    11.3412683607
  - # 12
    frequency:    11.3463263358

- q-position: [    0.0729167,    0.0312500,    0.0104167 ]
  weight: 48   
  band:
  - # 1
    frequency:     0.7944494158
  - # 2
    frequency:     0.9369689542
  - # 3
    frequency:     1.4929265044
  - # 4
    frequency:     6.4909335033
  - # 5
    frequency:     6.5068621465
  - # 6
    frequency:     6.5491269999
  - # 7
    frequency:     6.5630632451
  - # 8
    frequency:     6.6082705674
  - # 9
    frequency:     6.6560289651
  - # 10
    frequency:    11.2927987923
  - # 11
    frequency:    11.3188758981
  - # 12
    frequency:    11.3237652711

- q-position: [    0.0937500,    0.0312500,    0.0104167 ]
  weight: 48   
  band:
  - # 1
    frequency:     1.0390799242
  - # 2
    frequency:     1.1663328548
  - # 3
    frequency:     1.8176103226
  - # 4
    frequency:     6.4726122053
  - # 5
    frequency:     6.4885542178
  - # 6
    frequency:     6.5826347686
  - # 7
    frequency:     6.6029267574
  - # 8
    frequency:     6.6684126888
  - # 9
    frequency:     6.7217318259
  - # 10
    frequency:    11.2421846178
  - # 11
    frequency:    11.2890636781
  - # 12
    frequency:    11.2937265822

- q-position: [    0.1145833,    0.0312500,    0.0104167 ]
  weight: 48   
  band:
  - # 1
    frequency:     1.2865196051
  - # 2
    frequency:     1.3987633627
  - # 3
    frequency:     2.1490548254
  - # 4
    frequency:     6.4495521550
  - # 5
    frequency:     6.4655111418
  - # 6
    frequency:     6.6263277644
  - # 7
    frequency:     6.6515321800
  - # 8
    frequency:     6.7418513652
  - # 9
    frequency:     6.7991370063
  - # 10
    frequency:    11.1790622996
  - # 11
    frequency:    11.2518705447
  - # 12
    frequency:    11.2562476723

- q-position: [    0.1354167,    0.0312500,    0.0104167 ]
  weight: 48   
  band:
  - # 1
    frequency:     1.5326326700
  - # 2
    frequency:     1.6315803865
  - # 3
    frequency:     2.4844166836
  - # 4
    frequency:     6.4216516040
  - # 5
    frequency:     6.4376314752
  - # 6
    frequency:     6.6790423281
  - # 7
    frequency:     6.7077542947
  - # 8
    frequency:     6.8278894501
  - # 9
    frequency:     6.8876128181
  - # 10
    frequency:    11.1035280160
  - # 11
    frequency:    11.2073460377
  - # 12
    frequency:    11.2113762634

- q-position: [    0.1562500,    0.0312500,    0.0104167 ]
  weight: 48   
  band:
  - # 1
    frequency:     1.7757334956
  - # 2
    frequency:     1.8632333568
  - # 3
    frequency:     2.8217694484
  - # 4
    frequency:     6.3887922245
  - # 5
    frequency:     6.4047973907
  - # 6
    frequency:     6.7394637495
  - # 7
    frequency:     6.7703850236
  - # 8
    frequency:     6.9256854935
  - # 9
    frequency:     6.9864528580
  - # 10
    frequency:    11.0156964344
  - # 11
    frequency:    11.1555510437
  - # 12
    frequency:    11.1591710376

- q-position: [    0.1770833,    0.0312500,    0.0104167 ]
  weight: 48   
  band:
  - # 1
    frequency:     2.0149856603
  - # 2
    frequency:     2.0926870702
  - # 3
    frequency:     3.1597119878
  - # 4
    frequency:     6.3508410428
  - # 5
    frequency:     6.3668766902
  - # 6
    frequency:     6.8061656192
  - # 7
    frequency:     6.8381475352
  - # 8
    frequency:     7.0342973586
  - # 9
    frequency:     7.0948930736
  - # 10
    frequency:    10.9157003136
  - # 11
    frequency:    11.0965585740
  - # 12
    frequency:    11.0997024018

- q-position: [    0.1979167,    0.0312500,    0.0104167 ]
  weight: 48   
  band:
  - # 1
    frequency:     2.2498748283
  - # 2
    frequency:     2.3191722029
  - # 3
    frequency:     3.4971697636
  - # 4
    frequency:     6.3076525974
  - # 5
    frequency:     6.3237250600
  - # 6
    frequency:     6.8776517034
  - # 7
    frequency:     6.9097183635
  - # 8
    frequency:     7.1527165112
  - # 9
    frequency:     7.2121252495
  - # 10
    frequency:    10.8036900494
  - # 11
    frequency:    11.0304546661
  - # 12
    frequency:    11.0330533740

- q-position: [    0.2187500,    0.0312500,    0.0104167 ]
  weight: 48   
  band:
  - # 1
    frequency:     2.4800177928
  - # 2
    frequency:     2.5420724790
  - # 3
    frequency:     3.8332808079
  - # 4
    frequency:     6.2590712848
  - # 5
    frequency:     6.2751885319
  - # 6
    frequency:     6.9523972703
  - # 7
    frequency:     6.9837523744
  - # 8
    frequency:     7.2798958056
  - # 9
    frequency:     7.3373076828
  - # 10
    frequency:    10.6798331651
  - # 11
    frequency:    10.9573394066
  - # 12
    frequency:    10.9593205913

- q-position: [    0.2395833,    0.0312500,    0.0104167 ]
  weight: 48   
  band:
  - # 1
    frequency:     2.7050897100
  - # 2
    frequency:     2.7608692576
  - # 3
    frequency:     4.1673257269
  - # 4
    frequency:     6.2049338502
  - # 5
    frequency:     6.2211061099
  - # 6
    frequency:     7.0288869632
  - # 7
    frequency:     7.0589074756
  - # 8
    frequency:     7.4147722657
  - # 9
    frequency:     7.4695743442
  - # 10
    frequency:    10.5443137534
  - # 11
    frequency:    10.8773280739
  - # 12
    frequency:    10.8786154338

- q-position: [    0.2604167,    0.0312500,    0.0104167 ]
  weight: 48   
  band:
  - # 1
    frequency:     2.9247962988
  - # 2
    frequency:     2.9751125555
  - # 3
    frequency:     4.4986829806
  - # 4
    frequency:     6.1450719838
  - # 5
    frequency:     6.1613125224
  - # 6
    frequency:     7.1056471630
  - # 7
    frequency:     7.1338673902
  - # 8
    frequency:     7.5562856454
  - # 9
    frequency:     7.6080436500
  - # 10
    frequency:    10.3973318731
  - # 11
    frequency:    10.7905523979
  - # 12
    frequency:    10.7910652679

- q-position: [    0.2812500,    0.0312500,    0.0104167 ]
  weight: 48   
  band:
  - # 1
    frequency:     3.1388639933
  - # 2
    frequency:     3.1844051560
  - # 3
    frequency:     4.8267995344
  - # 4
    frequency:     6.0793149818
  - # 5
    frequency:     6.0956410567
  - # 6
    frequency:     7.1812719016
  - # 7
    frequency:     7.2073617010
  - # 8
    frequency:     7.7033932642
  - # 9
    frequency:     7.7518274318
  - # 10
    frequency:    10.2391029075
  - # 11
    frequency:    10.6968148039
  - # 12
    frequency:    10.6971619359

- q-position: [    0.3020833,    0.0312500,    0.0104167 ]
  weight: 48   
  band:
  - # 1
    frequency:     3.3470374023
  - # 2
    frequency:     3.3883935760
  - # 3
    frequency:     5.1511712040
  - # 4
    frequency:     6.0074924333
  - # 5
    frequency:     6.0239264354
  - # 6
    frequency:     7.2544424147
  - # 7
    frequency:     7.2781829150
  - # 8
    frequency:     7.8550815288
  - # 9
    frequency:     7.9000401200
  - # 10
    frequency:    10.0698568891
  - # 11
    frequency:    10.5960275729
  - # 12
    frequency:    10.5973255636

- q-position: [    0.3229167,    0.0312500,    0.0104167 ]
  weight: 48   
  band:
  - # 1
    frequency:     3.5490796833
  - # 2
    frequency:     3.5867627806
  - # 3
    frequency:     5.4713292833
  - # 4
    frequency:     5.9294369003
  - # 5
    frequency:     5.9460076926
  - # 6
    frequency:     7.3239411311
  - # 7
    frequency:     7.3452006169
  - # 8
    frequency:     8.0103745429
  - # 9
    frequency:     8.0518077605
  - # 10
    frequency:     9.8898377984
  - # 11
    frequency:    10.4888875251
  - # 12
    frequency:    10.4912330840

- q-position: [    0.3437500,    0.0312500,    0.0104167 ]
  weight: 48   
  band:
  - # 1
    frequency:     3.7447739633
  - # 2
    frequency:     3.7792330056
  - # 3
    frequency:     5.7868313347
  - # 4
    frequency:     5.8449865568
  - # 5
    frequency:     5.8617310071
  - # 6
    frequency:     7.3886612165
  - # 7
    frequency:     7.4073729604
  - # 8
    frequency:     8.1683402058
  - # 9
    frequency:     8.2062763459
  - # 10
    frequency:     9.6993028436
  - # 11
    frequency:    10.3756007621
  - # 12
    frequency:    10.3790969610

- q-position: [    0.3645833,    0.0312500,    0.0104167 ]
  weight: 48   
  band:
  - # 1
    frequency:     3.9339250046
  - # 2
    frequency:     3.9655577742
  - # 3
    frequency:     5.7539877655
  - # 4
    frequency:     5.7709524538
  - # 5
    frequency:     6.0972547966
  - # 6
    frequency:     7.4476128173
  - # 7
    frequency:     7.4637558279
  - # 8
    frequency:     8.3280941781
  - # 9
    frequency:     8.3626189877
  - # 10
    frequency:     9.4985217298
  - # 11
    frequency:    10.2563974327
  - # 12
    frequency:    10.2611542017

- q-position: [    0.3854167,    0.0312500,    0.0104167 ]
  weight: 48   
  band:
  - # 1
    frequency:     4.1163607727
  - # 2
    frequency:     4.1455225858
  - # 3
    frequency:     5.6562975687
  - # 4
    frequency:     5.6735406311
  - # 5
    frequency:     6.4021925336
  - # 6
    frequency:     7.4999269866
  - # 7
    frequency:     7.5135100162
  - # 8
    frequency:     8.4888020281
  - # 9
    frequency:     8.5200415826
  - # 10
    frequency:     9.2877759257
  - # 11
    frequency:    10.1315338650
  - # 12
    frequency:    10.1376684466

- q-position: [    0.4062500,    0.0312500,    0.0104167 ]
  weight: 48   
  band:
  - # 1
    frequency:     4.2919337595
  - # 2
    frequency:     4.3189439618
  - # 3
    frequency:     5.5517860794
  - # 4
    frequency:     5.5693791277
  - # 5
    frequency:     6.7012497516
  - # 6
    frequency:     7.5448580559
  - # 7
    frequency:     7.5559067945
  - # 8
    frequency:     8.6496797162
  - # 9
    frequency:     8.6777866652
  - # 10
    frequency:     9.0673579390
  - # 11
    frequency:    10.0012951487
  - # 12
    frequency:    10.0089324508

- q-position: [    0.4270833,    0.0312500,    0.0104167 ]
  weight: 48   
  band:
  - # 1
    frequency:     4.4605220013
  - # 2
    frequency:     4.4856686644
  - # 3
    frequency:     5.4403387591
  - # 4
    frequency:     5.4583687948
  - # 5
    frequency:     6.9940418901
  - # 6
    frequency:     7.5817849941
  - # 7
    frequency:     7.5903321490
  - # 8
    frequency:     8.8099920982
  - # 9
    frequency:     8.8351347941
  - # 10
    frequency:     8.8375706096
  - # 11
    frequency:     9.8659988752
  - # 12
    frequency:     9.8752715614

- q-position: [    0.4479167,    0.0312500,    0.0104167 ]
  weight: 48   
  band:
  - # 1
    frequency:     4.6220297639
  - # 2
    frequency:     4.6455729767
  - # 3
    frequency:     5.3218585682
  - # 4
    frequency:     5.3404297986
  - # 5
    frequency:     7.2801932258
  - # 6
    frequency:     7.6102121182
  - # 7
    frequency:     7.6162899874
  - # 8
    frequency:     8.5987264355
  - # 9
    frequency:     8.9690471361
  - # 10
    frequency:     8.9914005717
  - # 11
    frequency:     9.7260030787
  - # 12
    frequency:     9.7370507403

- q-position: [    0.4687500,    0.0312500,    0.0104167 ]
  weight: 48   
  band:
  - # 1
    frequency:     4.7763878763
  - # 2
    frequency:     4.7985619793
  - # 3
    frequency:     5.1962679704
  - # 4
    frequency:     5.2155034387
  - # 5
    frequency:     7.5593360017
  - # 6
    frequency:     7.6297693813
  - # 7
    frequency:     7.6334045330
  - # 8
    frequency:     8.3511469438
  - # 9
    frequency:     9.1261702713
  - # 10
    frequency:     9.1459036302
  - # 11
    frequency:     9.5817382356
  - # 12
    frequency:     9.5947008626

- q-position: [    0.4895833,    0.0312500,    0.0104167 ]
  weight: 48   
  band:
  - # 1
    frequency:     4.9235537052
  - # 2
    frequency:     4.9445687891
  - # 3
    frequency:     5.0635107643
  - # 4
    frequency:     5.0835537337
  - # 5
    frequency:     7.6402123735
  - # 6
    frequency:     7.6414220965
  - # 7
    frequency:     7.8311099517
  - # 8
    frequency:     8.0951621252
  - # 9
    frequency:     9.2804181818
  - # 10
    frequency:     9.2975442852
  - # 11
    frequency:     9.4341338112
  - # 12
    frequency:     9.4490051997

- q-position: [    0.0520833,    0.0520833,    0.0104167 ]
  weight: 24   
  band:
  - # 1
    frequency:     0.6293835932
  - # 2
    frequency:     0.8702569333
  - # 3
    frequency:     1.4422939065
  - # 4
    frequency:     6.5237303793
  - # 5
    frequency:     6.5237303793
  - # 6
    frequency:     6.5274928327
  - # 7
    frequency:     6.5527630249
  - # 8
    frequency:     6.5527630249
  - # 9
    frequency:     6.6519704353
  - # 10
    frequency:    11.3161196972
  - # 11
    frequency:    11.3161196972
  - # 12
    frequency:    11.3312828326

- q-position: [    0.0729167,    0.0520833,    0.0104167 ]
  weight: 48   
  band:
  - # 1
    frequency:     0.7899327267
  - # 2
    frequency:     1.0594625289
  - # 3
    frequency:     1.7306673654
  - # 4
    frequency:     6.5097940698
  - # 5
    frequency:     6.5389745651
  - # 6
    frequency:     6.5402537272
  - # 7
    frequency:     6.5535144817
  - # 8
    frequency:     6.5990066354
  - # 9
    frequency:     6.7133987525
  - # 10
    frequency:    11.2784462800
  - # 11
    frequency:    11.2940834692
  - # 12
    frequency:    11.3087403766

- q-position: [    0.0937500,    0.0520833,    0.0104167 ]
  weight: 48   
  band:
  - # 1
    frequency:     1.0001384093
  - # 2
    frequency:     1.2669476400
  - # 3
    frequency:     2.0331878709
  - # 4
    frequency:     6.4911118312
  - # 5
    frequency:     6.5204942827
  - # 6
    frequency:     6.5646114117
  - # 7
    frequency:     6.5929708725
  - # 8
    frequency:     6.6590297638
  - # 9
    frequency:     6.7861618133
  - # 10
    frequency:    11.2283074199
  - # 11
    frequency:    11.2647496792
  - # 12
    frequency:    11.2787266884

- q-position: [    0.1145833,    0.0520833,    0.0104167 ]
  weight: 48   
  band:
  - # 1
    frequency:     1.2316609781
  - # 2
    frequency:     1.4838268932
  - # 3
    frequency:     2.3445243450
  - # 4
    frequency:     6.4675996378
  - # 5
    frequency:     6.4972423180
  - # 6
    frequency:     6.5998179523
  - # 7
    frequency:     6.6410619622
  - # 8
    frequency:     6.7323366948
  - # 9
    frequency:     6.8695451490
  - # 10
    frequency:    11.1657818943
  - # 11
    frequency:    11.2281601452
  - # 12
    frequency:    11.2412793309

- q-position: [    0.1354167,    0.0520833,    0.0104167 ]
  weight: 48   
  band:
  - # 1
    frequency:     1.4713812247
  - # 2