<?xml version="1.0" encoding="ISO-8859-1"?>
<modeling>
 <generator>
  <i name="program" type="string">vasp</i>
  <i name="version" type="string">4.6.28 </i>
  <i name="subversion" type="string">25Jul05 complex  parallel</i>
  <i name="platform" type="string">LinuxIFC</i>
  <i name="date" type="string">2016 10 21</i>
  <i name="time" type="string">16:38:03</i>
 </generator>
 <incar>
  <i type="string" name="PREC">accurate</i>
  <i type="int" name="IALGO">    38</i>
  <i name="EDIFF">      0.00000001</i>
  <i type="int" name="IBRION">    -1</i>
  <i name="ENCUT">    500.00000000</i>
  <i type="logical" name="LREAL"> F  </i>
  <i type="int" name="ISMEAR">     0</i>
  <i name="SIGMA">      0.01000000</i>
  <i type="logical" name="LWAVE"> F  </i>
  <i type="logical" name="LCHARG"> F  </i>
 </incar>
 <kpoints>
  <generation param="Gamma">
   <v type="int" name="divisions">      12      12      12</v>
   <v name="usershift">      0.00000000      0.00000000      0.00000000</v>
   <v name="genvec1">      0.08333333      0.00000000      0.00000000</v>
   <v name="genvec2">      0.00000000      0.08333333      0.00000000</v>
   <v name="genvec3">      0.00000000      0.00000000      0.08333333</v>
   <v name="shift">      0.00000000      0.00000000      0.00000000</v>
  </generation>
  <varray name="kpointlist" >
   <v>       0.00000000      0.00000000      0.00000000</v>
   <v>       0.08333333      0.00000000      0.00000000</v>
   <v>       0.16666667      0.00000000      0.00000000</v>
   <v>       0.25000000      0.00000000      0.00000000</v>
   <v>       0.33333333      0.00000000      0.00000000</v>
   <v>       0.41666667      0.00000000      0.00000000</v>
   <v>       0.50000000      0.00000000      0.00000000</v>
   <v>       0.00000000      0.08333333      0.00000000</v>
   <v>       0.08333333      0.08333333      0.00000000</v>
   <v>       0.16666667      0.08333333      0.00000000</v>
   <v>       0.25000000      0.08333333      0.00000000</v>
   <v>       0.33333333      0.08333333      0.00000000</v>
   <v>       0.41666667      0.08333333      0.00000000</v>
   <v>       0.50000000      0.08333333      0.00000000</v>
   <v>       0.00000000      0.16666667      0.00000000</v>
   <v>       0.08333333      0.16666667      0.00000000</v>
   <v>       0.16666667      0.16666667      0.00000000</v>
   <v>       0.25000000      0.16666667      0.00000000</v>
   <v>       0.33333333      0.16666667      0.00000000</v>
   <v>       0.41666667      0.16666667      0.00000000</v>
   <v>       0.50000000      0.16666667      0.00000000</v>
   <v>       0.00000000      0.25000000      0.00000000</v>
   <v>       0.08333333      0.25000000      0.00000000</v>
   <v>       0.16666667      0.25000000      0.00000000</v>
   <v>       0.25000000      0.25000000      0.00000000</v>
   <v>       0.33333333      0.25000000      0.00000000</v>
   <v>       0.41666667      0.25000000      0.00000000</v>
   <v>       0.50000000      0.25000000      0.00000000</v>
   <v>       0.00000000      0.33333333      0.00000000</v>
   <v>       0.08333333      0.33333333      0.00000000</v>
   <v>       0.16666667      0.33333333      0.00000000</v>
   <v>       0.25000000      0.33333333      0.00000000</v>
   <v>       0.33333333      0.33333333      0.00000000</v>
   <v>       0.41666667      0.33333333      0.00000000</v>
   <v>       0.50000000      0.33333333      0.00000000</v>
   <v>       0.00000000      0.41666667      0.00000000</v>
   <v>       0.08333333      0.41666667      0.00000000</v>
   <v>       0.16666667      0.41666667      0.00000000</v>
   <v>       0.25000000      0.41666667      0.00000000</v>
   <v>       0.33333333      0.41666667      0.00000000</v>
   <v>       0.41666667      0.41666667      0.00000000</v>
   <v>       0.50000000      0.41666667      0.00000000</v>
   <v>       0.00000000      0.50000000      0.00000000</v>
   <v>       0.08333333      0.50000000      0.00000000</v>
   <v>       0.16666667      0.50000000      0.00000000</v>
   <v>       0.25000000      0.50000000      0.00000000</v>
   <v>       0.33333333      0.50000000      0.00000000</v>
   <v>       0.41666667      0.50000000      0.00000000</v>
   <v>       0.50000000      0.50000000      0.00000000</v>
   <v>       0.00000000      0.08333333      0.08333333</v>
   <v>       0.08333333      0.08333333      0.08333333</v>
   <v>       0.16666667      0.08333333      0.08333333</v>
   <v>       0.25000000      0.08333333      0.08333333</v>
   <v>       0.33333333      0.08333333      0.08333333</v>
   <v>       0.41666667      0.08333333      0.08333333</v>
   <v>       0.50000000      0.08333333      0.08333333</v>
   <v>       0.00000000      0.16666667      0.08333333</v>
   <v>       0.08333333      0.16666667      0.08333333</v>
   <v>       0.16666667      0.16666667      0.08333333</v>
   <v>       0.25000000      0.16666667      0.08333333</v>
   <v>       0.33333333      0.16666667      0.08333333</v>
   <v>       0.41666667      0.16666667      0.08333333</v>
   <v>       0.50000000      0.16666667      0.08333333</v>
   <v>       0.00000000      0.25000000      0.08333333</v>
   <v>       0.08333333      0.25000000      0.08333333</v>
   <v>       0.16666667      0.25000000      0.08333333</v>
   <v>       0.25000000      0.25000000      0.08333333</v>
   <v>       0.33333333      0.25000000      0.08333333</v>
   <v>       0.41666667      0.25000000      0.08333333</v>
   <v>       0.50000000      0.25000000      0.08333333</v>
   <v>       0.00000000      0.33333333      0.08333333</v>
   <v>       0.08333333      0.33333333      0.08333333</v>
   <v>       0.16666667      0.33333333      0.08333333</v>
   <v>       0.25000000      0.33333333      0.08333333</v>
   <v>       0.33333333      0.33333333      0.08333333</v>
   <v>       0.41666667      0.33333333      0.08333333</v>
   <v>       0.50000000      0.33333333      0.08333333</v>
   <v>       0.00000000      0.41666667      0.08333333</v>
   <v>       0.08333333      0.41666667      0.08333333</v>
   <v>       0.16666667      0.41666667      0.08333333</v>
   <v>       0.25000000      0.41666667      0.08333333</v>
   <v>       0.33333333      0.41666667      0.08333333</v>
   <v>       0.41666667      0.41666667      0.08333333</v>
   <v>       0.50000000      0.41666667      0.08333333</v>
   <v>       0.00000000      0.50000000      0.08333333</v>
   <v>       0.08333333      0.50000000      0.08333333</v>
   <v>       0.16666667      0.50000000      0.08333333</v>
   <v>       0.25000000      0.50000000      0.08333333</v>
   <v>       0.33333333      0.50000000      0.08333333</v>
   <v>       0.41666667      0.50000000      0.08333333</v>
   <v>       0.50000000      0.50000000      0.08333333</v>
   <v>       0.00000000      0.16666667      0.16666667</v>
   <v>       0.08333333      0.16666667      0.16666667</v>
   <v>       0.16666667      0.16666667      0.16666667</v>
   <v>       0.25000000      0.16666667      0.16666667</v>
   <v>       0.33333333      0.16666667      0.16666667</v>
   <v>       0.41666667      0.16666667      0.16666667</v>
   <v>       0.50000000      0.16666667      0.16666667</v>
   <v>       0.00000000      0.25000000      0.16666667</v>
   <v>       0.08333333      0.25000000      0.16666667</v>
   <v>       0.16666667      0.25000000      0.16666667</v>
   <v>       0.25000000      0.25000000      0.16666667</v>
   <v>       0.33333333      0.25000000      0.16666667</v>
   <v>       0.41666667      0.25000000      0.16666667</v>
   <v>       0.50000000      0.25000000      0.16666667</v>
   <v>       0.00000000      0.33333333      0.16666667</v>
   <v>       0.08333333      0.33333333      0.16666667</v>
   <v>       0.16666667      0.33333333      0.16666667</v>
   <v>       0.25000000      0.33333333      0.16666667</v>
   <v>       0.33333333      0.33333333      0.16666667</v>
   <v>       0.41666667      0.33333333      0.16666667</v>
   <v>       0.50000000      0.33333333      0.16666667</v>
   <v>       0.00000000      0.41666667      0.16666667</v>
   <v>       0.08333333      0.41666667      0.16666667</v>
   <v>       0.16666667      0.41666667      0.16666667</v>
   <v>       0.25000000      0.41666667      0.16666667</v>
   <v>       0.33333333      0.41666667      0.16666667</v>
   <v>       0.41666667      0.41666667      0.16666667</v>
   <v>       0.50000000      0.41666667      0.16666667</v>
   <v>       0.00000000      0.50000000      0.16666667</v>
   <v>       0.08333333      0.50000000      0.16666667</v>
   <v>       0.16666667      0.50000000      0.16666667</v>
   <v>       0.25000000      0.50000000      0.16666667</v>
   <v>       0.33333333      0.50000000      0.16666667</v>
   <v>       0.41666667      0.50000000      0.16666667</v>
   <v>       0.50000000      0.50000000      0.16666667</v>
   <v>       0.00000000      0.25000000      0.25000000</v>
   <v>       0.08333333      0.25000000      0.25000000</v>
   <v>       0.16666667      0.25000000      0.25000000</v>
   <v>       0.25000000      0.25000000      0.25000000</v>
   <v>       0.33333333      0.25000000      0.25000000</v>
   <v>       0.41666667      0.25000000      0.25000000</v>
   <v>       0.50000000      0.25000000      0.25000000</v>
   <v>       0.00000000      0.33333333      0.25000000</v>
   <v>       0.08333333      0.33333333      0.25000000</v>
   <v>       0.16666667      0.33333333      0.25000000</v>
   <v>       0.25000000      0.33333333      0.25000000</v>
   <v>       0.33333333      0.33333333      0.25000000</v>
   <v>       0.41666667      0.33333333      0.25000000</v>
   <v>       0.50000000      0.33333333      0.25000000</v>
   <v>       0.00000000      0.41666667      0.25000000</v>
   <v>       0.08333333      0.41666667      0.25000000</v>
   <v>       0.16666667      0.41666667      0.25000000</v>
   <v>       0.25000000      0.41666667      0.25000000</v>
   <v>       0.33333333      0.41666667      0.25000000</v>
   <v>       0.41666667      0.41666667      0.25000000</v>
   <v>       0.50000000      0.41666667      0.25000000</v>
   <v>       0.00000000      0.50000000      0.25000000</v>
   <v>       0.08333333      0.50000000      0.25000000</v>
   <v>       0.16666667      0.50000000      0.25000000</v>
   <v>       0.25000000      0.50000000      0.25000000</v>
   <v>       0.33333333      0.50000000      0.25000000</v>
   <v>       0.41666667      0.50000000      0.25000000</v>
   <v>       0.50000000      0.50000000      0.25000000</v>
   <v>       0.00000000      0.33333333      0.33333333</v>
   <v>       0.08333333      0.33333333      0.33333333</v>
   <v>       0.16666667      0.33333333      0.33333333</v>
   <v>       0.25000000      0.33333333      0.33333333</v>
   <v>       0.33333333      0.33333333      0.33333333</v>
   <v>       0.41666667      0.33333333      0.33333333</v>
   <v>       0.50000000      0.33333333      0.33333333</v>
   <v>       0.00000000      0.41666667      0.33333333</v>
   <v>       0.08333333      0.41666667      0.33333333</v>
   <v>       0.16666667      0.41666667      0.33333333</v>
   <v>       0.25000000      0.41666667      0.33333333</v>
   <v>       0.33333333      0.41666667      0.33333333</v>
   <v>       0.41666667      0.41666667      0.33333333</v>
   <v>       0.50000000      0.41666667      0.33333333</v>
   <v>       0.00000000      0.50000000      0.33333333</v>
   <v>       0.08333333      0.50000000      0.33333333</v>
   <v>       0.16666667      0.50000000      0.33333333</v>
   <v>       0.25000000      0.50000000      0.33333333</v>
   <v>       0.33333333      0.50000000      0.33333333</v>
   <v>       0.41666667      0.50000000      0.33333333</v>
   <v>       0.50000000      0.50000000      0.33333333</v>
   <v>       0.00000000      0.41666667      0.41666667</v>
   <v>       0.08333333      0.41666667      0.41666667</v>
   <v>       0.16666667      0.41666667      0.41666667</v>
   <v>       0.25000000      0.41666667      0.41666667</v>
   <v>       0.33333333      0.41666667      0.41666667</v>
   <v>       0.41666667      0.41666667      0.41666667</v>
   <v>       0.50000000      0.41666667      0.41666667</v>
   <v>       0.00000000      0.50000000      0.41666667</v>
   <v>       0.08333333      0.50000000      0.41666667</v>
   <v>       0.16666667      0.50000000      0.41666667</v>
   <v>       0.25000000      0.50000000      0.41666667</v>
   <v>       0.33333333      0.50000000      0.41666667</v>
   <v>       0.41666667      0.50000000      0.41666667</v>
   <v>       0.50000000      0.50000000      0.41666667</v>
   <v>       0.00000000      0.50000000      0.50000000</v>
   <v>       0.08333333      0.50000000      0.50000000</v>
   <v>       0.16666667      0.50000000      0.50000000</v>
   <v>       0.25000000      0.50000000      0.50000000</v>
   <v>       0.33333333      0.50000000      0.50000000</v>
   <v>       0.41666667      0.50000000      0.50000000</v>
   <v>       0.50000000      0.50000000      0.50000000</v>
  </varray>
  <varray name="weights" >
   <v>       0.00057870</v>
   <v>       0.00115741</v>
   <v>       0.00115741</v>
   <v>       0.00115741</v>
   <v>       0.00115741</v>
   <v>       0.00115741</v>
   <v>       0.00057870</v>
   <v>       0.00231481</v>
   <v>       0.00462963</v>
   <v>       0.00462963</v>
   <v>       0.00462963</v>
   <v>       0.00462963</v>
   <v>       0.00462963</v>
   <v>       0.00231481</v>
   <v>       0.00231481</v>
   <v>       0.00462963</v>
   <v>       0.00462963</v>
   <v>       0.00462963</v>
   <v>       0.00462963</v>
   <v>       0.00462963</v>
   <v>       0.00231481</v>
   <v>       0.00231481</v>
   <v>       0.00462963</v>
   <v>       0.00462963</v>
   <v>       0.00462963</v>
   <v>       0.00462963</v>
   <v>       0.00462963</v>
   <v>       0.00231481</v>
   <v>       0.00231481</v>
   <v>       0.00462963</v>
   <v>       0.00462963</v>
   <v>       0.00462963</v>
   <v>       0.00462963</v>
   <v>       0.00462963</v>
   <v>       0.00231481</v>
   <v>       0.00231481</v>
   <v>       0.00462963</v>
   <v>       0.00462963</v>
   <v>       0.00462963</v>
   <v>       0.00462963</v>
   <v>       0.00462963</v>
   <v>       0.00231481</v>
   <v>       0.00115741</v>
   <v>       0.00231481</v>
   <v>       0.00231481</v>
   <v>       0.00231481</v>
   <v>       0.00231481</v>
   <v>       0.00231481</v>
   <v>       0.00115741</v>
   <v>       0.00231481</v>
   <v>       0.00462963</v>
   <v>       0.00462963</v>
   <v>       0.00462963</v>
   <v>       0.00462963</v>
   <v>       0.00462963</v>
   <v>       0.00231481</v>
   <v>       0.00462963</v>
   <v>       0.00925926</v>
   <v>       0.00925926</v>
   <v>       0.00925926</v>
   <v>       0.00925926</v>
   <v>       0.00925926</v>
   <v>       0.00462963</v>
   <v>       0.00462963</v>
   <v>       0.00925926</v>
   <v>       0.00925926</v>
   <v>       0.00925926</v>
   <v>       0.00925926</v>
   <v>       0.00925926</v>
   <v>       0.00462963</v>
   <v>       0.00462963</v>
   <v>       0.00925926</v>
   <v>       0.00925926</v>
   <v>       0.00925926</v>
   <v>       0.00925926</v>
   <v>       0.00925926</v>
   <v>       0.00462963</v>
   <v>       0.00462963</v>
   <v>       0.00925926</v>
   <v>       0.00925926</v>
   <v>       0.00925926</v>
   <v>       0.00925926</v>
   <v>       0.00925926</v>
   <v>       0.00462963</v>
   <v>       0.00231481</v>
   <v>       0.00462963</v>
   <v>       0.00462963</v>
   <v>       0.00462963</v>
   <v>       0.00462963</v>
   <v>       0.00462963</v>
   <v>       0.00231481</v>
   <v>       0.00231481</v>
   <v>       0.00462963</v>
   <v>       0.00462963</v>
   <v>       0.00462963</v>
   <v>       0.00462963</v>
   <v>       0.00462963</v>
   <v>       0.00231481</v>
   <v>       0.00462963</v>
   <v>       0.00925926</v>
   <v>       0.00925926</v>
   <v>       0.00925926</v>
   <v>       0.00925926</v>
   <v>       0.00925926</v>
   <v>       0.00462963</v>
   <v>       0.00462963</v>
   <v>       0.00925926</v>
   <v>       0.00925926</v>
   <v>       0.00925926</v>
   <v>       0.00925926</v>
   <v>       0.00925926</v>
   <v>       0.00462963</v>
   <v>       0.00462963</v>
   <v>       0.00925926</v>
   <v>       0.00925926</v>
   <v>       0.00925926</v>
   <v>       0.00925926</v>
   <v>       0.00925926</v>
   <v>       0.00462963</v>
   <v>       0.00231481</v>
   <v>       0.00462963</v>
   <v>       0.00462963</v>
   <v>       0.00462963</v>
   <v>       0.00462963</v>
   <v>       0.00462963</v>
   <v>       0.00231481</v>
   <v>       0.00231481</v>
   <v>       0.00462963</v>
   <v>       0.00462963</v>
   <v>       0.00462963</v>
   <v>       0.00462963</v>
   <v>       0.00462963</v>
   <v>       0.00231481</v>
   <v>       0.00462963</v>
   <v>       0.00925926</v>
   <v>       0.00925926</v>
   <v>       0.00925926</v>
   <v>       0.00925926</v>
   <v>       0.00925926</v>
   <v>       0.00462963</v>
   <v>       0.00462963</v>
   <v>       0.00925926</v>
   <v>       0.00925926</v>
   <v>       0.00925926</v>
   <v>       0.00925926</v>
   <v>       0.00925926</v>
   <v>       0.00462963</v>
   <v>       0.00231481</v>
   <v>       0.00462963</v>
   <v>       0.00462963</v>
   <v>       0.00462963</v>
   <v>       0.00462963</v>
   <v>       0.00462963</v>
   <v>       0.00231481</v>
   <v>       0.00231481</v>
   <v>       0.00462963</v>
   <v>       0.00462963</v>
   <v>       0.00462963</v>
   <v>       0.00462963</v>
   <v>       0.00462963</v>
   <v>       0.00231481</v>
   <v>       0.00462963</v>
   <v>       0.00925926</v>
   <v>       0.00925926</v>
   <v>       0.00925926</v>
   <v>       0.00925926</v>
   <v>       0.00925926</v>
   <v>       0.00462963</v>
   <v>       0.00231481</v>
   <v>       0.00462963</v>
   <v>       0.00462963</v>
   <v>       0.00462963</v>
   <v>       0.00462963</v>
   <v>       0.00462963</v>
   <v>       0.00231481</v>
   <v>       0.00231481</v>
   <v>       0.00462963</v>
   <v>       0.00462963</v>
   <v>       0.00462963</v>
   <v>       0.00462963</v>
   <v>       0.00462963</v>
   <v>       0.00231481</v>
   <v>       0.00231481</v>
   <v>       0.00462963</v>
   <v>       0.00462963</v>
   <v>       0.00462963</v>
   <v>       0.00462963</v>
   <v>       0.00462963</v>
   <v>       0.00231481</v>
   <v>       0.00057870</v>
   <v>       0.00115741</v>
   <v>       0.00115741</v>
   <v>       0.00115741</v>
   <v>       0.00115741</v>
   <v>       0.00115741</v>
   <v>       0.00057870</v>
  </varray>
 </kpoints>
 <parameters>
  <separator name="general" >
   <i type="string" name="SYSTEM">unknown system</i>
   <i type="logical" name="LCOMPAT"> F  </i>
  </separator>
  <separator name="electronic" >
   <i type="string" name="PREC">accura</i>
   <i name="ENMAX">    500.00000000</i>
   <i name="ENAUG">    291.05200000</i>
   <i name="EDIFF">      0.00000001</i>
   <i type="int" name="IALGO">    38</i>
   <i type="int" name="IWAVPR">    10</i>
   <i type="int" name="NBANDS">    65</i>
   <i name="NELECT">     96.00000000</i>
   <separator name="electronic smearing" >
    <i type="int" name="ISMEAR">     0</i>
    <i name="SIGMA">      0.01000000</i>
   </separator>
   <separator name="electronic projectors" >
    <i type="logical" name="LREAL"> F  </i>
    <v name="ROPT">      0.00000000</v>
    <i type="int" name="LMAXPAW">  -100</i>
    <i type="int" name="LMAXMIX">     2</i>
   </separator>
   <separator name="electronic startup" >
    <i type="int" name="ISTART">     0</i>
    <i type="int" name="ICHARG">     2</i>
    <i type="int" name="INIWAV">     1</i>
   </separator>
   <separator name="electronic spin" >
    <i type="int" name="ISPIN">     1</i>
    <i type="logical" name="LNONCOLLINEAR"> F  </i>
    <v name="MAGMOM">      1.00000000      1.00000000      1.00000000      1.00000000      1.00000000      1.00000000      1.00000000      1.00000000      1.00000000      1.00000000      1.00000000      1.00000000      1.00000000      1.00000000      1.00000000      1.00000000      1.00000000      1.00000000      1.00000000      1.00000000
      1.00000000      1.00000000      1.00000000      1.00000000      1.00000000      1.00000000      1.00000000      1.00000000      1.00000000      1.00000000      1.00000000      1.00000000</v>
    <i name="NUPDOWN">     -1.00000000</i>
    <i type="logical" name="LSORBIT"> F  </i>
    <v name="SAXIS">      0.00000000      0.00000000      1.00000000</v>
    <i type="logical" name="LSPIRAL"> F  </i>
    <v name="QSPIRAL">      0.00000000      0.00000000      0.00000000</v>
    <i type="logical" name="LZEROZ"> F  </i>
   </separator>
   <separator name="electronic exchange-correlation" >
    <i type="string" name="GGA">--</i>
    <i type="int" name="VOSKOWN">     0</i>
    <i type="logical" name="LASPH"> F  </i>
    <i type="logical" name="LMETAGGA"> F  </i>
    <i type="string" name="GGA2">--</i>
   </separator>
   <separator name="electronic convergence" >
    <i type="int" name="NELM">    60</i>
    <i type="int" name="NELMDL">    -5</i>
    <i type="int" name="NELMIN">     2</i>
    <i name="ENINI">    500.00000000</i>
    <separator name="electronic convergence detail" >
     <i type="logical" name="LDIAG"> T  </i>
     <i name="WEIMIN">      0.00000000</i>
     <i name="EBREAK">      0.00000000</i>
     <i name="DEPER">      0.30000000</i>
     <i type="int" name="NRMM">     4</i>
     <i name="TIME">      0.10000000</i>
    </separator>
   </separator>
   <separator name="electronic mixer" >
    <i name="AMIX">      0.40000000</i>
    <i name="BMIX">      1.00000000</i>
    <i name="AMIN">      0.10000000</i>
    <i name="AMIX_MAG">      1.60000000</i>
    <i name="BMIX_MAG">      1.00000000</i>
    <separator name="electronic mixer details" >
     <i type="int" name="IMIX">     4</i>
     <i type="int" name="MAXMIX">   -45</i>
     <i name="WC">    100.00000000</i>
     <i type="int" name="INIMIX">     1</i>
     <i type="int" name="MIXPRE">     1</i>
     <i type="int" name="MREMOVE">     5</i>
    </separator>
   </separator>
   <separator name="electronic dipolcorrection" >
    <i type="int" name="IDIPOL">     0</i>
    <i type="logical" name="LDIPOL"> F  </i>
    <v name="DIPOL">   -100.00000000</v>
    <i name="EFIELD">      0.00000000</i>
   </separator>
  </separator>
  <separator name="grids" >
   <i type="int" name="NGX">    60</i>
   <i type="int" name="NGY">    60</i>
   <i type="int" name="NGZ">    60</i>
   <i type="int" name="NGXF">   120</i>
   <i type="int" name="NGYF">   120</i>
   <i type="int" name="NGZF">   120</i>
   <i type="logical" name="ADDGRID"> F  </i>
  </separator>
  <separator name="ionic" >
   <i type="int" name="NSW">     0</i>
   <i type="int" name="IBRION">    -1</i>
   <i type="int" name="ISIF">     2</i>
   <i name="PSTRESS">      0.00000000</i>
   <i name="EDIFFG">      0.00000010</i>
   <i type="int" name="NFREE">     0</i>
   <i name="POTIM">      0.50000000</i>
   <i name="SMASS">     -3.00000000</i>
  </separator>
  <separator name="ionic md" >
   <i name="TEBEG">      0.00010000</i>
   <i name="TEEND">      0.00010000</i>
   <i type="int" name="NBLOCK">     1</i>
   <i type="int" name="KBLOCK">     1</i>
   <i type="int" name="NPACO">   256</i>
   <i name="APACO">     16.00000000</i>
  </separator>
  <separator name="symmetry" >
   <i type="int" name="ISYM">     2</i>
   <i name="SYMPREC">      0.00001000</i>
  </separator>
  <separator name="dos" >
   <i type="logical" name="LORBIT"> F  </i>
   <v name="RWIGS">     -1.00000000</v>
   <i type="int" name="NEDOS">   301</i>
   <i name="EMIN">     10.00000000</i>
   <i name="EMAX">    -10.00000000</i>
  </separator>
  <separator name="writing" >
   <i type="int" name="NWRITE">     2</i>
   <i type="logical" name="LWAVE"> F  </i>
   <i type="logical" name="LCHARG"> F  </i>
   <i type="logical" name="LPARD"> F  </i>
   <i type="logical" name="LVTOT"> F  </i>
   <i type="logical" name="LELF"> F  </i>
   <i type="logical" name="LOPTICS"> F  </i>
   <i name="STM">      0.00000000</i>
  </separator>
  <separator name="performance" >
   <i type="int" name="NPAR">     4</i>
   <i type="int" name="NSIM">     4</i>
   <i type="int" name="NBLK">   256</i>
   <i type="logical" name="LPLANE"> T  </i>
   <i type="logical" name="LCRITICAL_MEM"> F  </i>
   <i type="logical" name="LSCALAPACK"> F  </i>
   <i type="logical" name="LSCALU"> F  </i>
   <i type="logical" name="LASYNC"> F  </i>
  </separator>
  <separator name="miscellaneous" >
   <i type="int" name="IDIOT">     3</i>
   <i type="logical" name="LMUSIC"> F  </i>
   <v name="POMASS">     26.98200000</v>
   <i type="logical" name="LCORR"> T  </i>
  </separator>
  <i type="logical" name="LREAL_COMPAT"> F  </i>
  <i type="logical" name="GGA_COMPAT"> T  </i>
  <i type="logical" name="LBERRY"> F  </i>
  <i type="int" name="ICORELEVEL">     0</i>
  <i type="logical" name="LDAU"> F  </i>
  <i type="int" name="I_CONSTRAINED_M">     0</i>
 </parameters>
 <atominfo>
  <atoms>      32</atoms>
  <types>       1</types>
  <array name="atoms" >
   <dimension dim="1">ion</dimension>
   <field type="string">element</field>
   <field type="int">atomtype</field>
   <set>
    <rc><c>Al</c><c>   1</c></rc>
    <rc><c>Al</c><c>   1</c></rc>
    <rc><c>Al</c><c>   1</c></rc>
    <rc><c>Al</c><c>   1</c></rc>
    <rc><c>Al</c><c>   1</c></rc>
    <rc><c>Al</c><c>   1</c></rc>
    <rc><c>Al</c><c>   1</c></rc>
    <rc><c>Al</c><c>   1</c></rc>
    <rc><c>Al</c><c>   1</c></rc>
    <rc><c>Al</c><c>   1</c></rc>
    <rc><c>Al</c><c>   1</c></rc>
    <rc><c>Al</c><c>   1</c></rc>
    <rc><c>Al</c><c>   1</c></rc>
    <rc><c>Al</c><c>   1</c></rc>
    <rc><c>Al</c><c>   1</c></rc>
    <rc><c>Al</c><c>   1</c></rc>
    <rc><c>Al</c><c>   1</c></rc>
    <rc><c>Al</c><c>   1</c></rc>
    <rc><c>Al</c><c>   1</c></rc>
    <rc><c>Al</c><c>   1</c></rc>
    <rc><c>Al</c><c>   1</c></rc>
    <rc><c>Al</c><c>   1</c></rc>
    <rc><c>Al</c><c>   1</c></rc>
    <rc><c>Al</c><c>   1</c></rc>
    <rc><c>Al</c><c>   1</c></rc>
    <rc><c>Al</c><c>   1</c></rc>
    <rc><c>Al</c><c>   1</c></rc>
    <rc><c>Al</c><c>   1</c></rc>
    <rc><c>Al</c><c>   1</c></rc>
    <rc><c>Al</c><c>   1</c></rc>
    <rc><c>Al</c><c>   1</c></rc>
    <rc><c>Al</c><c>   1</c></rc>
   </set>
  </array>
  <array name="atomtypes" >
   <dimension dim="1">type</dimension>
   <field type="int">atomspertype</field>
   <field type="string">element</field>
   <field>mass</field>
   <field>valence</field>
   <field type="string">pseudopotential</field>
   <set>
    <rc><c>  32</c><c>Al</c><c>     26.98200000</c><c>      3.00000000</c><c> PAW_PBE Al 04Jan2001                   </c></rc>
   </set>
  </array>
 </atominfo>
 <structure name="initialpos" >
  <crystal>
   <varray name="basis" >
    <v>       7.83237436      0.00000000      0.00000000</v>
    <v>       0.00000000      7.83237436      0.00000000</v>
    <v>       0.00000000      0.00000000      7.83237436</v>
   </varray>
   <i name="volume">    480.48552712</i>
   <varray name="rec_basis" >
    <v>       0.12767520      0.00000000      0.00000000</v>
    <v>       0.00000000      0.12767520      0.00000000</v>
    <v>       0.00000000      0.00000000      0.12767520</v>
   </varray>
  </crystal>
  <varray name="positions" >
   <v>       0.25127675      0.25000000      0.00000000</v>
   <v>       0.75000000      0.25000000      0.00000000</v>
   <v>       0.25000000      0.75000000      0.00000000</v>
   <v>       0.75000000      0.75000000      0.00000000</v>
   <v>       0.25000000      0.25000000      0.50000000</v>
   <v>       0.75000000      0.25000000      0.50000000</v>
   <v>       0.25000000      0.75000000      0.50000000</v>
   <v>       0.75000000      0.75000000      0.50000000</v>
   <v>       0.25000000      0.00000000      0.25000000</v>
   <v>       0.75000000      0.00000000      0.25000000</v>
   <v>       0.25000000      0.50000000      0.25000000</v>
   <v>       0.75000000      0.50000000      0.25000000</v>
   <v>       0.25000000      0.00000000      0.75000000</v>
   <v>       0.75000000      0.00000000      0.75000000</v>
   <v>       0.25000000      0.50000000      0.75000000</v>
   <v>       0.75000000      0.50000000      0.75000000</v>
   <v>       0.00000000      0.25000000      0.25000000</v>
   <v>       0.50000000      0.25000000      0.25000000</v>
   <v>       0.00000000      0.75000000      0.25000000</v>
   <v>       0.50000000      0.75000000      0.25000000</v>
   <v>       0.00000000      0.25000000      0.75000000</v>
   <v>       0.50000000      0.25000000      0.75000000</v>
   <v>       0.00000000      0.75000000      0.75000000</v>
   <v>       0.50000000      0.75000000      0.75000000</v>
   <v>       0.00000000      0.00000000      0.00000000</v>
   <v>       0.50000000      0.00000000      0.00000000</v>
   <v>       0.00000000      0.50000000      0.00000000</v>
   <v>       0.50000000      0.50000000      0.00000000</v>
   <v>       0.00000000      0.00000000      0.50000000</v>
   <v>       0.50000000      0.00000000      0.50000000</v>
   <v>       0.00000000      0.50000000      0.50000000</v>
   <v>       0.50000000      0.50000000      0.50000000</v>
  </varray>
 </structure>
 <calculation>
  <scstep>
   <time name="dav">  132.55  132.52</time>
   <time name="total">  132.83  132.81</time>
   <energy>
    <i name="alphaZ">     -7.15822495</i>
    <i name="ewald">  -2427.62240689</i>
    <i name="hartreedc">     -2.39603461</i>
    <i name="XCdc">   -834.14650895</i>
    <i name="pawpsdc">   1137.73615723</i>
    <i name="pawaedc">   -115.16745734</i>
    <i name="eentropy">     -0.00042334</i>
    <i name="bandstr">    675.65232678</i>
    <i name="atom">   1713.22913220</i>
    <i name="e_fr_energy">    140.12656012</i>
    <i name="e_wo_entrp">    140.12698346</i>
    <i name="e_0_energy">    140.12677179</i>
   </energy>
  </scstep>
  <scstep>
   <time name="dav">  197.92  197.88</time>
   <time name="total">  197.95  197.90</time>
   <energy>
    <i name="e_fr_energy">   -104.86982010</i>
    <i name="e_wo_entrp">   -104.86936404</i>
    <i name="e_0_energy">   -104.86959207</i>
   </energy>
  </scstep>
  <scstep>
   <time name="dav">  203.52  203.47</time>
   <time name="total">  203.54  203.50</time>
   <energy>
    <i name="e_fr_energy">   -119.13760893</i>
    <i name="e_wo_entrp">   -119.13679678</i>
    <i name="e_0_energy">   -119.13720285</i>
   </energy>
  </scstep>
  <scstep>
   <time name="dav">  196.97  196.93</time>
   <time name="total">  197.00  196.96</time>
   <energy>
    <i name="e_fr_energy">   -119.43268134</i>
    <i name="e_wo_entrp">   -119.43181970</i>
    <i name="e_0_energy">   -119.43225052</i>
   </energy>
  </scstep>
  <scstep>
   <time name="dav">  196.92  196.88</time>
   <time name="total">  207.12  207.08</time>
   <energy>
    <i name="e_fr_energy">   -119.43655660</i>
    <i name="e_wo_entrp">   -119.43569489</i>
    <i name="e_0_energy">   -119.43612575</i>
   </energy>
  </scstep>
  <scstep>
   <time name="dav">  195.63  195.58</time>
   <time name="total">  205.87  205.82</time>
   <energy>
    <i name="e_fr_energy">   -118.97895616</i>
    <i name="e_wo_entrp">   -118.97814714</i>
    <i name="e_0_energy">   -118.97855165</i>
   </energy>
  </scstep>
  <scstep>
   <time name="dav">  190.39  190.35</time>
   <time name="total">  200.65  200.60</time>
   <energy>
    <i name="e_fr_energy">   -118.64628663</i>
    <i name="e_wo_entrp">   -118.64541824</i>
    <i name="e_0_energy">   -118.64585244</i>
   </energy>
  </scstep>
  <scstep>
   <time name="dav">  204.15  204.10</time>
   <time name="total">  214.62  214.57</time>
   <energy>
    <i name="e_fr_energy">   -118.64651457</i>
    <i name="e_wo_entrp">   -118.64564579</i>
    <i name="e_0_energy">   -118.64608018</i>
   </energy>
  </scstep>
  <scstep>
   <time name="dav">  196.68  196.63</time>
   <time name="total">  207.20  207.15</time>
   <energy>
    <i name="e_fr_energy">   -118.64655097</i>
    <i name="e_wo_entrp">   -118.64568080</i>
    <i name="e_0_energy">   -118.64611588</i>
   </energy>
  </scstep>
  <scstep>
   <time name="dav">  197.91  197.86</time>
   <time name="total">  208.17  208.12</time>
   <energy>
    <i name="e_fr_energy">   -118.64655371</i>
    <i name="e_wo_entrp">   -118.64568344</i>
    <i name="e_0_energy">   -118.64611857</i>
   </energy>
  </scstep>
  <scstep>
   <time name="dav">  196.25  196.29</time>
   <time name="total">  206.41  206.45</time>
   <energy>
    <i name="e_fr_energy">   -118.64655192</i>
    <i name="e_wo_entrp">   -118.64568160</i>
    <i name="e_0_energy">   -118.64611676</i>
   </energy>
  </scstep>
  <scstep>
   <time name="dav">  149.45  149.41</time>
   <time name="total">  159.74  159.70</time>
   <energy>
    <i name="e_fr_energy">   -118.64655117</i>
    <i name="e_wo_entrp">   -118.64568085</i>
    <i name="e_0_energy">   -118.64611601</i>
   </energy>
  </scstep>
  <scstep>
   <time name="dav">  130.84  130.80</time>
   <time name="total">  140.97  140.93</time>
   <energy>
    <i name="e_fr_energy">   -118.64655103</i>
    <i name="e_wo_entrp">   -118.64568071</i>
    <i name="e_0_energy">   -118.64611587</i>
   </energy>
  </scstep>
  <scstep>
   <time name="dav">  133.97  133.96</time>
   <time name="total">  144.09  144.08</time>
   <energy>
    <i name="e_fr_energy">   -118.64655101</i>
    <i name="e_wo_entrp">   -118.64568070</i>
    <i name="e_0_energy">   -118.64611586</i>
   </energy>
  </scstep>
  <scstep>
   <time name="dav">  129.74  129.77</time>
   <time name="total">  130.13  130.15</time>
   <energy>
    <i name="alphaZ">     -7.15822495</i>
    <i name="ewald">  -2427.62240689</i>
    <i name="hartreedc">     -3.99492168</i>
    <i name="XCdc">   -829.96510567</i>
    <i name="pawpsdc">   1152.02699255</i>
    <i name="pawaedc">   -130.42174330</i>
    <i name="eentropy">     -0.00087031</i>
    <i name="bandstr">    415.26059704</i>
    <i name="atom">   1713.22913220</i>
    <i name="e_fr_energy">   -118.64655102</i>
    <i name="e_wo_entrp">   -118.64568071</i>
    <i name="e_0_energy">   -118.64611586</i>
   </energy>
  </scstep>
  <structure>
   <crystal>
    <varray name="basis" >
     <v>       7.83237436      0.00000000      0.00000000</v>
     <v>       0.00000000      7.83237436      0.00000000</v>
     <v>       0.00000000      0.00000000      7.83237436</v>
    </varray>
    <i name="volume">    480.48552712</i>
    <varray name="rec_basis" >
     <v>       0.12767520      0.00000000      0.00000000</v>
     <v>       0.00000000      0.12767520      0.00000000</v>
     <v>       0.00000000      0.00000000      0.12767520</v>
    </varray>
   </crystal>
   <varray name="positions" >
    <v>       0.25127675      0.25000000      0.00000000</v>
    <v>       0.75000000      0.25000000      0.00000000</v>
    <v>       0.25000000      0.75000000      0.00000000</v>
    <v>       0.75000000      0.75000000      0.00000000</v>
    <v>       0.25000000      0.25000000      0.50000000</v>
    <v>       0.75000000      0.25000000      0.50000000</v>
    <v>       0.25000000      0.75000000      0.50000000</v>
    <v>       0.75000000      0.75000000      0.50000000</v>
    <v>       0.25000000      0.00000000      0.25000000</v>
    <v>       0.75000000      0.00000000      0.25000000</v>
    <v>       0.25000000      0.50000000      0.25000000</v>
    <v>       0.75000000      0.50000000      0.25000000</v>
    <v>       0.25000000      0.00000000      0.75000000</v>
    <v>       0.75000000      0.00000000      0.75000000</v>
    <v>       0.25000000      0.50000000      0.75000000</v>
    <v>       0.75000000      0.50000000      0.75000000</v>
    <v>       0.00000000      0.25000000      0.25000000</v>
    <v>       0.50000000      0.25000000      0.25000000</v>
    <v>       0.00000000      0.75000000      0.25000000</v>
    <v>       0.50000000      0.75000000      0.25000000</v>
    <v>       0.00000000      0.25000000      0.75000000</v>
    <v>       0.50000000      0.25000000      0.75000000</v>
    <v>       0.00000000      0.75000000      0.75000000</v>
    <v>       0.50000000      0.75000000      0.75000000</v>
    <v>       0.00000000      0.00000000      0.00000000</v>
    <v>       0.50000000      0.00000000      0.00000000</v>
    <v>       0.00000000      0.50000000      0.00000000</v>
    <v>       0.50000000      0.50000000      0.00000000</v>
    <v>       0.00000000      0.00000000      0.50000000</v>
    <v>       0.50000000      0.00000000      0.50000000</v>
    <v>       0.00000000      0.50000000      0.50000000</v>
    <v>       0.50000000      0.50000000      0.50000000</v>
   </varray>
  </structure>
  <varray name="forces" >
   <v>      -0.06605932      0.00000000      0.00000000</v>
   <v>       0.00290161      0.00000000      0.00000000</v>
   <v>       0.00032100     -0.00000000     -0.00000000</v>
   <v>       0.00136042     -0.00000000      0.00000000</v>
   <v>       0.00032100      0.00000000     -0.00000000</v>
   <v>       0.00136042      0.00000000     -0.00000000</v>
   <v>       0.00088174      0.00000000      0.00000000</v>
   <v>       0.00028728     -0.00000000     -0.00000000</v>
   <v>      -0.00094111      0.00002026     -0.00002026</v>
   <v>       0.00017886      0.00000592     -0.00000592</v>
   <v>      -0.00094111     -0.00002026     -0.00002026</v>
   <v>       0.00017886     -0.00000592     -0.00000592</v>
   <v>      -0.00094111      0.00002026      0.00002026</v>
   <v>       0.00017886      0.00000592      0.00000592</v>
   <v>      -0.00094111     -0.00002026      0.00002026</v>
   <v>       0.00017886     -0.00000592      0.00000592</v>
   <v>       0.00816249     -0.00000000     -0.00915530</v>
   <v>       0.00837676      0.00000000      0.00944684</v>
   <v>      -0.00055447     -0.00000000      0.00016550</v>
   <v>      -0.00056607     -0.00000000     -0.00016707</v>
   <v>       0.00816249      0.00000000      0.00915530</v>
   <v>       0.00837676     -0.00000000     -0.00944684</v>
   <v>      -0.00055447      0.00000000     -0.00016550</v>
   <v>      -0.00056607     -0.00000000      0.00016707</v>
   <v>       0.00816249      0.00915530     -0.00000000</v>
   <v>       0.00837676     -0.00944684      0.00000000</v>
   <v>       0.00816249     -0.00915530     -0.00000000</v>
   <v>       0.00837676      0.00944684     -0.00000000</v>
   <v>      -0.00055447     -0.00016550      0.00000000</v>
   <v>      -0.00056607      0.00016707     -0.00000000</v>
   <v>      -0.00055447      0.00016550      0.00000000</v>
   <v>      -0.00056607     -0.00016707      0.00000000</v>
  </varray>
  <varray name="stress" >
   <v>      89.09901910      0.00000000      0.00000000</v>
   <v>       0.00000000     89.10137653      0.00000000</v>
   <v>       0.00000000      0.00000000     89.10137653</v>
  </varray>
  <energy>
   <i name="e_fr_energy">   -118.64655102</i>
   <i name="e_wo_entrp">   -118.64611586</i>
   <i name="e_0_energy">     -0.00087031</i>
  </energy>
  <eigenvalues>
   <array>
    <dimension dim="1">band</dimension>
    <dimension dim="2">kpoint</dimension>
    <dimension dim="3">spin</dimension>
    <field>eigene</field>
    <field>occ</field>
    <set>
     <set comment="spin 1">
      <set comment="kpoint 1">
       <r>  -2.7822  1.0000</r>
       <r>  -0.3966  1.0000</r>
       <r>  -0.3927  1.0000</r>
       <r>  -0.3927  1.0000</r>
       <r>  -0.3927  1.0000</r>
       <r>  -0.3927  1.0000</r>
       <r>  -0.3888  1.0000</r>
       <r>   1.9460  1.0000</r>
       <r>   1.9505  1.0000</r>
       <r>   1.9505  1.0000</r>
       <r>   1.9523  1.0000</r>
       <r>   1.9524  1.0000</r>
       <r>   1.9524  1.0000</r>
       <r>   1.9524  1.0000</r>
       <r>   1.9524  1.0000</r>
       <r>   1.9525  1.0000</r>
       <r>   1.9544  1.0000</r>
       <r>   1.9544  1.0000</r>
       <r>   1.9589  1.0000</r>
       <r>   4.0444  1.0000</r>
       <r>   4.0445  1.0000</r>
       <r>   4.0445  1.0000</r>
       <r>   4.0445  1.0000</r>
       <r>   4.5085  1.0000</r>
       <r>   4.5085  1.0000</r>
       <r>   4.5085  1.0000</r>
       <r>   4.5085  1.0000</r>
       <r>   5.8683  1.0000</r>
       <r>   5.8683  1.0000</r>
       <r>   5.8683  1.0000</r>
       <r>   7.3863  1.0000</r>
       <r>   7.3863  1.0000</r>
       <r>   7.3863  1.0000</r>
       <r>   8.0499  1.0000</r>
       <r>   8.0499  1.0000</r>
       <r>   8.0545  1.0000</r>
       <r>   8.0545  1.0000</r>
       <r>   8.0547  1.0000</r>
       <r>   8.0547  1.0000</r>
       <r>   8.0547  1.0000</r>
       <r>   8.0547  1.0000</r>
       <r>   8.0549  1.0000</r>
       <r>   8.0549  1.0000</r>
       <r>   8.0594  1.0000</r>
       <r>   8.0594  1.0000</r>
       <r>   9.0118  0.9994</r>
       <r>   9.0162  0.9951</r>
       <r>   9.0163  0.9951</r>
       <r>   9.0163  0.9951</r>
       <r>   9.0163  0.9951</r>
       <r>   9.0207  0.9749</r>
       <r>  10.2484  0.0000</r>
       <r>  10.2484  0.0000</r>
       <r>  10.2499  0.0000</r>
       <r>  10.2526  0.0000</r>
       <r>  10.2526  0.0000</r>
       <r>  10.2526  0.0000</r>
       <r>  10.2526  0.0000</r>
       <r>  10.2527  0.0000</r>
       <r>  10.2527  0.0000</r>
       <r>  10.2554  0.0000</r>
       <r>  10.2568  0.0000</r>
       <r>  10.2568  0.0000</r>
       <r>  10.6731  0.0000</r>
       <r>  10.6742  0.0000</r>
       <r>  10.6742  0.0000</r>
       <r>  10.6742  0.0000</r>
       <r>  10.6750  0.0000</r>
      </set>
      <set comment="kpoint 2">
       <r>  -2.7655  1.0000</r>
       <r>  -0.7713  1.0000</r>
       <r>  -0.3763  1.0000</r>
       <r>  -0.3762  1.0000</r>
       <r>  -0.3762  1.0000</r>
       <r>  -0.3762  1.0000</r>
       <r>   0.0175  1.0000</r>
       <r>   1.5809  1.0000</r>
       <r>   1.5809  1.0000</r>
       <r>   1.5809  1.0000</r>
       <r>   1.5809  1.0000</r>
       <r>   1.9686  1.0000</r>
       <r>   1.9686  1.0000</r>
       <r>   1.9686  1.0000</r>
       <r>   1.9686  1.0000</r>
       <r>   2.3548  1.0000</r>
       <r>   2.3548  1.0000</r>
       <r>   2.3548  1.0000</r>
       <r>   2.3549  1.0000</r>
       <r>   3.8443  1.0000</r>
       <r>   3.8443  1.0000</r>
       <r>   3.8443  1.0000</r>
       <r>   3.8443  1.0000</r>
       <r>   4.7394  1.0000</r>
       <r>   4.7394  1.0000</r>
       <r>   4.7394  1.0000</r>
       <r>   4.7394  1.0000</r>
       <r>   5.5672  1.0000</r>
       <r>   5.8835  1.0000</r>
       <r>   5.8835  1.0000</r>
       <r>   7.4020  1.0000</r>
       <r>   7.4020  1.0000</r>
       <r>   7.7047  1.0000</r>
       <r>   7.7047  1.0000</r>
       <r>   7.7157  1.0000</r>
       <r>   7.7512  1.0000</r>
       <r>   7.7512  1.0000</r>
       <r>   7.7512  1.0000</r>
       <r>   7.7513  1.0000</r>
       <r>   8.0699  1.0000</r>
       <r>   8.0699  1.0000</r>
       <r>   8.0699  1.0000</r>
       <r>   8.0699  1.0000</r>
       <r>   8.4352  1.0000</r>
       <r>   8.4352  1.0000</r>
       <r>   8.9461  1.0000</r>
       <r>   8.9462  1.0000</r>
       <r>   9.2363  0.0000</r>
       <r>   9.2363  0.0000</r>
       <r>   9.2363  0.0000</r>
       <r>   9.2363  0.0000</r>
       <r>   9.9011  0.0000</r>
       <r>   9.9011  0.0000</r>
       <r>   9.9011  0.0000</r>
       <r>   9.9011  0.0000</r>
       <r>  10.0003  0.0000</r>
       <r>  10.0004  0.0000</r>
       <r>  10.0004  0.0000</r>
       <r>  10.0004  0.0000</r>
       <r>  10.6349  0.0000</r>
       <r>  10.6349  0.0000</r>
       <r>  10.6349  0.0000</r>
       <r>  10.6349  0.0000</r>
       <r>  10.7724  0.0000</r>
       <r>  10.7730  0.0000</r>
       <r>  10.8017  0.0000</r>
       <r>  10.8017  0.0000</r>
       <r>  10.8018  0.0000</r>
      </set>
      <set comment="kpoint 3">
       <r>  -2.7153  1.0000</r>
       <r>  -1.1180  1.0000</r>
       <r>  -0.3270  1.0000</r>
       <r>  -0.3269  1.0000</r>
       <r>  -0.3269  1.0000</r>
       <r>  -0.3269  1.0000</r>
       <r>   0.4588  1.0000</r>
       <r>   1.2407  1.0000</r>
       <r>   1.2407  1.0000</r>
       <r>   1.2407  1.0000</r>
       <r>   1.2407  1.0000</r>
       <r>   2.0169  1.0000</r>
       <r>   2.0169  1.0000</r>
       <r>   2.0169  1.0000</r>
       <r>   2.0169  1.0000</r>
       <r>   2.7876  1.0000</r>
       <r>   2.7876  1.0000</r>
       <r>   2.7876  1.0000</r>
       <r>   2.7876  1.0000</r>
       <r>   3.5384  1.0000</r>
       <r>   3.5384  1.0000</r>
       <r>   3.5384  1.0000</r>
       <r>   3.5384  1.0000</r>
       <r>   4.9848  1.0000</r>
       <r>   5.1374  1.0000</r>
       <r>   5.1374  1.0000</r>
       <r>   5.1374  1.0000</r>
       <r>   5.1375  1.0000</r>
       <r>   5.9289  1.0000</r>
       <r>   5.9289  1.0000</r>
       <r>   7.1894  1.0000</r>
       <r>   7.1894  1.0000</r>
       <r>   7.1894  1.0000</r>
       <r>   7.1894  1.0000</r>
       <r>   7.3855  1.0000</r>
       <r>   7.3855  1.0000</r>
       <r>   7.4489  1.0000</r>
       <r>   7.4489  1.0000</r>
       <r>   8.1156  1.0000</r>
       <r>   8.1156  1.0000</r>
       <r>   8.1156  1.0000</r>
       <r>   8.1156  1.0000</r>
       <r>   8.3833  1.0000</r>
       <r>   8.7736  1.0000</r>
       <r>   8.7736  1.0000</r>
       <r>   8.8465  1.0000</r>
       <r>   8.8465  1.0000</r>
       <r>   9.4727  0.0000</r>
       <r>   9.4727  0.0000</r>
       <r>   9.4727  0.0000</r>
       <r>   9.4727  0.0000</r>
       <r>   9.5441  0.0000</r>
       <r>   9.5441  0.0000</r>
       <r>   9.5441  0.0000</r>
       <r>   9.5443  0.0000</r>
       <r>   9.5803  0.0000</r>
       <r>   9.5803  0.0000</r>
       <r>   9.5804  0.0000</r>
       <r>   9.5804  0.0000</r>
       <r>  11.0294  0.0000</r>
       <r>  11.0294  0.0000</r>
       <r>  11.0478  0.0000</r>
       <r>  11.0478  0.0000</r>
       <r>  11.0479  0.0000</r>
       <r>  11.0479  0.0000</r>
       <r>  11.1878  0.0000</r>
       <r>  11.1879  0.0000</r>
       <r>  11.1879  0.0000</r>
      </set>
      <set comment="kpoint 4">
       <r>  -2.6316  1.0000</r>
       <r>  -1.4325  1.0000</r>
       <r>  -0.2448  1.0000</r>
       <r>  -0.2448  1.0000</r>
       <r>  -0.2448  1.0000</r>
       <r>  -0.2448  1.0000</r>
       <r>   0.9288  1.0000</r>
       <r>   0.9320  1.0000</r>
       <r>   0.9320  1.0000</r>
       <r>   0.9320  1.0000</r>
       <r>   0.9341  1.0000</r>
       <r>   2.0974  1.0000</r>
       <r>   2.0974  1.0000</r>
       <r>   2.0974  1.0000</r>
       <r>   2.0974  1.0000</r>
       <r>   3.2431  1.0000</r>
       <r>   3.2442  1.0000</r>
       <r>   3.2442  1.0000</r>
       <r>   3.2445  1.0000</r>
       <r>   3.2503  1.0000</r>
       <r>   3.2506  1.0000</r>
       <r>   3.2506  1.0000</r>
       <r>   3.2517  1.0000</r>
       <r>   4.3524  1.0000</r>
       <r>   5.5846  1.0000</r>
       <r>   5.5846  1.0000</r>
       <r>   5.5846  1.0000</r>
       <r>   5.5846  1.0000</r>
       <r>   6.0046  1.0000</r>
       <r>   6.0046  1.0000</r>
       <r>   6.5817  1.0000</r>
       <r>   6.5817  1.0000</r>
       <r>   6.5817  1.0000</r>
       <r>   6.5817  1.0000</r>
       <r>   7.0968  1.0000</r>
       <r>   7.0968  1.0000</r>
       <r>   7.5267  1.0000</r>
       <r>   7.5267  1.0000</r>
       <r>   8.1918  1.0000</r>
       <r>   8.1918  1.0000</r>
       <r>   8.1918  1.0000</r>
       <r>   8.1918  1.0000</r>
       <r>   8.5583  1.0000</r>
       <r>   8.5584  1.0000</r>
       <r>   8.8768  1.0000</r>
       <r>   8.8768  1.0000</r>
       <r>   8.8768  1.0000</r>
       <r>   8.8768  1.0000</r>
       <r>   9.1577  0.0000</r>
       <r>   9.2867  0.0000</r>
       <r>   9.2867  0.0000</r>
       <r>   9.2901  0.0000</r>
       <r>   9.2901  0.0000</r>
       <r>   9.2919  0.0000</r>
       <r>   9.2919  0.0000</r>
       <r>   9.7737  0.0000</r>
       <r>   9.7737  0.0000</r>
       <r>   9.7737  0.0000</r>
       <r>   9.7737  0.0000</r>
       <r>  11.0813  0.0000</r>
       <r>  11.0813  0.0000</r>
       <r>  11.0813  0.0000</r>
       <r>  11.0813  0.0000</r>
       <r>  11.3845  0.0000</r>
       <r>  11.3845  0.0000</r>
       <r>  11.4916  0.0000</r>
       <r>  11.4916  0.0000</r>
       <r>  11.4916  0.0000</r>
      </set>
      <set comment="kpoint 5">
       <r>  -2.5145  1.0000</r>
       <r>  -1.7146  1.0000</r>
       <r>  -0.1300  1.0000</r>
       <r>  -0.1299  1.0000</r>
       <r>  -0.1299  1.0000</r>
       <r>  -0.1299  1.0000</r>
       <r>   0.6551  1.0000</r>
       <r>   0.6551  1.0000</r>
       <r>   0.6551  1.0000</r>
       <r>   0.6551  1.0000</r>
       <r>   1.4331  1.0000</r>
       <r>   2.2100  1.0000</r>
       <r>   2.2100  1.0000</r>
       <r>   2.2100  1.0000</r>
       <r>   2.2101  1.0000</r>
       <r>   2.9767  1.0000</r>
       <r>   2.9767  1.0000</r>
       <r>   2.9767  1.0000</r>
       <r>   2.9767  1.0000</r>
       <r>   3.7230  1.0000</r>
       <r>   3.7421  1.0000</r>
       <r>   3.7421  1.0000</r>
       <r>   3.7421  1.0000</r>
       <r>   3.7422  1.0000</r>
       <r>   5.9739  1.0000</r>
       <r>   5.9739  1.0000</r>
       <r>   5.9739  1.0000</r>
       <r>   5.9739  1.0000</r>
       <r>   6.0665  1.0000</r>
       <r>   6.0665  1.0000</r>
       <r>   6.0665  1.0000</r>
       <r>   6.0665  1.0000</r>
       <r>   6.1108  1.0000</r>
       <r>   6.1108  1.0000</r>
       <r>   6.8387  1.0000</r>
       <r>   6.8387  1.0000</r>
       <r>   7.6347  1.0000</r>
       <r>   7.6347  1.0000</r>
       <r>   8.2746  1.0000</r>
       <r>   8.2746  1.0000</r>
       <r>   8.2748  1.0000</r>
       <r>   8.2748  1.0000</r>
       <r>   8.2985  1.0000</r>
       <r>   8.2986  1.0000</r>
       <r>   8.2987  1.0000</r>
       <r>   8.2987  1.0000</r>
       <r>   8.3368  1.0000</r>
       <r>   8.3369  1.0000</r>
       <r>   9.0306  0.7096</r>
       <r>   9.0306  0.7096</r>
       <r>   9.0306  0.7095</r>
       <r>   9.0306  0.7094</r>
       <r>   9.7612  0.0000</r>
       <r>   9.7612  0.0000</r>
       <r>   9.9613  0.0000</r>
       <r>   9.9613  0.0000</r>
       <r>   9.9613  0.0000</r>
       <r>   9.9613  0.0000</r>
       <r>   9.9856  0.0000</r>
       <r>  10.8085  0.0000</r>
       <r>  10.8085  0.0000</r>
       <r>  10.8085  0.0000</r>
       <r>  10.8085  0.0000</r>
       <r>  11.7998  0.0000</r>
       <r>  11.8004  0.0000</r>
       <r>  11.9575  0.0000</r>
       <r>  11.9629  0.0000</r>
       <r>  11.9661  0.0000</r>
      </set>
      <set comment="kpoint 6">
       <r>  -2.3641  1.0000</r>
       <r>  -1.9640  1.0000</r>
       <r>   0.0176  1.0000</r>
       <r>   0.0176  1.0000</r>
       <r>   0.0176  1.0000</r>
       <r>   0.0176  1.0000</r>
       <r>   0.4103  1.0000</r>
       <r>   0.4103  1.0000</r>
       <r>   0.4103  1.0000</r>
       <r>   0.4103  1.0000</r>
       <r>   1.9648  1.0000</r>
       <r>   2.3546  1.0000</r>
       <r>   2.3546  1.0000</r>
       <r>   2.3546  1.0000</r>
       <r>   2.3546  1.0000</r>
       <r>   2.7384  1.0000</r>
       <r>   2.7384  1.0000</r>
       <r>   2.7384  1.0000</r>
       <r>   2.7384  1.0000</r>
       <r>   3.1119  1.0000</r>
       <r>   4.2622  1.0000</r>
       <r>   4.2622  1.0000</r>
       <r>   4.2622  1.0000</r>
       <r>   4.2622  1.0000</r>
       <r>   5.3808  1.0000</r>
       <r>   5.3808  1.0000</r>
       <r>   5.3808  1.0000</r>
       <r>   5.3808  1.0000</r>
       <r>   6.2471  1.0000</r>
       <r>   6.2471  1.0000</r>
       <r>   6.5790  1.0000</r>
       <r>   6.5790  1.0000</r>
       <r>   6.5791  1.0000</r>
       <r>   6.5791  1.0000</r>
       <r>   6.6112  1.0000</r>
       <r>   6.6112  1.0000</r>
       <r>   7.6865  1.0000</r>
       <r>   7.6865  1.0000</r>
       <r>   7.6865  1.0000</r>
       <r>   7.6865  1.0000</r>
       <r>   7.7720  1.0000</r>
       <r>   7.7720  1.0000</r>
       <r>   8.1267  1.0000</r>
       <r>   8.1268  1.0000</r>
       <r>   8.4357  1.0000</r>
       <r>   8.4357  1.0000</r>
       <r>   8.4357  1.0000</r>
       <r>   8.4357  1.0000</r>
       <r>   8.8017  1.0000</r>
       <r>   8.8017  1.0000</r>
       <r>   8.8018  1.0000</r>
       <r>   8.8018  1.0000</r>
       <r>  10.1449  0.0000</r>
       <r>  10.1449  0.0000</r>
       <r>  10.1449  0.0000</r>
       <r>  10.1449  0.0000</r>
       <r>  10.2645  0.0000</r>
       <r>  10.2645  0.0000</r>
       <r>  10.5628  0.0000</r>
       <r>  10.5628  0.0000</r>
       <r>  10.5628  0.0000</r>
       <r>  10.5629  0.0000</r>
       <r>  10.8518  0.0000</r>
       <r>  11.3622  0.0000</r>
       <r>  11.3622  0.0000</r>
       <r>  12.2550  0.0000</r>
       <r>  12.2551  0.0000</r>
       <r>  12.4712  0.0000</r>
      </set>
      <set comment="kpoint 7">
       <r>  -2.1821  1.0000</r>
       <r>  -2.1791  1.0000</r>
       <r>   0.1936  1.0000</r>
       <r>   0.1969  1.0000</r>
       <r>   0.1969  1.0000</r>
       <r>   0.1977  1.0000</r>
       <r>   0.1979  1.0000</r>
       <r>   0.1987  1.0000</r>
       <r>   0.1987  1.0000</r>
       <r>   0.2019  1.0000</r>
       <r>   2.5225  1.0000</r>
       <r>   2.5250  1.0000</r>
       <r>   2.5292  1.0000</r>
       <r>   2.5295  1.0000</r>
       <r>   2.5295  1.0000</r>
       <r>   2.5303  1.0000</r>
       <r>   2.5313  1.0000</r>
       <r>   2.5322  1.0000</r>
       <r>   2.5322  1.0000</r>
       <r>   2.5348  1.0000</r>
       <r>   4.8082  1.0000</r>
       <r>   4.8082  1.0000</r>
       <r>   4.8087  1.0000</r>
       <r>   4.8089  1.0000</r>
       <r>   4.8093  1.0000</r>
       <r>   4.8095  1.0000</r>
       <r>   4.8100  1.0000</r>
       <r>   4.8100  1.0000</r>
       <r>   6.4122  1.0000</r>
       <r>   6.4122  1.0000</r>
       <r>   6.4155  1.0000</r>
       <r>   6.4155  1.0000</r>
       <r>   7.1190  1.0000</r>
       <r>   7.1190  1.0000</r>
       <r>   7.1193  1.0000</r>
       <r>   7.1199  1.0000</r>
       <r>   7.1200  1.0000</r>
       <r>   7.1206  1.0000</r>
       <r>   7.1209  1.0000</r>
       <r>   7.1209  1.0000</r>
       <r>   7.9348  1.0000</r>
       <r>   7.9360  1.0000</r>
       <r>   7.9378  1.0000</r>
       <r>   7.9390  1.0000</r>
       <r>   8.6009  1.0000</r>
       <r>   8.6009  1.0000</r>
       <r>   8.6018  1.0000</r>
       <r>   8.6034  1.0000</r>
       <r>   8.6035  1.0000</r>
       <r>   8.6051  1.0000</r>
       <r>   8.6060  1.0000</r>
       <r>   8.6060  1.0000</r>
       <r>  10.3405  0.0000</r>
       <r>  10.3414  0.0000</r>
       <r>  10.3414  0.0000</r>
       <r>  10.3416  0.0000</r>
       <r>  10.3441  0.0000</r>
       <r>  10.3442  0.0000</r>
       <r>  10.3442  0.0000</r>
       <r>  10.3451  0.0000</r>
       <r>  10.7971  0.0000</r>
       <r>  10.7971  0.0000</r>
       <r>  10.7994  0.0000</r>
       <r>  10.7994  0.0000</r>
       <r>  11.7499  0.0000</r>
       <r>  11.7510  0.0000</r>
       <r>  12.7368  0.0000</r>
       <r>  12.7382  0.0000</r>
      </set>
      <set comment="kpoint 8">
       <r>  -2.7655  1.0000</r>
       <r>  -0.7713  1.0000</r>
       <r>  -0.3792  1.0000</r>
       <r>  -0.3762  1.0000</r>
       <r>  -0.3762  1.0000</r>
       <r>  -0.3733  1.0000</r>
       <r>   0.0175  1.0000</r>
       <r>   1.5779  1.0000</r>
       <r>   1.5809  1.0000</r>
       <r>   1.5809  1.0000</r>
       <r>   1.5839  1.0000</r>
       <r>   1.9665  1.0000</r>
       <r>   1.9674  1.0000</r>
       <r>   1.9697  1.0000</r>
       <r>   1.9706  1.0000</r>
       <r>   2.3518  1.0000</r>
       <r>   2.3548  1.0000</r>
       <r>   2.3548  1.0000</r>
       <r>   2.3578  1.0000</r>
       <r>   3.8425  1.0000</r>
       <r>   3.8433  1.0000</r>
       <r>   3.8453  1.0000</r>
       <r>   3.8461  1.0000</r>
       <r>   4.7376  1.0000</r>
       <r>   4.7384  1.0000</r>
       <r>   4.7404  1.0000</r>
       <r>   4.7412  1.0000</r>
       <r>   5.5672  1.0000</r>
       <r>   5.8835  1.0000</r>
       <r>   5.8835  1.0000</r>
       <r>   7.4019  1.0000</r>
       <r>   7.4020  1.0000</r>
       <r>   7.7046  1.0000</r>
       <r>   7.7047  1.0000</r>
       <r>   7.7158  1.0000</r>
       <r>   7.7478  1.0000</r>
       <r>   7.7512  1.0000</r>
       <r>   7.7512  1.0000</r>
       <r>   7.7546  1.0000</r>
       <r>   8.0671  1.0000</r>
       <r>   8.0699  1.0000</r>
       <r>   8.0699  1.0000</r>
       <r>   8.0727  1.0000</r>
       <r>   8.4352  1.0000</r>
       <r>   8.4352  1.0000</r>
       <r>   8.9461  1.0000</r>
       <r>   8.9462  1.0000</r>
       <r>   9.2332  0.0000</r>
       <r>   9.2363  0.0000</r>
       <r>   9.2363  0.0000</r>
       <r>   9.2394  0.0000</r>
       <r>   9.8982  0.0000</r>
       <r>   9.9011  0.0000</r>
       <r>   9.9011  0.0000</r>
       <r>   9.9040  0.0000</r>
       <r>   9.9976  0.0000</r>
       <r>   9.9992  0.0000</r>
       <r>  10.0015  0.0000</r>
       <r>  10.0031  0.0000</r>
       <r>  10.6320  0.0000</r>
       <r>  10.6349  0.0000</r>
       <r>  10.6349  0.0000</r>
       <r>  10.6378  0.0000</r>
       <r>  10.7724  0.0000</r>
       <r>  10.7749  0.0000</r>
       <r>  10.8007  0.0000</r>
       <r>  10.8017  0.0000</r>
       <r>  10.8024  0.0000</r>
      </set>
      <set comment="kpoint 9">
       <r>  -2.7487  1.0000</r>
       <r>  -0.7560  1.0000</r>
       <r>  -0.7535  1.0000</r>
       <r>  -0.3598  1.0000</r>
       <r>  -0.3598  1.0000</r>
       <r>   0.0326  1.0000</r>
       <r>   0.0351  1.0000</r>
       <r>   1.2083  1.0000</r>
       <r>   1.5954  1.0000</r>
       <r>   1.5963  1.0000</r>
       <r>   1.5979  1.0000</r>
       <r>   1.5989  1.0000</r>
       <r>   1.9841  1.0000</r>
       <r>   1.9851  1.0000</r>
       <r>   2.3691  1.0000</r>
       <r>   2.3701  1.0000</r>
       <r>   2.3717  1.0000</r>
       <r>   2.3726  1.0000</r>
       <r>   2.7558  1.0000</r>
       <r>   3.5068  1.0000</r>
       <r>   3.5068  1.0000</r>
       <r>   4.0752  1.0000</r>
       <r>   4.0752  1.0000</r>
       <r>   4.5410  1.0000</r>
       <r>   4.5410  1.0000</r>
       <r>   5.1059  1.0000</r>
       <r>   5.1059  1.0000</r>
       <r>   5.5822  1.0000</r>
       <r>   5.5828  1.0000</r>
       <r>   5.8986  1.0000</r>
       <r>   7.4079  1.0000</r>
       <r>   7.4103  1.0000</r>
       <r>   7.4176  1.0000</r>
       <r>   7.6779  1.0000</r>
       <r>   7.6780  1.0000</r>
       <r>   7.7186  1.0000</r>
       <r>   7.7214  1.0000</r>
       <r>   7.7309  1.0000</r>
       <r>   7.7316  1.0000</r>
       <r>   7.8757  1.0000</r>
       <r>   7.8757  1.0000</r>
       <r>   8.1086  1.0000</r>
       <r>   8.1107  1.0000</r>
       <r>   8.4490  1.0000</r>
       <r>   8.4519  1.0000</r>
       <r>   9.1318  0.0000</r>
       <r>   9.1342  0.0000</r>
       <r>   9.2110  0.0000</r>
       <r>   9.2139  0.0000</r>
       <r>   9.4555  0.0000</r>
       <r>   9.4555  0.0000</r>
       <r>   9.5498  0.0000</r>
       <r>   9.6459  0.0000</r>
       <r>   9.6468  0.0000</r>
       <r>   9.6483  0.0000</r>
       <r>   9.6493  0.0000</r>
       <r>  10.2822  0.0000</r>
       <r>  10.2841  0.0000</r>
       <r>  10.3823  0.0000</r>
       <r>  10.3832  0.0000</r>
       <r>  10.3839  0.0000</r>
       <r>  10.3849  0.0000</r>
       <r>  10.8456  0.0000</r>
       <r>  10.8463  0.0000</r>
       <r>  10.9092  0.0000</r>
       <r>  10.9095  0.0000</r>
       <r>  10.9559  0.0000</r>
       <r>  10.9595  0.0000</r>
      </set>
      <set comment="kpoint 10">
       <r>  -2.6985  1.0000</r>
       <r>  -1.1015  1.0000</r>
       <r>  -0.7053  1.0000</r>
       <r>  -0.3105  1.0000</r>
       <r>  -0.3105  1.0000</r>
       <r>   0.0830  1.0000</r>
       <r>   0.4751  1.0000</r>
       <r>   0.8670  1.0000</r>
       <r>   1.2569  1.0000</r>
       <r>   1.2569  1.0000</r>
       <r>   1.6449  1.0000</r>
       <r>   1.6456  1.0000</r>
       <r>   1.6463  1.0000</r>
       <r>   2.4182  1.0000</r>
       <r>   2.4190  1.0000</r>
       <r>   2.4196  1.0000</r>
       <r>   2.8036  1.0000</r>
       <r>   2.8036  1.0000</r>
       <r>   3.1810  1.0000</r>
       <r>   3.1810  1.0000</r>
       <r>   3.1870  1.0000</r>
       <r>   3.9068  1.0000</r>
       <r>   3.9068  1.0000</r>
       <r>   4.8032  1.0000</r>
       <r>   4.8032  1.0000</r>
       <r>   5.0004  1.0000</r>
       <r>   5.5221  1.0000</r>
       <r>   5.5221  1.0000</r>
       <r>   5.6285  1.0000</r>
       <r>   5.9440  1.0000</r>
       <r>   6.8452  1.0000</r>
       <r>   7.0927  1.0000</r>
       <r>   7.1892  1.0000</r>
       <r>   7.1892  1.0000</r>
       <r>   7.4007  1.0000</r>
       <r>   7.4643  1.0000</r>
       <r>   7.5538  1.0000</r>
       <r>   7.7657  1.0000</r>
       <r>   7.7775  1.0000</r>
       <r>   7.8610  1.0000</r>
       <r>   7.8610  1.0000</r>
       <r>   8.3984  1.0000</r>
       <r>   8.4346  1.0000</r>
       <r>   8.4962  1.0000</r>
       <r>   8.8618  1.0000</r>
       <r>   9.0117  0.9994</r>
       <r>   9.0679  0.0000</r>
       <r>   9.1182  0.0000</r>
       <r>   9.1182  0.0000</r>
       <r>   9.2292  0.0000</r>
       <r>   9.3252  0.0000</r>
       <r>   9.3254  0.0000</r>
       <r>   9.3387  0.0000</r>
       <r>   9.6579  0.0000</r>
       <r>   9.7920  0.0000</r>
       <r>   9.7920  0.0000</r>
       <r>   9.8576  0.0000</r>
       <r>   9.8577  0.0000</r>
       <r>   9.9622  0.0000</r>
       <r>  10.6960  0.0000</r>
       <r>  10.7972  0.0000</r>
       <r>  10.7972  0.0000</r>
       <r>  11.0267  0.0000</r>
       <r>  11.0720  0.0000</r>
       <r>  11.0968  0.0000</r>
       <r>  11.2475  0.0000</r>
       <r>  11.2541  0.0000</r>
       <r>  11.2554  0.0000</r>
      </set>
      <set comment="kpoint 11">
       <r>  -2.6148  1.0000</r>
       <r>  -1.4159  1.0000</r>
       <r>  -0.6230  1.0000</r>
       <r>  -0.2284  1.0000</r>
       <r>  -0.2284  1.0000</r>
       <r>   0.1649  1.0000</r>
       <r>   0.5574  1.0000</r>
       <r>   0.9458  1.0000</r>
       <r>   0.9483  1.0000</r>
       <r>   0.9496  1.0000</r>
       <r>   1.3378  1.0000</r>
       <r>   1.7265  1.0000</r>
       <r>   1.7265  1.0000</r>
       <r>   2.4992  1.0000</r>
       <r>   2.4992  1.0000</r>
       <r>   2.8799  1.0000</r>
       <r>   2.8810  1.0000</r>
       <r>   2.8842  1.0000</r>
       <r>   3.2661  1.0000</r>
       <r>   3.2661  1.0000</r>
       <r>   3.6329  1.0000</r>
       <r>   3.6331  1.0000</r>
       <r>   3.6480  1.0000</r>
       <r>   4.3681  1.0000</r>
       <r>   5.2319  1.0000</r>
       <r>   5.2319  1.0000</r>
       <r>   5.7051  1.0000</r>
       <r>   5.9736  1.0000</r>
       <r>   5.9736  1.0000</r>
       <r>   6.0198  1.0000</r>
       <r>   6.2322  1.0000</r>
       <r>   6.5916  1.0000</r>
       <r>   6.5916  1.0000</r>
       <r>   6.8046  1.0000</r>
       <r>   6.9557  1.0000</r>
       <r>   7.1120  1.0000</r>
       <r>   7.5417  1.0000</r>
       <r>   7.8418  1.0000</r>
       <r>   7.8542  1.0000</r>
       <r>   7.9314  1.0000</r>
       <r>   7.9314  1.0000</r>
       <r>   8.4963  1.0000</r>
       <r>   8.5209  1.0000</r>
       <r>   8.5209  1.0000</r>
       <r>   8.5725  1.0000</r>
       <r>   8.8659  1.0000</r>
       <r>   8.9392  1.0000</r>
       <r>   9.0337  0.5461</r>
       <r>   9.0337  0.5439</r>
       <r>   9.1579  0.0000</r>
       <r>   9.1724  0.0000</r>
       <r>   9.2631  0.0000</r>
       <r>   9.2632  0.0000</r>
       <r>   9.3038  0.0000</r>
       <r>   9.4967  0.0000</r>
       <r>   9.6718  0.0000</r>
       <r>  10.0174  0.0000</r>
       <r>  10.0456  0.0000</r>
       <r>  10.0456  0.0000</r>
       <r>  10.7272  0.0000</r>
       <r>  11.1395  0.0000</r>
       <r>  11.2411  0.0000</r>
       <r>  11.2411  0.0000</r>
       <r>  11.3654  0.0000</r>
       <r>  11.3654  0.0000</r>
       <r>  11.4133  0.0000</r>
       <r>  11.4621  0.0000</r>
       <r>  11.5765  0.0000</r>
      </set>
      <set comment="kpoint 12">
       <r>  -2.4978  1.0000</r>
       <r>  -1.6980  1.0000</r>
       <r>  -0.5077  1.0000</r>
       <r>  -0.1135  1.0000</r>
       <r>  -0.1135  1.0000</r>
       <r>   0.2789  1.0000</r>
       <r>   0.2802  1.0000</r>
       <r>   0.6714  1.0000</r>
       <r>   0.6714  1.0000</r>
       <r>   1.0619  1.0000</r>
       <r>   1.4493  1.0000</r>
       <r>   1.8395  1.0000</r>
       <r>   1.8395  1.0000</r>
       <r>   2.6099  1.0000</r>
       <r>   2.6102  1.0000</r>
       <r>   2.6114  1.0000</r>
       <r>   2.6118  1.0000</r>
       <r>   3.3715  1.0000</r>
       <r>   3.3715  1.0000</r>
       <r>   3.3767  1.0000</r>
       <r>   3.7388  1.0000</r>
       <r>   3.7578  1.0000</r>
       <r>   3.7578  1.0000</r>
       <r>   4.1376  1.0000</r>
       <r>   5.6197  1.0000</r>
       <r>   5.7093  1.0000</r>
       <r>   5.7093  1.0000</r>
       <r>   5.8124  1.0000</r>
       <r>   5.9870  1.0000</r>
       <r>   5.9870  1.0000</r>
       <r>   6.1259  1.0000</r>
       <r>   6.3549  1.0000</r>
       <r>   6.4567  1.0000</r>
       <r>   6.4567  1.0000</r>
       <r>   6.5458  1.0000</r>
       <r>   6.8539  1.0000</r>
       <r>   7.6492  1.0000</r>
       <r>   7.9177  1.0000</r>
       <r>   7.9177  1.0000</r>
       <r>   7.9485  1.0000</r>
       <r>   7.9607  1.0000</r>
       <r>   8.0371  1.0000</r>
       <r>   8.0371  1.0000</r>
       <r>   8.3295  1.0000</r>
       <r>   8.6510  1.0000</r>
       <r>   8.6622  1.0000</r>
       <r>   8.6626  1.0000</r>
       <r>   8.6788  1.0000</r>
       <r>   8.6806  1.0000</r>
       <r>   8.7728  1.0000</r>
       <r>   8.7728  1.0000</r>
       <r>   9.4121  0.0000</r>
       <r>   9.5654  0.0000</r>
       <r>   9.6476  0.0000</r>
       <r>   9.7765  0.0000</r>
       <r>   9.9999  0.0000</r>
       <r>  10.2434  0.0000</r>
       <r>  10.2434  0.0000</r>
       <r>  10.2760  0.0000</r>
       <r>  10.4563  0.0000</r>
       <r>  11.0938  0.0000</r>
       <r>  11.0938  0.0000</r>
       <r>  11.1867  0.0000</r>
       <r>  11.6138  0.0000</r>
       <r>  11.7127  0.0000</r>
       <r>  11.7150  0.0000</r>
       <r>  11.7156  0.0000</r>
       <r>  11.8223  0.0000</r>
      </set>
      <set comment="kpoint 13">
       <r>  -2.3474  1.0000</r>
       <r>  -1.9474  1.0000</r>
       <r>  -0.3597  1.0000</r>
       <r>   0.0326  1.0000</r>
       <r>   0.0340  1.0000</r>
       <r>   0.0355  1.0000</r>
       <r>   0.4251  1.0000</r>
       <r>   0.4267  1.0000</r>
       <r>   0.4280  1.0000</r>
       <r>   0.8179  1.0000</r>
       <r>   1.9804  1.0000</r>
       <r>   1.9846  1.0000</r>
       <r>   1.9851  1.0000</r>
       <r>   2.3704  1.0000</r>
       <r>   2.3704  1.0000</r>
       <r>   2.7550  1.0000</r>
       <r>   2.7550  1.0000</r>
       <r>   3.1276  1.0000</r>
       <r>   3.1361  1.0000</r>
       <r>   3.1363  1.0000</r>
       <r>   3.8988  1.0000</r>
       <r>   4.2777  1.0000</r>
       <r>   4.2777  1.0000</r>
       <r>   4.6551  1.0000</r>
       <r>   5.0229  1.0000</r>
       <r>   5.3953  1.0000</r>
       <r>   5.3953  1.0000</r>
       <r>   5.7670  1.0000</r>
       <r>   5.9501  1.0000</r>
       <r>   6.2207  1.0000</r>
       <r>   6.2207  1.0000</r>
       <r>   6.2623  1.0000</r>
       <r>   6.3170  1.0000</r>
       <r>   6.6262  1.0000</r>
       <r>   6.9692  1.0000</r>
       <r>   6.9692  1.0000</r>
       <r>   7.3286  1.0000</r>
       <r>   7.3286  1.0000</r>
       <r>   7.7853  1.0000</r>
       <r>   8.0751  1.0000</r>
       <r>   8.0751  1.0000</r>
       <r>   8.0855  1.0000</r>
       <r>   8.0961  1.0000</r>
       <r>   8.1330  1.0000</r>
       <r>   8.1746  1.0000</r>
       <r>   8.1746  1.0000</r>
       <r>   8.4453  1.0000</r>
       <r>   8.4512  1.0000</r>
       <r>   8.5426  1.0000</r>
       <r>   8.5426  1.0000</r>
       <r>   8.8166  1.0000</r>
       <r>   9.1830  0.0000</r>
       <r>   9.8123  0.0000</r>
       <r>  10.0485  0.0000</r>
       <r>  10.2140  0.0000</r>
       <r>  10.2798  0.0000</r>
       <r>  10.4307  0.0000</r>
       <r>  10.4307  0.0000</r>
       <r>  10.4932  0.0000</r>
       <r>  10.8491  0.0000</r>
       <r>  10.8491  0.0000</r>
       <r>  10.8655  0.0000</r>
       <r>  10.9363  0.0000</r>
       <r>  11.1284  0.0000</r>
       <r>  11.3776  0.0000</r>
       <r>  12.1188  0.0000</r>
       <r>  12.2187  0.0000</r>
       <r>  12.2309  0.0000</r>
      </set>
      <set comment="kpoint 14">
       <r>  -2.1654  1.0000</r>
       <r>  -2.1624  1.0000</r>
       <r>  -0.1806  1.0000</r>
       <r>  -0.1775  1.0000</r>
       <r>   0.2120  1.0000</r>
       <r>   0.2132  1.0000</r>
       <r>   0.2151  1.0000</r>
       <r>   0.2163  1.0000</r>
       <r>   0.6045  1.0000</r>
       <r>   0.6075  1.0000</r>
       <r>   2.1595  1.0000</r>
       <r>   2.1608  1.0000</r>
       <r>   2.1626  1.0000</r>
       <r>   2.1639  1.0000</r>
       <r>   2.5404  1.0000</r>
       <r>   2.5416  1.0000</r>
       <r>   2.9280  1.0000</r>
       <r>   2.9293  1.0000</r>
       <r>   2.9311  1.0000</r>
       <r>   2.9324  1.0000</r>
       <r>   4.4476  1.0000</r>
       <r>   4.4488  1.0000</r>
       <r>   4.8233  1.0000</r>
       <r>   4.8239  1.0000</r>
       <r>   4.8245  1.0000</r>
       <r>   4.8251  1.0000</r>
       <r>   5.1985  1.0000</r>
       <r>   5.1996  1.0000</r>
       <r>   6.1167  1.0000</r>
       <r>   6.1200  1.0000</r>
       <r>   6.4274  1.0000</r>
       <r>   6.4307  1.0000</r>
       <r>   6.7607  1.0000</r>
       <r>   6.7610  1.0000</r>
       <r>   6.7620  1.0000</r>
       <r>   6.7623  1.0000</r>
       <r>   7.5087  1.0000</r>
       <r>   7.5090  1.0000</r>
       <r>   7.5100  1.0000</r>
       <r>   7.5103  1.0000</r>
       <r>   7.9466  1.0000</r>
       <r>   7.9496  1.0000</r>
       <r>   8.2514  1.0000</r>
       <r>   8.2547  1.0000</r>
       <r>   8.2570  1.0000</r>
       <r>   8.2601  1.0000</r>
       <r>   8.3407  1.0000</r>
       <r>   8.3422  1.0000</r>
       <r>   8.3441  1.0000</r>
       <r>   8.3455  1.0000</r>
       <r>   8.9828  1.0000</r>
       <r>   8.9862  1.0000</r>
       <r>   9.9983  0.0000</r>
       <r>  10.0015  0.0000</r>
       <r>  10.5712  0.0000</r>
       <r>  10.5732  0.0000</r>
       <r>  10.6275  0.0000</r>
       <r>  10.6281  0.0000</r>
       <r>  10.6308  0.0000</r>
       <r>  10.6313  0.0000</r>
       <r>  10.7060  0.0000</r>
       <r>  10.7092  0.0000</r>
       <r>  10.8125  0.0000</r>
       <r>  10.8148  0.0000</r>
       <r>  11.7627  0.0000</r>
       <r>  11.7637  0.0000</r>
       <r>  12.6550  0.0000</r>
       <r>  12.6612  0.0000</r>
      </set>
      <set comment="kpoint 15">
       <r>  -2.7153  1.0000</r>
       <r>  -1.1180  1.0000</r>
       <r>  -0.3299  1.0000</r>
       <r>  -0.3269  1.0000</r>
       <r>  -0.3269  1.0000</r>
       <r>  -0.3240  1.0000</r>
       <r>   0.4588  1.0000</r>
       <r>   1.2377  1.0000</r>
       <r>   1.2407  1.0000</r>
       <r>   1.2407  1.0000</r>
       <r>   1.2437  1.0000</r>
       <r>   2.0148  1.0000</r>
       <r>   2.0158  1.0000</r>
       <r>   2.0181  1.0000</r>
       <r>   2.0190  1.0000</r>
       <r>   2.7846  1.0000</r>
       <r>   2.7876  1.0000</r>
       <r>   2.7876  1.0000</r>
       <r>   2.7906  1.0000</r>
       <r>   3.5364  1.0000</r>
       <r>   3.5372  1.0000</r>
       <r>   3.5395  1.0000</r>
       <r>   3.5404  1.0000</r>
       <r>   4.9848  1.0000</r>
       <r>   5.1354  1.0000</r>
       <r>   5.1363  1.0000</r>
       <r>   5.1386  1.0000</r>
       <r>   5.1395  1.0000</r>
       <r>   5.9289  1.0000</r>
       <r>   5.9289  1.0000</r>
       <r>   7.1861  1.0000</r>
       <r>   7.1894  1.0000</r>
       <r>   7.1894  1.0000</r>
       <r>   7.1927  1.0000</r>
       <r>   7.3855  1.0000</r>
       <r>   7.3855  1.0000</r>
       <r>   7.4489  1.0000</r>
       <r>   7.4489  1.0000</r>
       <r>   8.1128  1.0000</r>
       <r>   8.1156  1.0000</r>
       <r>   8.1156  1.0000</r>
       <r>   8.1184  1.0000</r>
       <r>   8.3833  1.0000</r>
       <r>   8.7736  1.0000</r>
       <r>   8.7736  1.0000</r>
       <r>   8.8465  1.0000</r>
       <r>   8.8465  1.0000</r>
       <r>   9.4702  0.0000</r>
       <r>   9.4715  0.0000</r>
       <r>   9.4739  0.0000</r>
       <r>   9.4753  0.0000</r>
       <r>   9.5412  0.0000</r>
       <r>   9.5441  0.0000</r>
       <r>   9.5441  0.0000</r>
       <r>   9.5470  0.0000</r>
       <r>   9.5774  0.0000</r>
       <r>   9.5803  0.0000</r>
       <r>   9.5804  0.0000</r>
       <r>   9.5832  0.0000</r>
       <r>  11.0292  0.0000</r>
       <r>  11.0294  0.0000</r>
       <r>  11.0449  0.0000</r>
       <r>  11.0479  0.0000</r>
       <r>  11.0480  0.0000</r>
       <r>  11.0508  0.0000</r>
       <r>  11.1870  0.0000</r>
       <r>  11.1879  0.0000</r>
       <r>  11.1892  0.0000</r>
      </set>
      <set comment="kpoint 16">
       <r>  -2.6985  1.0000</r>
       <r>  -1.1015  1.0000</r>
       <r>  -0.7053  1.0000</r>
       <r>  -0.3105  1.0000</r>
       <r>  -0.3105  1.0000</r>
       <r>   0.0830  1.0000</r>
       <r>   0.4751  1.0000</r>
       <r>   0.8670  1.0000</r>
       <r>   1.2569  1.0000</r>
       <r>   1.2569  1.0000</r>
       <r>   1.6442  1.0000</r>
       <r>   1.6456  1.0000</r>
       <r>   1.6470  1.0000</r>
       <r>   2.4175  1.0000</r>
       <r>   2.4190  1.0000</r>
       <r>   2.4203  1.0000</r>
       <r>   2.8036  1.0000</r>
       <r>   2.8036  1.0000</r>
       <r>   3.1809  1.0000</r>
       <r>   3.1810  1.0000</r>
       <r>   3.1870  1.0000</r>
       <r>   3.9068  1.0000</r>
       <r>   3.9068  1.0000</r>
       <r>   4.8032  1.0000</r>
       <r>   4.8032  1.0000</r>
       <r>   5.0004  1.0000</r>
       <r>   5.5221  1.0000</r>
       <r>   5.5221  1.0000</r>
       <r>   5.6285  1.0000</r>
       <r>   5.9440  1.0000</r>
       <r>   6.8451  1.0000</r>
       <r>   7.0927  1.0000</r>
       <r>   7.1892  1.0000</r>
       <r>   7.1892  1.0000</r>
       <r>   7.4007  1.0000</r>
       <r>   7.4643  1.0000</r>
       <r>   7.5538  1.0000</r>
       <r>   7.7656  1.0000</r>
       <r>   7.7775  1.0000</r>
       <r>   7.8610  1.0000</r>
       <r>   7.8610  1.0000</r>
       <r>   8.3984  1.0000</r>
       <r>   8.4347  1.0000</r>
       <r>   8.4962  1.0000</r>
       <r>   8.8618  1.0000</r>
       <r>   9.0117  0.9994</r>
       <r>   9.0679  0.0000</r>
       <r>   9.1182  0.0000</r>
       <r>   9.1182  0.0000</r>
       <r>   9.2291  0.0000</r>
       <r>   9.3253  0.0000</r>
       <r>   9.3254  0.0000</r>
       <r>   9.3386  0.0000</r>
       <r>   9.6579  0.0000</r>
       <r>   9.7921  0.0000</r>
       <r>   9.7921  0.0000</r>
       <r>   9.8576  0.0000</r>
       <r>   9.8576  0.0000</r>
       <r>   9.9621  0.0000</r>
       <r>  10.6959  0.0000</r>
       <r>  10.7972  0.0000</r>
       <r>  10.7972  0.0000</r>
       <r>  11.0267  0.0000</r>
       <r>  11.0720  0.0000</r>
       <r>  11.0968  0.0000</r>
       <r>  11.2472  0.0000</r>
       <r>  11.2541  0.0000</r>
       <r>  11.2543  0.0000</r>
      </set>
      <set comment="kpoint 17">
       <r>  -2.6483  1.0000</r>
       <r>  -1.0531  1.0000</r>
       <r>  -1.0506  1.0000</r>
       <r>  -0.2612  1.0000</r>
       <r>  -0.2612  1.0000</r>
       <r>   0.5224  1.0000</r>
       <r>   0.5244  1.0000</r>
       <r>   0.5262  1.0000</r>
       <r>   1.3038  1.0000</r>
       <r>   1.3048  1.0000</r>
       <r>   1.3064  1.0000</r>
       <r>   1.3073  1.0000</r>
       <r>   2.0805  1.0000</r>
       <r>   2.0814  1.0000</r>
       <r>   2.8479  1.0000</r>
       <r>   2.8486  1.0000</r>
       <r>   2.8505  1.0000</r>
       <r>   2.8509  1.0000</r>
       <r>   2.8524  1.0000</r>
       <r>   2.8536  1.0000</r>
       <r>   3.6163  1.0000</r>
       <r>   4.1675  1.0000</r>
       <r>   4.1675  1.0000</r>
       <r>   4.6381  1.0000</r>
       <r>   4.6381  1.0000</r>
       <r>   5.0466  1.0000</r>
       <r>   5.0474  1.0000</r>
       <r>   5.9426  1.0000</r>
       <r>   5.9426  1.0000</r>
       <r>   5.9895  1.0000</r>
       <r>   6.5255  1.0000</r>
       <r>   6.5280  1.0000</r>
       <r>   7.0903  1.0000</r>
       <r>   7.0903  1.0000</r>
       <r>   7.4448  1.0000</r>
       <r>   7.4477  1.0000</r>
       <r>   7.4639  1.0000</r>
       <r>   7.4641  1.0000</r>
       <r>   7.5105  1.0000</r>
       <r>   7.9199  1.0000</r>
       <r>   7.9221  1.0000</r>
       <r>   8.4432  1.0000</r>
       <r>   8.4441  1.0000</r>
       <r>   8.7924  1.0000</r>
       <r>   8.7934  1.0000</r>
       <r>   8.7950  1.0000</r>
       <r>   8.7960  1.0000</r>
       <r>   8.9055  1.0000</r>
       <r>   8.9080  1.0000</r>
       <r>   8.9105  1.0000</r>
       <r>   9.1243  0.0000</r>
       <r>   9.1260  0.0000</r>
       <r>   9.6195  0.0000</r>
       <r>   9.6224  0.0000</r>
       <r>  10.2308  0.0000</r>
       <r>  10.2310  0.0000</r>
       <r>  10.2714  0.0000</r>
       <r>  10.2723  0.0000</r>
       <r>  10.2728  0.0000</r>
       <r>  10.2739  0.0000</r>
       <r>  10.3738  0.0000</r>
       <r>  10.3757  0.0000</r>
       <r>  10.6995  0.0000</r>
       <r>  11.2170  0.0000</r>
       <r>  11.2176  0.0000</r>
       <r>  11.4889  0.0000</r>
       <r>  11.4889  0.0000</r>
       <r>  11.7846  0.0000</r>
      </set>
      <set comment="kpoint 18">
       <r>  -2.5647  1.0000</r>
       <r>  -1.3662  1.0000</r>
       <r>  -0.9693  1.0000</r>
       <r>  -0.1792  1.0000</r>
       <r>  -0.1791  1.0000</r>
       <r>   0.2143  1.0000</r>
       <r>   0.6057  1.0000</r>
       <r>   0.9946  1.0000</r>
       <r>   0.9971  1.0000</r>
       <r>   0.9984  1.0000</r>
       <r>   1.3867  1.0000</r>
       <r>   1.3867  1.0000</r>
       <r>   1.7744  1.0000</r>
       <r>   2.5446  1.0000</r>
       <r>   2.5463  1.0000</r>
       <r>   2.5484  1.0000</r>
       <r>   2.9312  1.0000</r>
       <r>   2.9312  1.0000</r>
       <r>   3.3137  1.0000</r>
       <r>   3.3137  1.0000</r>
       <r>   4.0317  1.0000</r>
       <r>   4.0318  1.0000</r>
       <r>   4.0752  1.0000</r>
       <r>   4.4152  1.0000</r>
       <r>   4.9305  1.0000</r>
       <r>   4.9305  1.0000</r>
       <r>   5.1247  1.0000</r>
       <r>   5.9099  1.0000</r>
       <r>   6.0652  1.0000</r>
       <r>   6.2364  1.0000</r>
       <r>   6.3952  1.0000</r>
       <r>   6.3952  1.0000</r>
       <r>   6.6102  1.0000</r>
       <r>   6.6102  1.0000</r>
       <r>   7.1576  1.0000</r>
       <r>   7.3469  1.0000</r>
       <r>   7.4190  1.0000</r>
       <r>   7.4190  1.0000</r>
       <r>   7.5224  1.0000</r>
       <r>   7.5868  1.0000</r>
       <r>   8.1956  1.0000</r>
       <r>   8.1956  1.0000</r>
       <r>   8.2192  1.0000</r>
       <r>   8.5009  1.0000</r>
       <r>   8.5009  1.0000</r>
       <r>   8.5186  1.0000</r>
       <r>   8.6190  1.0000</r>
       <r>   8.9839  1.0000</r>
       <r>   9.0101  0.9997</r>
       <r>   9.2165  0.0000</r>
       <r>   9.2306  0.0000</r>
       <r>   9.3496  0.0000</r>
       <r>   9.4729  0.0000</r>
       <r>   9.6795  0.0000</r>
       <r>   9.6795  0.0000</r>
       <r>  10.0842  0.0000</r>
       <r>  10.1525  0.0000</r>
       <r>  10.4010  0.0000</r>
       <r>  10.5850  0.0000</r>
       <r>  10.5850  0.0000</r>
       <r>  10.7173  0.0000</r>
       <r>  10.7173  0.0000</r>
       <r>  10.8181  0.0000</r>
       <r>  11.5066  0.0000</r>
       <r>  11.5229  0.0000</r>
       <r>  11.7983  0.0000</r>
       <r>  11.8688  0.0000</r>
       <r>  11.9650  0.0000</r>
      </set>
      <set comment="kpoint 19">
       <r>  -2.4477  1.0000</r>
       <r>  -1.6482  1.0000</r>
       <r>  -0.8537  1.0000</r>
       <r>  -0.0657  1.0000</r>
       <r>  -0.0643  1.0000</r>
       <r>  -0.0628  1.0000</r>
       <r>   0.7186  1.0000</r>
       <r>   0.7203  1.0000</r>
       <r>   0.7215  1.0000</r>
       <r>   1.4966  1.0000</r>
       <r>   1.4995  1.0000</r>
       <r>   1.5000  1.0000</r>
       <r>   1.5013  1.0000</r>
       <r>   2.2740  1.0000</r>
       <r>   2.2740  1.0000</r>
       <r>   3.0414  1.0000</r>
       <r>   3.0425  1.0000</r>
       <r>   3.0429  1.0000</r>
       <r>   3.7859  1.0000</r>
[...]
       <r>   3.1220  1.0000</r>
       <r>   3.4944  1.0000</r>
       <r>   3.4961  1.0000</r>
       <r>   3.4980  1.0000</r>
       <r>   3.4983  1.0000</r>
       <r>   3.4984  1.0000</r>
       <r>   3.4988  1.0000</r>
       <r>   3.5006  1.0000</r>
       <r>   3.5024  1.0000</r>
       <r>   3.8735  1.0000</r>
       <r>   3.8753  1.0000</r>
       <r>   3.8771  1.0000</r>
       <r>   3.8775  1.0000</r>
       <r>   3.8776  1.0000</r>
       <r>   3.8780  1.0000</r>
       <r>   3.8798  1.0000</r>
       <r>   3.8816  1.0000</r>
       <r>   4.2486  1.0000</r>
       <r>   4.2513  1.0000</r>
       <r>   4.2518  1.0000</r>
       <r>   4.2544  1.0000</r>
       <r>   7.6779  1.0000</r>
       <r>   7.6796  1.0000</r>
       <r>   7.6818  1.0000</r>
       <r>   7.6821  1.0000</r>
       <r>   7.6822  1.0000</r>
       <r>   7.6824  1.0000</r>
       <r>   7.6846  1.0000</r>
       <r>   7.6863  1.0000</r>
       <r>   8.0395  1.0000</r>
       <r>   8.0408  1.0000</r>
       <r>   8.0409  1.0000</r>
       <r>   8.0423  1.0000</r>
       <r>   8.4190  1.0000</r>
       <r>   8.4203  1.0000</r>
       <r>   8.4204  1.0000</r>
       <r>   8.4217  1.0000</r>
       <r>   8.7696  1.0000</r>
       <r>   8.7717  1.0000</r>
       <r>   8.7738  1.0000</r>
       <r>   8.7741  1.0000</r>
       <r>   8.7741  1.0000</r>
       <r>   8.7744  1.0000</r>
       <r>   8.7766  1.0000</r>
       <r>   8.7786  1.0000</r>
       <r>  12.0346  0.0000</r>
       <r>  12.0370  0.0000</r>
       <r>  12.0378  0.0000</r>
       <r>  12.0401  0.0000</r>
       <r>  12.1229  0.0000</r>
       <r>  12.1243  0.0000</r>
       <r>  12.1246  0.0000</r>
       <r>  12.1260  0.0000</r>
       <r>  12.7498  0.0000</r>
       <r>  12.7509  0.0000</r>
       <r>  12.7514  0.0000</r>
       <r>  12.7529  0.0000</r>
      </set>
      <set comment="kpoint 190">
       <r>  -1.5818  1.0000</r>
       <r>  -1.5818  1.0000</r>
       <r>  -1.5818  1.0000</r>
       <r>  -1.5818  1.0000</r>
       <r>   0.7803  1.0000</r>
       <r>   0.7849  1.0000</r>
       <r>   0.7849  1.0000</r>
       <r>   0.7856  1.0000</r>
       <r>   0.7856  1.0000</r>
       <r>   0.7862  1.0000</r>
       <r>   0.7862  1.0000</r>
       <r>   0.7908  1.0000</r>
       <r>   3.1009  1.0000</r>
       <r>   3.1009  1.0000</r>
       <r>   3.1009  1.0000</r>
       <r>   3.1009  1.0000</r>
       <r>   3.1009  1.0000</r>
       <r>   3.1009  1.0000</r>
       <r>   3.1009  1.0000</r>
       <r>   3.1009  1.0000</r>
       <r>   5.1494  1.0000</r>
       <r>   5.1494  1.0000</r>
       <r>   5.1509  1.0000</r>
       <r>   5.1510  1.0000</r>
       <r>   5.1510  1.0000</r>
       <r>   5.1510  1.0000</r>
       <r>   5.1526  1.0000</r>
       <r>   5.1526  1.0000</r>
       <r>   5.6521  1.0000</r>
       <r>   5.6521  1.0000</r>
       <r>   5.6540  1.0000</r>
       <r>   5.6540  1.0000</r>
       <r>   5.6540  1.0000</r>
       <r>   5.6540  1.0000</r>
       <r>   5.6559  1.0000</r>
       <r>   5.6559  1.0000</r>
       <r>   6.9603  1.0000</r>
       <r>   6.9603  1.0000</r>
       <r>   6.9603  1.0000</r>
       <r>   6.9603  1.0000</r>
       <r>   7.4761  1.0000</r>
       <r>   7.4761  1.0000</r>
       <r>   7.4761  1.0000</r>
       <r>   7.4761  1.0000</r>
       <r>   8.7991  1.0000</r>
       <r>   8.7991  1.0000</r>
       <r>   8.7991  1.0000</r>
       <r>   8.7991  1.0000</r>
       <r>   9.8978  0.0000</r>
       <r>   9.8978  0.0000</r>
       <r>   9.8980  0.0000</r>
       <r>   9.8995  0.0000</r>
       <r>   9.9007  0.0000</r>
       <r>   9.9021  0.0000</r>
       <r>   9.9024  0.0000</r>
       <r>   9.9024  0.0000</r>
       <r>  11.3507  0.0000</r>
       <r>  11.3507  0.0000</r>
       <r>  11.3507  0.0000</r>
       <r>  11.3507  0.0000</r>
       <r>  11.3507  0.0000</r>
       <r>  11.3507  0.0000</r>
       <r>  11.3507  0.0000</r>
       <r>  11.3508  0.0000</r>
       <r>  12.0714  0.0000</r>
       <r>  12.0714  0.0000</r>
       <r>  12.0714  0.0000</r>
       <r>  12.0714  0.0000</r>
      </set>
      <set comment="kpoint 191">
       <r>  -1.5652  1.0000</r>
       <r>  -1.5652  1.0000</r>
       <r>  -1.5652  1.0000</r>
       <r>  -1.5652  1.0000</r>
       <r>   0.4104  1.0000</r>
       <r>   0.4105  1.0000</r>
       <r>   0.4105  1.0000</r>
       <r>   0.4105  1.0000</r>
       <r>   1.1918  1.0000</r>
       <r>   1.1918  1.0000</r>
       <r>   1.1918  1.0000</r>
       <r>   1.1919  1.0000</r>
       <r>   3.1168  1.0000</r>
       <r>   3.1168  1.0000</r>
       <r>   3.1168  1.0000</r>
       <r>   3.1168  1.0000</r>
       <r>   3.1168  1.0000</r>
       <r>   3.1168  1.0000</r>
       <r>   3.1168  1.0000</r>
       <r>   3.1168  1.0000</r>
       <r>   4.9622  1.0000</r>
       <r>   4.9622  1.0000</r>
       <r>   4.9630  1.0000</r>
       <r>   4.9631  1.0000</r>
       <r>   4.9631  1.0000</r>
       <r>   4.9631  1.0000</r>
       <r>   4.9639  1.0000</r>
       <r>   4.9639  1.0000</r>
       <r>   5.8711  1.0000</r>
       <r>   5.8711  1.0000</r>
       <r>   5.8723  1.0000</r>
       <r>   5.8723  1.0000</r>
       <r>   5.8723  1.0000</r>
       <r>   5.8723  1.0000</r>
       <r>   5.8734  1.0000</r>
       <r>   5.8734  1.0000</r>
       <r>   6.6513  1.0000</r>
       <r>   6.6513  1.0000</r>
       <r>   6.6513  1.0000</r>
       <r>   6.6513  1.0000</r>
       <r>   7.5717  1.0000</r>
       <r>   7.5717  1.0000</r>
       <r>   7.5717  1.0000</r>
       <r>   7.5717  1.0000</r>
       <r>   9.0563  0.0010</r>
       <r>   9.0563  0.0010</r>
       <r>   9.0563  0.0010</r>
       <r>   9.0563  0.0010</r>
       <r>   9.5435  0.0000</r>
       <r>   9.5435  0.0000</r>
       <r>   9.5435  0.0000</r>
       <r>   9.5435  0.0000</r>
       <r>  10.2866  0.0000</r>
       <r>  10.2866  0.0000</r>
       <r>  10.2866  0.0000</r>
       <r>  10.2866  0.0000</r>
       <r>  11.0679  0.0000</r>
       <r>  11.0679  0.0000</r>
       <r>  11.0687  0.0000</r>
       <r>  11.0687  0.0000</r>
       <r>  11.0687  0.0000</r>
       <r>  11.0688  0.0000</r>
       <r>  11.0695  0.0000</r>
       <r>  11.0695  0.0000</r>
       <r>  12.1954  0.0000</r>
       <r>  12.1961  0.0000</r>
       <r>  12.1967  0.0000</r>
       <r>  12.1971  0.0000</r>
      </set>
      <set comment="kpoint 192">
       <r>  -1.5155  1.0000</r>
       <r>  -1.5154  1.0000</r>
       <r>  -1.5154  1.0000</r>
       <r>  -1.5154  1.0000</r>
       <r>   0.0670  1.0000</r>
       <r>   0.0670  1.0000</r>
       <r>   0.0670  1.0000</r>
       <r>   0.0670  1.0000</r>
       <r>   1.6289  1.0000</r>
       <r>   1.6289  1.0000</r>
       <r>   1.6289  1.0000</r>
       <r>   1.6289  1.0000</r>
       <r>   3.1646  1.0000</r>
       <r>   3.1646  1.0000</r>
       <r>   3.1646  1.0000</r>
       <r>   3.1646  1.0000</r>
       <r>   3.1646  1.0000</r>
       <r>   3.1646  1.0000</r>
       <r>   3.1646  1.0000</r>
       <r>   3.1646  1.0000</r>
       <r>   4.6650  1.0000</r>
       <r>   4.6650  1.0000</r>
       <r>   4.6654  1.0000</r>
       <r>   4.6654  1.0000</r>
       <r>   4.6654  1.0000</r>
       <r>   4.6655  1.0000</r>
       <r>   4.6659  1.0000</r>
       <r>   4.6659  1.0000</r>
       <r>   6.0849  1.0000</r>
       <r>   6.0849  1.0000</r>
       <r>   6.0849  1.0000</r>
       <r>   6.0850  1.0000</r>
       <r>   6.2602  1.0000</r>
       <r>   6.2602  1.0000</r>
       <r>   6.2609  1.0000</r>
       <r>   6.2609  1.0000</r>
       <r>   6.2609  1.0000</r>
       <r>   6.2609  1.0000</r>
       <r>   6.2617  1.0000</r>
       <r>   6.2617  1.0000</r>
       <r>   7.6756  1.0000</r>
       <r>   7.6756  1.0000</r>
       <r>   7.6756  1.0000</r>
       <r>   7.6756  1.0000</r>
       <r>   9.2171  0.0000</r>
       <r>   9.2171  0.0000</r>
       <r>   9.2171  0.0000</r>
       <r>   9.2171  0.0000</r>
       <r>   9.6503  0.0000</r>
       <r>   9.6503  0.0000</r>
       <r>   9.6503  0.0000</r>
       <r>   9.6503  0.0000</r>
       <r>  10.5331  0.0000</r>
       <r>  10.5331  0.0000</r>
       <r>  10.5339  0.0000</r>
       <r>  10.5339  0.0000</r>
       <r>  10.5339  0.0000</r>
       <r>  10.5339  0.0000</r>
       <r>  10.5346  0.0000</r>
       <r>  10.5346  0.0000</r>
       <r>  10.7028  0.0000</r>
       <r>  10.7028  0.0000</r>
       <r>  10.7028  0.0000</r>
       <r>  10.7028  0.0000</r>
       <r>  12.3481  0.0000</r>
       <r>  12.3490  0.0000</r>
       <r>  12.3492  0.0000</r>
       <r>  12.3499  0.0000</r>
      </set>
      <set comment="kpoint 193">
       <r>  -1.4326  1.0000</r>
       <r>  -1.4325  1.0000</r>
       <r>  -1.4325  1.0000</r>
       <r>  -1.4325  1.0000</r>
       <r>  -0.2446  1.0000</r>
       <r>  -0.2446  1.0000</r>
       <r>  -0.2446  1.0000</r>
       <r>  -0.2446  1.0000</r>
       <r>   2.0963  1.0000</r>
       <r>   2.0963  1.0000</r>
       <r>   2.0963  1.0000</r>
       <r>   2.0963  1.0000</r>
       <r>   3.2442  1.0000</r>
       <r>   3.2442  1.0000</r>
       <r>   3.2442  1.0000</r>
       <r>   3.2442  1.0000</r>
       <r>   3.2442  1.0000</r>
       <r>   3.2442  1.0000</r>
       <r>   3.2443  1.0000</r>
       <r>   3.2443  1.0000</r>
       <r>   4.3765  1.0000</r>
       <r>   4.3765  1.0000</r>
       <r>   4.3767  1.0000</r>
       <r>   4.3767  1.0000</r>
       <r>   4.3767  1.0000</r>
       <r>   4.3767  1.0000</r>
       <r>   4.3770  1.0000</r>
       <r>   4.3770  1.0000</r>
       <r>   5.4691  1.0000</r>
       <r>   5.4691  1.0000</r>
       <r>   5.4691  1.0000</r>
       <r>   5.4692  1.0000</r>
       <r>   6.7005  1.0000</r>
       <r>   6.7005  1.0000</r>
       <r>   6.7011  1.0000</r>
       <r>   6.7011  1.0000</r>
       <r>   6.7011  1.0000</r>
       <r>   6.7011  1.0000</r>
       <r>   6.7016  1.0000</r>
       <r>   6.7016  1.0000</r>
       <r>   7.7759  1.0000</r>
       <r>   7.7759  1.0000</r>
       <r>   7.7759  1.0000</r>
       <r>   7.7759  1.0000</r>
       <r>   8.9210  1.0000</r>
       <r>   8.9210  1.0000</r>
       <r>   8.9211  1.0000</r>
       <r>   8.9211  1.0000</r>
       <r>   9.9450  0.0000</r>
       <r>   9.9450  0.0000</r>
       <r>   9.9456  0.0000</r>
       <r>   9.9457  0.0000</r>
       <r>   9.9457  0.0000</r>
       <r>   9.9457  0.0000</r>
       <r>   9.9463  0.0000</r>
       <r>   9.9463  0.0000</r>
       <r>  10.3849  0.0000</r>
       <r>  10.3849  0.0000</r>
       <r>  10.3849  0.0000</r>
       <r>  10.3850  0.0000</r>
       <r>  11.1483  0.0000</r>
       <r>  11.1483  0.0000</r>
       <r>  11.1483  0.0000</r>
       <r>  11.1483  0.0000</r>
       <r>  12.4739  0.0000</r>
       <r>  12.4744  0.0000</r>
       <r>  12.4751  0.0000</r>
       <r>  12.4755  0.0000</r>
      </set>
      <set comment="kpoint 194">
       <r>  -1.3166  1.0000</r>
       <r>  -1.3166  1.0000</r>
       <r>  -1.3166  1.0000</r>
       <r>  -1.3166  1.0000</r>
       <r>  -0.5241  1.0000</r>
       <r>  -0.5241  1.0000</r>
       <r>  -0.5241  1.0000</r>
       <r>  -0.5241  1.0000</r>
       <r>   2.5933  1.0000</r>
       <r>   2.5934  1.0000</r>
       <r>   2.5934  1.0000</r>
       <r>   2.5934  1.0000</r>
       <r>   3.3555  1.0000</r>
       <r>   3.3555  1.0000</r>
       <r>   3.3555  1.0000</r>
       <r>   3.3555  1.0000</r>
       <r>   3.3555  1.0000</r>
       <r>   3.3555  1.0000</r>
       <r>   3.3556  1.0000</r>
       <r>   3.3556  1.0000</r>
       <r>   4.1126  1.0000</r>
       <r>   4.1126  1.0000</r>
       <r>   4.1128  1.0000</r>
       <r>   4.1128  1.0000</r>
       <r>   4.1128  1.0000</r>
       <r>   4.1128  1.0000</r>
       <r>   4.1130  1.0000</r>
       <r>   4.1130  1.0000</r>
       <r>   4.8526  1.0000</r>
       <r>   4.8526  1.0000</r>
       <r>   4.8526  1.0000</r>
       <r>   4.8527  1.0000</r>
       <r>   7.1758  1.0000</r>
       <r>   7.1758  1.0000</r>
       <r>   7.1763  1.0000</r>
       <r>   7.1763  1.0000</r>
       <r>   7.1763  1.0000</r>
       <r>   7.1763  1.0000</r>
       <r>   7.1769  1.0000</r>
       <r>   7.1769  1.0000</r>
       <r>   7.8952  1.0000</r>
       <r>   7.8952  1.0000</r>
       <r>   7.8952  1.0000</r>
       <r>   7.8952  1.0000</r>
       <r>   8.6555  1.0000</r>
       <r>   8.6555  1.0000</r>
       <r>   8.6555  1.0000</r>
       <r>   8.6555  1.0000</r>
       <r>   9.3528  0.0000</r>
       <r>   9.3528  0.0000</r>
       <r>   9.3533  0.0000</r>
       <r>   9.3533  0.0000</r>
       <r>   9.3533  0.0000</r>
       <r>   9.3533  0.0000</r>
       <r>   9.3539  0.0000</r>
       <r>   9.3539  0.0000</r>
       <r>  11.1886  0.0000</r>
       <r>  11.1887  0.0000</r>
       <r>  11.1887  0.0000</r>
       <r>  11.1887  0.0000</r>
       <r>  11.6224  0.0000</r>
       <r>  11.6224  0.0000</r>
       <r>  11.6224  0.0000</r>
       <r>  11.6224  0.0000</r>
       <r>  12.6031  0.0000</r>
       <r>  12.6035  0.0000</r>
       <r>  12.6039  0.0000</r>
       <r>  12.6044  0.0000</r>
      </set>
      <set comment="kpoint 195">
       <r>  -1.1677  1.0000</r>
       <r>  -1.1676  1.0000</r>
       <r>  -1.1676  1.0000</r>
       <r>  -1.1676  1.0000</r>
       <r>  -0.7712  1.0000</r>
       <r>  -0.7712  1.0000</r>
       <r>  -0.7712  1.0000</r>
       <r>  -0.7712  1.0000</r>
       <r>   3.1191  1.0000</r>
       <r>   3.1192  1.0000</r>
       <r>   3.1192  1.0000</r>
       <r>   3.1192  1.0000</r>
       <r>   3.4983  1.0000</r>
       <r>   3.4983  1.0000</r>
       <r>   3.4984  1.0000</r>
       <r>   3.4984  1.0000</r>
       <r>   3.4984  1.0000</r>
       <r>   3.4984  1.0000</r>
       <r>   3.4984  1.0000</r>
       <r>   3.4984  1.0000</r>
       <r>   3.8775  1.0000</r>
       <r>   3.8775  1.0000</r>
       <r>   3.8776  1.0000</r>
       <r>   3.8776  1.0000</r>
       <r>   3.8776  1.0000</r>
       <r>   3.8776  1.0000</r>
       <r>   3.8777  1.0000</r>
       <r>   3.8777  1.0000</r>
       <r>   4.2515  1.0000</r>
       <r>   4.2515  1.0000</r>
       <r>   4.2515  1.0000</r>
       <r>   4.2516  1.0000</r>
       <r>   7.6816  1.0000</r>
       <r>   7.6816  1.0000</r>
       <r>   7.6821  1.0000</r>
       <r>   7.6821  1.0000</r>
       <r>   7.6821  1.0000</r>
       <r>   7.6821  1.0000</r>
       <r>   7.6826  1.0000</r>
       <r>   7.6826  1.0000</r>
       <r>   8.0409  1.0000</r>
       <r>   8.0409  1.0000</r>
       <r>   8.0409  1.0000</r>
       <r>   8.0409  1.0000</r>
       <r>   8.4204  1.0000</r>
       <r>   8.4204  1.0000</r>
       <r>   8.4204  1.0000</r>
       <r>   8.4204  1.0000</r>
       <r>   8.7736  1.0000</r>
       <r>   8.7736  1.0000</r>
       <r>   8.7741  1.0000</r>
       <r>   8.7741  1.0000</r>
       <r>   8.7741  1.0000</r>
       <r>   8.7741  1.0000</r>
       <r>   8.7746  1.0000</r>
       <r>   8.7746  1.0000</r>
       <r>  12.0373  0.0000</r>
       <r>  12.0374  0.0000</r>
       <r>  12.0374  0.0000</r>
       <r>  12.0374  0.0000</r>
       <r>  12.1244  0.0000</r>
       <r>  12.1244  0.0000</r>
       <r>  12.1244  0.0000</r>
       <r>  12.1245  0.0000</r>
       <r>  12.7504  0.0000</r>
       <r>  12.7508  0.0000</r>
       <r>  12.7510  0.0000</r>
       <r>  12.7512  0.0000</r>
      </set>
      <set comment="kpoint 196">
       <r>  -0.9908  1.0000</r>
       <r>  -0.9863  1.0000</r>
       <r>  -0.9863  1.0000</r>
       <r>  -0.9858  1.0000</r>
       <r>  -0.9857  1.0000</r>
       <r>  -0.9853  1.0000</r>
       <r>  -0.9853  1.0000</r>
       <r>  -0.9807  1.0000</r>
       <r>   3.6621  1.0000</r>
       <r>   3.6681  1.0000</r>
       <r>   3.6681  1.0000</r>
       <r>   3.6716  1.0000</r>
       <r>   3.6719  1.0000</r>
       <r>   3.6720  1.0000</r>
       <r>   3.6724  1.0000</r>
       <r>   3.6724  1.0000</r>
       <r>   3.6725  1.0000</r>
       <r>   3.6725  1.0000</r>
       <r>   3.6725  1.0000</r>
       <r>   3.6725  1.0000</r>
       <r>   3.6725  1.0000</r>
       <r>   3.6725  1.0000</r>
       <r>   3.6726  1.0000</r>
       <r>   3.6726  1.0000</r>
       <r>   3.6726  1.0000</r>
       <r>   3.6726  1.0000</r>
       <r>   3.6731  1.0000</r>
       <r>   3.6732  1.0000</r>
       <r>   3.6735  1.0000</r>
       <r>   3.6769  1.0000</r>
       <r>   3.6769  1.0000</r>
       <r>   3.6830  1.0000</r>
       <r>   8.2092  1.0000</r>
       <r>   8.2092  1.0000</r>
       <r>   8.2116  1.0000</r>
       <r>   8.2131  1.0000</r>
       <r>   8.2148  1.0000</r>
       <r>   8.2152  1.0000</r>
       <r>   8.2153  1.0000</r>
       <r>   8.2153  1.0000</r>
       <r>   8.2156  1.0000</r>
       <r>   8.2156  1.0000</r>
       <r>   8.2156  1.0000</r>
       <r>   8.2156  1.0000</r>
       <r>   8.2156  1.0000</r>
       <r>   8.2157  1.0000</r>
       <r>   8.2157  1.0000</r>
       <r>   8.2157  1.0000</r>
       <r>   8.2159  1.0000</r>
       <r>   8.2159  1.0000</r>
       <r>   8.2160  1.0000</r>
       <r>   8.2165  1.0000</r>
       <r>   8.2182  1.0000</r>
       <r>   8.2197  1.0000</r>
       <r>   8.2221  1.0000</r>
       <r>   8.2221  1.0000</r>
       <r>  12.6514  0.0000</r>
       <r>  12.6519  0.0000</r>
       <r>  12.6519  0.0000</r>
       <r>  12.6522  0.0000</r>
       <r>  12.6541  0.0000</r>
       <r>  12.6544  0.0000</r>
       <r>  12.6544  0.0000</r>
       <r>  12.6550  0.0000</r>
       <r>  12.9186  0.0000</r>
       <r>  12.9200  0.0000</r>
       <r>  12.9211  0.0000</r>
       <r>  12.9214  0.0000</r>
      </set>
     </set>
    </set>
   </array>
  </eigenvalues>
 </calculation>
 <structure name="finalpos" >
  <crystal>
   <varray name="basis" >
    <v>       7.83237436      0.00000000      0.00000000</v>
    <v>       0.00000000      7.83237436      0.00000000</v>
    <v>       0.00000000      0.00000000      7.83237436</v>
   </varray>
   <i name="volume">    480.48552712</i>
   <varray name="rec_basis" >
    <v>       0.12767520      0.00000000      0.00000000</v>
    <v>       0.00000000      0.12767520      0.00000000</v>
    <v>       0.00000000      0.00000000      0.12767520</v>
   </varray>
  </crystal>
  <varray name="positions" >
   <v>       0.25127675      0.25000000      0.00000000</v>
   <v>       0.75000000      0.25000000      0.00000000</v>
   <v>       0.25000000      0.75000000      0.00000000</v>
   <v>       0.75000000      0.75000000      0.00000000</v>
   <v>       0.25000000      0.25000000      0.50000000</v>
   <v>       0.75000000      0.25000000      0.50000000</v>
   <v>       0.25000000      0.75000000      0.50000000</v>
   <v>       0.75000000      0.75000000      0.50000000</v>
   <v>       0.25000000      0.00000000      0.25000000</v>
   <v>       0.75000000      0.00000000      0.25000000</v>
   <v>       0.25000000      0.50000000      0.25000000</v>
   <v>       0.75000000      0.50000000      0.25000000</v>
   <v>       0.25000000      0.00000000      0.75000000</v>
   <v>       0.75000000      0.00000000      0.75000000</v>
   <v>       0.25000000      0.50000000      0.75000000</v>
   <v>       0.75000000      0.50000000      0.75000000</v>
   <v>       0.00000000      0.25000000      0.25000000</v>
   <v>       0.50000000      0.25000000      0.25000000</v>
   <v>       0.00000000      0.75000000      0.25000000</v>
   <v>       0.50000000      0.75000000      0.25000000</v>
   <v>       0.00000000      0.25000000      0.75000000</v>
   <v>       0.50000000      0.25000000      0.75000000</v>
   <v>       0.00000000      0.75000000      0.75000000</v>
   <v>       0.50000000      0.75000000      0.75000000</v>
   <v>       0.00000000      0.00000000      0.00000000</v>
   <v>       0.50000000      0.00000000      0.00000000</v>
   <v>       0.00000000      0.50000000      0.00000000</v>
   <v>       0.50000000      0.50000000      0.00000000</v>
   <v>       0.00000000      0.00000000      0.50000000</v>
   <v>       0.50000000      0.00000000      0.50000000</v>
   <v>       0.00000000      0.50000000      0.50000000</v>
   <v>       0.50000000      0.50000000      0.50000000</v>
  </varray>
 </structure>
</modeling>
