36   
2    

1    
  0.0068104564841928   0.0000191214508788   0.0073223846421116
  -0.0400833900   -0.0005904500   -0.0402033300
   0.0100320800   -0.0044795700    0.0018031100
   0.0098344300    0.0027594300    0.0018114000
   0.0039522400   -0.0080780400    0.0018045300
   0.0047024100    0.0056923600    0.0017264300
   0.0035774700   -0.0008645200    0.0011312800
   0.0039655700   -0.0004497100    0.0017999500
   0.0037238200   -0.0005631800    0.0011352300
   0.0045944400   -0.0016414600    0.0017259500
  -0.0005898600   -0.0011993900    0.0123522300
   0.0027649500    0.0000630500    0.0000428200
   0.0027534400   -0.0018430600    0.0000529600
   0.0015580600   -0.0008035400    0.0000446500
   0.0020839100   -0.0013235600   -0.0000650700
   0.0008795500   -0.0009513300   -0.0012389600
   0.0016071300   -0.0023304300    0.0000421300
   0.0010161600   -0.0006224700   -0.0012408900
   0.0019621800    0.0006399600   -0.0000601000
   0.0084756000   -0.0049307500    0.0090820800
  -0.0020725500    0.0006745800   -0.0002893500
  -0.0026626800   -0.0001731600   -0.0014919800
  -0.0011172000    0.0074688300    0.0038647900
  -0.0040181200    0.0003252900   -0.0016597200
  -0.0021623700    0.0009048500    0.0004447300
  -0.0015450400    0.0013871500   -0.0001671000
  -0.0011386300    0.0005447800   -0.0000191300
  -0.0027012600    0.0020350900   -0.0007690000
  -0.0029538200    0.0016917200   -0.0015753100
  -0.0019430100    0.0009504600   -0.0001656700
   0.0084073900    0.0061472800    0.0087869700
  -0.0010376600   -0.0054449800    0.0036990100
  -0.0019310100    0.0012897200    0.0002914700
  -0.0043384400    0.0021601400   -0.0015782100
  -0.0017112300    0.0011307700   -0.0003011700
  -0.0013872900    0.0006780200   -0.0002324100
  -0.0024973100   -0.0002538900   -0.0005843300

1    
 -0.0068104564841928  -0.0000191214508788  -0.0073223846421116
   0.0430615700   -0.0013881100    0.0402200400
  -0.0066503700    0.0027114700   -0.0018138400
  -0.0068048000   -0.0046290100   -0.0018071800
  -0.0011470300    0.0057501900   -0.0018131000
  -0.0013125200   -0.0076140800   -0.0017280700
  -0.0004237000   -0.0010392200   -0.0011179700
  -0.0010966700   -0.0011958100   -0.0018173200
  -0.0002748000   -0.0007396000   -0.0011111300
  -0.0014646600    0.0000095800   -0.0017288400
   0.0035880800   -0.0006639200   -0.0123428800
   0.0004563800   -0.0018286900   -0.0000587400
   0.0004360500   -0.0000062800   -0.0000472700
   0.0012439200   -0.0015544400   -0.0000564500
   0.0012846600   -0.0006464200    0.0000578200
   0.0022738600   -0.0009487000    0.0012503000
   0.0012802100    0.0006480000   -0.0000589100
   0.0024126800   -0.0006224100    0.0012447600
   0.0011730900   -0.0022924000    0.0000635300
  -0.0112730800    0.0063772700   -0.0086562400
  -0.0013440100    0.0005838700    0.0003198300
  -0.0002940600    0.0018373100    0.0013746600
  -0.0020579100   -0.0053461200   -0.0036950900
   0.0006214300    0.0016102700    0.0016430700
  -0.0006132600    0.0014467100   -0.0004334900
  -0.0016592000    0.0004515500    0.0001501800
  -0.0020859700    0.0012476500    0.0000041600
  -0.0002763500   -0.0001277200    0.0007792100
  -0.0001137400   -0.0000438800    0.0016589000
  -0.0015227300    0.0003175500    0.0001542100
  -0.0116162900   -0.0046906500   -0.0092029400
  -0.0020492400    0.0075519400   -0.0038578400
  -0.0014668400    0.0006520500   -0.0002963300
   0.0015513400    0.0001946600    0.0015734900
  -0.0015104100    0.0007342100    0.0003117100
  -0.0018297500    0.0010913800    0.0002560100
  -0.0004958700    0.0021617900    0.0005817800
