32   
1    

1    
  0.0100000000000000   0.0000000000000000   0.0000000000000000
  -0.0279484500    0.0000000000   -0.0000000000
   0.0015888400    0.0000000000   -0.0000000000
  -0.0002186900    0.0000000000   -0.0000000000
   0.0005306300    0.0000000000   -0.0000000000
  -0.0002186900    0.0000000000   -0.0000000000
   0.0005306300   -0.0000000000   -0.0000000000
   0.0001204500   -0.0000000000   -0.0000000000
  -0.0004650000   -0.0000000000    0.0000000000
  -0.0012875000    0.0000104600   -0.0000104600
  -0.0005868100    0.0000017600   -0.0000017600
  -0.0012875000   -0.0000104600   -0.0000104600
  -0.0005868100   -0.0000017600   -0.0000017600
  -0.0012875000    0.0000104600    0.0000104600
  -0.0005868100    0.0000017600    0.0000017600
  -0.0012875000   -0.0000104600    0.0000104600
  -0.0005868100   -0.0000017600    0.0000017600
   0.0041817600   -0.0000000000   -0.0040575400
   0.0042882100   -0.0000000000    0.0042009100
  -0.0000382500    0.0000000000    0.0001987500
  -0.0000373500    0.0000000000   -0.0001965700
   0.0041817600    0.0000000000    0.0040575400
   0.0042882100   -0.0000000000   -0.0042009100
  -0.0000382500    0.0000000000   -0.0001987500
  -0.0000373500   -0.0000000000    0.0001965700
   0.0041817600    0.0040575400    0.0000000000
   0.0042882100   -0.0042009100   -0.0000000000
   0.0041817600   -0.0040575400   -0.0000000000
   0.0042882100    0.0042009100    0.0000000000
  -0.0000382500   -0.0001987500   -0.0000000000
  -0.0000373500    0.0001965700   -0.0000000000
  -0.0000382500    0.0001987500   -0.0000000000
  -0.0000373500   -0.0001965700    0.0000000000
