mesh: [    48,    48,    48 ]
nqpoint: 2600   
reciprocal_lattice:
- [   0.23816336,   0.00000000,   0.00000000 ] # a*
- [   0.00000000,   0.23816336,   0.00000000 ] # b*
- [   0.00000000,   0.00000000,   0.23816336 ] # c*
natom:   4      
lattice:
- [     4.198798624459728,     0.000000000000000,     0.000000000000000 ] # a
- [     0.000000000000000,     4.198798624459728,     0.000000000000000 ] # b
- [     0.000000000000000,     0.000000000000000,     4.198798624459728 ] # c
points:
- symbol: Al # 1
  coordinates: [  0.500000000000000,  0.500000000000000,  0.000000000000000 ]
  mass: 26.981539
- symbol: Al # 2
  coordinates: [  0.500000000000000,  0.000000000000000,  0.500000000000000 ]
  mass: 26.981539
- symbol: Al # 3
  coordinates: [  0.000000000000000,  0.500000000000000,  0.500000000000000 ]
  mass: 26.981539
- symbol: Al # 4
  coordinates: [  0.000000000000000,  0.000000000000000,  0.000000000000000 ]
  mass: 26.981539
phonon:
- q-position: [    0.0104167,    0.0104167,    0.0104167 ]
  weight: 8    
  band:
  - # 1
    frequency:     0.0951514723
  - # 2
    frequency:     0.0951514723
  - # 3
    frequency:     0.2341109710
  - # 4
    frequency:     4.1028392370
  - # 5
    frequency:     4.1028392370
  - # 6
    frequency:     4.1028392370
  - # 7
    frequency:     4.1065535400
  - # 8
    frequency:     4.1065535400
  - # 9
    frequency:     4.1065535400
  - # 10
    frequency:     7.7967730289
  - # 11
    frequency:     7.7967730289
  - # 12
    frequency:     7.7967730289

- q-position: [    0.0312500,    0.0104167,    0.0104167 ]
  weight: 24   
  band:
  - # 1
    frequency:     0.1912364501
  - # 2
    frequency:     0.2055035419
  - # 3
    frequency:     0.4337334014
  - # 4
    frequency:     4.0981000166
  - # 5
    frequency:     4.1018114829
  - # 6
    frequency:     4.1090176655
  - # 7
    frequency:     4.1090176655
  - # 8
    frequency:     4.1205553480
  - # 9
    frequency:     4.1205553480
  - # 10
    frequency:     7.7882718210
  - # 11
    frequency:     7.7908582036
  - # 12
    frequency:     7.7908582036

- q-position: [    0.0520833,    0.0104167,    0.0104167 ]
  weight: 24   
  band:
  - # 1
    frequency:     0.3182816927
  - # 2
    frequency:     0.3293659411
  - # 3
    frequency:     0.6666637469
  - # 4
    frequency:     4.0886299104
  - # 5
    frequency:     4.0923356660
  - # 6
    frequency:     4.1244591259
  - # 7
    frequency:     4.1244591259
  - # 8
    frequency:     4.1451257923
  - # 9
    frequency:     4.1451257923
  - # 10
    frequency:     7.7712800500
  - # 11
    frequency:     7.7790389450
  - # 12
    frequency:     7.7790389450

- q-position: [    0.0729167,    0.0104167,    0.0104167 ]
  weight: 24   
  band:
  - # 1
    frequency:     0.4473306825
  - # 2
    frequency:     0.4556238641
  - # 3
    frequency:     0.9086583799
  - # 4
    frequency:     4.0744455493
  - # 5
    frequency:     4.0781426462
  - # 6
    frequency:     4.1484725048
  - # 7
    frequency:     4.1484725048
  - # 8
    frequency:     4.1802738145
  - # 9
    frequency:     4.1802738145
  - # 10
    frequency:     7.7458189801
  - # 11
    frequency:     7.7613360796
  - # 12
    frequency:     7.7613360796

- q-position: [    0.0937500,    0.0104167,    0.0104167 ]
  weight: 24   
  band:
  - # 1
    frequency:     0.5761089213
  - # 2
    frequency:     0.5824498344
  - # 3
    frequency:     1.1536901818
  - # 4
    frequency:     4.0555717852
  - # 5
    frequency:     4.0592571647
  - # 6
    frequency:     4.1802811535
  - # 7
    frequency:     4.1802811535
  - # 8
    frequency:     4.2257887225
  - # 9
    frequency:     4.2257887225
  - # 10
    frequency:     7.7119204434
  - # 11
    frequency:     7.7377809533
  - # 12
    frequency:     7.7377809533

- q-position: [    0.1145833,    0.0104167,    0.0104167 ]
  weight: 24   
  band:
  - # 1
    frequency:     0.7043127219
  - # 2
    frequency:     0.7092404585
  - # 3
    frequency:     1.3995114346
  - # 4
    frequency:     4.0320415778
  - # 5
    frequency:     4.0357120345
  - # 6
    frequency:     4.2190292151
  - # 7
    frequency:     4.2190292151
  - # 8
    frequency:     4.2812730447
  - # 9
    frequency:     4.2812730447
  - # 10
    frequency:     7.6696267651
  - # 11
    frequency:     7.7084155595
  - # 12
    frequency:     7.7084155595

- q-position: [    0.1354167,    0.0104167,    0.0104167 ]
  weight: 24   
  band:
  - # 1
    frequency:     0.8318422295
  - # 2
    frequency:     0.8356940904
  - # 3
    frequency:     1.6450190649
  - # 4
    frequency:     4.0038958454
  - # 5
    frequency:     4.0075479924
  - # 6
    frequency:     4.2637852671
  - # 7
    frequency:     4.2637852671
  - # 8
    frequency:     4.3461853385
  - # 9
    frequency:     4.3461853385
  - # 10
    frequency:     7.6189906618
  - # 11
    frequency:     7.6732927117
  - # 12
    frequency:     7.6732927117

- q-position: [    0.1562500,    0.0104167,    0.0104167 ]
  weight: 24   
  band:
  - # 1
    frequency:     0.9586152044
  - # 2
    frequency:     0.9616114804
  - # 3
    frequency:     1.8895420483
  - # 4
    frequency:     3.9711832803
  - # 5
    frequency:     3.9748135148
  - # 6
    frequency:     4.3135532887
  - # 7
    frequency:     4.3135532887
  - # 8
    frequency:     4.4198792542
  - # 9
    frequency:     4.4198792542
  - # 10
    frequency:     7.5600751179
  - # 11
    frequency:     7.6324762608
  - # 12
    frequency:     7.6324762608

- q-position: [    0.1770833,    0.0104167,    0.0104167 ]
  weight: 24   
  band:
  - # 1
    frequency:     1.0845434891
  - # 2
    frequency:     1.0868352036
  - # 3
    frequency:     2.1326000100
  - # 4
    frequency:     3.9339601303
  - # 5
    frequency:     3.9375646006
  - # 6
    frequency:     4.3672901492
  - # 7
    frequency:     4.3672901492
  - # 8
    frequency:     4.5016362457
  - # 9
    frequency:     4.5016362457
  - # 10
    frequency:     7.4929532379
  - # 11
    frequency:     7.5860413605
  - # 12
    frequency:     7.5860413605

- q-position: [    0.1979167,    0.0104167,    0.0104167 ]
  weight: 24   
  band:
  - # 1
    frequency:     1.2095315154
  - # 2
    frequency:     1.2112269025
  - # 3
    frequency:     2.3738071467
  - # 4
    frequency:     3.8922899473
  - # 5
    frequency:     3.8958645214
  - # 6
    frequency:     4.4239263597
  - # 7
    frequency:     4.4239263597
  - # 8
    frequency:     4.5906923996
  - # 9
    frequency:     4.5906923996
  - # 10
    frequency:     7.4177080768
  - # 11
    frequency:     7.5340747806
  - # 12
    frequency:     7.5340747806

- q-position: [    0.2187500,    0.0104167,    0.0104167 ]
  weight: 24   
  band:
  - # 1
    frequency:     1.3334776585
  - # 2
    frequency:     1.3346573837
  - # 3
    frequency:     2.6128291178
  - # 4
    frequency:     3.8462433058
  - # 5
    frequency:     3.8497835408
  - # 6
    frequency:     4.4823872077
  - # 7
    frequency:     4.4823872077
  - # 8
    frequency:     4.6862602855
  - # 9
    frequency:     4.6862602855
  - # 10
    frequency:     7.3344324493
  - # 11
    frequency:     7.4766752719
  - # 12
    frequency:     7.4766752719

- q-position: [    0.2395833,    0.0104167,    0.0104167 ]
  weight: 24   
  band:
  - # 1
    frequency:     1.4562755272
  - # 2
    frequency:     1.4570018175
  - # 3
    frequency:     2.8493618566
  - # 4
    frequency:     3.7958974925
  - # 5
    frequency:     3.7993986059
  - # 6
    frequency:     4.5416124063
  - # 7
    frequency:     4.5416124063
  - # 8
    frequency:     4.7875465343
  - # 9
    frequency:     4.7875465343
  - # 10
    frequency:     7.2432287198
  - # 11
    frequency:     7.4139539863
  - # 12
    frequency:     7.4139539863

- q-position: [    0.2604167,    0.0104167,    0.0104167 ]
  weight: 24   
  band:
  - # 1
    frequency:     1.5778148757
  - # 2
    frequency:     1.5781372194
  - # 3
    frequency:     3.0831203974
  - # 4
    frequency:     3.7413361699
  - # 5
    frequency:     3.7447930118
  - # 6
    frequency:     4.6005732898
  - # 7
    frequency:     4.6005732898
  - # 8
    frequency:     4.8937656728
  - # 9
    frequency:     4.8937656728
  - # 10
    frequency:     7.1442085731
  - # 11
    frequency:     7.3460349530
  - # 12
    frequency:     7.3460349530

- q-position: [    0.2812500,    0.0104167,    0.0104167 ]
  weight: 24   
  band:
  - # 1
    frequency:     1.6979410535
  - # 2
    frequency:     1.6979822212
  - # 3
    frequency:     3.3138326582
  - # 4
    frequency:     3.6826490152
  - # 5
    frequency:     3.6860560426
  - # 6
    frequency:     4.6582872088
  - # 7
    frequency:     4.6582872088
  - # 8
    frequency:     5.0041506735
  - # 9
    frequency:     5.0041506735
  - # 10
    frequency:     7.0374927688
  - # 11
    frequency:     7.2730556176
  - # 12
    frequency:     7.2730556176

- q-position: [    0.3020833,    0.0104167,    0.0104167 ]
  weight: 24   
  band:
  - # 1
    frequency:     1.8162904356
  - # 2
    frequency:     1.8166612770
  - # 3
    frequency:     3.5412358438
  - # 4
    frequency:     3.6199313391
  - # 5
    frequency:     3.6232825908
  - # 6
    frequency:     4.7138291693
  - # 7
    frequency:     4.7138291693
  - # 8
    frequency:     5.1179606687
  - # 9
    frequency:     5.1179606687
  - # 10
    frequency:     6.9232108802
  - # 11
    frequency:     7.1951674462
  - # 12
    frequency:     7.1951674462

- q-position: [    0.3229167,    0.0104167,    0.0104167 ]
  weight: 24   
  band:
  - # 1
    frequency:     1.9330616835
  - # 2
    frequency:     1.9337332795
  - # 3
    frequency:     3.5532836856
  - # 4
    frequency:     3.5565727584
  - # 5
    frequency:     3.7650743107
  - # 6
    frequency:     4.7663409705
  - # 7
    frequency:     4.7663409705
  - # 8
    frequency:     5.2344862743
  - # 9
    frequency:     5.2344862743
  - # 10
    frequency:     6.8015010196
  - # 11
    frequency:     7.1125366011
  - # 12
    frequency:     7.1125366011

- q-position: [    0.3437500,    0.0104167,    0.0104167 ]
  weight: 24   
  band:
  - # 1
    frequency:     2.0481300838
  - # 2
    frequency:     2.0490772600
  - # 3
    frequency:     3.4828114166
  - # 4
    frequency:     3.4860314424
  - # 5
    frequency:     3.9850982892
  - # 6
    frequency:     4.8150381981
  - # 7
    frequency:     4.8150381981
  - # 8
    frequency:     5.3530529585
  - # 9
    frequency:     5.3530529585
  - # 10
    frequency:     6.6725095520
  - # 11
    frequency:     7.0253446941
  - # 12
    frequency:     7.0253446941

- q-position: [    0.3645833,    0.0104167,    0.0104167 ]
  weight: 24   
  band:
  - # 1
    frequency:     2.1613698028
  - # 2
    frequency:     2.1625702939
  - # 3
    frequency:     3.4086242843
  - # 4
    frequency:     3.4117679073
  - # 5
    frequency:     4.2010631299
  - # 6
    frequency:     4.8592154500
  - # 7
    frequency:     4.8592154500
  - # 8
    frequency:     5.4730228569
  - # 9
    frequency:     5.4730228569
  - # 10
    frequency:     6.5363907987
  - # 11
    frequency:     6.9337896236
  - # 12
    frequency:     6.9337896236

- q-position: [    0.3854167,    0.0104167,    0.0104167 ]
  weight: 24   
  band:
  - # 1
    frequency:     2.2726539006
  - # 2
    frequency:     2.2740877470
  - # 3
    frequency:     3.3308359949
  - # 4
    frequency:     3.3338953489
  - # 5
    frequency:     4.4127288817
  - # 6
    frequency:     4.8982501536
  - # 7
    frequency:     4.8982501536
  - # 8
    frequency:     5.5937953907
  - # 9
    frequency:     5.5937953907
  - # 10
    frequency:     6.3933067336
  - # 11
    frequency:     6.8380865074
  - # 12
    frequency:     6.8380865074

- q-position: [    0.4062500,    0.0104167,    0.0104167 ]
  weight: 24   
  band:
  - # 1
    frequency:     2.3818544245
  - # 2
    frequency:     2.3835035301
  - # 3
    frequency:     3.2495637670
  - # 4
    frequency:     3.2525304511
  - # 5
    frequency:     4.6198600882
  - # 6
    frequency:     4.9316052929
  - # 7
    frequency:     4.9316052929
  - # 8
    frequency:     5.7148069831
  - # 9
    frequency:     5.7148069831
  - # 10
    frequency:     6.2434266737
  - # 11
    frequency:     6.7384687291
  - # 12
    frequency:     6.7384687291

- q-position: [    0.4270833,    0.0104167,    0.0104167 ]
  weight: 24   
  band:
  - # 1
    frequency:     2.4888425656
  - # 2
    frequency:     2.4906903702
  - # 3
    frequency:     3.1649278876
  - # 4
    frequency:     3.1677929411
  - # 5
    frequency:     4.8222257328
  - # 6
    frequency:     4.9588313102
  - # 7
    frequency:     4.9588313102
  - # 8
    frequency:     5.8355300882
  - # 9
    frequency:     5.8355300882
  - # 10
    frequency:     6.0869269667
  - # 11
    frequency:     6.6351891430
  - # 12
    frequency:     6.6351891430

- q-position: [    0.4479167,    0.0104167,    0.0104167 ]
  weight: 24   
  band:
  - # 1
    frequency:     2.5934888665
  - # 2
    frequency:     2.5955201015
  - # 3
    frequency:     3.0770512706
  - # 4
    frequency:     3.0798051431
  - # 5
    frequency:     4.9795674002
  - # 6
    frequency:     4.9795674002
  - # 7
    frequency:     5.0195992859
  - # 8
    frequency:     5.9239906773
  - # 9
    frequency:     5.9554715647
  - # 10
    frequency:     5.9554715647
  - # 11
    frequency:     6.5285216159
  - # 12
    frequency:     6.5285216159

- q-position: [    0.4687500,    0.0104167,    0.0104167 ]
  weight: 24   
  band:
  - # 1
    frequency:     2.6956634744
  - # 2
    frequency:     2.6978639789
  - # 3
    frequency:     2.9860590199
  - # 4
    frequency:     2.9886915380
  - # 5
    frequency:     4.9935423635
  - # 6
    frequency:     4.9935423635
  - # 7
    frequency:     5.2117588272
  - # 8
    frequency:     5.7548072761
  - # 9
    frequency:     6.0741694694
  - # 10
    frequency:     6.0741694694
  - # 11
    frequency:     6.4187639920
  - # 12
    frequency:     6.4187639920

- q-position: [    0.4895833,    0.0104167,    0.0104167 ]
  weight: 24   
  band:
  - # 1
    frequency:     2.7952364321
  - # 2
    frequency:     2.7975930132
  - # 3
    frequency:     2.8920780022
  - # 4
    frequency:     2.8945783281
  - # 5
    frequency:     5.0005751446
  - # 6
    frequency:     5.0005751446
  - # 7
    frequency:     5.3984872213
  - # 8
    frequency:     5.5795723335
  - # 9
    frequency:     6.1911699706
  - # 10
    frequency:     6.1911699706
  - # 11
    frequency:     6.3062608999
  - # 12
    frequency:     6.3062608999

- q-position: [    0.0312500,    0.0312500,    0.0104167 ]
  weight: 24   
  band:
  - # 1
    frequency:     0.2193733291
  - # 2
    frequency:     0.2721150391
  - # 3
    frequency:     0.5820154483
  - # 4
    frequency:     4.1042735442
  - # 5
    frequency:     4.1042735442
  - # 6
    frequency:     4.1081847708
  - # 7
    frequency:     4.1158101763
  - # 8
    frequency:     4.1158101763
  - # 9
    frequency:     4.1413557670
  - # 10
    frequency:     7.7823984356
  - # 11
    frequency:     7.7823984356
  - # 12
    frequency:     7.7849514579

- q-position: [    0.0520833,    0.0312500,    0.0104167 ]
  weight: 48   
  band:
  - # 1
    frequency:     0.3140612161
  - # 2
    frequency:     0.3750320263
  - # 3
    frequency:     0.7803021573
  - # 4
    frequency:     4.0947935295
  - # 5
    frequency:     4.1063281327
  - # 6
    frequency:     4.1169524630
  - # 7
    frequency:     4.1196945917
  - # 8
    frequency:     4.1403845515
  - # 9
    frequency:     4.1721816526
  - # 10
    frequency:     7.7654895025
  - # 11
    frequency:     7.7706622778
  - # 12
    frequency:     7.7731482842

- q-position: [    0.0729167,    0.0312500,    0.0104167 ]
  weight: 48   
  band:
  - # 1
    frequency:     0.4350500094
  - # 2
    frequency:     0.4903136670
  - # 3
    frequency:     0.9987590544
  - # 4
    frequency:     4.0805940406
  - # 5
    frequency:     4.0921257789
  - # 6
    frequency:     4.1350400297
  - # 7
    frequency:     4.1436680109
  - # 8
    frequency:     4.1755467074
  - # 9
    frequency:     4.2126450996
  - # 10
    frequency:     7.7401525864
  - # 11
    frequency:     7.7530846184
  - # 12
    frequency:     7.7554693607

- q-position: [    0.0937500,    0.0312500,    0.0104167 ]
  weight: 48   
  band:
  - # 1
    frequency:     0.5627523692
  - # 2
    frequency:     0.6106951479
  - # 3
    frequency:     1.2272792506
  - # 4
    frequency:     4.0616996141
  - # 5
    frequency:     4.0732278636
  - # 6
    frequency:     4.1618709693
  - # 7
    frequency:     4.1754157199
  - # 8
    frequency:     4.2210861243
  - # 9
    frequency:     4.2623541054
  - # 10
    frequency:     7.7064194013
  - # 11
    frequency:     7.7296974761
  - # 12
    frequency:     7.7319458127

- q-position: [    0.1145833,    0.0312500,    0.0104167 ]
  weight: 48   
  band:
  - # 1
    frequency:     0.6918502903
  - # 2
    frequency:     0.7333744951
  - # 3
    frequency:     1.4610713045
  - # 4
    frequency:     4.0381427941
  - # 5
    frequency:     4.0496672107
  - # 6
    frequency:     4.1966827300
  - # 7
    frequency:     4.2140818649
  - # 8
    frequency:     4.2766037397
  - # 9
    frequency:     4.3208404966
  - # 10
    frequency:     7.6643321223
  - # 11
    frequency:     7.7005437531
  - # 12
    frequency:     7.7026193432

- q-position: [    0.1354167,    0.0312500,    0.0104167 ]
  weight: 48   
  band:
  - # 1
    frequency:     0.8207805073
  - # 2
    frequency:     0.8570541606
  - # 3
    frequency:     1.6974889017
  - # 4
    frequency:     4.0099639860
  - # 5
    frequency:     4.0214845715
  - # 6
    frequency:     4.2385542029
  - # 7
    frequency:     4.2587354870
  - # 8
    frequency:     4.3415557931
  - # 9
    frequency:     4.3875772528
  - # 10
    frequency:     7.6139432930
  - # 11
    frequency:     7.6656774176
  - # 12
    frequency:     7.6675424078

- q-position: [    0.1562500,    0.0312500,    0.0104167 ]
  weight: 48   
  band:
  - # 1
    frequency:     0.9490042900
  - # 2
    frequency:     0.9810294957
  - # 3
    frequency:     1.9349158886
  - # 4
    frequency:     3.9772112765
  - # 5
    frequency:     3.9887284433
  - # 6
    frequency:     4.2864349206
  - # 7
    frequency:     4.3083809721
  - # 8
    frequency:     4.4152934621
  - # 9
    frequency:     4.4619977912
  - # 10
    frequency:     7.5553157099
  - # 11
    frequency:     7.6251637343
  - # 12
    frequency:     7.6267784368

- q-position: [    0.1770833,    0.0312500,    0.0104167 ]
  weight: 48   
  band:
  - # 1
    frequency:     1.0762908294
  - # 2
    frequency:     1.1048620670
  - # 3
    frequency:     2.1722769796
  - # 4
    frequency:     3.9399402182
  - # 5
    frequency:     3.9514548539
  - # 6
    frequency:     4.3391793363
  - # 7
    frequency:     4.3619753214
  - # 8
    frequency:     4.4970958352
  - # 9
    frequency:     4.5435105768
  - # 10
    frequency:     7.4885222864
  - # 11
    frequency:     7.5790795454
  - # 12
    frequency:     7.5804021041

- q-position: [    0.1979167,    0.0312500,    0.0104167 ]
  weight: 48   
  band:
  - # 1
    frequency:     1.2025067885
  - # 2
    frequency:     1.2282455821
  - # 3
    frequency:     2.4087995159
  - # 4
    frequency:     3.8982135821
  - # 5
    frequency:     3.9097271165
  - # 6
    frequency:     4.3955842744
  - # 7
    frequency:     4.4184488227
  - # 8
    frequency:     4.5861968491
  - # 9
    frequency:     4.6315082668
  - # 10
    frequency:     7.4136458968
  - # 11
    frequency:     7.5275136028
  - # 12
    frequency:     7.5284996463

- q-position: [    0.2187500,    0.0312500,    0.0104167 ]
  weight: 48   
  band:
  - # 1
    frequency:     1.3275486417
  - # 2
    frequency:     1.3509444907
  - # 3
    frequency:     2.6438893848
  - # 4
    frequency:     3.8521010792
  - # 5
    frequency:     3.8636155547
  - # 6
    frequency:     4.4544264332
  - # 7
    frequency:     4.4767261536
  - # 8
    frequency:     4.6818071805
  - # 9
    frequency:     4.7253725478
  - # 10
    frequency:     7.3307792012
  - # 11
    frequency:     7.4705669552
  - # 12
    frequency:     7.4711692349

- q-position: [    0.2395833,    0.0312500,    0.0104167 ]
  weight: 48   
  band:
  - # 1
    frequency:     1.4513197102
  - # 2
    frequency:     1.4727632919
  - # 3
    frequency:     2.8770628416
  - # 4
    frequency:     3.8016790508
  - # 5
    frequency:     3.8131972024
  - # 6
    frequency:     4.5144967151
  - # 7
    frequency:     4.5357460151
  - # 8
    frequency:     4.7831318328
  - # 9
    frequency:     4.8244767007
  - # 10
    frequency:     7.2400244534
  - # 11
    frequency:     7.4083533931
  - # 12
    frequency:     7.4085214026

- q-position: [    0.2604167,    0.0312500,    0.0104167 ]
  weight: 48   
  band:
  - # 1
    frequency:     1.5737223185
  - # 2
    frequency:     1.5935300738
  - # 3
    frequency:     3.1079073045
  - # 4
    frequency:     3.7470301320
  - # 5
    frequency:     3.7585554788
  - # 6
    frequency:     4.5746289008
  - # 7
    frequency:     4.5944783110
  - # 8
    frequency:     4.8893839629
  - # 9
    frequency:     4.9281878740
  - # 10
    frequency:     7.1414932932
  - # 11
    frequency:     7.3406795308
  - # 12
    frequency:     7.3409999554

- q-position: [    0.2812500,    0.0312500,    0.0104167 ]
  weight: 48   
  band:
  - # 1
    frequency:     1.6946553306
  - # 2
    frequency:     1.7130871779
  - # 3
    frequency:     3.3360579095
  - # 4
    frequency:     3.6882428881
  - # 5
    frequency:     3.6997798440
  - # 6
    frequency:     4.6337214496
  - # 7
    frequency:     4.6519385250
  - # 8
    frequency:     4.9997954122
  - # 9
    frequency:     5.0358703306
  - # 10
    frequency:     7.0353065246
  - # 11
    frequency:     7.2677803994
  - # 12
    frequency:     7.2686475006

- q-position: [    0.3020833,    0.0312500,    0.0104167 ]
  weight: 48   
  band:
  - # 1
    frequency:     1.8140136346
  - # 2
    frequency:     1.8312856676
  - # 3
    frequency:     3.5611830087
  - # 4
    frequency:     3.6254114279
  - # 5
    frequency:     3.6369654360
  - # 6
    frequency:     4.6907525147
  - # 7
    frequency:     4.7071993358
  - # 8
    frequency:     5.1136243931
  - # 9
    frequency:     5.1468899977
  - # 10
    frequency:     6.9215938828
  - # 11
    frequency:     7.1899748087
  - # 12
    frequency:     7.1914513510

- q-position: [    0.3229167,    0.0312500,    0.0104167 ]
  weight: 48   
  band:
  - # 1
    frequency:     1.9316883149
  - # 2
    frequency:     1.9479819504
  - # 3
    frequency:     3.5586349944
  - # 4
    frequency:     3.5702126939
  - # 5
    frequency:     3.7829749459
  - # 6
    frequency:     4.7447892105
  - # 7
    frequency:     4.7593997297
  - # 8
    frequency:     5.2301607764
  - # 9
    frequency:     5.2606199327
  - # 10
    frequency:     6.8004937910
  - # 11
    frequency:     7.1074282780
  - # 12
    frequency:     7.1095820139

- q-position: [    0.3437500,    0.0312500,    0.0104167 ]
  weight: 48   
  band:
  - # 1
    frequency:     2.0475670379
  - # 2
    frequency:     2.0630356800
  - # 3
    frequency:     3.4880175369
  - # 4
    frequency:     3.4996269701
  - # 5
    frequency:     4.0011440482
  - # 6
    frequency:     4.7949925807
  - # 7
    frequency:     4.8077519663
  - # 8
    frequency:     5.3487294098
  - # 9
    frequency:     5.3764459920
  - # 10
    frequency:     6.6721531106
  - # 11
    frequency:     7.0203218377
  - # 12
    frequency:     7.0232259928

- q-position: [    0.3645833,    0.0312500,    0.0104167 ]
  weight: 48   
  band:
  - # 1
    frequency:     2.1615344782
  - # 2
    frequency:     2.1763084565
  - # 3
    frequency:     3.4136672666
  - # 4
    frequency:     3.4253181347
  - # 5
    frequency:     4.2154146447
  - # 6
    frequency:     4.8406196979
  - # 7
    frequency:     4.8515467773
  - # 8
    frequency:     5.4686918565
  - # 9
    frequency:     5.4937720127
  - # 10
    frequency:     6.5367268877
  - # 11
    frequency:     6.9288529338
  - # 12
    frequency:     6.9325867071

- q-position: [    0.3854167,    0.0312500,    0.0104167 ]
  weight: 48   
  band:
  - # 1
    frequency:     2.2734727305
  - # 2
    frequency:     2.2876630437
  - # 3
    frequency:     3.3356961992
  - # 4
    frequency:     3.3474001769
  - # 5
    frequency:     4.4255223935
  - # 6
    frequency:     4.8810240492
  - # 7
    frequency:     4.8901571621
  - # 8
    frequency:     5.5894468778
  - # 9
    frequency:     5.6120240109
  - # 10
    frequency:     6.3943780979
  - # 11
    frequency:     6.8332364953
  - # 12
    frequency:     6.8378855595

- q-position: [    0.4062500,    0.0312500,    0.0104167 ]
  weight: 48   
  band:
  - # 1
    frequency:     2.3832616956
  - # 2
    frequency:     2.3969629304
  - # 3
    frequency:     3.2542196870
  - # 4
    frequency:     3.2659908044
  - # 5
    frequency:     4.6312124796
  - # 6
    frequency:     4.9156550291
  - # 7
    frequency:     4.9230411013
  - # 8
    frequency:     5.7104298615
  - # 9
    frequency:     5.7306530756
  - # 10
    frequency:     6.2452773952
  - # 11
    frequency:     6.7337062869
  - # 12
    frequency:     6.7393632601

- q-position: [    0.4270833,    0.0312500,    0.0104167 ]
  weight: 48   
  band:
  - # 1
    frequency:     2.4907794490
  - # 2
    frequency:     2.5040721293
  - # 3
    frequency:     3.1693559440
  - # 4
    frequency:     3.1812110478
  - # 5
    frequency:     4.8322384025
  - # 6
    frequency:     4.9440570553
  - # 7
    frequency:     4.9497434609
  - # 8
    frequency:     5.8311111111
  - # 9
    frequency:     5.8491365689
  - # 10
    frequency:     6.0896028668
  - # 11
    frequency:     6.6305169420
  - # 12
    frequency:     6.6372817451

- q-position: [    0.4479167,    0.0312500,    0.0104167 ]
  weight: 48   
  band:
  - # 1
    frequency:     2.5959026021
  - # 2
    frequency:     2.6088551388
  - # 3
    frequency:     3.0812255693
  - # 4
    frequency:     3.0931848705
  - # 5
    frequency:     4.9658686047
  - # 6
    frequency:     4.9698973131
  - # 7
    frequency:     5.0283611726
  - # 8
    frequency:     5.9275398011
  - # 9
    frequency:     5.9509917834
  - # 10
    frequency:     5.9669760980
  - # 11
    frequency:     6.5239483445
  - # 12
    frequency:     6.5319281006

- q-position: [    0.4687500,    0.0312500,    0.0104167 ]
  weight: 48   
  band:
  - # 1
    frequency:     2.6985066681
  - # 2
    frequency:     2.7111770218
  - # 3
    frequency:     2.9899510694
  - # 4
    frequency:     3.0020387889
  - # 5
    frequency:     4.9808213148
  - # 6
    frequency:     4.9832248545
  - # 7
    frequency:     5.2193487985
  - # 8
    frequency:     5.7592804739
  - # 9
    frequency:     6.0695889367
  - # 10
    frequency:     6.0836816145
  - # 11
    frequency:     6.4143231847
  - # 12
    frequency:     6.4236291780

- q-position: [    0.4895833,    0.0312500,    0.0104167 ]
  weight: 48   
  band:
  - # 1
    frequency:     2.7984664402
  - # 2
    frequency:     2.8109035664
  - # 3
    frequency:     2.8956563875
  - # 4
    frequency:     2.9079015068
  - # 5
    frequency:     4.9887392108
  - # 6
    frequency:     4.9895380633
  - # 7
    frequency:     5.4049759810
  - # 8
    frequency:     5.5850239601
  - # 9
    frequency:     6.1862757613
  - # 10
    frequency:     6.1985404743
  - # 11
    frequency:     6.3022390520
  - # 12
    frequency:     6.3129109314

- q-position: [    0.0520833,    0.0520833,    0.0104167 ]
  weight: 24   
  band:
  - # 1
    frequency:     0.3562861505
  - # 2
    frequency:     0.4562524543
  - # 3
    frequency:     0.9487740998
  - # 4
    frequency:     4.1101734007
  - # 5
    frequency:     4.1101734007
  - # 6
    frequency:     4.1185756806
  - # 7
    frequency:     4.1309105221
  - # 8
    frequency:     4.1309105221
  - # 9
    frequency:     4.2093290207
  - # 10
    frequency:     7.7539194547
  - # 11
    frequency:     7.7539194547
  - # 12
    frequency:     7.7613771323

- q-position: [    0.0729167,    0.0520833,    0.0104167 ]
  weight: 48   
  band:
  - # 1
    frequency:     0.4451546625
  - # 2
    frequency:     0.5561519792
  - # 3
    frequency:     1.1430923505
  - # 4
    frequency:     4.0959112827
  - # 5
    frequency:     4.1167205614
  - # 6
    frequency:     4.1296207631
  - # 7
    frequency:     4.1340664228
  - # 8
    frequency:     4.1661011515
  - # 9
    frequency:     4.2556334150
  - # 10
    frequency:     7.7288314782
  - # 11
    frequency:     7.7365920500
  - # 12
    frequency:     7.7437458729

- q-position: [    0.0937500,    0.0520833,    0.0104167 ]
  weight: 48   
  band:
  - # 1
    frequency:     0.5579055256
  - # 2
    frequency:     0.6660856397
  - # 3
    frequency:     1.3518785968
  - # 4
    frequency:     4.0769317675
  - # 5
    frequency:     4.0978398398
  - # 6
    frequency:     4.1497249091
  - # 7
    frequency:     4.1656918270
  - # 8
    frequency:     4.2116896992
  - # 9
    frequency:     4.3105255066
  - # 10
    frequency:     7.6954298017
  - # 11
    frequency:     7.7135406268
  - # 12
    frequency:     7.7202851932

- q-position: [    0.1145833,    0.0520833,    0.0104167 ]
  weight: 48   
  band:
  - # 1
    frequency:     0.6807614668
  - # 2
    frequency:     0.7815423479
  - # 3
    frequency:     1.5694709409
  - # 4
    frequency:     4.0532661075
  - # 5
    frequency:     4.0743017033
  - # 6
    frequency:     4.1782981746
  - # 7
    frequency:     4.2041939032
  - # 8
    frequency:     4.2672738303
  - # 9
    frequency:     4.3734082818
  - # 10
    frequency:     7.6537562695
  - # 11
    frequency:     7.6848098672
  - # 12
    frequency:     7.6910362190

- q-position: [    0.1354167,    0.0520833,    0.0104167 ]
  weight: 48   
  band:
  - # 1
    frequency:     0.8075768540
  - # 2