<?xml version="1.0" encoding="ISO-8859-1"?>
<modeling>
 <generator>
  <i name="program" type="string">vasp</i>
  <i name="version" type="string">4.6.28 </i>
  <i name="subversion" type="string">25Jul05 complex  parallel</i>
  <i name="platform" type="string">LinuxIFC</i>
  <i name="date" type="string">2016 11 12</i>
  <i name="time" type="string">02:09:26</i>
 </generator>
 <incar>
  <i type="string" name="PREC">accurate</i>
  <i type="int" name="IALGO">    38</i>
  <i type="logical" name="ADDGRID"> T  </i>
  <i name="EDIFF">      0.00000001</i>
  <i type="int" name="IBRION">    -1</i>
  <i name="ENCUT">    750.00000000</i>
  <i type="logical" name="LREAL"> F  </i>
  <i type="int" name="ISMEAR">     0</i>
  <i name="SIGMA">      0.01000000</i>
  <i type="logical" name="LWAVE"> F  </i>
  <i type="logical" name="LCHARG"> F  </i>
 </incar>
 <kpoints>
  <generation param="Gamma">
   <v type="int" name="divisions">      12      12      12</v>
   <v name="usershift">      0.00000000      0.00000000      0.00000000</v>
   <v name="genvec1">      0.08333333      0.00000000      0.00000000</v>
   <v name="genvec2">      0.00000000      0.08333333      0.00000000</v>
   <v name="genvec3">      0.00000000      0.00000000      0.08333333</v>
   <v name="shift">      0.00000000      0.00000000      0.00000000</v>
  </generation>
  <varray name="kpointlist" >
   <v>       0.00000000      0.00000000      0.00000000</v>
   <v>       0.08333333      0.00000000      0.00000000</v>
   <v>       0.16666667      0.00000000      0.00000000</v>
   <v>       0.25000000      0.00000000      0.00000000</v>
   <v>       0.33333333      0.00000000      0.00000000</v>
   <v>       0.41666667      0.00000000      0.00000000</v>
   <v>       0.50000000      0.00000000      0.00000000</v>
   <v>       0.00000000      0.08333333      0.00000000</v>
   <v>       0.08333333      0.08333333      0.00000000</v>
   <v>       0.16666667      0.08333333      0.00000000</v>
   <v>       0.25000000      0.08333333      0.00000000</v>
   <v>       0.33333333      0.08333333      0.00000000</v>
   <v>       0.41666667      0.08333333      0.00000000</v>
   <v>       0.50000000      0.08333333      0.00000000</v>
   <v>       0.00000000      0.16666667      0.00000000</v>
   <v>       0.08333333      0.16666667      0.00000000</v>
   <v>       0.16666667      0.16666667      0.00000000</v>
   <v>       0.25000000      0.16666667      0.00000000</v>
   <v>       0.33333333      0.16666667      0.00000000</v>
   <v>       0.41666667      0.16666667      0.00000000</v>
   <v>       0.50000000      0.16666667      0.00000000</v>
   <v>       0.00000000      0.25000000      0.00000000</v>
   <v>       0.08333333      0.25000000      0.00000000</v>
   <v>       0.16666667      0.25000000      0.00000000</v>
   <v>       0.25000000      0.25000000      0.00000000</v>
   <v>       0.33333333      0.25000000      0.00000000</v>
   <v>       0.41666667      0.25000000      0.00000000</v>
   <v>       0.50000000      0.25000000      0.00000000</v>
   <v>       0.00000000      0.33333333      0.00000000</v>
   <v>       0.08333333      0.33333333      0.00000000</v>
   <v>       0.16666667      0.33333333      0.00000000</v>
   <v>       0.25000000      0.33333333      0.00000000</v>
   <v>       0.33333333      0.33333333      0.00000000</v>
   <v>       0.41666667      0.33333333      0.00000000</v>
   <v>       0.50000000      0.33333333      0.00000000</v>
   <v>       0.00000000      0.41666667      0.00000000</v>
   <v>       0.08333333      0.41666667      0.00000000</v>
   <v>       0.16666667      0.41666667      0.00000000</v>
   <v>       0.25000000      0.41666667      0.00000000</v>
   <v>       0.33333333      0.41666667      0.00000000</v>
   <v>       0.41666667      0.41666667      0.00000000</v>
   <v>       0.50000000      0.41666667      0.00000000</v>
   <v>       0.00000000      0.50000000      0.00000000</v>
   <v>       0.08333333      0.50000000      0.00000000</v>
   <v>       0.16666667      0.50000000      0.00000000</v>
   <v>       0.25000000      0.50000000      0.00000000</v>
   <v>       0.33333333      0.50000000      0.00000000</v>
   <v>       0.41666667      0.50000000      0.00000000</v>
   <v>       0.50000000      0.50000000      0.00000000</v>
   <v>       0.00000000      0.08333333      0.08333333</v>
   <v>       0.08333333      0.08333333      0.08333333</v>
   <v>       0.16666667      0.08333333      0.08333333</v>
   <v>       0.25000000      0.08333333      0.08333333</v>
   <v>       0.33333333      0.08333333      0.08333333</v>
   <v>       0.41666667      0.08333333      0.08333333</v>
   <v>       0.50000000      0.08333333      0.08333333</v>
   <v>       0.00000000      0.16666667      0.08333333</v>
   <v>       0.08333333      0.16666667      0.08333333</v>
   <v>       0.16666667      0.16666667      0.08333333</v>
   <v>       0.25000000      0.16666667      0.08333333</v>
   <v>       0.33333333      0.16666667      0.08333333</v>
   <v>       0.41666667      0.16666667      0.08333333</v>
   <v>       0.50000000      0.16666667      0.08333333</v>
   <v>       0.00000000      0.25000000      0.08333333</v>
   <v>       0.08333333      0.25000000      0.08333333</v>
   <v>       0.16666667      0.25000000      0.08333333</v>
   <v>       0.25000000      0.25000000      0.08333333</v>
   <v>       0.33333333      0.25000000      0.08333333</v>
   <v>       0.41666667      0.25000000      0.08333333</v>
   <v>       0.50000000      0.25000000      0.08333333</v>
   <v>       0.00000000      0.33333333      0.08333333</v>
   <v>       0.08333333      0.33333333      0.08333333</v>
   <v>       0.16666667      0.33333333      0.08333333</v>
   <v>       0.25000000      0.33333333      0.08333333</v>
   <v>       0.33333333      0.33333333      0.08333333</v>
   <v>       0.41666667      0.33333333      0.08333333</v>
   <v>       0.50000000      0.33333333      0.08333333</v>
   <v>       0.00000000      0.41666667      0.08333333</v>
   <v>       0.08333333      0.41666667      0.08333333</v>
   <v>       0.16666667      0.41666667      0.08333333</v>
   <v>       0.25000000      0.41666667      0.08333333</v>
   <v>       0.33333333      0.41666667      0.08333333</v>
   <v>       0.41666667      0.41666667      0.08333333</v>
   <v>       0.50000000      0.41666667      0.08333333</v>
   <v>       0.00000000      0.50000000      0.08333333</v>
   <v>       0.08333333      0.50000000      0.08333333</v>
   <v>       0.16666667      0.50000000      0.08333333</v>
   <v>       0.25000000      0.50000000      0.08333333</v>
   <v>       0.33333333      0.50000000      0.08333333</v>
   <v>       0.41666667      0.50000000      0.08333333</v>
   <v>       0.50000000      0.50000000      0.08333333</v>
   <v>       0.00000000      0.16666667      0.16666667</v>
   <v>       0.08333333      0.16666667      0.16666667</v>
   <v>       0.16666667      0.16666667      0.16666667</v>
   <v>       0.25000000      0.16666667      0.16666667</v>
   <v>       0.33333333      0.16666667      0.16666667</v>
   <v>       0.41666667      0.16666667      0.16666667</v>
   <v>       0.50000000      0.16666667      0.16666667</v>
   <v>       0.00000000      0.25000000      0.16666667</v>
   <v>       0.08333333      0.25000000      0.16666667</v>
   <v>       0.16666667      0.25000000      0.16666667</v>
   <v>       0.25000000      0.25000000      0.16666667</v>
   <v>       0.33333333      0.25000000      0.16666667</v>
   <v>       0.41666667      0.25000000      0.16666667</v>
   <v>       0.50000000      0.25000000      0.16666667</v>
   <v>       0.00000000      0.33333333      0.16666667</v>
   <v>       0.08333333      0.33333333      0.16666667</v>
   <v>       0.16666667      0.33333333      0.16666667</v>
   <v>       0.25000000      0.33333333      0.16666667</v>
   <v>       0.33333333      0.33333333      0.16666667</v>
   <v>       0.41666667      0.33333333      0.16666667</v>
   <v>       0.50000000      0.33333333      0.16666667</v>
   <v>       0.00000000      0.41666667      0.16666667</v>
   <v>       0.08333333      0.41666667      0.16666667</v>
   <v>       0.16666667      0.41666667      0.16666667</v>
   <v>       0.25000000      0.41666667      0.16666667</v>
   <v>       0.33333333      0.41666667      0.16666667</v>
   <v>       0.41666667      0.41666667      0.16666667</v>
   <v>       0.50000000      0.41666667      0.16666667</v>
   <v>       0.00000000      0.50000000      0.16666667</v>
   <v>       0.08333333      0.50000000      0.16666667</v>
   <v>       0.16666667      0.50000000      0.16666667</v>
   <v>       0.25000000      0.50000000      0.16666667</v>
   <v>       0.33333333      0.50000000      0.16666667</v>
   <v>       0.41666667      0.50000000      0.16666667</v>
   <v>       0.50000000      0.50000000      0.16666667</v>
   <v>       0.00000000      0.25000000      0.25000000</v>
   <v>       0.08333333      0.25000000      0.25000000</v>
   <v>       0.16666667      0.25000000      0.25000000</v>
   <v>       0.25000000      0.25000000      0.25000000</v>
   <v>       0.33333333      0.25000000      0.25000000</v>
   <v>       0.41666667      0.25000000      0.25000000</v>
   <v>       0.50000000      0.25000000      0.25000000</v>
   <v>       0.00000000      0.33333333      0.25000000</v>
   <v>       0.08333333      0.33333333      0.25000000</v>
   <v>       0.16666667      0.33333333      0.25000000</v>
   <v>       0.25000000      0.33333333      0.25000000</v>
   <v>       0.33333333      0.33333333      0.25000000</v>
   <v>       0.41666667      0.33333333      0.25000000</v>
   <v>       0.50000000      0.33333333      0.25000000</v>
   <v>       0.00000000      0.41666667      0.25000000</v>
   <v>       0.08333333      0.41666667      0.25000000</v>
   <v>       0.16666667      0.41666667      0.25000000</v>
   <v>       0.25000000      0.41666667      0.25000000</v>
   <v>       0.33333333      0.41666667      0.25000000</v>
   <v>       0.41666667      0.41666667      0.25000000</v>
   <v>       0.50000000      0.41666667      0.25000000</v>
   <v>       0.00000000      0.50000000      0.25000000</v>
   <v>       0.08333333      0.50000000      0.25000000</v>
   <v>       0.16666667      0.50000000      0.25000000</v>
   <v>       0.25000000      0.50000000      0.25000000</v>
   <v>       0.33333333      0.50000000      0.25000000</v>
   <v>       0.41666667      0.50000000      0.25000000</v>
   <v>       0.50000000      0.50000000      0.25000000</v>
   <v>       0.00000000      0.33333333      0.33333333</v>
   <v>       0.08333333      0.33333333      0.33333333</v>
   <v>       0.16666667      0.33333333      0.33333333</v>
   <v>       0.25000000      0.33333333      0.33333333</v>
   <v>       0.33333333      0.33333333      0.33333333</v>
   <v>       0.41666667      0.33333333      0.33333333</v>
   <v>       0.50000000      0.33333333      0.33333333</v>
   <v>       0.00000000      0.41666667      0.33333333</v>
   <v>       0.08333333      0.41666667      0.33333333</v>
   <v>       0.16666667      0.41666667      0.33333333</v>
   <v>       0.25000000      0.41666667      0.33333333</v>
   <v>       0.33333333      0.41666667      0.33333333</v>
   <v>       0.41666667      0.41666667      0.33333333</v>
   <v>       0.50000000      0.41666667      0.33333333</v>
   <v>       0.00000000      0.50000000      0.33333333</v>
   <v>       0.08333333      0.50000000      0.33333333</v>
   <v>       0.16666667      0.50000000      0.33333333</v>
   <v>       0.25000000      0.50000000      0.33333333</v>
   <v>       0.33333333      0.50000000      0.33333333</v>
   <v>       0.41666667      0.50000000      0.33333333</v>
   <v>       0.50000000      0.50000000      0.33333333</v>
   <v>       0.00000000      0.41666667      0.41666667</v>
   <v>       0.08333333      0.41666667      0.41666667</v>
   <v>       0.16666667      0.41666667      0.41666667</v>
   <v>       0.25000000      0.41666667      0.41666667</v>
   <v>       0.33333333      0.41666667      0.41666667</v>
   <v>       0.41666667      0.41666667      0.41666667</v>
   <v>       0.50000000      0.41666667      0.41666667</v>
   <v>       0.00000000      0.50000000      0.41666667</v>
   <v>       0.08333333      0.50000000      0.41666667</v>
   <v>       0.16666667      0.50000000      0.41666667</v>
   <v>       0.25000000      0.50000000      0.41666667</v>
   <v>       0.33333333      0.50000000      0.41666667</v>
   <v>       0.41666667      0.50000000      0.41666667</v>
   <v>       0.50000000      0.50000000      0.41666667</v>
   <v>       0.00000000      0.50000000      0.50000000</v>
   <v>       0.08333333      0.50000000      0.50000000</v>
   <v>       0.16666667      0.50000000      0.50000000</v>
   <v>       0.25000000      0.50000000      0.50000000</v>
   <v>       0.33333333      0.50000000      0.50000000</v>
   <v>       0.41666667      0.50000000      0.50000000</v>
   <v>       0.50000000      0.50000000      0.50000000</v>
  </varray>
  <varray name="weights" >
   <v>       0.00057870</v>
   <v>       0.00115741</v>
   <v>       0.00115741</v>
   <v>       0.00115741</v>
   <v>       0.00115741</v>
   <v>       0.00115741</v>
   <v>       0.00057870</v>
   <v>       0.00231481</v>
   <v>       0.00462963</v>
   <v>       0.00462963</v>
   <v>       0.00462963</v>
   <v>       0.00462963</v>
   <v>       0.00462963</v>
   <v>       0.00231481</v>
   <v>       0.00231481</v>
   <v>       0.00462963</v>
   <v>       0.00462963</v>
   <v>       0.00462963</v>
   <v>       0.00462963</v>
   <v>       0.00462963</v>
   <v>       0.00231481</v>
   <v>       0.00231481</v>
   <v>       0.00462963</v>
   <v>       0.00462963</v>
   <v>       0.00462963</v>
   <v>       0.00462963</v>
   <v>       0.00462963</v>
   <v>       0.00231481</v>
   <v>       0.00231481</v>
   <v>       0.00462963</v>
   <v>       0.00462963</v>
   <v>       0.00462963</v>
   <v>       0.00462963</v>
   <v>       0.00462963</v>
   <v>       0.00231481</v>
   <v>       0.00231481</v>
   <v>       0.00462963</v>
   <v>       0.00462963</v>
   <v>       0.00462963</v>
   <v>       0.00462963</v>
   <v>       0.00462963</v>
   <v>       0.00231481</v>
   <v>       0.00115741</v>
   <v>       0.00231481</v>
   <v>       0.00231481</v>
   <v>       0.00231481</v>
   <v>       0.00231481</v>
   <v>       0.00231481</v>
   <v>       0.00115741</v>
   <v>       0.00231481</v>
   <v>       0.00462963</v>
   <v>       0.00462963</v>
   <v>       0.00462963</v>
   <v>       0.00462963</v>
   <v>       0.00462963</v>
   <v>       0.00231481</v>
   <v>       0.00462963</v>
   <v>       0.00925926</v>
   <v>       0.00925926</v>
   <v>       0.00925926</v>
   <v>       0.00925926</v>
   <v>       0.00925926</v>
   <v>       0.00462963</v>
   <v>       0.00462963</v>
   <v>       0.00925926</v>
   <v>       0.00925926</v>
   <v>       0.00925926</v>
   <v>       0.00925926</v>
   <v>       0.00925926</v>
   <v>       0.00462963</v>
   <v>       0.00462963</v>
   <v>       0.00925926</v>
   <v>       0.00925926</v>
   <v>       0.00925926</v>
   <v>       0.00925926</v>
   <v>       0.00925926</v>
   <v>       0.00462963</v>
   <v>       0.00462963</v>
   <v>       0.00925926</v>
   <v>       0.00925926</v>
   <v>       0.00925926</v>
   <v>       0.00925926</v>
   <v>       0.00925926</v>
   <v>       0.00462963</v>
   <v>       0.00231481</v>
   <v>       0.00462963</v>
   <v>       0.00462963</v>
   <v>       0.00462963</v>
   <v>       0.00462963</v>
   <v>       0.00462963</v>
   <v>       0.00231481</v>
   <v>       0.00231481</v>
   <v>       0.00462963</v>
   <v>       0.00462963</v>
   <v>       0.00462963</v>
   <v>       0.00462963</v>
   <v>       0.00462963</v>
   <v>       0.00231481</v>
   <v>       0.00462963</v>
   <v>       0.00925926</v>
   <v>       0.00925926</v>
   <v>       0.00925926</v>
   <v>       0.00925926</v>
   <v>       0.00925926</v>
   <v>       0.00462963</v>
   <v>       0.00462963</v>
   <v>       0.00925926</v>
   <v>       0.00925926</v>
   <v>       0.00925926</v>
   <v>       0.00925926</v>
   <v>       0.00925926</v>
   <v>       0.00462963</v>
   <v>       0.00462963</v>
   <v>       0.00925926</v>
   <v>       0.00925926</v>
   <v>       0.00925926</v>
   <v>       0.00925926</v>
   <v>       0.00925926</v>
   <v>       0.00462963</v>
   <v>       0.00231481</v>
   <v>       0.00462963</v>
   <v>       0.00462963</v>
   <v>       0.00462963</v>
   <v>       0.00462963</v>
   <v>       0.00462963</v>
   <v>       0.00231481</v>
   <v>       0.00231481</v>
   <v>       0.00462963</v>
   <v>       0.00462963</v>
   <v>       0.00462963</v>
   <v>       0.00462963</v>
   <v>       0.00462963</v>
   <v>       0.00231481</v>
   <v>       0.00462963</v>
   <v>       0.00925926</v>
   <v>       0.00925926</v>
   <v>       0.00925926</v>
   <v>       0.00925926</v>
   <v>       0.00925926</v>
   <v>       0.00462963</v>
   <v>       0.00462963</v>
   <v>       0.00925926</v>
   <v>       0.00925926</v>
   <v>       0.00925926</v>
   <v>       0.00925926</v>
   <v>       0.00925926</v>
   <v>       0.00462963</v>
   <v>       0.00231481</v>
   <v>       0.00462963</v>
   <v>       0.00462963</v>
   <v>       0.00462963</v>
   <v>       0.00462963</v>
   <v>       0.00462963</v>
   <v>       0.00231481</v>
   <v>       0.00231481</v>
   <v>       0.00462963</v>
   <v>       0.00462963</v>
   <v>       0.00462963</v>
   <v>       0.00462963</v>
   <v>       0.00462963</v>
   <v>       0.00231481</v>
   <v>       0.00462963</v>
   <v>       0.00925926</v>
   <v>       0.00925926</v>
   <v>       0.00925926</v>
   <v>       0.00925926</v>
   <v>       0.00925926</v>
   <v>       0.00462963</v>
   <v>       0.00231481</v>
   <v>       0.00462963</v>
   <v>       0.00462963</v>
   <v>       0.00462963</v>
   <v>       0.00462963</v>
   <v>       0.00462963</v>
   <v>       0.00231481</v>
   <v>       0.00231481</v>
   <v>       0.00462963</v>
   <v>       0.00462963</v>
   <v>       0.00462963</v>
   <v>       0.00462963</v>
   <v>       0.00462963</v>
   <v>       0.00231481</v>
   <v>       0.00231481</v>
   <v>       0.00462963</v>
   <v>       0.00462963</v>
   <v>       0.00462963</v>
   <v>       0.00462963</v>
   <v>       0.00462963</v>
   <v>       0.00231481</v>
   <v>       0.00057870</v>
   <v>       0.00115741</v>
   <v>       0.00115741</v>
   <v>       0.00115741</v>
   <v>       0.00115741</v>
   <v>       0.00115741</v>
   <v>       0.00057870</v>
  </varray>
 </kpoints>
 <parameters>
  <separator name="general" >
   <i type="string" name="SYSTEM">unknown system</i>
   <i type="logical" name="LCOMPAT"> F  </i>
  </separator>
  <separator name="electronic" >
   <i type="string" name="PREC">accura</i>
   <i name="ENMAX">    750.00000000</i>
   <i name="ENAUG">    291.05200000</i>
   <i name="EDIFF">      0.00000001</i>
   <i type="int" name="IALGO">    38</i>
   <i type="int" name="IWAVPR">    10</i>
   <i type="int" name="NBANDS">    65</i>
   <i name="NELECT">     96.00000000</i>
   <separator name="electronic smearing" >
    <i type="int" name="ISMEAR">     0</i>
    <i name="SIGMA">      0.01000000</i>
   </separator>
   <separator name="electronic projectors" >
    <i type="logical" name="LREAL"> F  </i>
    <v name="ROPT">      0.00000000</v>
    <i type="int" name="LMAXPAW">  -100</i>
    <i type="int" name="LMAXMIX">     2</i>
   </separator>
   <separator name="electronic startup" >
    <i type="int" name="ISTART">     0</i>
    <i type="int" name="ICHARG">     2</i>
    <i type="int" name="INIWAV">     1</i>
   </separator>
   <separator name="electronic spin" >
    <i type="int" name="ISPIN">     1</i>
    <i type="logical" name="LNONCOLLINEAR"> F  </i>
    <v name="MAGMOM">      1.00000000      1.00000000      1.00000000      1.00000000      1.00000000      1.00000000      1.00000000      1.00000000      1.00000000      1.00000000      1.00000000      1.00000000      1.00000000      1.00000000      1.00000000      1.00000000      1.00000000      1.00000000      1.00000000      1.00000000
      1.00000000      1.00000000      1.00000000      1.00000000      1.00000000      1.00000000      1.00000000      1.00000000      1.00000000      1.00000000      1.00000000      1.00000000</v>
    <i name="NUPDOWN">     -1.00000000</i>
    <i type="logical" name="LSORBIT"> F  </i>
    <v name="SAXIS">      0.00000000      0.00000000      1.00000000</v>
    <i type="logical" name="LSPIRAL"> F  </i>
    <v name="QSPIRAL">      0.00000000      0.00000000      0.00000000</v>
    <i type="logical" name="LZEROZ"> F  </i>
   </separator>
   <separator name="electronic exchange-correlation" >
    <i type="string" name="GGA">--</i>
    <i type="int" name="VOSKOWN">     0</i>
    <i type="logical" name="LASPH"> F  </i>
    <i type="logical" name="LMETAGGA"> F  </i>
    <i type="string" name="GGA2">--</i>
   </separator>
   <separator name="electronic convergence" >
    <i type="int" name="NELM">    60</i>
    <i type="int" name="NELMDL">     0</i>
    <i type="int" name="NELMIN">     2</i>
    <i name="ENINI">    750.00000000</i>
    <separator name="electronic convergence detail" >
     <i type="logical" name="LDIAG"> T  </i>
     <i name="WEIMIN">      0.00000000</i>
     <i name="EBREAK">      0.00000000</i>
     <i name="DEPER">      0.30000000</i>
     <i type="int" name="NRMM">     4</i>
     <i name="TIME">      0.10000000</i>
    </separator>
   </separator>
   <separator name="electronic mixer" >
    <i name="AMIX">      0.40000000</i>
    <i name="BMIX">      1.00000000</i>
    <i name="AMIN">      0.10000000</i>
    <i name="AMIX_MAG">      1.60000000</i>
    <i name="BMIX_MAG">      1.00000000</i>
    <separator name="electronic mixer details" >
     <i type="int" name="IMIX">     4</i>
     <i type="int" name="MAXMIX">   -45</i>
     <i name="WC">    100.00000000</i>
     <i type="int" name="INIMIX">     1</i>
     <i type="int" name="MIXPRE">     1</i>
     <i type="int" name="MREMOVE">     5</i>
    </separator>
   </separator>
   <separator name="electronic dipolcorrection" >
    <i type="int" name="IDIPOL">     0</i>
    <i type="logical" name="LDIPOL"> F  </i>
    <v name="DIPOL">   -100.00000000</v>
    <i name="EFIELD">      0.00000000</i>
   </separator>
  </separator>
  <separator name="grids" >
   <i type="int" name="NGX">    80</i>
   <i type="int" name="NGY">    80</i>
   <i type="int" name="NGZ">    80</i>
   <i type="int" name="NGXF">   160</i>
   <i type="int" name="NGYF">   160</i>
   <i type="int" name="NGZF">   160</i>
   <i type="logical" name="ADDGRID"> T  </i>
  </separator>
  <separator name="ionic" >
   <i type="int" name="NSW">     0</i>
   <i type="int" name="IBRION">    -1</i>
   <i type="int" name="ISIF">     2</i>
   <i name="PSTRESS">      0.00000000</i>
   <i name="EDIFFG">      0.00000010</i>
   <i type="int" name="NFREE">     0</i>
   <i name="POTIM">      0.50000000</i>
   <i name="SMASS">     -3.00000000</i>
  </separator>
  <separator name="ionic md" >
   <i name="TEBEG">      0.00010000</i>
   <i name="TEEND">      0.00010000</i>
   <i type="int" name="NBLOCK">     1</i>
   <i type="int" name="KBLOCK">     1</i>
   <i type="int" name="NPACO">   256</i>
   <i name="APACO">     16.00000000</i>
  </separator>
  <separator name="symmetry" >
   <i type="int" name="ISYM">     2</i>
   <i name="SYMPREC">      0.00001000</i>
  </separator>
  <separator name="dos" >
   <i type="logical" name="LORBIT"> F  </i>
   <v name="RWIGS">     -1.00000000</v>
   <i type="int" name="NEDOS">   301</i>
   <i name="EMIN">     10.00000000</i>
   <i name="EMAX">    -10.00000000</i>
  </separator>
  <separator name="writing" >
   <i type="int" name="NWRITE">     2</i>
   <i type="logical" name="LWAVE"> F  </i>
   <i type="logical" name="LCHARG"> F  </i>
   <i type="logical" name="LPARD"> F  </i>
   <i type="logical" name="LVTOT"> F  </i>
   <i type="logical" name="LELF"> F  </i>
   <i type="logical" name="LOPTICS"> F  </i>
   <i name="STM">      0.00000000</i>
  </separator>
  <separator name="performance" >
   <i type="int" name="NPAR">     4</i>
   <i type="int" name="NSIM">     4</i>
   <i type="int" name="NBLK">   256</i>
   <i type="logical" name="LPLANE"> T  </i>
   <i type="logical" name="LCRITICAL_MEM"> F  </i>
   <i type="logical" name="LSCALAPACK"> F  </i>
   <i type="logical" name="LSCALU"> F  </i>
   <i type="logical" name="LASYNC"> F  </i>
  </separator>
  <separator name="miscellaneous" >
   <i type="int" name="IDIOT">     3</i>
   <i type="logical" name="LMUSIC"> F  </i>
   <v name="POMASS">     26.98200000</v>
   <i type="logical" name="LCORR"> T  </i>
  </separator>
  <i type="logical" name="LREAL_COMPAT"> F  </i>
  <i type="logical" name="GGA_COMPAT"> T  </i>
  <i type="logical" name="LBERRY"> F  </i>
  <i type="int" name="ICORELEVEL">     0</i>
  <i type="logical" name="LDAU"> F  </i>
  <i type="int" name="I_CONSTRAINED_M">     0</i>
 </parameters>
 <atominfo>
  <atoms>      32</atoms>
  <types>       1</types>
  <array name="atoms" >
   <dimension dim="1">ion</dimension>
   <field type="string">element</field>
   <field type="int">atomtype</field>
   <set>
    <rc><c>Al</c><c>   1</c></rc>
    <rc><c>Al</c><c>   1</c></rc>
    <rc><c>Al</c><c>   1</c></rc>
    <rc><c>Al</c><c>   1</c></rc>
    <rc><c>Al</c><c>   1</c></rc>
    <rc><c>Al</c><c>   1</c></rc>
    <rc><c>Al</c><c>   1</c></rc>
    <rc><c>Al</c><c>   1</c></rc>
    <rc><c>Al</c><c>   1</c></rc>
    <rc><c>Al</c><c>   1</c></rc>
    <rc><c>Al</c><c>   1</c></rc>
    <rc><c>Al</c><c>   1</c></rc>
    <rc><c>Al</c><c>   1</c></rc>
    <rc><c>Al</c><c>   1</c></rc>
    <rc><c>Al</c><c>   1</c></rc>
    <rc><c>Al</c><c>   1</c></rc>
    <rc><c>Al</c><c>   1</c></rc>
    <rc><c>Al</c><c>   1</c></rc>
    <rc><c>Al</c><c>   1</c></rc>
    <rc><c>Al</c><c>   1</c></rc>
    <rc><c>Al</c><c>   1</c></rc>
    <rc><c>Al</c><c>   1</c></rc>
    <rc><c>Al</c><c>   1</c></rc>
    <rc><c>Al</c><c>   1</c></rc>
    <rc><c>Al</c><c>   1</c></rc>
    <rc><c>Al</c><c>   1</c></rc>
    <rc><c>Al</c><c>   1</c></rc>
    <rc><c>Al</c><c>   1</c></rc>
    <rc><c>Al</c><c>   1</c></rc>
    <rc><c>Al</c><c>   1</c></rc>
    <rc><c>Al</c><c>   1</c></rc>
    <rc><c>Al</c><c>   1</c></rc>
   </set>
  </array>
  <array name="atomtypes" >
   <dimension dim="1">type</dimension>
   <field type="int">atomspertype</field>
   <field type="string">element</field>
   <field>mass</field>
   <field>valence</field>
   <field type="string">pseudopotential</field>
   <set>
    <rc><c>  32</c><c>Al</c><c>     26.98200000</c><c>      3.00000000</c><c> PAW_PBE Al 04Jan2001                   </c></rc>
   </set>
  </array>
 </atominfo>
 <structure name="initialpos" >
  <crystal>
   <varray name="basis" >
    <v>       8.39759725      0.00000000      0.00000000</v>
    <v>       0.00000000      8.39759725      0.00000000</v>
    <v>       0.00000000      0.00000000      8.39759725</v>
   </varray>
   <i name="volume">    592.19553112</i>
   <varray name="rec_basis" >
    <v>       0.11908168      0.00000000      0.00000000</v>
    <v>       0.00000000      0.11908168      0.00000000</v>
    <v>       0.00000000      0.00000000      0.11908168</v>
   </varray>
  </crystal>
  <varray name="positions" >
   <v>       0.25119082      0.25000000      0.00000000</v>
   <v>       0.75000000      0.25000000      0.00000000</v>
   <v>       0.25000000      0.75000000      0.00000000</v>
   <v>       0.75000000      0.75000000      0.00000000</v>
   <v>       0.25000000      0.25000000      0.50000000</v>
   <v>       0.75000000      0.25000000      0.50000000</v>
   <v>       0.25000000      0.75000000      0.50000000</v>
   <v>       0.75000000      0.75000000      0.50000000</v>
   <v>       0.25000000      0.00000000      0.25000000</v>
   <v>       0.75000000      0.00000000      0.25000000</v>
   <v>       0.25000000      0.50000000      0.25000000</v>
   <v>       0.75000000      0.50000000      0.25000000</v>
   <v>       0.25000000      0.00000000      0.75000000</v>
   <v>       0.75000000      0.00000000      0.75000000</v>
   <v>       0.25000000      0.50000000      0.75000000</v>
   <v>       0.75000000      0.50000000      0.75000000</v>
   <v>       0.00000000      0.25000000      0.25000000</v>
   <v>       0.50000000      0.25000000      0.25000000</v>
   <v>       0.00000000      0.75000000      0.25000000</v>
   <v>       0.50000000      0.75000000      0.25000000</v>
   <v>       0.00000000      0.25000000      0.75000000</v>
   <v>       0.50000000      0.25000000      0.75000000</v>
   <v>       0.00000000      0.75000000      0.75000000</v>
   <v>       0.50000000      0.75000000      0.75000000</v>
   <v>       0.00000000      0.00000000      0.00000000</v>
   <v>       0.50000000      0.00000000      0.00000000</v>
   <v>       0.00000000      0.50000000      0.00000000</v>
   <v>       0.50000000      0.50000000      0.00000000</v>
   <v>       0.00000000      0.00000000      0.50000000</v>
   <v>       0.50000000      0.00000000      0.50000000</v>
   <v>       0.00000000      0.50000000      0.50000000</v>
   <v>       0.50000000      0.50000000      0.50000000</v>
  </varray>
 </structure>
 <calculation>
  <scstep>
   <time name="dav"> 2319.01 2326.14</time>
   <time name="total"> 2325.43 2332.58</time>
   <energy>
    <i name="alphaZ">     -5.80791868</i>
    <i name="ewald">  -2264.22495736</i>
    <i name="hartreedc">     -5.08689961</i>
    <i name="XCdc">   -846.12863885</i>
    <i name="pawpsdc">   1137.73615723</i>
    <i name="pawaedc">   -115.16745734</i>
    <i name="eentropy">     -0.00037871</i>
    <i name="bandstr">    550.66891919</i>
    <i name="atom">   1713.23509266</i>
    <i name="e_fr_energy">    165.22391853</i>
    <i name="e_wo_entrp">    165.22429724</i>
    <i name="e_0_energy">    165.22410788</i>
   </energy>
  </scstep>
  <scstep>
   <time name="dav"> 2447.83 2453.19</time>
   <time name="total"> 2447.88 2453.24</time>
   <energy>
    <i name="e_fr_energy">   -101.47248052</i>
    <i name="e_wo_entrp">   -101.47184706</i>
    <i name="e_0_energy">   -101.47216379</i>
   </energy>
  </scstep>
  <scstep>
   <time name="dav"> 2645.38 2646.17</time>
   <time name="total"> 2645.44 2646.22</time>
   <energy>
    <i name="e_fr_energy">   -118.54352051</i>
    <i name="e_wo_entrp">   -118.54289776</i>
    <i name="e_0_energy">   -118.54320914</i>
   </energy>
  </scstep>
  <scstep>
   <time name="dav"> 2600.65 2601.43</time>
   <time name="total"> 2600.70 2601.51</time>
   <energy>
    <i name="e_fr_energy">   -118.97960526</i>
    <i name="e_wo_entrp">   -118.97891831</i>
    <i name="e_0_energy">   -118.97926178</i>
   </energy>
  </scstep>
  <scstep>
   <time name="dav"> 2613.90 2614.70</time>
   <time name="total"> 2783.36 2784.22</time>
   <energy>
    <i name="e_fr_energy">   -118.98533795</i>
    <i name="e_wo_entrp">   -118.98464749</i>
    <i name="e_0_energy">   -118.98499272</i>
   </energy>
  </scstep>
  <scstep>
   <time name="dav"> 2541.08 2543.38</time>
   <time name="total"> 2715.11 2717.56</time>
   <energy>
    <i name="e_fr_energy">   -118.59305509</i>
    <i name="e_wo_entrp">   -118.59237094</i>
    <i name="e_0_energy">   -118.59271302</i>
   </energy>
  </scstep>
  <scstep>
   <time name="dav"> 2373.91 2397.61</time>
   <time name="total"> 2546.76 2572.89</time>
   <energy>
    <i name="e_fr_energy">   -118.30970744</i>
    <i name="e_wo_entrp">   -118.30909740</i>
    <i name="e_0_energy">   -118.30940242</i>
   </energy>
  </scstep>
  <scstep>
   <time name="dav"> 2429.65 2462.15</time>
   <time name="total"> 2593.42 2628.11</time>
   <energy>
    <i name="e_fr_energy">   -118.30961359</i>
    <i name="e_wo_entrp">   -118.30900719</i>
    <i name="e_0_energy">   -118.30931039</i>
   </energy>
  </scstep>
  <scstep>
   <time name="dav"> 2546.32 2547.50</time>
   <time name="total"> 2720.09 2721.37</time>
   <energy>
    <i name="e_fr_energy">   -118.30963033</i>
    <i name="e_wo_entrp">   -118.30902646</i>
    <i name="e_0_energy">   -118.30932840</i>
   </energy>
  </scstep>
  <scstep>
   <time name="dav"> 2597.29 2598.51</time>
   <time name="total"> 2771.58 2772.88</time>
   <energy>
    <i name="e_fr_energy">   -118.30962848</i>
    <i name="e_wo_entrp">   -118.30902476</i>
    <i name="e_0_energy">   -118.30932662</i>
   </energy>
  </scstep>
  <scstep>
   <time name="dav"> 2576.92 2578.13</time>
   <time name="total"> 2750.64 2751.94</time>
   <energy>
    <i name="e_fr_energy">   -118.30962503</i>
    <i name="e_wo_entrp">   -118.30902134</i>
    <i name="e_0_energy">   -118.30932318</i>
   </energy>
  </scstep>
  <scstep>
   <time name="dav"> 1861.42 1862.30</time>
   <time name="total"> 2027.43 2028.39</time>
   <energy>
    <i name="e_fr_energy">   -118.30962400</i>
    <i name="e_wo_entrp">   -118.30902035</i>
    <i name="e_0_energy">   -118.30932217</i>
   </energy>
  </scstep>
  <scstep>
   <time name="dav"> 1545.45 1546.16</time>
   <time name="total"> 1687.43 1688.20</time>
   <energy>
    <i name="e_fr_energy">   -118.30962391</i>
    <i name="e_wo_entrp">   -118.30902026</i>
    <i name="e_0_energy">   -118.30932208</i>
   </energy>
  </scstep>
  <scstep>
   <time name="dav"> 1535.43 1535.92</time>
   <time name="total"> 1704.60 1705.15</time>
   <energy>
    <i name="e_fr_energy">   -118.30962392</i>
    <i name="e_wo_entrp">   -118.30902027</i>
    <i name="e_0_energy">   -118.30932209</i>
   </energy>
  </scstep>
  <scstep>
   <time name="dav"> 1651.38 1652.55</time>
   <time name="total"> 1820.94 1822.24</time>
   <energy>
    <i name="e_fr_energy">   -118.30962394</i>
    <i name="e_wo_entrp">   -118.30902029</i>
    <i name="e_0_energy">   -118.30932211</i>
   </energy>
  </scstep>
  <scstep>
   <time name="dav"> 1636.64 1637.80</time>
   <time name="total"> 1642.56 1643.73</time>
   <energy>
    <i name="alphaZ">     -5.80791868</i>
    <i name="ewald">  -2264.22495736</i>
    <i name="hartreedc">     -3.22104780</i>
    <i name="XCdc">   -843.42811302</i>
    <i name="pawpsdc">   1132.03226608</i>
    <i name="pawaedc">   -109.37387384</i>
    <i name="eentropy">     -0.00060366</i>
    <i name="bandstr">    262.47953166</i>
    <i name="atom">   1713.23509266</i>
    <i name="e_fr_energy">   -118.30962395</i>
    <i name="e_wo_entrp">   -118.30902029</i>
    <i name="e_0_energy">   -118.30932212</i>
   </energy>
  </scstep>
  <structure>
   <crystal>
    <varray name="basis" >
     <v>       8.39759725      0.00000000      0.00000000</v>
     <v>       0.00000000      8.39759725      0.00000000</v>
     <v>       0.00000000      0.00000000      8.39759725</v>
    </varray>
    <i name="volume">    592.19553112</i>
    <varray name="rec_basis" >
     <v>       0.11908168      0.00000000      0.00000000</v>
     <v>       0.00000000      0.11908168      0.00000000</v>
     <v>       0.00000000      0.00000000      0.11908168</v>
    </varray>
   </crystal>
   <varray name="positions" >
    <v>       0.25119082      0.25000000      0.00000000</v>
    <v>       0.75000000      0.25000000      0.00000000</v>
    <v>       0.25000000      0.75000000      0.00000000</v>
    <v>       0.75000000      0.75000000      0.00000000</v>
    <v>       0.25000000      0.25000000      0.50000000</v>
    <v>       0.75000000      0.25000000      0.50000000</v>
    <v>       0.25000000      0.75000000      0.50000000</v>
    <v>       0.75000000      0.75000000      0.50000000</v>
    <v>       0.25000000      0.00000000      0.25000000</v>
    <v>       0.75000000      0.00000000      0.25000000</v>
    <v>       0.25000000      0.50000000      0.25000000</v>
    <v>       0.75000000      0.50000000      0.25000000</v>
    <v>       0.25000000      0.00000000      0.75000000</v>
    <v>       0.75000000      0.00000000      0.75000000</v>
    <v>       0.25000000      0.50000000      0.75000000</v>
    <v>       0.75000000      0.50000000      0.75000000</v>
    <v>       0.00000000      0.25000000      0.25000000</v>
    <v>       0.50000000      0.25000000      0.25000000</v>
    <v>       0.00000000      0.75000000      0.25000000</v>
    <v>       0.50000000      0.75000000      0.25000000</v>
    <v>       0.00000000      0.25000000      0.75000000</v>
    <v>       0.50000000      0.25000000      0.75000000</v>
    <v>       0.00000000      0.75000000      0.75000000</v>
    <v>       0.50000000      0.75000000      0.75000000</v>
    <v>       0.00000000      0.00000000      0.00000000</v>
    <v>       0.50000000      0.00000000      0.00000000</v>
    <v>       0.00000000      0.50000000      0.00000000</v>
    <v>       0.50000000      0.50000000      0.00000000</v>
    <v>       0.00000000      0.00000000      0.50000000</v>
    <v>       0.50000000      0.00000000      0.50000000</v>
    <v>       0.00000000      0.50000000      0.50000000</v>
    <v>       0.50000000      0.50000000      0.50000000</v>
   </varray>
  </structure>
  <varray name="forces" >
   <v>      -0.02794845      0.00000000     -0.00000000</v>
   <v>       0.00158884      0.00000000     -0.00000000</v>
   <v>      -0.00021869      0.00000000     -0.00000000</v>
   <v>       0.00053063      0.00000000     -0.00000000</v>
   <v>      -0.00021869      0.00000000     -0.00000000</v>
   <v>       0.00053063     -0.00000000     -0.00000000</v>
   <v>       0.00012045     -0.00000000     -0.00000000</v>
   <v>      -0.00046500     -0.00000000      0.00000000</v>
   <v>      -0.00128750      0.00001046     -0.00001046</v>
   <v>      -0.00058681      0.00000176     -0.00000176</v>
   <v>      -0.00128750     -0.00001046     -0.00001046</v>
   <v>      -0.00058681     -0.00000176     -0.00000176</v>
   <v>      -0.00128750      0.00001046      0.00001046</v>
   <v>      -0.00058681      0.00000176      0.00000176</v>
   <v>      -0.00128750     -0.00001046      0.00001046</v>
   <v>      -0.00058681     -0.00000176      0.00000176</v>
   <v>       0.00418176     -0.00000000     -0.00405754</v>
   <v>       0.00428821     -0.00000000      0.00420091</v>
   <v>      -0.00003825      0.00000000      0.00019875</v>
   <v>      -0.00003735      0.00000000     -0.00019657</v>
   <v>       0.00418176      0.00000000      0.00405754</v>
   <v>       0.00428821     -0.00000000     -0.00420091</v>
   <v>      -0.00003825      0.00000000     -0.00019875</v>
   <v>      -0.00003735     -0.00000000      0.00019657</v>
   <v>       0.00418176      0.00405754      0.00000000</v>
   <v>       0.00428821     -0.00420091     -0.00000000</v>
   <v>       0.00418176     -0.00405754     -0.00000000</v>
   <v>       0.00428821      0.00420091      0.00000000</v>
   <v>      -0.00003825     -0.00019875     -0.00000000</v>
   <v>      -0.00003735      0.00019657     -0.00000000</v>
   <v>      -0.00003825      0.00019875     -0.00000000</v>
   <v>      -0.00003735     -0.00019657      0.00000000</v>
  </varray>
  <varray name="stress" >
   <v>     -68.35915520      0.00000000      0.00000000</v>
   <v>      -0.00000000    -68.36343317      0.00000000</v>
   <v>       0.00000000      0.00000000    -68.36343317</v>
  </varray>
  <energy>
   <i name="e_fr_energy">   -118.30962395</i>
   <i name="e_wo_entrp">   -118.30932212</i>
   <i name="e_0_energy">     -0.00060366</i>
  </energy>
  <eigenvalues>
   <array>
    <dimension dim="1">band</dimension>
    <dimension dim="2">kpoint</dimension>
    <dimension dim="3">spin</dimension>
    <field>eigene</field>
    <field>occ</field>
    <set>
     <set comment="spin 1">
      <set comment="kpoint 1">
       <r>  -3.5118  1.0000</r>
       <r>  -1.4298  1.0000</r>
       <r>  -1.4264  1.0000</r>
       <r>  -1.4264  1.0000</r>
       <r>  -1.4264  1.0000</r>
       <r>  -1.4264  1.0000</r>
       <r>  -1.4229  1.0000</r>
       <r>   0.6258  1.0000</r>
       <r>   0.6302  1.0000</r>
       <r>   0.6302  1.0000</r>
       <r>   0.6317  1.0000</r>
       <r>   0.6318  1.0000</r>
       <r>   0.6318  1.0000</r>
       <r>   0.6318  1.0000</r>
       <r>   0.6318  1.0000</r>
       <r>   0.6320  1.0000</r>
       <r>   0.6335  1.0000</r>
       <r>   0.6335  1.0000</r>
       <r>   0.6378  1.0000</r>
       <r>   2.6201  1.0000</r>
       <r>   2.6201  1.0000</r>
       <r>   2.6201  1.0000</r>
       <r>   2.6202  1.0000</r>
       <r>   2.7093  1.0000</r>
       <r>   2.7093  1.0000</r>
       <r>   2.7093  1.0000</r>
       <r>   2.7094  1.0000</r>
       <r>   4.2066  1.0000</r>
       <r>   4.2066  1.0000</r>
       <r>   4.2066  1.0000</r>
       <r>   5.2481  1.0000</r>
       <r>   5.2481  1.0000</r>
       <r>   5.2481  1.0000</r>
       <r>   6.1490  1.0000</r>
       <r>   6.1490  1.0000</r>
       <r>   6.1530  1.0000</r>
       <r>   6.1530  1.0000</r>
       <r>   6.1531  1.0000</r>
       <r>   6.1531  1.0000</r>
       <r>   6.1531  1.0000</r>
       <r>   6.1531  1.0000</r>
       <r>   6.1532  1.0000</r>
       <r>   6.1532  1.0000</r>
       <r>   6.1572  1.0000</r>
       <r>   6.1572  1.0000</r>
       <r>   7.2109  0.0000</r>
       <r>   7.2148  0.0000</r>
       <r>   7.2148  0.0000</r>
       <r>   7.2148  0.0000</r>
       <r>   7.2148  0.0000</r>
       <r>   7.2186  0.0000</r>
       <r>   7.3526  0.0000</r>
       <r>   7.3534  0.0000</r>
       <r>   7.3534  0.0000</r>
       <r>   7.3534  0.0000</r>
       <r>   7.3534  0.0000</r>
       <r>   7.3542  0.0000</r>
       <r>   8.0974  0.0000</r>
       <r>   8.0974  0.0000</r>
       <r>   8.0995  0.0000</r>
       <r>   8.1012  0.0000</r>
       <r>   8.1013  0.0000</r>
       <r>   8.1013  0.0000</r>
       <r>   8.1013  0.0000</r>
       <r>   8.1014  0.0000</r>
       <r>   8.1029  0.0000</r>
       <r>   8.1043  0.0000</r>
       <r>   8.1052  0.0000</r>
      </set>
      <set comment="kpoint 2">
       <r>  -3.4973  1.0000</r>
       <r>  -1.7576  1.0000</r>
       <r>  -1.4120  1.0000</r>
       <r>  -1.4120  1.0000</r>
       <r>  -1.4120  1.0000</r>
       <r>  -1.4120  1.0000</r>
       <r>  -1.0671  1.0000</r>
       <r>   0.3048  1.0000</r>
       <r>   0.3048  1.0000</r>
       <r>   0.3048  1.0000</r>
       <r>   0.3048  1.0000</r>
       <r>   0.6460  1.0000</r>
       <r>   0.6460  1.0000</r>
       <r>   0.6460  1.0000</r>
       <r>   0.6460  1.0000</r>
       <r>   0.9864  1.0000</r>
       <r>   0.9864  1.0000</r>
       <r>   0.9864  1.0000</r>
       <r>   0.9865  1.0000</r>
       <r>   2.3388  1.0000</r>
       <r>   2.3388  1.0000</r>
       <r>   2.3388  1.0000</r>
       <r>   2.3388  1.0000</r>
       <r>   3.0180  1.0000</r>
       <r>   3.0180  1.0000</r>
       <r>   3.0180  1.0000</r>
       <r>   3.0180  1.0000</r>
       <r>   3.8908  1.0000</r>
       <r>   4.2201  1.0000</r>
       <r>   4.2201  1.0000</r>
       <r>   5.2624  1.0000</r>
       <r>   5.2624  1.0000</r>
       <r>   5.5895  1.0000</r>
       <r>   5.8418  1.0000</r>
       <r>   5.8418  1.0000</r>
       <r>   5.8594  1.0000</r>
       <r>   5.8594  1.0000</r>
       <r>   5.8594  1.0000</r>
       <r>   5.8594  1.0000</r>
       <r>   6.1666  1.0000</r>
       <r>   6.1666  1.0000</r>
       <r>   6.1666  1.0000</r>
       <r>   6.1666  1.0000</r>
       <r>   6.4915  1.0000</r>
       <r>   6.4915  1.0000</r>
       <r>   6.9567  0.0000</r>
       <r>   6.9567  0.0000</r>
       <r>   7.2852  0.0000</r>
       <r>   7.2852  0.0000</r>
       <r>   7.2852  0.0000</r>
       <r>   7.2852  0.0000</r>
       <r>   7.6154  0.0000</r>
       <r>   7.6155  0.0000</r>
       <r>   7.6156  0.0000</r>
       <r>   7.6156  0.0000</r>
       <r>   7.6370  0.0000</r>
       <r>   7.6371  0.0000</r>
       <r>   7.7899  0.0000</r>
       <r>   7.7899  0.0000</r>
       <r>   7.7900  0.0000</r>
       <r>   7.7900  0.0000</r>
       <r>   7.8192  0.0000</r>
       <r>   7.8193  0.0000</r>
       <r>   7.8193  0.0000</r>
       <r>   7.8193  0.0000</r>
       <r>   8.4396  0.0000</r>
       <r>   8.4396  0.0000</r>
       <r>   8.4396  0.0000</r>
      </set>
      <set comment="kpoint 3">
       <r>  -3.4536  1.0000</r>
       <r>  -2.0606  1.0000</r>
       <r>  -1.3689  1.0000</r>
       <r>  -1.3688  1.0000</r>
       <r>  -1.3688  1.0000</r>
       <r>  -1.3688  1.0000</r>
       <r>  -0.6802  1.0000</r>
       <r>   0.0057  1.0000</r>
       <r>   0.0057  1.0000</r>
       <r>   0.0057  1.0000</r>
       <r>   0.0057  1.0000</r>
       <r>   0.6886  1.0000</r>
       <r>   0.6886  1.0000</r>
       <r>   0.6886  1.0000</r>
       <r>   0.6886  1.0000</r>
       <r>   1.3684  1.0000</r>
       <r>   1.3684  1.0000</r>
       <r>   1.3684  1.0000</r>
       <r>   1.3684  1.0000</r>
       <r>   2.0448  1.0000</r>
       <r>   2.0448  1.0000</r>
       <r>   2.0448  1.0000</r>
       <r>   2.0448  1.0000</r>
       <r>   3.3394  1.0000</r>
       <r>   3.3939  1.0000</r>
       <r>   3.3939  1.0000</r>
       <r>   3.3939  1.0000</r>
       <r>   3.3939  1.0000</r>
       <r>   4.2606  1.0000</r>
       <r>   4.2606  1.0000</r>
       <r>   5.3052  1.0000</r>
       <r>   5.3055  1.0000</r>
       <r>   5.3272  1.0000</r>
       <r>   5.3272  1.0000</r>
       <r>   5.3272  1.0000</r>
       <r>   5.3274  1.0000</r>
       <r>   5.5578  1.0000</r>
       <r>   5.5578  1.0000</r>
       <r>   6.2072  1.0000</r>
       <r>   6.2072  1.0000</r>
       <r>   6.2072  1.0000</r>
       <r>   6.2072  1.0000</r>
       <r>   6.2177  1.0000</r>
       <r>   6.6661  1.0000</r>
       <r>   6.6661  1.0000</r>
       <r>   6.8570  0.5734</r>
       <r>   6.8570  0.5734</r>
       <r>   7.2991  0.0000</r>
       <r>   7.2992  0.0000</r>
       <r>   7.2992  0.0000</r>
       <r>   7.2992  0.0000</r>
       <r>   7.3359  0.0000</r>
       <r>   7.3359  0.0000</r>
       <r>   7.3359  0.0000</r>
       <r>   7.3360  0.0000</r>
       <r>   7.5058  0.0000</r>
       <r>   7.5058  0.0000</r>
       <r>   7.5059  0.0000</r>
       <r>   7.5059  0.0000</r>
       <r>   8.0038  0.0000</r>
       <r>   8.0038  0.0000</r>
       <r>   8.2137  0.0000</r>
       <r>   8.2137  0.0000</r>
       <r>   8.2137  0.0000</r>
       <r>   8.2137  0.0000</r>
       <r>   8.6641  0.0000</r>
       <r>   8.6641  0.0000</r>
       <r>   8.6641  0.0000</r>
      </set>
      <set comment="kpoint 4">
       <r>  -3.3807  1.0000</r>
       <r>  -2.3353  1.0000</r>
       <r>  -1.2970  1.0000</r>
       <r>  -1.2970  1.0000</r>
       <r>  -1.2970  1.0000</r>
       <r>  -1.2970  1.0000</r>
       <r>  -0.2681  1.0000</r>
       <r>  -0.2654  1.0000</r>
       <r>  -0.2654  1.0000</r>
       <r>  -0.2654  1.0000</r>
       <r>  -0.2631  1.0000</r>
       <r>   0.7595  1.0000</r>
       <r>   0.7595  1.0000</r>
       <r>   0.7595  1.0000</r>
       <r>   0.7595  1.0000</r>
       <r>   1.7742  1.0000</r>
       <r>   1.7763  1.0000</r>
       <r>   1.7763  1.0000</r>
       <r>   1.7775  1.0000</r>
       <r>   1.7775  1.0000</r>
       <r>   1.7787  1.0000</r>
       <r>   1.7787  1.0000</r>
       <r>   1.7808  1.0000</r>
       <r>   2.7645  1.0000</r>
       <r>   3.7976  1.0000</r>
       <r>   3.7976  1.0000</r>
       <r>   3.7976  1.0000</r>
       <r>   3.7976  1.0000</r>
       <r>   4.3281  1.0000</r>
       <r>   4.3281  1.0000</r>
       <r>   4.7647  1.0000</r>
       <r>   4.7647  1.0000</r>
       <r>   4.7647  1.0000</r>
       <r>   4.7647  1.0000</r>
       <r>   5.3009  1.0000</r>
       <r>   5.3009  1.0000</r>
       <r>   5.3771  1.0000</r>
       <r>   5.3772  1.0000</r>
       <r>   6.2748  1.0000</r>
       <r>   6.2748  1.0000</r>
       <r>   6.2748  1.0000</r>
       <r>   6.2748  1.0000</r>
       <r>   6.3998  1.0000</r>
       <r>   6.3998  1.0000</r>
       <r>   6.7461  1.0000</r>
       <r>   6.7461  1.0000</r>
       <r>   6.7461  1.0000</r>
       <r>   6.7461  1.0000</r>
       <r>   6.9206  0.0000</r>
       <r>   7.2470  0.0000</r>
       <r>   7.2470  0.0000</r>
       <r>   7.2487  0.0000</r>
       <r>   7.2487  0.0000</r>
       <r>   7.2516  0.0000</r>
       <r>   7.2516  0.0000</r>
       <r>   7.4073  0.0000</r>
       <r>   7.4073  0.0000</r>
       <r>   7.4073  0.0000</r>
       <r>   7.4073  0.0000</r>
       <r>   8.3963  0.0000</r>
       <r>   8.3963  0.0000</r>
       <r>   8.4041  0.0000</r>
       <r>   8.4041  0.0000</r>
       <r>   8.4043  0.0000</r>
       <r>   8.4043  0.0000</r>
       <r>   8.8986  0.0000</r>
       <r>   8.8986  0.0000</r>
       <r>   8.8986  0.0000</r>
      </set>
      <set comment="kpoint 5">
       <r>  -3.2788  1.0000</r>
       <r>  -2.5815  1.0000</r>
       <r>  -1.1964  1.0000</r>
       <r>  -1.1964  1.0000</r>
       <r>  -1.1964  1.0000</r>
       <r>  -1.1964  1.0000</r>
       <r>  -0.5084  1.0000</r>
       <r>  -0.5084  1.0000</r>
       <r>  -0.5084  1.0000</r>
       <r>  -0.5084  1.0000</r>
       <r>   0.1757  1.0000</r>
       <r>   0.8588  1.0000</r>
       <r>   0.8588  1.0000</r>
       <r>   0.8588  1.0000</r>
       <r>   0.8588  1.0000</r>
       <r>   1.5378  1.0000</r>
       <r>   1.5378  1.0000</r>
       <r>   1.5378  1.0000</r>
       <r>   1.5378  1.0000</r>
       <r>   2.2010  1.0000</r>
       <r>   2.2134  1.0000</r>
       <r>   2.2134  1.0000</r>
       <r>   2.2134  1.0000</r>
       <r>   2.2135  1.0000</r>
       <r>   4.2107  1.0000</r>
       <r>   4.2107  1.0000</r>
       <r>   4.2108  1.0000</r>
       <r>   4.2108  1.0000</r>
       <r>   4.2280  1.0000</r>
       <r>   4.2280  1.0000</r>
       <r>   4.2280  1.0000</r>
       <r>   4.2280  1.0000</r>
       <r>   4.4226  1.0000</r>
       <r>   4.4226  1.0000</r>
       <r>   5.0711  1.0000</r>
       <r>   5.0711  1.0000</r>
       <r>   5.4773  1.0000</r>
       <r>   5.4773  1.0000</r>
       <r>   6.1600  1.0000</r>
       <r>   6.1601  1.0000</r>
       <r>   6.1999  1.0000</r>
       <r>   6.1999  1.0000</r>
       <r>   6.2000  1.0000</r>
       <r>   6.2001  1.0000</r>
       <r>   6.3694  1.0000</r>
       <r>   6.3694  1.0000</r>
       <r>   6.3695  1.0000</r>
       <r>   6.3695  1.0000</r>
       <r>   7.0187  0.0000</r>
       <r>   7.0187  0.0000</r>
       <r>   7.0187  0.0000</r>
       <r>   7.0187  0.0000</r>
       <r>   7.5053  0.0000</r>
       <r>   7.5053  0.0000</r>
       <r>   7.5053  0.0000</r>
       <r>   7.5053  0.0000</r>
       <r>   7.6631  0.0000</r>
       <r>   7.6699  0.0000</r>
       <r>   7.6699  0.0000</r>
       <r>   8.1704  0.0000</r>
       <r>   8.1704  0.0000</r>
       <r>   8.1704  0.0000</r>
       <r>   8.1704  0.0000</r>
       <r>   8.8119  0.0000</r>
       <r>   8.8119  0.0000</r>
       <r>   9.6196  0.0000</r>
       <r>   9.6219  0.0000</r>
       <r>   9.6226  0.0000</r>
      </set>
      <set comment="kpoint 6">
       <r>  -3.1478  1.0000</r>
       <r>  -2.7991  1.0000</r>
       <r>  -1.0672  1.0000</r>
       <r>  -1.0672  1.0000</r>
       <r>  -1.0672  1.0000</r>
       <r>  -1.0672  1.0000</r>
       <r>  -0.7231  1.0000</r>
       <r>  -0.7231  1.0000</r>
       <r>  -0.7231  1.0000</r>
       <r>  -0.7231  1.0000</r>
       <r>   0.6439  1.0000</r>
       <r>   0.9863  1.0000</r>
       <r>   0.9863  1.0000</r>
       <r>   0.9863  1.0000</r>
       <r>   0.9863  1.0000</r>
       <r>   1.3259  1.0000</r>
       <r>   1.3259  1.0000</r>
       <r>   1.3259  1.0000</r>
       <r>   1.3259  1.0000</r>
       <r>   1.6579  1.0000</r>
       <r>   2.6756  1.0000</r>
       <r>   2.6756  1.0000</r>
       <r>   2.6756  1.0000</r>
       <r>   2.6756  1.0000</r>
       <r>   3.6757  1.0000</r>
       <r>   3.6757  1.0000</r>
       <r>   3.6757  1.0000</r>
       <r>   3.6757  1.0000</r>
       <r>   4.5441  1.0000</r>
       <r>   4.5441  1.0000</r>
       <r>   4.6844  1.0000</r>
       <r>   4.6844  1.0000</r>
       <r>   4.6844  1.0000</r>
       <r>   4.6844  1.0000</r>
       <r>   4.8684  1.0000</r>
       <r>   4.8684  1.0000</r>
       <r>   5.6059  1.0000</r>
       <r>   5.6060  1.0000</r>
       <r>   5.6719  1.0000</r>
       <r>   5.6719  1.0000</r>
       <r>   5.6719  1.0000</r>
       <r>   5.6720  1.0000</r>
       <r>   5.9476  1.0000</r>
       <r>   5.9476  1.0000</r>
       <r>   6.4911  1.0000</r>
       <r>   6.4911  1.0000</r>
       <r>   6.4912  1.0000</r>
       <r>   6.4912  1.0000</r>
       <r>   6.8158  1.0000</r>
       <r>   6.8158  1.0000</r>
       <r>   6.8158  1.0000</r>
       <r>   6.8158  1.0000</r>
       <r>   7.6307  0.0000</r>
       <r>   7.6307  0.0000</r>
       <r>   7.6307  0.0000</r>
       <r>   7.6307  0.0000</r>
       <r>   7.9634  0.0000</r>
       <r>   7.9634  0.0000</r>
       <r>   7.9634  0.0000</r>
       <r>   7.9634  0.0000</r>
       <r>   8.1171  0.0000</r>
       <r>   8.1171  0.0000</r>
       <r>   8.4362  0.0000</r>
       <r>   9.0932  0.0000</r>
       <r>   9.0932  0.0000</r>
       <r>   9.2476  0.0000</r>
       <r>   9.2476  0.0000</r>
       <r>  10.0632  0.0000</r>
      </set>
      <set comment="kpoint 7">
       <r>  -2.9892  1.0000</r>
       <r>  -2.9866  1.0000</r>
       <r>  -0.9131  1.0000</r>
       <r>  -0.9102  1.0000</r>
       <r>  -0.9102  1.0000</r>
       <r>  -0.9095  1.0000</r>
       <r>  -0.9093  1.0000</r>
       <r>  -0.9086  1.0000</r>
       <r>  -0.9086  1.0000</r>
       <r>  -0.9057  1.0000</r>
       <r>   1.1354  1.0000</r>
       <r>   1.1384  1.0000</r>
       <r>   1.1409  1.0000</r>
       <r>   1.1409  1.0000</r>
       <r>   1.1410  1.0000</r>
       <r>   1.1417  1.0000</r>
       <r>   1.1424  1.0000</r>
       <r>   1.1432  1.0000</r>
       <r>   1.1432  1.0000</r>
       <r>   1.1458  1.0000</r>
       <r>   3.1620  1.0000</r>
       <r>   3.1626  1.0000</r>
       <r>   3.1626  1.0000</r>
       <r>   3.1632  1.0000</r>
       <r>   3.1635  1.0000</r>
       <r>   3.1641  1.0000</r>
       <r>   3.1641  1.0000</r>
       <r>   3.1647  1.0000</r>
       <r>   4.6913  1.0000</r>
       <r>   4.6913  1.0000</r>
       <r>   4.6941  1.0000</r>
       <r>   4.6941  1.0000</r>
       <r>   5.1650  1.0000</r>
       <r>   5.1650  1.0000</r>
       <r>   5.1657  1.0000</r>
       <r>   5.1657  1.0000</r>
       <r>   5.1664  1.0000</r>
       <r>   5.1665  1.0000</r>
       <r>   5.1672  1.0000</r>
       <r>   5.1672  1.0000</r>
       <r>   5.7611  1.0000</r>
       <r>   5.7619  1.0000</r>
       <r>   5.7637  1.0000</r>
       <r>   5.7645  1.0000</r>
       <r>   6.6377  1.0000</r>
       <r>   6.6377  1.0000</r>
       <r>   6.6387  1.0000</r>
       <r>   6.6399  1.0000</r>
       <r>   6.6400  1.0000</r>
       <r>   6.6412  1.0000</r>
       <r>   6.6421  1.0000</r>
       <r>   6.6421  1.0000</r>
       <r>   7.7812  0.0000</r>
       <r>   7.7825  0.0000</r>
       <r>   7.7825  0.0000</r>
       <r>   7.7826  0.0000</r>
       <r>   7.7844  0.0000</r>
       <r>   7.7844  0.0000</r>
       <r>   7.7844  0.0000</r>
       <r>   7.7857  0.0000</r>
       <r>   8.5904  0.0000</r>
       <r>   8.5904  0.0000</r>
       <r>   8.5927  0.0000</r>
       <r>   8.5927  0.0000</r>
       <r>   9.2355  0.0000</r>
       <r>   9.2371  0.0000</r>
       <r>   9.7000  0.0000</r>
       <r>   9.7007  0.0000</r>
      </set>
      <set comment="kpoint 8">
       <r>  -3.4973  1.0000</r>
       <r>  -1.7576  1.0000</r>
       <r>  -1.4147  1.0000</r>
       <r>  -1.4120  1.0000</r>
       <r>  -1.4120  1.0000</r>
       <r>  -1.4093  1.0000</r>
       <r>  -1.0672  1.0000</r>
       <r>   0.3021  1.0000</r>
       <r>   0.3048  1.0000</r>
       <r>   0.3048  1.0000</r>
       <r>   0.3075  1.0000</r>
       <r>   0.6439  1.0000</r>
       <r>   0.6450  1.0000</r>
       <r>   0.6470  1.0000</r>
       <r>   0.6481  1.0000</r>
       <r>   0.9837  1.0000</r>
       <r>   0.9864  1.0000</r>
       <r>   0.9864  1.0000</r>
       <r>   0.9891  1.0000</r>
       <r>   2.3367  1.0000</r>
       <r>   2.3378  1.0000</r>
       <r>   2.3398  1.0000</r>
       <r>   2.3409  1.0000</r>
       <r>   3.0159  1.0000</r>
       <r>   3.0169  1.0000</r>
       <r>   3.0190  1.0000</r>
       <r>   3.0201  1.0000</r>
       <r>   3.8908  1.0000</r>
       <r>   4.2201  1.0000</r>
       <r>   4.2201  1.0000</r>
       <r>   5.2624  1.0000</r>
       <r>   5.2624  1.0000</r>
       <r>   5.5895  1.0000</r>
       <r>   5.8416  1.0000</r>
       <r>   5.8418  1.0000</r>
       <r>   5.8566  1.0000</r>
       <r>   5.8593  1.0000</r>
       <r>   5.8594  1.0000</r>
       <r>   5.8624  1.0000</r>
       <r>   6.1641  1.0000</r>
       <r>   6.1666  1.0000</r>
       <r>   6.1666  1.0000</r>
       <r>   6.1691  1.0000</r>
       <r>   6.4915  1.0000</r>
       <r>   6.4915  1.0000</r>
       <r>   6.9567  0.0000</r>
       <r>   6.9567  0.0000</r>
       <r>   7.2831  0.0000</r>
       <r>   7.2852  0.0000</r>
       <r>   7.2853  0.0000</r>
       <r>   7.2874  0.0000</r>
       <r>   7.6135  0.0000</r>
       <r>   7.6155  0.0000</r>
       <r>   7.6156  0.0000</r>
       <r>   7.6176  0.0000</r>
       <r>   7.6370  0.0000</r>
       <r>   7.6370  0.0000</r>
       <r>   7.7874  0.0000</r>
       <r>   7.7899  0.0000</r>
       <r>   7.7900  0.0000</r>
       <r>   7.7925  0.0000</r>
       <r>   7.8167  0.0000</r>
       <r>   7.8183  0.0000</r>
       <r>   7.8202  0.0000</r>
       <r>   7.8218  0.0000</r>
       <r>   8.4379  0.0000</r>
       <r>   8.4396  0.0000</r>
       <r>   8.4413  0.0000</r>
      </set>
      <set comment="kpoint 9">
       <r>  -3.4827  1.0000</r>
       <r>  -1.7443  1.0000</r>
       <r>  -1.7421  1.0000</r>
       <r>  -1.3976  1.0000</r>
       <r>  -1.3976  1.0000</r>
       <r>  -1.0539  1.0000</r>
       <r>  -1.0517  1.0000</r>
       <r>  -0.0228  1.0000</r>
       <r>   0.3175  1.0000</r>
       <r>   0.3184  1.0000</r>
       <r>   0.3197  1.0000</r>
       <r>   0.3206  1.0000</r>
       <r>   0.6596  1.0000</r>
       <r>   0.6607  1.0000</r>
       <r>   0.9990  1.0000</r>
       <r>   0.9999  1.0000</r>
       <r>   1.0012  1.0000</r>
       <r>   1.0021  1.0000</r>
       <r>   1.3403  1.0000</r>
       <r>   2.0166  1.0000</r>
       <r>   2.0166  1.0000</r>
       <r>   2.6490  1.0000</r>
       <r>   2.6490  1.0000</r>
       <r>   2.7364  1.0000</r>
       <r>   2.7364  1.0000</r>
       <r>   3.3662  1.0000</r>
       <r>   3.3662  1.0000</r>
       <r>   3.9041  1.0000</r>
       <r>   3.9050  1.0000</r>
       <r>   4.2336  1.0000</r>
       <r>   5.2768  1.0000</r>
       <r>   5.5446  1.0000</r>
       <r>   5.5467  1.0000</r>
       <r>   5.6032  1.0000</r>
       <r>   5.6041  1.0000</r>
       <r>   5.8541  1.0000</r>
       <r>   5.8565  1.0000</r>
       <r>   5.8658  1.0000</r>
       <r>   5.8659  1.0000</r>
       <r>   5.8804  1.0000</r>
       <r>   5.8805  1.0000</r>
       <r>   6.1992  1.0000</r>
       <r>   6.2005  1.0000</r>
       <r>   6.5038  1.0000</r>
       <r>   6.5062  1.0000</r>
       <r>   6.9733  0.0000</r>
       <r>   6.9752  0.0000</r>
       <r>   7.2728  0.0000</r>
       <r>   7.2743  0.0000</r>
       <r>   7.4787  0.0000</r>
       <r>   7.5053  0.0000</r>
       <r>   7.5062  0.0000</r>
       <r>   7.5075  0.0000</r>
       <r>   7.5084  0.0000</r>
       <r>   7.5564  0.0000</r>
       <r>   7.5564  0.0000</r>
       <r>   7.6545  0.0000</r>
       <r>   7.6560  0.0000</r>
       <r>   7.6766  0.0000</r>
       <r>   7.6767  0.0000</r>
       <r>   7.9488  0.0000</r>
       <r>   7.9507  0.0000</r>
       <r>   8.1275  0.0000</r>
       <r>   8.1293  0.0000</r>
       <r>   8.1573  0.0000</r>
       <r>   8.1584  0.0000</r>
       <r>   8.1586  0.0000</r>
       <r>   8.1596  0.0000</r>
      </set>
      <set comment="kpoint 10">
       <r>  -3.4390  1.0000</r>
       <r>  -2.0462  1.0000</r>
       <r>  -1.7000  1.0000</r>
       <r>  -1.3545  1.0000</r>
       <r>  -1.3545  1.0000</r>
       <r>  -1.0098  1.0000</r>
       <r>  -0.6659  1.0000</r>
       <r>  -0.3225  1.0000</r>
       <r>   0.0200  1.0000</r>
       <r>   0.0200  1.0000</r>
       <r>   0.3611  1.0000</r>
       <r>   0.3617  1.0000</r>
       <r>   0.3623  1.0000</r>
       <r>   1.0423  1.0000</r>
       <r>   1.0431  1.0000</r>
       <r>   1.0436  1.0000</r>
       <r>   1.3825  1.0000</r>
       <r>   1.3826  1.0000</r>
       <r>   1.7207  1.0000</r>
       <r>   1.7211  1.0000</r>
       <r>   1.7218  1.0000</r>
       <r>   2.3951  1.0000</r>
       <r>   2.3951  1.0000</r>
       <r>   3.0735  1.0000</r>
       <r>   3.0735  1.0000</r>
       <r>   3.3533  1.0000</r>
       <r>   3.7423  1.0000</r>
       <r>   3.7423  1.0000</r>
       <r>   3.9456  1.0000</r>
       <r>   4.2741  1.0000</r>
       <r>   5.0109  1.0000</r>
       <r>   5.2590  1.0000</r>
       <r>   5.3197  1.0000</r>
       <r>   5.3409  1.0000</r>
       <r>   5.3410  1.0000</r>
       <r>   5.5713  1.0000</r>
       <r>   5.6460  1.0000</r>
       <r>   5.6703  1.0000</r>
       <r>   5.8959  1.0000</r>
       <r>   5.9142  1.0000</r>
       <r>   5.9142  1.0000</r>
       <r>   6.2317  1.0000</r>
       <r>   6.5456  1.0000</r>
       <r>   6.5633  1.0000</r>
       <r>   6.6862  1.0000</r>
       <r>   6.8706  0.0421</r>
       <r>   6.9853  0.0000</r>
       <r>   6.9854  0.0000</r>
       <r>   6.9895  0.0000</r>
       <r>   7.0180  0.0000</r>
       <r>   7.1945  0.0000</r>
       <r>   7.2214  0.0000</r>
       <r>   7.2214  0.0000</r>
       <r>   7.6395  0.0000</r>
       <r>   7.6397  0.0000</r>
       <r>   7.6523  0.0000</r>
       <r>   7.6525  0.0000</r>
       <r>   7.6687  0.0000</r>
       <r>   7.8443  0.0000</r>
       <r>   7.9117  0.0000</r>
       <r>   8.0183  0.0000</r>
       <r>   8.2289  0.0000</r>
       <r>   8.2289  0.0000</r>
       <r>   8.3160  0.0000</r>
       <r>   8.3501  0.0000</r>
       <r>   8.4941  0.0000</r>
       <r>   8.5244  0.0000</r>
       <r>   8.5271  0.0000</r>
      </set>
      <set comment="kpoint 11">
       <r>  -3.3661  1.0000</r>
       <r>  -2.3209  1.0000</r>
       <r>  -1.6279  1.0000</r>
       <r>  -1.2826  1.0000</r>
       <r>  -1.2826  1.0000</r>
       <r>  -0.9381  1.0000</r>
       <r>  -0.5942  1.0000</r>
       <r>  -0.2531  1.0000</r>
       <r>  -0.2512  1.0000</r>
       <r>  -0.2496  1.0000</r>
       <r>   0.0912  1.0000</r>
       <r>   0.4328  1.0000</r>
       <r>   0.4328  1.0000</r>
       <r>   1.1138  1.0000</r>
       <r>   1.1138  1.0000</r>
       <r>   1.4512  1.0000</r>
       <r>   1.4530  1.0000</r>
       <r>   1.4547  1.0000</r>
       <r>   1.7916  1.0000</r>
       <r>   1.7916  1.0000</r>
       <r>   2.1277  1.0000</r>
       <r>   2.1293  1.0000</r>
       <r>   2.1313  1.0000</r>
       <r>   2.7785  1.0000</r>
       <r>   3.4771  1.0000</r>
       <r>   3.4771  1.0000</r>
       <r>   4.0141  1.0000</r>
       <r>   4.1454  1.0000</r>
       <r>   4.1454  1.0000</r>
       <r>   4.3416  1.0000</r>
       <r>   4.4467  1.0000</r>
       <r>   4.7786  1.0000</r>
       <r>   4.7786  1.0000</r>
       <r>   4.9994  1.0000</r>
       <r>   5.1097  1.0000</r>
       <r>   5.3144  1.0000</r>
       <r>   5.3915  1.0000</r>
       <r>   5.7167  1.0000</r>
       <r>   5.9635  1.0000</r>
       <r>   5.9823  1.0000</r>
       <r>   5.9823  1.0000</r>
       <r>   6.4134  1.0000</r>
       <r>   6.4309  1.0000</r>
       <r>   6.4310  1.0000</r>
       <r>   6.6132  1.0000</r>
       <r>   6.7264  1.0000</r>
       <r>   6.9344  0.0000</r>
       <r>   6.9374  0.0000</r>
       <r>   6.9614  0.0000</r>
       <r>   6.9630  0.0000</r>
       <r>   6.9656  0.0000</r>
       <r>   7.0879  0.0000</r>
       <r>   7.0879  0.0000</r>
       <r>   7.0885  0.0000</r>
       <r>   7.2634  0.0000</r>
       <r>   7.5872  0.0000</r>
       <r>   7.7243  0.0000</r>
       <r>   7.7243  0.0000</r>
       <r>   7.7504  0.0000</r>
       <r>   8.0889  0.0000</r>
       <r>   8.4105  0.0000</r>
       <r>   8.5887  0.0000</r>
       <r>   8.7067  0.0000</r>
       <r>   8.7144  0.0000</r>
       <r>   8.7146  0.0000</r>
       <r>   8.7442  0.0000</r>
       <r>   8.8891  0.0000</r>
       <r>   8.9144  0.0000</r>
      </set>
      <set comment="kpoint 12">
       <r>  -3.2642  1.0000</r>
       <r>  -2.5671  1.0000</r>
       <r>  -1.5271  1.0000</r>
       <r>  -1.1820  1.0000</r>
       <r>  -1.1820  1.0000</r>
       <r>  -0.8383  1.0000</r>
       <r>  -0.8372  1.0000</r>
       <r>  -0.4941  1.0000</r>
       <r>  -0.4941  1.0000</r>
       <r>  -0.1513  1.0000</r>
       <r>   0.1899  1.0000</r>
       <r>   0.5323  1.0000</r>
       <r>   0.5323  1.0000</r>
       <r>   1.2121  1.0000</r>
       <r>   1.2124  1.0000</r>
       <r>   1.2132  1.0000</r>
       <r>   1.2135  1.0000</r>
       <r>   1.8893  1.0000</r>
       <r>   1.8903  1.0000</r>
       <r>   1.8906  1.0000</r>
       <r>   2.2150  1.0000</r>
       <r>   2.2275  1.0000</r>
       <r>   2.2275  1.0000</r>
       <r>   2.5646  1.0000</r>
       <r>   3.8913  1.0000</r>
       <r>   3.9080  1.0000</r>
       <r>   3.9080  1.0000</r>
       <r>   4.1100  1.0000</r>
       <r>   4.2247  1.0000</r>
       <r>   4.2247  1.0000</r>
       <r>   4.4361  1.0000</r>
       <r>   4.5573  1.0000</r>
       <r>   4.5750  1.0000</r>
       <r>   4.5750  1.0000</r>
       <r>   4.7670  1.0000</r>
       <r>   5.0846  1.0000</r>
       <r>   5.4917  1.0000</r>
       <r>   5.8155  1.0000</r>
       <r>   5.8837  1.0000</r>
       <r>   5.8837  1.0000</r>
       <r>   6.0582  1.0000</r>
       <r>   6.0778  1.0000</r>
       <r>   6.0778  1.0000</r>
       <r>   6.1742  1.0000</r>
       <r>   6.4895  1.0000</r>
       <r>   6.5430  1.0000</r>
       <r>   6.5431  1.0000</r>
       <r>   6.7068  1.0000</r>
       <r>   6.7085  1.0000</r>
       <r>   6.7316  1.0000</r>
       <r>   6.7316  1.0000</r>
       <r>   7.1866  0.0000</r>
       <r>   7.3572  0.0000</r>
       <r>   7.3845  0.0000</r>
       <r>   7.6769  0.0000</r>
       <r>   7.6834  0.0000</r>
       <r>   7.8218  0.0000</r>
       <r>   7.8218  0.0000</r>
       <r>   7.8492  0.0000</r>
       <r>   7.8542  0.0000</r>
       <r>   8.4821  0.0000</r>
       <r>   8.4821  0.0000</r>
       <r>   8.5117  0.0000</r>
       <r>   8.8257  0.0000</r>
       <r>   9.1209  0.0000</r>
       <r>   9.3077  0.0000</r>
       <r>   9.3216  0.0000</r>
       <r>   9.3350  0.0000</r>
      </set>
      <set comment="kpoint 13">
       <r>  -3.1333  1.0000</r>
       <r>  -2.7846  1.0000</r>
       <r>  -1.3977  1.0000</r>
       <r>  -1.0541  1.0000</r>
       <r>  -1.0528  1.0000</r>
       <r>  -1.0516  1.0000</r>
       <r>  -0.7101  1.0000</r>
       <r>  -0.7088  1.0000</r>
       <r>  -0.7075  1.0000</r>
       <r>  -0.3655  1.0000</r>
       <r>   0.6575  1.0000</r>
       <r>   0.6601  1.0000</r>
       <r>   0.6607  1.0000</r>
       <r>   1.0004  1.0000</r>
       <r>   1.0004  1.0000</r>
       <r>   1.3401  1.0000</r>
       <r>   1.3401  1.0000</r>
       <r>   1.6717  1.0000</r>
       <r>   1.6790  1.0000</r>
       <r>   1.6792  1.0000</r>
       <r>   2.3527  1.0000</r>
       <r>   2.6896  1.0000</r>
       <r>   2.6896  1.0000</r>
       <r>   3.0257  1.0000</r>
       <r>   3.3550  1.0000</r>
       <r>   3.6897  1.0000</r>
       <r>   3.6897  1.0000</r>
       <r>   4.0236  1.0000</r>
       <r>   4.2333  1.0000</r>
       <r>   4.3652  1.0000</r>
       <r>   4.3652  1.0000</r>
       <r>   4.5577  1.0000</r>
       <r>   4.5618  1.0000</r>
       <r>   4.8819  1.0000</r>
       <r>   5.0306  1.0000</r>
       <r>   5.0306  1.0000</r>
       <r>   5.3546  1.0000</r>
       <r>   5.3546  1.0000</r>
       <r>   5.6202  1.0000</r>
       <r>   5.9423  1.0000</r>
       <r>   5.9618  1.0000</r>
       <r>   6.0161  1.0000</r>
       <r>   6.0162  1.0000</r>
       <r>   6.1799  1.0000</r>
       <r>   6.2004  1.0000</r>
       <r>   6.2004  1.0000</r>
       <r>   6.2796  1.0000</r>
       <r>   6.5045  1.0000</r>
       <r>   6.5274  1.0000</r>
       <r>   6.5274  1.0000</r>
       <r>   6.8296  1.0000</r>
       <r>   7.1543  0.0000</r>
       <r>   7.3123  0.0000</r>
       <r>   7.6464  0.0000</r>
       <r>   7.8319  0.0000</r>
       <r>   7.9463  0.0000</r>
       <r>   7.9463  0.0000</r>
       <r>   7.9743  0.0000</r>
       <r>   8.1306  0.0000</r>
       <r>   8.2766  0.0000</r>
       <r>   8.2766  0.0000</r>
       <r>   8.3057  0.0000</r>
       <r>   8.4499  0.0000</r>
       <r>   8.8042  0.0000</r>
       <r>   9.1068  0.0000</r>
       <r>   9.2612  0.0000</r>
       <r>   9.5554  0.0000</r>
       <r>   9.7607  0.0000</r>
      </set>
      <set comment="kpoint 14">
       <r>  -2.9747  1.0000</r>
       <r>  -2.9720  1.0000</r>
       <r>  -1.2409  1.0000</r>
       <r>  -1.2382  1.0000</r>
       <r>  -0.8970  1.0000</r>
       <r>  -0.8958  1.0000</r>
       <r>  -0.8943  1.0000</r>
       <r>  -0.8932  1.0000</r>
       <r>  -0.5527  1.0000</r>
       <r>  -0.5500  1.0000</r>
       <r>   0.8142  1.0000</r>
       <r>   0.8154  1.0000</r>
       <r>   0.8169  1.0000</r>
       <r>   0.8180  1.0000</r>
       <r>   1.1517  1.0000</r>
       <r>   1.1532  1.0000</r>
       <r>   1.4936  1.0000</r>
       <r>   1.4948  1.0000</r>
       <r>   1.4963  1.0000</r>
       <r>   1.4974  1.0000</r>
       <r>   2.8408  1.0000</r>
       <r>   2.8423  1.0000</r>
       <r>   3.1766  1.0000</r>
       <r>   3.1766  1.0000</r>
       <r>   3.1781  1.0000</r>
       <r>   3.1781  1.0000</r>
       <r>   3.5117  1.0000</r>
       <r>   3.5131  1.0000</r>
       <r>   4.3825  1.0000</r>
       <r>   4.3853  1.0000</r>
       <r>   4.7048  1.0000</r>
       <r>   4.7076  1.0000</r>
       <r>   4.8470  1.0000</r>
       <r>   4.8471  1.0000</r>
       <r>   4.8485  1.0000</r>
       <r>   4.8486  1.0000</r>
       <r>   5.5105  1.0000</r>
       <r>   5.5106  1.0000</r>
       <r>   5.5120  1.0000</r>
       <r>   5.5121  1.0000</r>
       <r>   5.7758  1.0000</r>
       <r>   5.7783  1.0000</r>
       <r>   6.0958  1.0000</r>
       <r>   6.0984  1.0000</r>
       <r>   6.3272  1.0000</r>
       <r>   6.3301  1.0000</r>
       <r>   6.3482  1.0000</r>
       <r>   6.3496  1.0000</r>
       <r>   6.3510  1.0000</r>
       <r>   6.3524  1.0000</r>
       <r>   6.9770  0.0000</r>
       <r>   6.9798  0.0000</r>
       <r>   7.4644  0.0000</r>
       <r>   7.4669  0.0000</r>
       <r>   8.0962  0.0000</r>
       <r>   8.0970  0.0000</r>
       <r>   8.0988  0.0000</r>
       <r>   8.0996  0.0000</r>
       <r>   8.1252  0.0000</r>
       <r>   8.1278  0.0000</r>
       <r>   8.3043  0.0000</r>
       <r>   8.3063  0.0000</r>
       <r>   8.6040  0.0000</r>
       <r>   8.6062  0.0000</r>
       <r>   9.2491  0.0000</r>
       <r>   9.2507  0.0000</r>
       <r>   9.7134  0.0000</r>
       <r>   9.7141  0.0000</r>
      </set>
      <set comment="kpoint 15">
       <r>  -3.4536  1.0000</r>
       <r>  -2.0606  1.0000</r>
       <r>  -1.3715  1.0000</r>
       <r>  -1.3688  1.0000</r>
       <r>  -1.3688  1.0000</r>
       <r>  -1.3662  1.0000</r>
       <r>  -0.6802  1.0000</r>
       <r>   0.0030  1.0000</r>
       <r>   0.0057  1.0000</r>
       <r>   0.0057  1.0000</r>
       <r>   0.0084  1.0000</r>
       <r>   0.6865  1.0000</r>
       <r>   0.6876  1.0000</r>
       <r>   0.6896  1.0000</r>
       <r>   0.6907  1.0000</r>
       <r>   1.3657  1.0000</r>
       <r>   1.3684  1.0000</r>
       <r>   1.3684  1.0000</r>
       <r>   1.3711  1.0000</r>
       <r>   2.0427  1.0000</r>
       <r>   2.0438  1.0000</r>
       <r>   2.0458  1.0000</r>
       <r>   2.0469  1.0000</r>
       <r>   3.3394  1.0000</r>
       <r>   3.3918  1.0000</r>
       <r>   3.3929  1.0000</r>
       <r>   3.3949  1.0000</r>
       <r>   3.3960  1.0000</r>
       <r>   4.2606  1.0000</r>
       <r>   4.2606  1.0000</r>
       <r>   5.3054  1.0000</r>
       <r>   5.3055  1.0000</r>
       <r>   5.3243  1.0000</r>
       <r>   5.3272  1.0000</r>
       <r>   5.3272  1.0000</r>
       <r>   5.3300  1.0000</r>
       <r>   5.5578  1.0000</r>
       <r>   5.5579  1.0000</r>
       <r>   6.2046  1.0000</r>
       <r>   6.2071  1.0000</r>
       <r>   6.2072  1.0000</r>
       <r>   6.2097  1.0000</r>
       <r>   6.2178  1.0000</r>
       <r>   6.6661  1.0000</r>
       <r>   6.6661  1.0000</r>
       <r>   6.8571  0.5731</r>
       <r>   6.8571  0.5727</r>
       <r>   7.2969  0.0000</r>
       <r>   7.2982  0.0000</r>
       <r>   7.3003  0.0000</r>
       <r>   7.3016  0.0000</r>
       <r>   7.3339  0.0000</r>
       <r>   7.3359  0.0000</r>
       <r>   7.3359  0.0000</r>
       <r>   7.3379  0.0000</r>
       <r>   7.5033  0.0000</r>
       <r>   7.5058  0.0000</r>
       <r>   7.5059  0.0000</r>
       <r>   7.5084  0.0000</r>
       <r>   8.0038  0.0000</r>
       <r>   8.0038  0.0000</r>
       <r>   8.2112  0.0000</r>
       <r>   8.2137  0.0000</r>
       <r>   8.2137  0.0000</r>
       <r>   8.2161  0.0000</r>
       <r>   8.6628  0.0000</r>
       <r>   8.6641  0.0000</r>
       <r>   8.6652  0.0000</r>
      </set>
      <set comment="kpoint 16">
       <r>  -3.4390  1.0000</r>
       <r>  -2.0462  1.0000</r>
       <r>  -1.7000  1.0000</r>
       <r>  -1.3545  1.0000</r>
       <r>  -1.3545  1.0000</r>
       <r>  -1.0098  1.0000</r>
       <r>  -0.6659  1.0000</r>
       <r>  -0.3226  1.0000</r>
       <r>   0.0199  1.0000</r>
       <r>   0.0200  1.0000</r>
       <r>   0.3603  1.0000</r>
       <r>   0.3617  1.0000</r>
       <r>   0.3631  1.0000</r>
       <r>   1.0416  1.0000</r>
       <r>   1.0431  1.0000</r>
       <r>   1.0444  1.0000</r>
       <r>   1.3826  1.0000</r>
       <r>   1.3826  1.0000</r>
       <r>   1.7207  1.0000</r>
       <r>   1.7211  1.0000</r>
       <r>   1.7218  1.0000</r>
       <r>   2.3951  1.0000</r>
       <r>   2.3951  1.0000</r>
       <r>   3.0735  1.0000</r>
       <r>   3.0735  1.0000</r>
       <r>   3.3533  1.0000</r>
       <r>   3.7423  1.0000</r>
       <r>   3.7423  1.0000</r>
       <r>   3.9456  1.0000</r>
       <r>   4.2741  1.0000</r>
       <r>   5.0109  1.0000</r>
       <r>   5.2589  1.0000</r>
       <r>   5.3198  1.0000</r>
       <r>   5.3409  1.0000</r>
       <r>   5.3409  1.0000</r>
       <r>   5.5713  1.0000</r>
       <r>   5.6460  1.0000</r>
       <r>   5.6703  1.0000</r>
       <r>   5.8959  1.0000</r>
       <r>   5.9142  1.0000</r>
       <r>   5.9143  1.0000</r>
       <r>   6.2317  1.0000</r>
       <r>   6.5456  1.0000</r>
       <r>   6.5633  1.0000</r>
       <r>   6.6862  1.0000</r>
       <r>   6.8706  0.0420</r>
       <r>   6.9854  0.0000</r>
       <r>   6.9854  0.0000</r>
       <r>   6.9895  0.0000</r>
       <r>   7.0180  0.0000</r>
       <r>   7.1945  0.0000</r>
       <r>   7.2215  0.0000</r>
       <r>   7.2215  0.0000</r>
       <r>   7.6398  0.0000</r>
       <r>   7.6398  0.0000</r>
       <r>   7.6522  0.0000</r>
       <r>   7.6523  0.0000</r>
       <r>   7.6688  0.0000</r>
       <r>   7.8443  0.0000</r>
       <r>   7.9117  0.0000</r>
       <r>   8.0183  0.0000</r>
       <r>   8.2289  0.0000</r>
       <r>   8.2289  0.0000</r>
       <r>   8.3159  0.0000</r>
       <r>   8.3501  0.0000</r>
       <r>   8.4940  0.0000</r>
       <r>   8.5244  0.0000</r>
       <r>   8.5260  0.0000</r>
      </set>
      <set comment="kpoint 17">
       <r>  -3.3953  1.0000</r>
       <r>  -2.0040  1.0000</r>
       <r>  -2.0018  1.0000</r>
       <r>  -1.3114  1.0000</r>
       <r>  -1.3113  1.0000</r>
       <r>  -0.6247  1.0000</r>
       <r>  -0.6229  1.0000</r>
       <r>  -0.6212  1.0000</r>
       <r>   0.0612  1.0000</r>
       <r>   0.0621  1.0000</r>
       <r>   0.0633  1.0000</r>
       <r>   0.0642  1.0000</r>
       <r>   0.7446  1.0000</r>
       <r>   0.7457  1.0000</r>
       <r>   1.4225  1.0000</r>
       <r>   1.4237  1.0000</r>
       <r>   1.4248  1.0000</r>
       <r>   1.4249  1.0000</r>
       <r>   1.4260  1.0000</r>
       <r>   1.4273  1.0000</r>
       <r>   2.1017  1.0000</r>
       <r>   2.7353  1.0000</r>
       <r>   2.7353  1.0000</r>
       <r>   2.8179  1.0000</r>
       <r>   2.8179  1.0000</r>
       <r>   3.3944  1.0000</r>
       <r>   3.3954  1.0000</r>
       <r>   4.1179  1.0000</r>
       <r>   4.1179  1.0000</r>
       <r>   4.3146  1.0000</r>
       <r>   4.7206  1.0000</r>
       <r>   4.7229  1.0000</r>
       <r>   5.3627  1.0000</r>
       <r>   5.3740  1.0000</r>
       <r>   5.3741  1.0000</r>
       <r>   5.3906  1.0000</r>
       <r>   5.3906  1.0000</r>
       <r>   5.6107  1.0000</r>
       <r>   5.6131  1.0000</r>
       <r>   6.0391  1.0000</r>
       <r>   6.0403  1.0000</r>
       <r>   6.2731  1.0000</r>
       <r>   6.2741  1.0000</r>
       <r>   6.6968  1.0000</r>
       <r>   6.6978  1.0000</r>
       <r>   6.6992  1.0000</r>
       <r>   6.7000  1.0000</r>
       <r>   6.7246  1.0000</r>
       <r>   6.7265  1.0000</r>
       <r>   6.9087  0.0000</r>
       <r>   6.9109  0.0000</r>
       <r>   6.9131  0.0000</r>
       <r>   7.5973  0.0000</r>
       <r>   7.5986  0.0000</r>
       <r>   8.0058  0.0000</r>
       <r>   8.0069  0.0000</r>
       <r>   8.0069  0.0000</r>
       <r>   8.0080  0.0000</r>
       <r>   8.0614  0.0000</r>
       <r>   8.0635  0.0000</r>
       <r>   8.0649  0.0000</r>
       <r>   8.2086  0.0000</r>
       <r>   8.2102  0.0000</r>
       <r>   8.2108  0.0000</r>
       <r>   8.2116  0.0000</r>
       <r>   8.3179  0.0000</r>
       <r>   8.3179  0.0000</r>
       <r>   8.9167  0.0000</r>
      </set>
      <set comment="kpoint 18">
       <r>  -3.3224  1.0000</r>
       <r>  -2.2775  1.0000</r>
       <r>  -1.9307  1.0000</r>
       <r>  -1.2395  1.0000</r>
       <r>  -1.2395  1.0000</r>
       <r>  -0.8951  1.0000</r>
       <r>  -0.5515  1.0000</r>
       <r>  -0.2103  1.0000</r>
       <r>  -0.2083  1.0000</r>
       <r>  -0.2068  1.0000</r>
       <r>   0.1339  1.0000</r>
       <r>   0.1339  1.0000</r>
       <r>   0.4753  1.0000</r>
       <r>   1.1542  1.0000</r>
       <r>   1.1561  1.0000</r>
       <r>   1.1577  1.0000</r>
       <r>   1.4955  1.0000</r>
       <r>   1.4955  1.0000</r>
       <r>   1.8339  1.0000</r>
       <r>   1.8339  1.0000</r>
       <r>   2.5064  1.0000</r>
       <r>   2.5076  1.0000</r>
       <r>   2.5102  1.0000</r>
       <r>   2.8204  1.0000</r>
       <r>   3.1846  1.0000</r>
       <r>   3.1846  1.0000</r>
       <r>   3.4642  1.0000</r>
       <r>   4.1558  1.0000</r>
       <r>   4.3821  1.0000</r>
       <r>   4.4598  1.0000</r>
       <r>   4.5202  1.0000</r>
       <r>   4.5202  1.0000</r>
       <r>   4.8200  1.0000</r>
       <r>   4.8200  1.0000</r>
       <r>   5.3550  1.0000</r>
       <r>   5.4344  1.0000</r>
       <r>   5.4511  1.0000</r>
       <r>   5.4511  1.0000</r>
       <r>   5.4814  1.0000</r>
       <r>   5.6795  1.0000</r>
       <r>   6.1428  1.0000</r>
       <r>   6.1428  1.0000</r>
       <r>   6.3434  1.0000</r>
       <r>   6.4158  1.0000</r>
       <r>   6.4386  1.0000</r>
       <r>   6.4386  1.0000</r>
       <r>   6.4792  1.0000</r>
       <r>   6.6532  1.0000</r>
       <r>   6.7955  1.0000</r>
       <r>   6.9760  0.0000</r>
       <r>   6.9788  0.0000</r>
       <r>   7.3040  0.0000</r>
       <r>   7.3409  0.0000</r>
       <r>   7.4563  0.0000</r>
       <r>   7.4563  0.0000</r>
       <r>   7.7995  0.0000</r>
       <r>   7.9528  0.0000</r>
       <r>   8.1053  0.0000</r>
       <r>   8.3173  0.0000</r>
       <r>   8.3285  0.0000</r>
       <r>   8.3285  0.0000</r>
       <r>   8.4003  0.0000</r>
       <r>   8.4003  0.0000</r>
       <r>   8.4526  0.0000</r>
       <r>   8.6025  0.0000</r>
       <r>   8.9550  0.0000</r>
       <r>   8.9550  0.0000</r>
       <r>   9.1086  0.0000</r>
      </set>
      <set comment="kpoint 19">
       <r>  -3.2206  1.0000</r>
       <r>  -2.5236  1.0000</r>
       <r>  -1.8298  1.0000</r>
       <r>  -1.1403  1.0000</r>
       <r>  -1.1390  1.0000</r>
       <r>  -1.1377  1.0000</r>
       <r>  -0.4526  1.0000</r>
       <r>  -0.4512  1.0000</r>
       <r>  -0.4500  1.0000</r>
[...]
       <r>   1.6651  1.0000</r>
       <r>   1.9951  1.0000</r>
       <r>   1.9971  1.0000</r>
       <r>   1.9987  1.0000</r>
       <r>   1.9989  1.0000</r>
       <r>   1.9990  1.0000</r>
       <r>   1.9993  1.0000</r>
       <r>   2.0008  1.0000</r>
       <r>   2.0029  1.0000</r>
       <r>   2.3325  1.0000</r>
       <r>   2.3346  1.0000</r>
       <r>   2.3361  1.0000</r>
       <r>   2.3364  1.0000</r>
       <r>   2.3365  1.0000</r>
       <r>   2.3367  1.0000</r>
       <r>   2.3383  1.0000</r>
       <r>   2.3403  1.0000</r>
       <r>   2.6672  1.0000</r>
       <r>   2.6694  1.0000</r>
       <r>   2.6699  1.0000</r>
       <r>   2.6721  1.0000</r>
       <r>   5.6684  1.0000</r>
       <r>   5.6705  1.0000</r>
       <r>   5.6721  1.0000</r>
       <r>   5.6724  1.0000</r>
       <r>   5.6725  1.0000</r>
       <r>   5.6727  1.0000</r>
       <r>   5.6743  1.0000</r>
       <r>   5.6764  1.0000</r>
       <r>   5.9986  1.0000</r>
       <r>   5.9995  1.0000</r>
       <r>   6.0001  1.0000</r>
       <r>   6.0011  1.0000</r>
       <r>   6.3287  1.0000</r>
       <r>   6.3297  1.0000</r>
       <r>   6.3303  1.0000</r>
       <r>   6.3312  1.0000</r>
       <r>   6.6499  1.0000</r>
       <r>   6.6521  1.0000</r>
       <r>   6.6537  1.0000</r>
       <r>   6.6540  1.0000</r>
       <r>   6.6540  1.0000</r>
       <r>   6.6543  1.0000</r>
       <r>   6.6559  1.0000</r>
       <r>   6.6581  1.0000</r>
       <r>   9.4148  0.0000</r>
       <r>   9.4169  0.0000</r>
       <r>   9.4175  0.0000</r>
       <r>   9.4196  0.0000</r>
       <r>   9.5927  0.0000</r>
       <r>   9.5937  0.0000</r>
       <r>   9.5944  0.0000</r>
       <r>   9.5953  0.0000</r>
       <r>  10.0602  0.0000</r>
       <r>  10.0615  0.0000</r>
       <r>  10.0623  0.0000</r>
       <r>  10.0626  0.0000</r>
      </set>
      <set comment="kpoint 190">
       <r>  -2.4657  1.0000</r>
       <r>  -2.4657  1.0000</r>
       <r>  -2.4657  1.0000</r>
       <r>  -2.4657  1.0000</r>
       <r>  -0.3992  1.0000</r>
       <r>  -0.3947  1.0000</r>
       <r>  -0.3947  1.0000</r>
       <r>  -0.3942  1.0000</r>
       <r>  -0.3941  1.0000</r>
       <r>  -0.3936  1.0000</r>
       <r>  -0.3936  1.0000</r>
       <r>  -0.3891  1.0000</r>
       <r>   1.6468  1.0000</r>
       <r>   1.6468  1.0000</r>
       <r>   1.6468  1.0000</r>
       <r>   1.6468  1.0000</r>
       <r>   1.6468  1.0000</r>
       <r>   1.6468  1.0000</r>
       <r>   1.6468  1.0000</r>
       <r>   1.6468  1.0000</r>
       <r>   3.6460  1.0000</r>
       <r>   3.6460  1.0000</r>
       <r>   3.6471  1.0000</r>
       <r>   3.6476  1.0000</r>
       <r>   3.6476  1.0000</r>
       <r>   3.6476  1.0000</r>
       <r>   3.6490  1.0000</r>
       <r>   3.6490  1.0000</r>
       <r>   3.6831  1.0000</r>
       <r>   3.6831  1.0000</r>
       <r>   3.6844  1.0000</r>
       <r>   3.6844  1.0000</r>
       <r>   3.6844  1.0000</r>
       <r>   3.6848  1.0000</r>
       <r>   3.6859  1.0000</r>
       <r>   3.6859  1.0000</r>
       <r>   5.1791  1.0000</r>
       <r>   5.1791  1.0000</r>
       <r>   5.1791  1.0000</r>
       <r>   5.1792  1.0000</r>
       <r>   5.6545  1.0000</r>
       <r>   5.6545  1.0000</r>
       <r>   5.6545  1.0000</r>
       <r>   5.6545  1.0000</r>
       <r>   6.2760  1.0000</r>
       <r>   6.2760  1.0000</r>
       <r>   6.2760  1.0000</r>
       <r>   6.2760  1.0000</r>
       <r>   7.6288  0.0000</r>
       <r>   7.6288  0.0000</r>
       <r>   7.6295  0.0000</r>
       <r>   7.6301  0.0000</r>
       <r>   7.6318  0.0000</r>
       <r>   7.6324  0.0000</r>
       <r>   7.6331  0.0000</r>
       <r>   7.6331  0.0000</r>
       <r>   9.0782  0.0000</r>
       <r>   9.0782  0.0000</r>
       <r>   9.0783  0.0000</r>
       <r>   9.0783  0.0000</r>
       <r>   9.0783  0.0000</r>
       <r>   9.0783  0.0000</r>
       <r>   9.0783  0.0000</r>
       <r>   9.0783  0.0000</r>
       <r>   9.7193  0.0000</r>
       <r>   9.7193  0.0000</r>
       <r>   9.7193  0.0000</r>
       <r>   9.7194  0.0000</r>
      </set>
      <set comment="kpoint 191">
       <r>  -2.4513  1.0000</r>
       <r>  -2.4512  1.0000</r>
       <r>  -2.4512  1.0000</r>
       <r>  -2.4512  1.0000</r>
       <r>  -0.7233  1.0000</r>
       <r>  -0.7232  1.0000</r>
       <r>  -0.7232  1.0000</r>
       <r>  -0.7232  1.0000</r>
       <r>  -0.0373  1.0000</r>
       <r>  -0.0373  1.0000</r>
       <r>  -0.0373  1.0000</r>
       <r>  -0.0373  1.0000</r>
       <r>   1.6609  1.0000</r>
       <r>   1.6609  1.0000</r>
       <r>   1.6609  1.0000</r>
       <r>   1.6609  1.0000</r>
       <r>   1.6609  1.0000</r>
       <r>   1.6609  1.0000</r>
       <r>   1.6609  1.0000</r>
       <r>   1.6609  1.0000</r>
       <r>   3.3445  1.0000</r>
       <r>   3.3445  1.0000</r>
       <r>   3.3446  1.0000</r>
       <r>   3.3446  1.0000</r>
       <r>   3.3446  1.0000</r>
       <r>   3.3446  1.0000</r>
       <r>   3.3447  1.0000</r>
       <r>   3.3447  1.0000</r>
       <r>   4.0145  1.0000</r>
       <r>   4.0145  1.0000</r>
       <r>   4.0146  1.0000</r>
       <r>   4.0146  1.0000</r>
       <r>   4.0146  1.0000</r>
       <r>   4.0146  1.0000</r>
       <r>   4.0146  1.0000</r>
       <r>   4.0146  1.0000</r>
       <r>   4.8763  1.0000</r>
       <r>   4.8763  1.0000</r>
       <r>   4.8763  1.0000</r>
       <r>   4.8764  1.0000</r>
       <r>   5.6688  1.0000</r>
       <r>   5.6688  1.0000</r>
       <r>   5.6688  1.0000</r>
       <r>   5.6688  1.0000</r>
       <r>   6.6037  1.0000</r>
       <r>   6.6037  1.0000</r>
       <r>   6.6037  1.0000</r>
       <r>   6.6037  1.0000</r>
       <r>   7.3169  0.0000</r>
       <r>   7.3169  0.0000</r>
       <r>   7.3169  0.0000</r>
       <r>   7.3169  0.0000</r>
       <r>   7.9716  0.0000</r>
       <r>   7.9716  0.0000</r>
       <r>   7.9716  0.0000</r>
       <r>   7.9716  0.0000</r>
       <r>   8.7921  0.0000</r>
       <r>   8.7921  0.0000</r>
       <r>   8.7922  0.0000</r>
       <r>   8.7922  0.0000</r>
       <r>   8.7922  0.0000</r>
       <r>   8.7922  0.0000</r>
       <r>   8.7923  0.0000</r>
       <r>   8.7923  0.0000</r>
       <r>   9.7359  0.0000</r>
       <r>   9.7360  0.0000</r>
       <r>   9.7361  0.0000</r>
       <r>   9.7362  0.0000</r>
      </set>
      <set comment="kpoint 192">
       <r>  -2.4078  1.0000</r>
       <r>  -2.4078  1.0000</r>
       <r>  -2.4078  1.0000</r>
       <r>  -2.4078  1.0000</r>
       <r>  -1.0243  1.0000</r>
       <r>  -1.0243  1.0000</r>
       <r>  -1.0243  1.0000</r>
       <r>  -1.0243  1.0000</r>
       <r>   0.3471  1.0000</r>
       <r>   0.3471  1.0000</r>
       <r>   0.3472  1.0000</r>
       <r>   0.3472  1.0000</r>
       <r>   1.7032  1.0000</r>
       <r>   1.7032  1.0000</r>
       <r>   1.7032  1.0000</r>
       <r>   1.7032  1.0000</r>
       <r>   1.7032  1.0000</r>
       <r>   1.7032  1.0000</r>
       <r>   1.7032  1.0000</r>
       <r>   1.7032  1.0000</r>
       <r>   3.0512  1.0000</r>
       <r>   3.0512  1.0000</r>
       <r>   3.0513  1.0000</r>
       <r>   3.0513  1.0000</r>
       <r>   3.0513  1.0000</r>
       <r>   3.0513  1.0000</r>
       <r>   3.0513  1.0000</r>
       <r>   3.0513  1.0000</r>
       <r>   4.3356  1.0000</r>
       <r>   4.3356  1.0000</r>
       <r>   4.3356  1.0000</r>
       <r>   4.3356  1.0000</r>
       <r>   4.3893  1.0000</r>
       <r>   4.3893  1.0000</r>
       <r>   4.3893  1.0000</r>
       <r>   4.3893  1.0000</r>
       <r>   4.3893  1.0000</r>
       <r>   4.3893  1.0000</r>
       <r>   4.3893  1.0000</r>
       <r>   4.3893  1.0000</r>
       <r>   5.7103  1.0000</r>
       <r>   5.7103  1.0000</r>
       <r>   5.7103  1.0000</r>
       <r>   5.7104  1.0000</r>
       <r>   7.0296  0.0000</r>
       <r>   7.0296  0.0000</r>
       <r>   7.0296  0.0000</r>
       <r>   7.0296  0.0000</r>
       <r>   7.2203  0.0000</r>
       <r>   7.2203  0.0000</r>
       <r>   7.2203  0.0000</r>
       <r>   7.2203  0.0000</r>
       <r>   8.2722  0.0000</r>
       <r>   8.2722  0.0000</r>
       <r>   8.2723  0.0000</r>
       <r>   8.2723  0.0000</r>
       <r>   8.2723  0.0000</r>
       <r>   8.2724  0.0000</r>
       <r>   8.2724  0.0000</r>
       <r>   8.2724  0.0000</r>
       <r>   8.3386  0.0000</r>
       <r>   8.3386  0.0000</r>
       <r>   8.3386  0.0000</r>
       <r>   8.3386  0.0000</r>
       <r>   9.7780  0.0000</r>
       <r>   9.7781  0.0000</r>
       <r>   9.7781  0.0000</r>
       <r>   9.7782  0.0000</r>
      </set>
      <set comment="kpoint 193">
       <r>  -2.3355  1.0000</r>
       <r>  -2.3355  1.0000</r>
       <r>  -2.3355  1.0000</r>
       <r>  -2.3355  1.0000</r>
       <r>  -1.2972  1.0000</r>
       <r>  -1.2972  1.0000</r>
       <r>  -1.2972  1.0000</r>
       <r>  -1.2972  1.0000</r>
       <r>   0.7589  1.0000</r>
       <r>   0.7589  1.0000</r>
       <r>   0.7589  1.0000</r>
       <r>   0.7589  1.0000</r>
       <r>   1.7736  1.0000</r>
       <r>   1.7736  1.0000</r>
       <r>   1.7736  1.0000</r>
       <r>   1.7737  1.0000</r>
       <r>   1.7737  1.0000</r>
       <r>   1.7737  1.0000</r>
       <r>   1.7737  1.0000</r>
       <r>   1.7737  1.0000</r>
       <r>   2.7853  1.0000</r>
       <r>   2.7853  1.0000</r>
       <r>   2.7853  1.0000</r>
       <r>   2.7853  1.0000</r>
       <r>   2.7853  1.0000</r>
       <r>   2.7853  1.0000</r>
       <r>   2.7854  1.0000</r>
       <r>   2.7854  1.0000</r>
       <r>   3.7673  1.0000</r>
       <r>   3.7673  1.0000</r>
       <r>   3.7673  1.0000</r>
       <r>   3.7673  1.0000</r>
       <r>   4.7908  1.0000</r>
       <r>   4.7908  1.0000</r>
       <r>   4.7908  1.0000</r>
       <r>   4.7908  1.0000</r>
       <r>   4.7908  1.0000</r>
       <r>   4.7908  1.0000</r>
       <r>   4.7908  1.0000</r>
       <r>   4.7909  1.0000</r>
       <r>   5.7793  1.0000</r>
       <r>   5.7793  1.0000</r>
       <r>   5.7793  1.0000</r>
       <r>   5.7793  1.0000</r>
       <r>   6.7693  1.0000</r>
       <r>   6.7693  1.0000</r>
       <r>   6.7693  1.0000</r>
       <r>   6.7693  1.0000</r>
       <r>   7.7217  0.0000</r>
       <r>   7.7217  0.0000</r>
       <r>   7.7217  0.0000</r>
       <r>   7.7218  0.0000</r>
       <r>   7.7218  0.0000</r>
       <r>   7.7218  0.0000</r>
       <r>   7.7219  0.0000</r>
       <r>   7.7219  0.0000</r>
       <r>   7.9153  0.0000</r>
       <r>   7.9153  0.0000</r>
       <r>   7.9153  0.0000</r>
       <r>   7.9154  0.0000</r>
       <r>   8.7315  0.0000</r>
       <r>   8.7315  0.0000</r>
       <r>   8.7315  0.0000</r>
       <r>   8.7315  0.0000</r>
       <r>   9.8460  0.0000</r>
       <r>   9.8460  0.0000</r>
       <r>   9.8461  0.0000</r>
       <r>   9.8461  0.0000</r>
      </set>
      <set comment="kpoint 194">
       <r>  -2.2343  1.0000</r>
       <r>  -2.2342  1.0000</r>
       <r>  -2.2342  1.0000</r>
       <r>  -2.2342  1.0000</r>
       <r>  -1.5417  1.0000</r>
       <r>  -1.5417  1.0000</r>
       <r>  -1.5417  1.0000</r>
       <r>  -1.5417  1.0000</r>
       <r>   1.1975  1.0000</r>
       <r>   1.1975  1.0000</r>
       <r>   1.1975  1.0000</r>
       <r>   1.1975  1.0000</r>
       <r>   1.8722  1.0000</r>
       <r>   1.8722  1.0000</r>
       <r>   1.8722  1.0000</r>
       <r>   1.8723  1.0000</r>
       <r>   1.8723  1.0000</r>
       <r>   1.8723  1.0000</r>
       <r>   1.8723  1.0000</r>
       <r>   1.8723  1.0000</r>
       <r>   2.5470  1.0000</r>
       <r>   2.5470  1.0000</r>
       <r>   2.5470  1.0000</r>
       <r>   2.5470  1.0000</r>
       <r>   2.5470  1.0000</r>
       <r>   2.5470  1.0000</r>
       <r>   2.5470  1.0000</r>
       <r>   2.5470  1.0000</r>
       <r>   3.2087  1.0000</r>
       <r>   3.2087  1.0000</r>
       <r>   3.2087  1.0000</r>
       <r>   3.2088  1.0000</r>
       <r>   5.2187  1.0000</r>
       <r>   5.2187  1.0000</r>
       <r>   5.2187  1.0000</r>
       <r>   5.2187  1.0000</r>
       <r>   5.2187  1.0000</r>
       <r>   5.2187  1.0000</r>
       <r>   5.2187  1.0000</r>
       <r>   5.2187  1.0000</r>
       <r>   5.8758  1.0000</r>
       <r>   5.8758  1.0000</r>
       <r>   5.8758  1.0000</r>
       <r>   5.8758  1.0000</r>
       <r>   6.5361  1.0000</r>
       <r>   6.5361  1.0000</r>
       <r>   6.5361  1.0000</r>
       <r>   6.5361  1.0000</r>
       <r>   7.1788  0.0000</r>
       <r>   7.1788  0.0000</r>
       <r>   7.1789  0.0000</r>
       <r>   7.1789  0.0000</r>
       <r>   7.1789  0.0000</r>
       <r>   7.1789  0.0000</r>
       <r>   7.1789  0.0000</r>
       <r>   7.1789  0.0000</r>
       <r>   8.6510  0.0000</r>
       <r>   8.6510  0.0000</r>
       <r>   8.6510  0.0000</r>
       <r>   8.6510  0.0000</r>
       <r>   9.1502  0.0000</r>
       <r>   9.1502  0.0000</r>
       <r>   9.1502  0.0000</r>
       <r>   9.1502  0.0000</r>
       <r>   9.9406  0.0000</r>
       <r>   9.9407  0.0000</r>
       <r>   9.9407  0.0000</r>
       <r>   9.9407  0.0000</r>
      </set>
      <set comment="kpoint 195">
       <r>  -2.1042  1.0000</r>
       <r>  -2.1041  1.0000</r>
       <r>  -2.1041  1.0000</r>
       <r>  -2.1041  1.0000</r>
       <r>  -1.7578  1.0000</r>
       <r>  -1.7578  1.0000</r>
       <r>  -1.7578  1.0000</r>
       <r>  -1.7578  1.0000</r>
       <r>   1.6626  1.0000</r>
       <r>   1.6627  1.0000</r>
       <r>   1.6627  1.0000</r>
       <r>   1.6627  1.0000</r>
       <r>   1.9989  1.0000</r>
       <r>   1.9989  1.0000</r>
       <r>   1.9989  1.0000</r>
       <r>   1.9990  1.0000</r>
       <r>   1.9990  1.0000</r>
       <r>   1.9990  1.0000</r>
       <r>   1.9990  1.0000</r>
       <r>   1.9990  1.0000</r>
       <r>   2.3364  1.0000</r>
       <r>   2.3364  1.0000</r>
       <r>   2.3364  1.0000</r>
       <r>   2.3364  1.0000</r>
       <r>   2.3364  1.0000</r>
       <r>   2.3365  1.0000</r>
       <r>   2.3365  1.0000</r>
       <r>   2.3365  1.0000</r>
       <r>   2.6696  1.0000</r>
       <r>   2.6696  1.0000</r>
       <r>   2.6696  1.0000</r>
       <r>   2.6697  1.0000</r>
       <r>   5.6724  1.0000</r>
       <r>   5.6724  1.0000</r>
       <r>   5.6724  1.0000</r>
       <r>   5.6724  1.0000</r>
       <r>   5.6724  1.0000</r>
       <r>   5.6724  1.0000</r>
       <r>   5.6724  1.0000</r>
       <r>   5.6724  1.0000</r>
       <r>   5.9998  1.0000</r>
       <r>   5.9998  1.0000</r>
       <r>   5.9998  1.0000</r>
       <r>   5.9998  1.0000</r>
       <r>   6.3300  1.0000</r>
       <r>   6.3300  1.0000</r>
       <r>   6.3300  1.0000</r>
       <r>   6.3300  1.0000</r>
       <r>   6.6540  1.0000</r>
       <r>   6.6540  1.0000</r>
       <r>   6.6540  1.0000</r>
       <r>   6.6540  1.0000</r>
       <r>   6.6540  1.0000</r>
       <r>   6.6540  1.0000</r>
       <r>   6.6541  1.0000</r>
       <r>   6.6541  1.0000</r>
       <r>   9.4172  0.0000</r>
       <r>   9.4172  0.0000</r>
       <r>   9.4172  0.0000</r>
       <r>   9.4172  0.0000</r>
       <r>   9.5940  0.0000</r>
       <r>   9.5940  0.0000</r>
       <r>   9.5940  0.0000</r>
       <r>   9.5940  0.0000</r>
       <r>  10.0619  0.0000</r>
       <r>  10.0620  0.0000</r>
       <r>  10.0620  0.0000</r>
       <r>  10.0621  0.0000</r>
      </set>
      <set comment="kpoint 196">
       <r>  -1.9498  1.0000</r>
       <r>  -1.9457  1.0000</r>
       <r>  -1.9457  1.0000</r>
       <r>  -1.9454  1.0000</r>
       <r>  -1.9453  1.0000</r>
       <r>  -1.9449  1.0000</r>
       <r>  -1.9449  1.0000</r>
       <r>  -1.9409  1.0000</r>
       <r>   2.1437  1.0000</r>
       <r>   2.1500  1.0000</r>
       <r>   2.1500  1.0000</r>
       <r>   2.1531  1.0000</r>
       <r>   2.1532  1.0000</r>
       <r>   2.1533  1.0000</r>
       <r>   2.1536  1.0000</r>
       <r>   2.1536  1.0000</r>
       <r>   2.1537  1.0000</r>
       <r>   2.1537  1.0000</r>
       <r>   2.1537  1.0000</r>
       <r>   2.1537  1.0000</r>
       <r>   2.1537  1.0000</r>
       <r>   2.1537  1.0000</r>
       <r>   2.1538  1.0000</r>
       <r>   2.1538  1.0000</r>
       <r>   2.1538  1.0000</r>
       <r>   2.1538  1.0000</r>
       <r>   2.1542  1.0000</r>
       <r>   2.1542  1.0000</r>
       <r>   2.1544  1.0000</r>
       <r>   2.1574  1.0000</r>
       <r>   2.1574  1.0000</r>
       <r>   2.1637  1.0000</r>
       <r>   6.1456  1.0000</r>
       <r>   6.1456  1.0000</r>
       <r>   6.1472  1.0000</r>
       <r>   6.1494  1.0000</r>
       <r>   6.1506  1.0000</r>
       <r>   6.1509  1.0000</r>
       <r>   6.1510  1.0000</r>
       <r>   6.1510  1.0000</r>
       <r>   6.1512  1.0000</r>
       <r>   6.1512  1.0000</r>
       <r>   6.1512  1.0000</r>
       <r>   6.1512  1.0000</r>
       <r>   6.1512  1.0000</r>
       <r>   6.1513  1.0000</r>
       <r>   6.1513  1.0000</r>
       <r>   6.1513  1.0000</r>
       <r>   6.1515  1.0000</r>
       <r>   6.1515  1.0000</r>
       <r>   6.1515  1.0000</r>
       <r>   6.1518  1.0000</r>
       <r>   6.1531  1.0000</r>
       <r>   6.1553  1.0000</r>
       <r>   6.1568  1.0000</r>
       <r>   6.1568  1.0000</r>
       <r>  10.0608  0.0000</r>
       <r>  10.0609  0.0000</r>
       <r>  10.0611  0.0000</r>
       <r>  10.0616  0.0000</r>
       <r>  10.0630  0.0000</r>
       <r>  10.0635  0.0000</r>
       <r>  10.0636  0.0000</r>
       <r>  10.0636  0.0000</r>
       <r>  10.2078  0.0000</r>
       <r>  10.2086  0.0000</r>
       <r>  10.2092  0.0000</r>
       <r>  10.2101  0.0000</r>
      </set>
     </set>
    </set>
   </array>
  </eigenvalues>
 </calculation>
 <structure name="finalpos" >
  <crystal>
   <varray name="basis" >
    <v>       8.39759725      0.00000000      0.00000000</v>
    <v>       0.00000000      8.39759725      0.00000000</v>
    <v>       0.00000000      0.00000000      8.39759725</v>
   </varray>
   <i name="volume">    592.19553112</i>
   <varray name="rec_basis" >
    <v>       0.11908168      0.00000000      0.00000000</v>
    <v>       0.00000000      0.11908168      0.00000000</v>
    <v>       0.00000000      0.00000000      0.11908168</v>
   </varray>
  </crystal>
  <varray name="positions" >
   <v>       0.25119082      0.25000000      0.00000000</v>
   <v>       0.75000000      0.25000000      0.00000000</v>
   <v>       0.25000000      0.75000000      0.00000000</v>
   <v>       0.75000000      0.75000000      0.00000000</v>
   <v>       0.25000000      0.25000000      0.50000000</v>
   <v>       0.75000000      0.25000000      0.50000000</v>
   <v>       0.25000000      0.75000000      0.50000000</v>
   <v>       0.75000000      0.75000000      0.50000000</v>
   <v>       0.25000000      0.00000000      0.25000000</v>
   <v>       0.75000000      0.00000000      0.25000000</v>
   <v>       0.25000000      0.50000000      0.25000000</v>
   <v>       0.75000000      0.50000000      0.25000000</v>
   <v>       0.25000000      0.00000000      0.75000000</v>
   <v>       0.75000000      0.00000000      0.75000000</v>
   <v>       0.25000000      0.50000000      0.75000000</v>
   <v>       0.75000000      0.50000000      0.75000000</v>
   <v>       0.00000000      0.25000000      0.25000000</v>
   <v>       0.50000000      0.25000000      0.25000000</v>
   <v>       0.00000000      0.75000000      0.25000000</v>
   <v>       0.50000000      0.75000000      0.25000000</v>
   <v>       0.00000000      0.25000000      0.75000000</v>
   <v>       0.50000000      0.25000000      0.75000000</v>
   <v>       0.00000000      0.75000000      0.75000000</v>
   <v>       0.50000000      0.75000000      0.75000000</v>
   <v>       0.00000000      0.00000000      0.00000000</v>
   <v>       0.50000000      0.00000000      0.00000000</v>
   <v>       0.00000000      0.50000000      0.00000000</v>
   <v>       0.50000000      0.50000000      0.00000000</v>
   <v>       0.00000000      0.00000000      0.50000000</v>
   <v>       0.50000000      0.00000000      0.50000000</v>
   <v>       0.00000000      0.50000000      0.50000000</v>
   <v>       0.50000000      0.50000000      0.50000000</v>
  </varray>
 </structure>
</modeling>
