32   
1    

1    
  0.0100000000000000   0.0000000000000000   0.0000000000000000
  -0.0243300600   -0.0000000000    0.0000000000
   0.0015838100    0.0000000000   -0.0000000000
  -0.0001778600   -0.0000000000    0.0000000000
   0.0004895400   -0.0000000000   -0.0000000000
  -0.0001778600    0.0000000000    0.0000000000
   0.0004895400   -0.0000000000    0.0000000000
   0.0002285900   -0.0000000000    0.0000000000
  -0.0005313800    0.0000000000    0.0000000000
  -0.0012111900    0.0000076000   -0.0000076000
  -0.0005731400    0.0000031200   -0.0000031200
  -0.0012111900   -0.0000076000   -0.0000076000
  -0.0005731400   -0.0000031200   -0.0000031200
  -0.0012111900    0.0000076000    0.0000076000
  -0.0005731400    0.0000031200    0.0000031200
  -0.0012111900   -0.0000076000    0.0000076000
  -0.0005731400   -0.0000031200    0.0000031200
   0.0037006000    0.0000000000   -0.0036189800
   0.0038000800   -0.0000000000    0.0037491900
  -0.0000542200   -0.0000000000    0.0001493600
  -0.0000557100   -0.0000000000   -0.0001488700
   0.0037006000    0.0000000000    0.0036189800
   0.0038000800   -0.0000000000   -0.0037491900
  -0.0000542200   -0.0000000000   -0.0001493600
  -0.0000557100    0.0000000000    0.0001488700
   0.0037006000    0.0036189800    0.0000000000
   0.0038000800   -0.0037491900    0.0000000000
   0.0037006000   -0.0036189800   -0.0000000000
   0.0038000800    0.0037491900    0.0000000000
  -0.0000542200   -0.0001493600   -0.0000000000
  -0.0000557100    0.0001488700    0.0000000000
  -0.0000542200    0.0001493600   -0.0000000000
  -0.0000557100   -0.0001488700    0.0000000000
