mesh: [    48,    48,    48 ]
nqpoint: 2600   
reciprocal_lattice:
- [   0.23589514,   0.00000000,   0.00000000 ] # a*
- [   0.00000000,   0.23589514,   0.00000000 ] # b*
- [   0.00000000,   0.00000000,   0.23589514 ] # c*
natom:   4      
lattice:
- [     4.239171688156456,     0.000000000000000,     0.000000000000000 ] # a
- [     0.000000000000000,     4.239171688156456,     0.000000000000000 ] # b
- [     0.000000000000000,     0.000000000000000,     4.239171688156456 ] # c
points:
- symbol: Al # 1
  coordinates: [  0.500000000000000,  0.500000000000000,  0.000000000000000 ]
  mass: 26.981539
- symbol: Al # 2
  coordinates: [  0.500000000000000,  0.000000000000000,  0.500000000000000 ]
  mass: 26.981539
- symbol: Al # 3
  coordinates: [  0.000000000000000,  0.500000000000000,  0.500000000000000 ]
  mass: 26.981539
- symbol: Al # 4
  coordinates: [  0.000000000000000,  0.000000000000000,  0.000000000000000 ]
  mass: 26.981539
phonon:
- q-position: [    0.0104167,    0.0104167,    0.0104167 ]
  weight: 8    
  band:
  - # 1
    frequency:     0.0819522880
  - # 2
    frequency:     0.0819522880
  - # 3
    frequency:     0.2187559792
  - # 4
    frequency:     3.7215453224
  - # 5
    frequency:     3.7215453224
  - # 6
    frequency:     3.7215453224
  - # 7
    frequency:     3.7252268971
  - # 8
    frequency:     3.7252268971
  - # 9
    frequency:     3.7252268971
  - # 10
    frequency:     7.3158347028
  - # 11
    frequency:     7.3158347028
  - # 12
    frequency:     7.3158347028

- q-position: [    0.0312500,    0.0104167,    0.0104167 ]
  weight: 24   
  band:
  - # 1
    frequency:     0.1668099453
  - # 2
    frequency:     0.1819282850
  - # 3
    frequency:     0.4045979072
  - # 4
    frequency:     3.7171229027
  - # 5
    frequency:     3.7208013170
  - # 6
    frequency:     3.7281050190
  - # 7
    frequency:     3.7281050190
  - # 8
    frequency:     3.7394791147
  - # 9
    frequency:     3.7394791147
  - # 10
    frequency:     7.3077333649
  - # 11
    frequency:     7.3102743066
  - # 12
    frequency:     7.3102743066

- q-position: [    0.0520833,    0.0104167,    0.0104167 ]
  weight: 24   
  band:
  - # 1
    frequency:     0.2812078724
  - # 2
    frequency:     0.2928995832
  - # 3
    frequency:     0.6211785867
  - # 4
    frequency:     3.7082868694
  - # 5
    frequency:     3.7119589290
  - # 6
    frequency:     3.7443250356
  - # 7
    frequency:     3.7443250356
  - # 8
    frequency:     3.7644979937
  - # 9
    frequency:     3.7644979937
  - # 10
    frequency:     7.2915419896
  - # 11
    frequency:     7.2991615720
  - # 12
    frequency:     7.2991615720

- q-position: [    0.0729167,    0.0104167,    0.0104167 ]
  weight: 24   
  band:
  - # 1
    frequency:     0.3970195189
  - # 2
    frequency:     0.4057711162
  - # 3
    frequency:     0.8462896125
  - # 4
    frequency:     3.6950547902
  - # 5
    frequency:     3.6987172323
  - # 6
    frequency:     3.7695154544
  - # 7
    frequency:     3.7695154544
  - # 8
    frequency:     3.8002218818
  - # 9
    frequency:     3.8002218818
  - # 10
    frequency:     7.2672831416
  - # 11
    frequency:     7.2825126715
  - # 12
    frequency:     7.2825126715

- q-position: [    0.0937500,    0.0104167,    0.0104167 ]
  weight: 24   
  band:
  - # 1
    frequency:     0.5123895259
  - # 2
    frequency:     0.5190980903
  - # 3
    frequency:     1.0743243752
  - # 4
    frequency:     3.6774529052
  - # 5
    frequency:     3.6811023649
  - # 6
    frequency:     3.8028641514
  - # 7
    frequency:     3.8028641514
  - # 8
    frequency:     3.8463792499
  - # 9
    frequency:     3.8463792499
  - # 10
    frequency:     7.2349905779
  - # 11
    frequency:     7.2603520057
  - # 12
    frequency:     7.2603520057

- q-position: [    0.1145833,    0.0104167,    0.0104167 ]
  weight: 24   
  band:
  - # 1
    frequency:     0.6271718629
  - # 2
    frequency:     0.6324075477
  - # 3
    frequency:     1.3031817936
  - # 4
    frequency:     3.6555159938
  - # 5
    frequency:     3.6591489710
  - # 6
    frequency:     3.8434557247
  - # 7
    frequency:     3.8434557247
  - # 8
    frequency:     3.9025169125
  - # 9
    frequency:     3.9025169125
  - # 10
    frequency:     7.1947091405
  - # 11
    frequency:     7.2327123738
  - # 12
    frequency:     7.2327123738

- q-position: [    0.1354167,    0.0104167,    0.0104167 ]
  weight: 24   
  band:
  - # 1
    frequency:     0.7413454463
  - # 2
    frequency:     0.7454634896
  - # 3
    frequency:     1.5318337440
  - # 4
    frequency:     3.6292871991
  - # 5
    frequency:     3.6329000259
  - # 6
    frequency:     3.8902876964
  - # 7
    frequency:     3.8902876964
  - # 8
    frequency:     3.9680389677
  - # 9
    frequency:     3.9680389677
  - # 10
    frequency:     7.1464946139
  - # 11
    frequency:     7.1996352019
  - # 12
    frequency:     7.1996352019

- q-position: [    0.1562500,    0.0104167,    0.0104167 ]
  weight: 24   
  band:
  - # 1
    frequency:     0.8548775141
  - # 2
    frequency:     0.8581093622
  - # 3
    frequency:     1.7596588417
  - # 4
    frequency:     3.5988178101
  - # 5
    frequency:     3.6024066186
  - # 6
    frequency:     3.9422904838
  - # 7
    frequency:     3.9422904838
  - # 8
    frequency:     4.0422452164
  - # 9
    frequency:     4.0422452164
  - # 10
    frequency:     7.0904135502
  - # 11
    frequency:     7.1611708291
  - # 12
    frequency:     7.1611708291

- q-position: [    0.1770833,    0.0104167,    0.0104167 ]
  weight: 24   
  band:
  - # 1
    frequency:     0.9677162466
  - # 2
    frequency:     0.9702202753
  - # 3
    frequency:     1.9862152116
  - # 4
    frequency:     3.5641670041
  - # 5
    frequency:     3.5677276957
  - # 6
    frequency:     3.9983506550
  - # 7
    frequency:     3.9983506550
  - # 8
    frequency:     4.1243653050
  - # 9
    frequency:     4.1243653050
  - # 10
    frequency:     7.0265430604
  - # 11
    frequency:     7.1173788532
  - # 12
    frequency:     7.1173788532

- q-position: [    0.1979167,    0.0104167,    0.0104167 ]
  weight: 24   
  band:
  - # 1
    frequency:     1.0797954974
  - # 2
    frequency:     1.0816850077
  - # 3
    frequency:     2.2111496528
  - # 4
    frequency:     3.5254015502
  - # 5
    frequency:     3.5289297652
  - # 6
    frequency:     4.0573351560
  - # 7
    frequency:     4.0573351560
  - # 8
    frequency:     4.2135876341
  - # 9
    frequency:     4.2135876341
  - # 10
    frequency:     6.9549705762
  - # 11
    frequency:     7.0683285359
  - # 12
    frequency:     7.0683285359

- q-position: [    0.2187500,    0.0104167,    0.0104167 ]
  weight: 24   
  band:
  - # 1
    frequency:     1.1910388542
  - # 2
    frequency:     1.1923981259
  - # 3
    frequency:     2.4341567394
  - # 4
    frequency:     3.4825954765
  - # 5
    frequency:     3.4860865654
  - # 6
    frequency:     4.1181143216
  - # 7
    frequency:     4.1181143216
  - # 8
    frequency:     4.3090830722
  - # 9
    frequency:     4.3090830722
  - # 10
    frequency:     6.8757935817
  - # 11
    frequency:     7.0140992708
  - # 12
    frequency:     7.0140992708

- q-position: [    0.2395833,    0.0104167,    0.0104167 ]
  weight: 24   
  band:
  - # 1
    frequency:     1.3013622172
  - # 2
    frequency:     1.3022561243
  - # 3
    frequency:     2.6549586474
  - # 4
    frequency:     3.4358297033
  - # 5
    frequency:     3.4392786985
  - # 6
    frequency:     4.1795822571
  - # 7
    frequency:     4.1795822571
  - # 8
    frequency:     4.4100238258
  - # 9
    frequency:     4.4100238258
  - # 10
    frequency:     6.7891193182
  - # 11
    frequency:     6.9547811137
  - # 12
    frequency:     6.9547811137

- q-position: [    0.2604167,    0.0104167,    0.0104167 ]
  weight: 24   
  band:
  - # 1
    frequency:     1.4106753633
  - # 2
    frequency:     1.4111553720
  - # 3
    frequency:     2.8732944750
  - # 4
    frequency:     3.3851916447
  - # 5
    frequency:     3.3885932334
  - # 6
    frequency:     4.2406739436
  - # 7
    frequency:     4.2406739436
  - # 8
    frequency:     4.5155979328
  - # 9
    frequency:     4.5155979328
  - # 10
    frequency:     6.6950644645
  - # 11
    frequency:     6.8904753804
  - # 12
    frequency:     6.8904753804

- q-position: [    0.2812500,    0.0104167,    0.0104167 ]
  weight: 24   
  band:
  - # 1
    frequency:     1.5188829140
  - # 2
    frequency:     1.5189909586
  - # 3
    frequency:     3.0889142752
  - # 4
    frequency:     3.3307747811
  - # 5
    frequency:     3.3341232796
  - # 6
    frequency:     4.3003789831
  - # 7
    frequency:     4.3003789831
  - # 8
    frequency:     4.6250199213
  - # 9
    frequency:     4.6250199213
  - # 10
    frequency:     6.5937547934
  - # 11
    frequency:     6.8212953126
  - # 12
    frequency:     6.8212953126

- q-position: [    0.3020833,    0.0104167,    0.0104167 ]
  weight: 24   
  band:
  - # 1
    frequency:     1.6256560297
  - # 2
    frequency:     1.6258849635
  - # 3
    frequency:     3.2726782068
  - # 4
    frequency:     3.2759675348
  - # 5
    frequency:     3.3015755847
  - # 6
    frequency:     4.3577522379
  - # 7
    frequency:     4.3577522379
  - # 8
    frequency:     4.7375382150
  - # 9
    frequency:     4.7375382150
  - # 10
    frequency:     6.4853248088
  - # 11
    frequency:     6.7473668172
  - # 12
    frequency:     6.7473668172

- q-position: [    0.3229167,    0.0104167,    0.0104167 ]
  weight: 24   
  band:
  - # 1
    frequency:     1.7310414143
  - # 2
    frequency:     1.7315775230
  - # 3
    frequency:     3.2110061545
  - # 4
    frequency:     3.2142298106
  - # 5
    frequency:     3.5110413559
  - # 6
    frequency:     4.4119217931
  - # 7
    frequency:     4.4119217931
  - # 8
    frequency:     4.8524398715
  - # 9
    frequency:     4.8524398715
  - # 10
    frequency:     6.3699173653
  - # 11
    frequency:     6.6688292824
  - # 12
    frequency:     6.6688292824

- q-position: [    0.3437500,    0.0104167,    0.0104167 ]
  weight: 24   
  band:
  - # 1
    frequency:     1.8350354421
  - # 2
    frequency:     1.8358528686
  - # 3
    frequency:     3.1458675015
  - # 4
    frequency:     3.1490185387
  - # 5
    frequency:     3.7170787167
  - # 6
    frequency:     4.4620947225
  - # 7
    frequency:     4.4620947225
  - # 8
    frequency:     4.9690532071
  - # 9
    frequency:     4.9690532071
  - # 10
    frequency:     6.2476832721
  - # 11
    frequency:     6.5858364770
  - # 12
    frequency:     6.5858364770

- q-position: [    0.3645833,    0.0104167,    0.0104167 ]
  weight: 24   
  band:
  - # 1
    frequency:     1.9375238936
  - # 2
    frequency:     1.9385998472
  - # 3
    frequency:     3.0773752602
  - # 4
    frequency:     3.0804462615
  - # 5
    frequency:     3.9194582405
  - # 6
    frequency:     4.5075611274
  - # 7
    frequency:     4.5075611274
  - # 8
    frequency:     5.0867488059
  - # 9
    frequency:     5.0867488059
  - # 10
    frequency:     6.1187808865
  - # 11
    frequency:     6.4985575399
  - # 12
    frequency:     6.4985575399

- q-position: [    0.3854167,    0.0104167,    0.0104167 ]
  weight: 24   
  band:
  - # 1
    frequency:     2.0383900512
  - # 2
    frequency:     2.0397041697
  - # 3
    frequency:     3.0056460587
  - # 4
    frequency:     3.0086291116
  - # 5
    frequency:     4.1179535468
  - # 6
    frequency:     4.5476968625
  - # 7
    frequency:     4.5476968625
  - # 8
    frequency:     5.2049393335
  - # 9
    frequency:     5.2049393335
  - # 10
    frequency:     5.9833756979
  - # 11
    frequency:     6.4071780701
  - # 12
    frequency:     6.4071780701

- q-position: [    0.4062500,    0.0104167,    0.0104167 ]
  weight: 24   
  band:
  - # 1
    frequency:     2.1375148309
  - # 2
    frequency:     2.1390487127
  - # 3
    frequency:     2.9307996125
  - # 4
    frequency:     2.9336862821
  - # 5
    frequency:     4.3123411224
  - # 6
    frequency:     4.5819653000
  - # 7
    frequency:     4.5819653000
  - # 8
    frequency:     5.3230784953
  - # 9
    frequency:     5.3230784953
  - # 10
    frequency:     5.8416399070
  - # 11
    frequency:     6.3119013355
  - # 12
    frequency:     6.3119013355

- q-position: [    0.4270833,    0.0104167,    0.0104167 ]
  weight: 24   
  band:
  - # 1
    frequency:     2.2347769812
  - # 2
    frequency:     2.2365138377
  - # 3
    frequency:     2.8529581948
  - # 4
    frequency:     2.8557394947
  - # 5
    frequency:     4.5024002962
  - # 6
    frequency:     4.6099184140
  - # 7
    frequency:     4.6099184140
  - # 8
    frequency:     5.4406593771
  - # 9
    frequency:     5.4406593771
  - # 10
    frequency:     5.6937520022
  - # 11
    frequency:     6.2129496473
  - # 12
    frequency:     6.2129496473

- q-position: [    0.4479167,    0.0104167,    0.0104167 ]
  weight: 24   
  band:
  - # 1
    frequency:     2.3300533400
  - # 2
    frequency:     2.3319777349
  - # 3
    frequency:     2.7722461073
  - # 4
    frequency:     2.7749124662
  - # 5
    frequency:     4.6311974032
  - # 6
    frequency:     4.6311974032
  - # 7
    frequency:     4.6879133255
  - # 8
    frequency:     5.5398963392
  - # 9
    frequency:     5.5572122183
  - # 10
    frequency:     5.5572122183
  - # 11
    frequency:     6.1105660692
  - # 12
    frequency:     6.1105660692

- q-position: [    0.4687500,    0.0104167,    0.0104167 ]
  weight: 24   
  band:
  - # 1
    frequency:     2.4232191419
  - # 2
    frequency:     2.4253167939
  - # 3
    frequency:     2.6887891576
  - # 4
    frequency:     2.6913303809
  - # 5
    frequency:     4.6455330189
  - # 6
    frequency:     4.6455330189
  - # 7
    frequency:     4.8686655643
  - # 8
    frequency:     5.3802627243
  - # 9
    frequency:     5.6723007415
  - # 10
    frequency:     5.6723007415
  - # 11
    frequency:     6.0050175046
  - # 12
    frequency:     6.0050175046

- q-position: [    0.4895833,    0.0104167,    0.0104167 ]
  weight: 24   
  band:
  - # 1
    frequency:     2.5141483699
  - # 2
    frequency:     2.5164060020
  - # 3
    frequency:     2.6027141464
  - # 4
    frequency:     2.6051193697
  - # 5
    frequency:     4.6527457171
  - # 6
    frequency:     4.6527457171
  - # 7
    frequency:     5.0444456950
  - # 8
    frequency:     5.2150460086
  - # 9
    frequency:     5.7854995623
  - # 10
    frequency:     5.7854995623
  - # 11
    frequency:     5.8966167560
  - # 12
    frequency:     5.8966167560

- q-position: [    0.0312500,    0.0312500,    0.0104167 ]
  weight: 24   
  band:
  - # 1
    frequency:     0.1850497152
  - # 2
    frequency:     0.2412970174
  - # 3
    frequency:     0.5436746636
  - # 4
    frequency:     3.7236800920
  - # 5
    frequency:     3.7236800920
  - # 6
    frequency:     3.7276592766
  - # 7
    frequency:     3.7350507361
  - # 8
    frequency:     3.7350507361
  - # 9
    frequency:     3.7605161043
  - # 10
    frequency:     7.3022145301
  - # 11
    frequency:     7.3022145301
  - # 12
    frequency:     7.3047212834

- q-position: [    0.0520833,    0.0312500,    0.0104167 ]
  weight: 48   
  band:
  - # 1
    frequency:     0.2690797620
  - # 2
    frequency:     0.3335627403
  - # 3
    frequency:     0.7284687019
  - # 4
    frequency:     3.7148389179
  - # 5
    frequency:     3.7262027102
  - # 6
    frequency:     3.7371791681
  - # 7
    frequency:     3.7398853857
  - # 8
    frequency:     3.7600731756
  - # 9
    frequency:     3.7918019527
  - # 10
    frequency:     7.2861062162
  - # 11
    frequency:     7.2911851153
  - # 12
    frequency:     7.2936232288

- q-position: [    0.0729167,    0.0312500,    0.0104167 ]
  weight: 48   
  band:
  - # 1
    frequency:     0.3787763852
  - # 2
    frequency:     0.4367557195
  - # 3
    frequency:     0.9317258034
  - # 4
    frequency:     3.7015988119
  - # 5
    frequency:     3.7129524562
  - # 6
    frequency:     3.7563641443
  - # 7
    frequency:     3.7650450025
  - # 8
    frequency:     3.7958097807
  - # 9
    frequency:     3.8329011678
  - # 10
    frequency:     7.2619718086
  - # 11
    frequency:     7.2746616899
  - # 12
    frequency:     7.2769961841

- q-position: [    0.0937500,    0.0312500,    0.0104167 ]
  weight: 48   
  band:
  - # 1
    frequency:     0.4944411427
  - # 2
    frequency:     0.5444536385
  - # 3
    frequency:     1.1443157357
  - # 4
    frequency:     3.6839856360
  - # 5
    frequency:     3.6953259947
  - # 6
    frequency:     3.7846163555
  - # 7
    frequency:     3.7983449906
  - # 8
    frequency:     3.8419893324
  - # 9
    frequency:     3.8833493288
  - # 10
    frequency:     7.2298448874
  - # 11
    frequency:     7.2526692569
  - # 12
    frequency:     7.2548643546

- q-position: [    0.1145833,    0.0312500,    0.0104167 ]
  weight: 48   
  band:
  - # 1
    frequency:     0.6110964887
  - # 2
    frequency:     0.6542070679
  - # 3
    frequency:     1.3618723712
  - # 4
    frequency:     3.6620336667
  - # 5
    frequency:     3.6733578191
  - # 6
    frequency:     3.8211389778
  - # 7
    frequency:     3.8388694204
  - # 8
    frequency:     3.8981572842
  - # 9
    frequency:     3.9426000068
  - # 10
    frequency:     7.1897700678
  - # 11
    frequency:     7.2252414327
  - # 12
    frequency:     7.2272602822

- q-position: [    0.1354167,    0.0312500,    0.0104167 ]
  weight: 48   
  band:
  - # 1
    frequency:     0.7274057527
  - # 2
    frequency:     0.7648909559
  - # 3
    frequency:     1.5819635882
  - # 4
    frequency:     3.6357854192
  - # 5
    frequency:     3.6470907253
  - # 6
    frequency:     3.8649654011
  - # 7
    frequency:     3.8856158054
  - # 8
    frequency:     3.9637155702
  - # 9
    frequency:     4.0100487225
  - # 10
    frequency:     7.1418028651
  - # 11
    frequency:     7.1924206867
  - # 12
    frequency:     7.1942250764

- q-position: [    0.1562500,    0.0312500,    0.0104167 ]
  weight: 48   
  band:
  - # 1
    frequency:     0.8429657190
  - # 2
    frequency:     0.8758991342
  - # 3
    frequency:     1.8030966301
  - # 4
    frequency:     3.6052914310
  - # 5
    frequency:     3.6165756014
  - # 6
    frequency:     3.9149912738
  - # 7
    frequency:     3.9375145758
  - # 8
    frequency:     4.0379615974
  - # 9
    frequency:     4.0850574619
  - # 10
    frequency:     7.0860095291
  - # 11
    frequency:     7.1542586435
  - # 12
    frequency:     7.1558087037

- q-position: [    0.1770833,    0.0312500,    0.0104167 ]
  weight: 48   
  band:
  - # 1
    frequency:     0.9576320976
  - # 2
    frequency:     0.9868572493
  - # 3
    frequency:     2.0242763912
  - # 4
    frequency:     3.5706100026
  - # 5
    frequency:     3.5818711797
  - # 6
    frequency:     3.9700119414
  - # 7
    frequency:     3.9934520852
  - # 8
    frequency:     4.1201226988
  - # 9
    frequency:     4.1669731629
  - # 10
    frequency:     7.0224668482
  - # 11
    frequency:     7.1108164464
  - # 12
    frequency:     7.1120703375

- q-position: [    0.1979167,    0.0312500,    0.0104167 ]
  weight: 48   
  band:
  - # 1
    frequency:     1.0713314654
  - # 2
    frequency:     1.0975052611
  - # 3
    frequency:     2.2447877978
  - # 4
    frequency:     3.5318069013
  - # 5
    frequency:     3.5430437514
  - # 6
    frequency:     4.0287632523
  - # 7
    frequency:     4.0522947307
  - # 8
    frequency:     4.2093851861
  - # 9
    frequency:     4.2551390087
  - # 10
    frequency:     6.9512619239
  - # 11
    frequency:     7.0621651854
  - # 12
    frequency:     7.0630787684

- q-position: [    0.2187500,    0.0312500,    0.0104167 ]
  weight: 48   
  band:
  - # 1
    frequency:     1.1840048042
  - # 2
    frequency:     1.2076436850
  - # 3
    frequency:     2.4640814054
  - # 4
    frequency:     3.4889550254
  - # 5
    frequency:     3.5001668477
  - # 6
    frequency:     4.0899624918
  - # 7
    frequency:     4.1129119213
  - # 8
    frequency:     4.3049181190
  - # 9
    frequency:     4.3488996161
  - # 10
    frequency:     6.8724919199
  - # 11
    frequency:     7.0083863912
  - # 12
    frequency:     7.0089128771

- q-position: [    0.2395833,    0.0312500,    0.0104167 ]
  weight: 48   
  band:
  - # 1
    frequency:     1.2955903466
  - # 2
    frequency:     1.3171067080
  - # 3
    frequency:     2.6817100826
  - # 4
    frequency:     3.4421340340
  - # 5
    frequency:     3.4533208901
  - # 6
    frequency:     4.1523459248
  - # 7
    frequency:     4.1741964395
  - # 8
    frequency:     4.4058921853
  - # 9
    frequency:     4.4476025133
  - # 10
    frequency:     6.7862637856
  - # 11
    frequency:     6.9495725962
  - # 12
    frequency:     6.9496621733

- q-position: [    0.2604167,    0.0312500,    0.0104167 ]
  weight: 48   
  band:
  - # 1
    frequency:     1.4060189085
  - # 2
    frequency:     1.4257477461
  - # 3
    frequency:     2.8972923949
  - # 4
    frequency:     3.3914299427
  - # 5
    frequency:     3.4025928108
  - # 6
    frequency:     4.2147000390
  - # 7
    frequency:     4.2350815317
  - # 8
    frequency:     4.5114941800
  - # 9
    frequency:     4.5505985458
  - # 10
    frequency:     6.6926939575
  - # 11
    frequency:     6.8854274006
  - # 12
    frequency:     6.8858279671

- q-position: [    0.2812500,    0.0312500,    0.0104167 ]
  weight: 48   
  band:
  - # 1
    frequency:     1.5152132569
  - # 2
    frequency:     1.5334312251
  - # 3
    frequency:     3.1104906049
  - # 4
    frequency:     3.3369346885
  - # 5
    frequency:     3.3480756491
  - # 6
    frequency:     4.2758849056
  - # 7
    frequency:     4.2945546329
  - # 8
    frequency:     4.6209376368
  - # 9
    frequency:     4.6572431530
  - # 10
    frequency:     6.5919080412
  - # 11
    frequency:     6.8163212145
  - # 12
    frequency:     6.8172690118

- q-position: [    0.3020833,    0.0312500,    0.0104167 ]
  weight: 48   
  band:
  - # 1
    frequency:     1.6230887077
  - # 2
    frequency:     1.6400276862
  - # 3
    frequency:     3.2787456660
  - # 4
    frequency:     3.2898681247
  - # 5
    frequency:     3.3209970155
  - # 6
    frequency:     4.3348496269
  - # 7
    frequency:     4.3516679815
  - # 8
    frequency:     4.7334701979
  - # 9
    frequency:     4.7668993010
  - # 10
    frequency:     6.4840404762
  - # 11
    frequency:     6.7424689364
  - # 12
    frequency:     6.7440253645

- q-position: [    0.3229167,    0.0312500,    0.0104167 ]
  weight: 48   
  band:
  - # 1
    frequency:     1.7295540131
  - # 2
    frequency:     1.7454107783
  - # 3
    frequency:     3.2169652381
  - # 4
    frequency:     3.2280741926
  - # 5
    frequency:     3.5285252552
  - # 6
    frequency:     4.3906410469
  - # 7
    frequency:     4.4055465508
  - # 8
    frequency:     4.8483783094
  - # 9
    frequency:     4.8789418394
  - # 10
    frequency:     6.3692341880
  - # 11
    frequency:     6.6640093922
  - # 12
    frequency:     6.6662406582

- q-position: [    0.3437500,    0.0312500,    0.0104167 ]
  weight: 48   
  band:
  - # 1
    frequency:     1.8345122306
  - # 2
    frequency:     1.8494553799
  - # 3
    frequency:     3.1517002249
  - # 4
    frequency:     3.1628025839
  - # 5
    frequency:     3.7328045937
  - # 6
    frequency:     4.4424074932
  - # 7
    frequency:     4.4553937802
  - # 8
    frequency:     4.9649897921
  - # 9
    frequency:     4.9927625028
  - # 10
    frequency:     6.2476402291
  - # 11
    frequency:     6.5810958472
  - # 12
    frequency:     6.5840734920

- q-position: [    0.3645833,    0.0312500,    0.0104167 ]
  weight: 48   
  band:
  - # 1
    frequency:     1.9378614908
  - # 2
    frequency:     1.9520364367
  - # 3
    frequency:     3.0830613727
  - # 4
    frequency:     3.0941663344
  - # 5
    frequency:     3.9335761724
  - # 6
    frequency:     4.4893993272
  - # 7
    frequency:     4.5004955776
  - # 8
    frequency:     5.0826747727
  - # 9
    frequency:     5.1077747007
  - # 10
    frequency:     6.1194174142
  - # 11
    frequency:     6.4938970594
  - # 12
    frequency:     6.4976985135

- q-position: [    0.3854167,    0.0312500,    0.0104167 ]
  weight: 48   
  band:
  - # 1
    frequency:     2.0394956587
  - # 2
    frequency:     2.0530282737
  - # 3
    frequency:     3.0111628089
  - # 4
    frequency:     3.0222823066
  - # 5
    frequency:     4.1305904828
  - # 6
    frequency:     4.5309677401
  - # 7
    frequency:     4.5402230114
  - # 8
    frequency:     5.2008453657
  - # 9
    frequency:     5.2234174477
  - # 10
    frequency:     5.9847319542
  - # 11
    frequency:     6.4025984974
  - # 12
    frequency:     6.4073076547

- q-position: [    0.4062500,    0.0312500,    0.0104167 ]
  weight: 48   
  band:
  - # 1
    frequency:     2.1393049029
  - # 2
    frequency:     2.1523042391
  - # 3
    frequency:     2.9361214857
  - # 4
    frequency:     2.9472707074
  - # 5
    frequency:     4.3236056757
  - # 6
    frequency:     4.5665627951
  - # 7
    frequency:     4.5740340475
  - # 8
    frequency:     5.3189543550
  - # 9
    frequency:     5.3391580159
  - # 10
    frequency:     5.8437570913
  - # 11
    frequency:     6.3074038414
  - # 12
    frequency:     6.3131116240

- q-position: [    0.4270833,    0.0312500,    0.0104167 ]
  weight: 48   
  band:
  - # 1
    frequency:     2.2371761997
  - # 2
    frequency:     2.2497365857
  - # 3
    frequency:     2.8580566182
  - # 4
    frequency:     2.8692546053
  - # 5
    frequency:     4.5123864429
  - # 6
    frequency:     4.5957313212
  - # 7
    frequency:     4.6014746195
  - # 8
    frequency:     5.4364928289
  - # 9
    frequency:     5.4544928937
  - # 10
    frequency:     5.6966727436
  - # 11
    frequency:     6.2085371485
  - # 12
    frequency:     6.2153419807

- q-position: [    0.4479167,    0.0312500,    0.0104167 ]
  weight: 48   
  band:
  - # 1
    frequency:     2.3329937936
  - # 2
    frequency:     2.3451965260
  - # 3
    frequency:     2.7770891204
  - # 4
    frequency:     2.7883594511
  - # 5
    frequency:     4.6181149784
  - # 6
    frequency:     4.6221792611
  - # 7
    frequency:     4.6967032960
  - # 8
    frequency:     5.5436651625
  - # 9
    frequency:     5.5529856339
  - # 10
    frequency:     5.5689455749
  - # 11
    frequency:     6.1062472806
  - # 12
    frequency:     6.1142551340

- q-position: [    0.4687500,    0.0312500,    0.0104167 ]
  weight: 48   
  band:
  - # 1
    frequency:     2.4266396365
  - # 2
    frequency:     2.4385544141
  - # 3
    frequency:     2.6933410474
  - # 4
    frequency:     2.7047126032
  - # 5
    frequency:     4.6334486312
  - # 6
    frequency:     4.6358714801
  - # 7
    frequency:     4.8763321329
  - # 8
    frequency:     5.3849266123
  - # 9
    frequency:     5.6679765339
  - # 10
    frequency:     5.6820509967
  - # 11
    frequency:     6.0008249759
  - # 12
    frequency:     6.0101465318

- q-position: [    0.4895833,    0.0312500,    0.0104167 ]
  weight: 48   
  band:
  - # 1
    frequency:     2.5179938248
  - # 2
    frequency:     2.5296800190
  - # 3
    frequency:     2.6069350465
  - # 4
    frequency:     2.6184428625
  - # 5
    frequency:     4.6415590631
  - # 6
    frequency:     4.6423640120
  - # 7
    frequency:     5.0510540112
  - # 8
    frequency:     5.2206550776
  - # 9
    frequency:     5.7808760609
  - # 10
    frequency:     5.7931330590
  - # 11
    frequency:     5.8928263460
  - # 12
    frequency:     5.9035021517

- q-position: [    0.0520833,    0.0520833,    0.0104167 ]
  weight: 24   
  band:
  - # 1
    frequency:     0.3004331149
  - # 2
    frequency:     0.4064341662
  - # 3
    frequency:     0.8862937891
  - # 4
    frequency:     3.7310143822
  - # 5
    frequency:     3.7310143822
  - # 6
    frequency:     3.7395783881
  - # 7
    frequency:     3.7512323321
  - # 8
    frequency:     3.7512323321
  - # 9
    frequency:     3.8293578442
  - # 10
    frequency:     7.2752433106
  - # 11
    frequency:     7.2752433106
  - # 12
    frequency:     7.2825544033

- q-position: [    0.0729167,    0.0520833,    0.0104167 ]
  weight: 48   
  band:
  - # 1
    frequency:     0.3790206423
  - # 2
    frequency:     0.4959988887
  - # 3
    frequency:     1.0676134472
  - # 4
    frequency:     3.7177285788
  - # 5
    frequency:     3.7379930021
  - # 6
    frequency:     3.7517407030
  - # 7
    frequency:     3.7561118317
  - # 8
    frequency:     3.7869944808
  - # 9
    frequency:     3.8762414435
  - # 10
    frequency:     7.2513583445
  - # 11
    frequency:     7.2589706202
  - # 12
    frequency:     7.2659708760

- q-position: [    0.0937500,    0.0520833,    0.0104167 ]
  weight: 48   
  band:
  - # 1
    frequency:     0.4813805274
  - # 2
    frequency:     0.5945192070
  - # 3
    frequency:     1.2621168957
  - # 4
    frequency:     3.7000527102
  - # 5
    frequency:     3.7203813781
  - # 6
    frequency:     3.7732732747
  - # 7
    frequency:     3.7893138127
  - # 8
    frequency:     3.8332184407
  - # 9
    frequency:     3.9318244811
  - # 10
    frequency:     7.2195634205
  - # 11
    frequency:     7.2373143280
  - # 12
    frequency:     7.2438964641

- q-position: [    0.1145833,    0.0520833,    0.0104167 ]
  weight: 48   
  band:
  - # 1
    frequency:     0.5933161702
  - # 2
    frequency:     0.6979866994
  - # 3
    frequency:     1.4647185758
  - # 4
    frequency:     3.6780195777
  - # 5
    frequency:     3.6984321684
  - # 6
    frequency:     3.8035496578
  - # 7
    frequency:     3.8297034795
  - # 8
    frequency:     3.8894468573
  - # 9
    frequency:     3.9954390783
  - # 10
    frequency:     7.1799026692
  - # 11
    frequency:     7.2103096478
  - # 12
    frequency:     7.2163631989

- q-position: [    0.1354167,    0.0520833,    0.0104167 ]
  weight: 48   
  band:
  - # 1
    frequency:     0.7087736371
  - # 2