# Thermal properties / unit cell (natom)

unit:
  temperature:   K
  free_energy:   kJ/mol
  entropy:       J/K/mol
  heat_capacity: J/K/mol

natom:     4
num_modes: 1327104
num_integrated_modes: 1327104

zero_point_energy:      10.6413082
high_T_entropy:        405.5386816

thermal_properties:
- temperature:         0.0000000
  free_energy:        10.6413082
  entropy:             0.0000000
  heat_capacity:       0.0000000
  energy:             10.6413082

- temperature:        10.0000000
  free_energy:        10.6409510
  entropy:             0.1399896
  heat_capacity:       0.4069570
  energy:             10.6423509

- temperature:        20.0000000
  free_energy:        10.6358388
  entropy:             1.0913436
  heat_capacity:       3.3208807
  energy:             10.6576657

- temperature:        30.0000000
  free_energy:        10.6135359
  entropy:             3.6890553
  heat_capacity:      10.6833913
  energy:             10.7242076

- temperature:        40.0000000
  free_energy:        10.5558539
  entropy:             8.1256865
  heat_capacity:      20.9067789
  energy:             10.8808813

- temperature:        50.0000000
  free_energy:        10.4463866
  entropy:            13.9516822
  heat_capacity:      31.6582886
  energy:             11.1439707

- temperature:        60.0000000
  free_energy:        10.2740211
  entropy:            20.6219347
  heat_capacity:      41.6236395
  energy:             11.5113371

- temperature:        70.0000000
  free_energy:        10.0325797
  entropy:            27.7073407
  heat_capacity:      50.2979112
  energy:             11.9720936

- temperature:        80.0000000
  free_energy:         9.7194762
  entropy:            34.9157765
  heat_capacity:      57.6109903
  energy:             12.5127383

- temperature:        90.0000000
  free_energy:         9.3344754
  entropy:            42.0633277
  heat_capacity:      63.6843056
  energy:             13.1201749

- temperature:       100.0000000
  free_energy:         8.8787805
  entropy:            49.0412199
  heat_capacity:      68.7009633
  energy:             13.7829025

- temperature:       110.0000000
  free_energy:         8.3544189
  entropy:            55.7897414
  heat_capacity:      72.8457372
  energy:             14.4912905

- temperature:       120.0000000
  free_energy:         7.7638483
  entropy:            62.2800840
  heat_capacity:      76.2819252
  energy:             15.2374584

- temperature:       130.0000000
  free_energy:         7.1097119
  entropy:            68.5023948
  heat_capacity:      79.1455130
  energy:             16.0150232

- temperature:       140.0000000
  free_energy:         6.3946897
  entropy:            74.4581394
  heat_capacity:      81.5465185
  energy:             16.8188292

- temperature:       150.0000000
  free_energy:         5.6214114
  entropy:            80.1552995
  heat_capacity:      83.5727522
  energy:             17.6447063

- temperature:       160.0000000
  free_energy:         4.7924074
  entropy:            85.6053847
  heat_capacity:      85.2939409
  energy:             18.4892690

- temperature:       170.0000000
  free_energy:         3.9100834
  entropy:            90.8215925
  heat_capacity:      86.7654358
  energy:             19.3497541

- temperature:       180.0000000
  free_energy:         2.9767093
  entropy:            95.8176885
  heat_capacity:      88.0312893
  energy:             20.2238932

- temperature:       190.0000000
  free_energy:         1.9944177
  entropy:           100.6073413
  heat_capacity:      89.1267118
  energy:             21.1098125

- temperature:       200.0000000
  free_energy:         0.9652066
  entropy:           105.2037384
  heat_capacity:      90.0799937
  energy:             22.0059543

- temperature:       210.0000000
  free_energy:        -0.1090547
  entropy:           109.6193806
  heat_capacity:      90.9139966
  energy:             22.9110153

- temperature:       220.0000000
  free_energy:        -1.2266177
  entropy:           113.8659845
  heat_capacity:      91.6473064
  energy:             23.8238989

- temperature:       230.0000000
  free_energy:        -2.3858473
  entropy:           117.9544524
  heat_capacity:      92.2951245
  energy:             24.7436767

- temperature:       240.0000000
  free_energy:        -3.5852133
  entropy:           121.8948821
  heat_capacity:      92.8699587
  energy:             25.6695584

- temperature:       250.0000000
  free_energy:        -4.8232827
  entropy:           125.6966000
  heat_capacity:      93.3821612
  energy:             26.6008673

- temperature:       260.0000000
  free_energy:        -6.0987117
  entropy:           129.3682054
  heat_capacity:      93.8403484
  energy:             27.5370217

- temperature:       270.0000000
  free_energy:        -7.4102395
  entropy:           132.9176221
  heat_capacity:      94.2517317
  energy:             28.4775184

- temperature:       280.0000000
  free_energy:        -8.7566813
  entropy:           136.3521496
  heat_capacity:      94.6223783
  energy:             29.4219206

- temperature:       290.0000000
  free_energy:       -10.1369221
  entropy:           139.6785153
  heat_capacity:      94.9574183
  energy:             30.3698474

- temperature:       300.0000000
  free_energy:       -11.5499118
  entropy:           142.9029222
  heat_capacity:      95.2612106
  energy:             31.3209649

- temperature:       310.0000000
  free_energy:       -12.9946598
  entropy:           146.0310957
  heat_capacity:      95.5374758
  energy:             32.2749799

- temperature:       320.0000000
  free_energy:       -14.4702306
  entropy:           149.0683248
  heat_capacity:      95.7894036
  energy:             33.2316334

- temperature:       330.0000000
  free_energy:       -15.9757395
  entropy:           152.0195015
  heat_capacity:      96.0197401
  energy:             34.1906960

- temperature:       340.0000000
  free_energy:       -17.5103489
  entropy:           154.8891560
  heat_capacity:      96.2308590
  energy:             35.1519641

- temperature:       350.0000000
  free_energy:       -19.0732649
  entropy:           157.6814883
  heat_capacity:      96.4248196
  energy:             36.1152560

- temperature:       360.0000000
  free_energy:       -20.6637339
  entropy:           160.4003980
  heat_capacity:      96.6034154
  energy:             37.0804093

- temperature:       370.0000000
  free_energy:       -22.2810402
  entropy:           163.0495097
  heat_capacity:      96.7682136
  energy:             38.0472784

- temperature:       380.0000000
  free_energy:       -23.9245027
  entropy:           165.6321973
  heat_capacity:      96.9205882
  energy:             39.0157322

- temperature:       390.0000000
  free_energy:       -25.5934732
  entropy:           168.1516052
  heat_capacity:      97.0617478
  energy:             39.9856528

- temperature:       400.0000000
  free_energy:       -27.2873337
  entropy:           170.6106677
  heat_capacity:      97.1927586
  energy:             40.9569334

- temperature:       410.0000000
  free_energy:       -29.0054946
  entropy:           173.0121265
  heat_capacity:      97.3145639
  energy:             41.9294773

- temperature:       420.0000000
  free_energy:       -30.7473928
  entropy:           175.3585466
  heat_capacity:      97.4280007
  energy:             42.9031968

- temperature:       430.0000000
  free_energy:       -32.5124901
  entropy:           177.6523302
  heat_capacity:      97.5338136
  energy:             43.8780119

- temperature:       440.0000000
  free_energy:       -34.3002715
  entropy:           179.8957303
  heat_capacity:      97.6326668
  energy:             44.8538498

- temperature:       450.0000000
  free_energy:       -36.1102438
  entropy:           182.0908618
  heat_capacity:      97.7251539
  energy:             45.8306440

- temperature:       460.0000000
  free_energy:       -37.9419345
  entropy:           184.2397129
  heat_capacity:      97.8118070
  energy:             46.8083335

- temperature:       470.0000000
  free_energy:       -39.7948901
  entropy:           186.3441540
  heat_capacity:      97.8931043
  energy:             47.7868623

- temperature:       480.0000000
  free_energy:       -41.6686754
  entropy:           188.4059469
  heat_capacity:      97.9694758
  energy:             48.7661791

- temperature:       490.0000000
  free_energy:       -43.5628724
  entropy:           190.4267532
  heat_capacity:      98.0413098
  energy:             49.7462367

- temperature:       500.0000000
  free_energy:       -45.4770791
  entropy:           192.4081409
  heat_capacity:      98.1089570
  energy:             50.7269914

- temperature:       510.0000000
  free_energy:       -47.4109088
  entropy:           194.3515916
  heat_capacity:      98.1727351
  energy:             51.7084029

- temperature:       520.0000000
  free_energy:       -49.3639891
  entropy:           196.2585063
  heat_capacity:      98.2329325
  energy:             52.6904342

- temperature:       530.0000000
  free_energy:       -51.3359615
  entropy:           198.1302114
  heat_capacity:      98.2898111
  energy:             53.6730505

- temperature:       540.0000000
  free_energy:       -53.3264802
  entropy:           199.9679635
  heat_capacity:      98.3436095
  energy:             54.6562201

- temperature:       550.0000000
  free_energy:       -55.3352116
  entropy:           201.7729541
  heat_capacity:      98.3945453
  energy:             55.6399132

- temperature:       560.0000000
  free_energy:       -57.3618338
  entropy:           203.5463142
  heat_capacity:      98.4428173
  energy:             56.6241021

- temperature:       570.0000000
  free_energy:       -59.4060360
  entropy:           205.2891181
  heat_capacity:      98.4886074
  energy:             57.6087613

- temperature:       580.0000000
  free_energy:       -61.4675178
  entropy:           207.0023868
  heat_capacity:      98.5320823
  energy:             58.5938666

- temperature:       590.0000000
  free_energy:       -63.5459886
  entropy:           208.6870920
  heat_capacity:      98.5733950
  energy:             59.5793957

- temperature:       600.0000000
  free_energy:       -65.6411675
  entropy:           210.3441587
  heat_capacity:      98.6126861
  energy:             60.5653277

- temperature:       610.0000000
  free_energy:       -67.7527825
  entropy:           211.9744683
  heat_capacity:      98.6500849
  energy:             61.5516431

- temperature:       620.0000000
  free_energy:       -69.8805705
  entropy:           213.5788612
  heat_capacity:      98.6857106
  energy:             62.5383235

- temperature:       630.0000000
  free_energy:       -72.0242761
  entropy:           215.1581394
  heat_capacity:      98.7196733
  energy:             63.5253518

- temperature:       640.0000000
  free_energy:       -74.1836521
  entropy:           216.7130685
  heat_capacity:      98.7520746
  energy:             64.5127118

- temperature:       650.0000000
  free_energy:       -76.3584587
  entropy:           218.2443801
  heat_capacity:      98.7830084
  energy:             65.5003884

- temperature:       660.0000000
  free_energy:       -78.5484633
  entropy:           219.7527737
  heat_capacity:      98.8125620
  energy:             66.4883674

- temperature:       670.0000000
  free_energy:       -80.7534400
  entropy:           221.2389184
  heat_capacity:      98.8408158
  energy:             67.4766353

- temperature:       680.0000000
  free_energy:       -82.9731696
  entropy:           222.7034547
  heat_capacity:      98.8678450
  energy:             68.4651796

- temperature:       690.0000000
  free_energy:       -85.2074391
  entropy:           224.1469963
  heat_capacity:      98.8937190
  energy:             69.4539883

- temperature:       700.0000000
  free_energy:       -87.4560415
  entropy:           225.5701313
  heat_capacity:      98.9185027
  energy:             70.4430503

- temperature:       710.0000000
  free_energy:       -89.7187756
  entropy:           226.9734234
  heat_capacity:      98.9422562
  energy:             71.4323550

- temperature:       720.0000000
  free_energy:       -91.9954457
  entropy:           228.3574137
  heat_capacity:      98.9650358
  energy:             72.4218922

- temperature:       730.0000000
  free_energy:       -94.2858613
  entropy:           229.7226218
  heat_capacity:      98.9868939
  energy:             73.4116526

- temperature:       740.0000000
  free_energy:       -96.5898372
  entropy:           231.0695464
  heat_capacity:      99.0078794
  energy:             74.4016272

- temperature:       750.0000000
  free_energy:       -98.9071929
  entropy:           232.3986671
  heat_capacity:      99.0280381
  energy:             75.3918074

- temperature:       760.0000000
  free_energy:      -101.2377527
  entropy:           233.7104448
  heat_capacity:      99.0474127
  energy:             76.3821853

- temperature:       770.0000000
  free_energy:      -103.5813454
  entropy:           235.0053229
  heat_capacity:      99.0660433
  energy:             77.3727532

- temperature:       780.0000000
  free_energy:      -105.9378043
  entropy:           236.2837283
  heat_capacity:      99.0839675
  energy:             78.3635038

- temperature:       790.0000000
  free_energy:      -108.3069665
  entropy:           237.5460719
  heat_capacity:      99.1012204
  energy:             79.3544303

- temperature:       800.0000000
  free_energy:      -110.6886735
  entropy:           238.7927495
  heat_capacity:      99.1178351
  energy:             80.3455261

- temperature:       810.0000000
  free_energy:      -113.0827705
  entropy:           240.0241426
  heat_capacity:      99.1338426
  energy:             81.3367850

- temperature:       820.0000000
  free_energy:      -115.4891066
  entropy:           241.2406191
  heat_capacity:      99.1492722
  energy:             82.3282010

- temperature:       830.0000000
  free_energy:      -117.9075344
  entropy:           242.4425337
  heat_capacity:      99.1641512
  energy:             83.3197686

- temperature:       840.0000000
  free_energy:      -120.3379099
  entropy:           243.6302288
  heat_capacity:      99.1785055
  energy:             84.3114823

- temperature:       850.0000000
  free_energy:      -122.7800926
  entropy:           244.8040349
  heat_capacity:      99.1923594
  energy:             85.3033371

- temperature:       860.0000000
  free_energy:      -125.2339453
  entropy:           245.9642712
  heat_capacity:      99.2057359
  energy:             86.2953279

- temperature:       870.0000000
  free_energy:      -127.6993339
  entropy:           247.1112461
  heat_capacity:      99.2186567
  energy:             87.2874503

- temperature:       880.0000000
  free_energy:      -130.1761271
  entropy:           248.2452576
  heat_capacity:      99.2311422
  energy:             88.2796996

- temperature:       890.0000000
  free_energy:      -132.6641968
  entropy:           249.3665938
  heat_capacity:      99.2432117
  energy:             89.2720717

- temperature:       900.0000000
  free_energy:      -135.1634176
  entropy:           250.4755335
  heat_capacity:      99.2548834
  energy:             90.2645625

- temperature:       910.0000000
  free_energy:      -137.6736670
  entropy:           251.5723463
  heat_capacity:      99.2661746
  energy:             91.2571681

- temperature:       920.0000000
  free_energy:      -140.1948250
  entropy:           252.6572932
  heat_capacity:      99.2771017
  energy:             92.2498848

- temperature:       930.0000000
  free_energy:      -142.7267742
  entropy:           253.7306270
  heat_capacity:      99.2876800
  energy:             93.2427090

- temperature:       940.0000000
  free_energy:      -145.2693996
  entropy:           254.7925925
  heat_capacity:      99.2979244
  energy:             94.2356373

- temperature:       950.0000000
  free_energy:      -147.8225889
  entropy:           255.8434266
  heat_capacity:      99.3078487
  energy:             95.2286664

- temperature:       960.0000000
  free_energy:      -150.3862318
  entropy:           256.8833594
  heat_capacity:      99.3174660
  energy:             96.2217932

- temperature:       970.0000000
  free_energy:      -152.9602205
  entropy:           257.9126137
  heat_capacity:      99.3267888
  energy:             97.2150147

- temperature:       980.0000000
  free_energy:      -155.5444492
  entropy:           258.9314054
  heat_capacity:      99.3358292
  energy:             98.2083281

- temperature:       990.0000000
  free_energy:      -158.1388144
  entropy:           259.9399443
  heat_capacity:      99.3445982
  energy:             99.2017304

- temperature:      1000.0000000
  free_energy:      -160.7432146
  entropy:           260.9384338
  heat_capacity:      99.3531068
  energy:            100.1952192

- temperature:      1010.0000000
  free_energy:      -163.3575503
  entropy:           261.9270713
  heat_capacity:      99.3613650
  energy:            101.1887917

- temperature:      1020.0000000
  free_energy:      -165.9817238
  entropy:           262.9060485
  heat_capacity:      99.3693827
  energy:            102.1824457

- temperature:      1030.0000000
  free_energy:      -168.6156397
  entropy:           263.8755517
  heat_capacity:      99.3771689
  energy:            103.1761786

- temperature:      1040.0000000
  free_energy:      -171.2592039
  entropy:           264.8357617
  heat_capacity:      99.3847327
  energy:            104.1699883

- temperature:      1050.0000000
  free_energy:      -173.9123245
  entropy:           265.7868543
  heat_capacity:      99.3920822
  energy:            105.1638725

- temperature:      1060.0000000
  free_energy:      -176.5749112
  entropy:           266.7290004
  heat_capacity:      99.3992256
  energy:            106.1578293

- temperature:      1070.0000000
  free_energy:      -179.2468752
  entropy:           267.6623660
  heat_capacity:      99.4061705
  energy:            107.1518564

- temperature:      1080.0000000
  free_energy:      -181.9281298
  entropy:           268.5871128
  heat_capacity:      99.4129242
  energy:            108.1459520

- temperature:      1090.0000000
  free_energy:      -184.6185893
  entropy:           269.5033978
  heat_capacity:      99.4194935
  energy:            109.1401143

- temperature:      1100.0000000
  free_energy:      -187.3181700
  entropy:           270.4113739
  heat_capacity:      99.4258852
  energy:            110.1343413

- temperature:      1110.0000000
  free_energy:      -190.0267896
  entropy:           271.3111901
  heat_capacity:      99.4321056
  energy:            111.1286314

- temperature:      1120.0000000
  free_energy:      -192.7443671
  entropy:           272.2029910
  heat_capacity:      99.4381607
  energy:            112.1229829

- temperature:      1130.0000000
  free_energy:      -195.4708232
  entropy:           273.0869179
  heat_capacity:      99.4440564
  energy:            113.1173941

- temperature:      1140.0000000
  free_energy:      -198.2060797
  entropy:           273.9631080
  heat_capacity:      99.4497982
  energy:            114.1118635

- temperature:      1150.0000000
  free_energy:      -200.9500600
  entropy:           274.8316952
  heat_capacity:      99.4553913
  energy:            115.1063895

- temperature:      1160.0000000
  free_energy:      -203.7026887
  entropy:           275.6928099
  heat_capacity:      99.4608410
  energy:            116.1009708

- temperature:      1170.0000000
  free_energy:      -206.4638917
  entropy:           276.5465791
  heat_capacity:      99.4661519
  energy:            117.0956059

- temperature:      1180.0000000
  free_energy:      -209.2335962
  entropy:           277.3931268
  heat_capacity:      99.4713289
  energy:            118.0902934

- temperature:      1190.0000000
  free_energy:      -212.0117305
  entropy:           278.2325736
  heat_capacity:      99.4763764
  energy:            119.0850321

- temperature:      1200.0000000
  free_energy:      -214.7982244
  entropy:           279.0650374
  heat_capacity:      99.4812986
  energy:            120.0798205

- temperature:      1210.0000000
  free_energy:      -217.5930084
  entropy:           279.8906331
  heat_capacity:      99.4860997
  energy:            121.0746576

- temperature:      1220.0000000
  free_energy:      -220.3960145
  entropy:           280.7094727
  heat_capacity:      99.4907835
  energy:            122.0695421

- temperature:      1230.0000000
  free_energy:      -223.2071757
  entropy:           281.5216655
  heat_capacity:      99.4953539
  energy:            123.0644729

- temperature:      1240.0000000
  free_energy:      -226.0264260
  entropy:           282.3273184
  heat_capacity:      99.4998146
  energy:            124.0594488

- temperature:      1250.0000000
  free_energy:      -228.8537006
  entropy:           283.1265356
  heat_capacity:      99.5041689
  energy:            125.0544689

- temperature:      1260.0000000
  free_energy:      -231.6889356
  entropy:           283.9194187
  heat_capacity:      99.5084203
  energy:            126.0495319

- temperature:      1270.0000000
  free_energy:      -234.5320682
  entropy:           284.7060670
  heat_capacity:      99.5125720
  energy:            127.0446369

- temperature:      1280.0000000
  free_energy:      -237.3830365
  entropy:           285.4865777
  heat_capacity:      99.5166270
  energy:            128.0397830

- temperature:      1290.0000000
  free_energy:      -240.2417796
  entropy:           286.2610456
  heat_capacity:      99.5205883
  energy:            129.0349692

- temperature:      1300.0000000
  free_energy:      -243.1082376
  entropy:           287.0295631
  heat_capacity:      99.5244588
  energy:            130.0301945

- temperature:      1310.0000000
  free_energy:      -245.9823514
  entropy:           287.7922209
  heat_capacity:      99.5282413
  energy:            131.0254580

- temperature:      1320.0000000
  free_energy:      -248.8640628
  entropy:           288.5491074
  heat_capacity:      99.5319383
  energy:            132.0207590

- temperature:      1330.0000000
  free_energy:      -251.7533146
  entropy:           289.3003091
  heat_capacity:      99.5355525
  energy:            133.0160965

- temperature:      1340.0000000
  free_energy:      -254.6500503
  entropy:           290.0459105
  heat_capacity:      99.5390863
  energy:            134.0114698

- temperature:      1350.0000000
  free_energy:      -257.5542144
  entropy:           290.7859943
  heat_capacity:      99.5425421
  energy:            135.0068780

- temperature:      1360.0000000
  free_energy:      -260.4657520
  entropy:           291.5206415
  heat_capacity:      99.5459221
  energy:            136.0023204

- temperature:      1370.0000000
  free_energy:      -263.3846093
  entropy:           292.2499310
  heat_capacity:      99.5492285
  energy:            136.9977962

- temperature:      1380.0000000
  free_energy:      -266.3107331
  entropy:           292.9739404
  heat_capacity:      99.5524635
  energy:            137.9933047

- temperature:      1390.0000000
  free_energy:      -269.2440708
  entropy:           293.6927453
  heat_capacity:      99.5556291
  energy:            138.9888452

- temperature:      1400.0000000
  free_energy:      -272.1845709
  entropy:           294.4064200
  heat_capacity:      99.5587273
  energy:            139.9844171

- temperature:      1410.0000000
  free_energy:      -275.1321823
  entropy:           295.1150368
  heat_capacity:      99.5617600
  energy:            140.9800196

- temperature:      1420.0000000
  free_energy:      -278.0868550
  entropy:           295.8186669
  heat_capacity:      99.5647289
  energy:            141.9756521

- temperature:      1430.0000000
  free_energy:      -281.0485393
  entropy:           296.5173799
  heat_capacity:      99.5676359
  energy:            142.9713139

- temperature:      1440.0000000
  free_energy:      -284.0171864
  entropy:           297.2112437
  heat_capacity:      99.5704827
  energy:            143.9670046

- temperature:      1450.0000000
  free_energy:      -286.9927482
  entropy:           297.9003252
  heat_capacity:      99.5732710
  energy:            144.9627234

- temperature:      1460.0000000
  free_energy:      -289.9751772
  entropy:           298.5846897
  heat_capacity:      99.5760023
  energy:            145.9584698

- temperature:      1470.0000000
  free_energy:      -292.9644265
  entropy:           299.2644012
  heat_capacity:      99.5786781
  energy:            146.9542432

- temperature:      1480.0000000
  free_energy:      -295.9604499
  entropy:           299.9395224
  heat_capacity:      99.5813000
  energy:            147.9500432

- temperature:      1490.0000000
  free_energy:      -298.9632019
  entropy:           300.6101147
  heat_capacity:      99.5838694
  energy:            148.9458691

- temperature:      1500.0000000
  free_energy:      -301.9726373
  entropy:           301.2762385
  heat_capacity:      99.5863877
  energy:            149.9417204

- temperature:      1510.0000000
  free_energy:      -304.9887119
  entropy:           301.9379527
  heat_capacity:      99.5888562
  energy:            150.9375967

- temperature:      1520.0000000
  free_energy:      -308.0113819
  entropy:           302.5953153
  heat_capacity:      99.5912763
  energy:            151.9334974

- temperature:      1530.0000000
  free_energy:      -311.0406039
  entropy:           303.2483830
  heat_capacity:      99.5936492
  energy:            152.9294220

- temperature:      1540.0000000
  free_energy:      -314.0763354
  entropy:           303.8972114
  heat_capacity:      99.5959760
  energy:            153.9253702

- temperature:      1550.0000000
  free_energy:      -317.1185342
  entropy:           304.5418552
  heat_capacity:      99.5982581
  energy:            154.9213414

- temperature:      1560.0000000
  free_energy:      -320.1671587
  entropy:           305.1823679
  heat_capacity:      99.6004965
  energy:            155.9173352

- temperature:      1570.0000000
  free_energy:      -323.2221680
  entropy:           305.8188020
  heat_capacity:      99.6026924
  energy:            156.9133512

- temperature:      1580.0000000
  free_energy:      -326.2835214
  entropy:           306.4512090
  heat_capacity:      99.6048468
  energy:            157.9093889

- temperature:      1590.0000000
  free_energy:      -329.3511789
  entropy:           307.0796395
  heat_capacity:      99.6069607
  energy:            158.9054480

- temperature:      1600.0000000
  free_energy:      -332.4251011
  entropy:           307.7041432
  heat_capacity:      99.6090352
  energy:            159.9015280

- temperature:      1610.0000000
  free_energy:      -335.5052488
  entropy:           308.3247686
  heat_capacity:      99.6110713
  energy:            160.8976286

- temperature:      1620.0000000
  free_energy:      -338.5915837
  entropy:           308.9415636
  heat_capacity:      99.6130698
  energy:            161.8937493

- temperature:      1630.0000000
  free_energy:      -341.6840675
  entropy:           309.5545750
  heat_capacity:      99.6150317
  energy:            162.8898898

- temperature:      1640.0000000
  free_energy:      -344.7826627
  entropy:           310.1638491
  heat_capacity:      99.6169579
  energy:            163.8860498

- temperature:      1650.0000000
  free_energy:      -347.8873322
  entropy:           310.7694309
  heat_capacity:      99.6188492
  energy:            164.8822289

- temperature:      1660.0000000
  free_energy:      -350.9980392
  entropy:           311.3713650
  heat_capacity:      99.6207065
  energy:            165.8784267

- temperature:      1670.0000000
  free_energy:      -354.1147474
  entropy:           311.9696948
  heat_capacity:      99.6225306
  energy:            166.8746429

- temperature:      1680.0000000
  free_energy:      -357.2374212
  entropy:           312.5644633
  heat_capacity:      99.6243223
  energy:            167.8708772

- temperature:      1690.0000000
  free_energy:      -360.3660250
  entropy:           313.1557126
  heat_capacity:      99.6260823
  energy:            168.8671292

- temperature:      1700.0000000
  free_energy:      -363.5005238
  entropy:           313.7434839
  heat_capacity:      99.6278114
  energy:            169.8633987

- temperature:      1710.0000000
  free_energy:      -366.6408832
  entropy:           314.3278179
  heat_capacity:      99.6295103
  energy:            170.8596854

- temperature:      1720.0000000
  free_energy:      -369.7870689
  entropy:           314.9087545
  heat_capacity:      99.6311798
  energy:            171.8559888

- temperature:      1730.0000000
  free_energy:      -372.9390471
  entropy:           315.4863329
  heat_capacity:      99.6328203
  energy:            172.8523089

- temperature:      1740.0000000
  free_energy:      -376.0967845
  entropy:           316.0605917
  heat_capacity:      99.6344328
  energy:            173.8486452

- temperature:      1750.0000000
  free_energy:      -379.2602480
  entropy:           316.6315688
  heat_capacity:      99.6360177
  energy:            174.8449974

- temperature:      1760.0000000
  free_energy:      -382.4294050
  entropy:           317.1993014
  heat_capacity:      99.6375757
  energy:            175.8413654

- temperature:      1770.0000000
  free_energy:      -385.6042233
  entropy:           317.7638261
  heat_capacity:      99.6391074
  energy:            176.8377489

- temperature:      1780.0000000
  free_energy:      -388.7846710
  entropy:           318.3251789
  heat_capacity:      99.6406134