  32  32   0   0
  0.1762562E+02  0.8262247E-09  0.8262247E-09  0.8262247E-09  0.5000000E-15
  1.000000000000000E-004
  CAR 
 unknown system                          
     15.04972681     -5.09260054  301      5.32678197      1.00000000
     -5.093  0.0000E+00  0.0000E+00
     -5.025  0.0000E+00  0.0000E+00
     -4.958  0.0000E+00  0.0000E+00
     -4.891  0.0000E+00  0.0000E+00
     -4.824  0.0000E+00  0.0000E+00
     -4.757  0.0000E+00  0.0000E+00
     -4.690  0.0000E+00  0.0000E+00
     -4.623  0.0000E+00  0.0000E+00
     -4.555  0.0000E+00  0.0000E+00
     -4.488  0.0000E+00  0.0000E+00
     -4.421  0.0000E+00  0.0000E+00
     -4.354  0.0000E+00  0.0000E+00
     -4.287  0.0000E+00  0.0000E+00
     -4.220  0.1309E-10  0.8787E-12
     -4.153  0.9780E-01  0.6567E-02
     -4.085  0.5352E+00  0.4250E-01
     -4.018  0.8899E+00  0.1022E+00
     -3.951  0.1413E+01  0.1971E+00
     -3.884  0.1390E+01  0.2904E+00
     -3.817  0.1553E+01  0.3948E+00
     -3.750  0.1933E+01  0.5246E+00
     -3.683  0.1243E+01  0.6081E+00
     -3.615  0.2587E+01  0.7818E+00
     -3.548  0.1649E+01  0.8926E+00
     -3.481  0.2617E+01  0.1068E+01
     -3.414  0.1973E+01  0.1202E+01
     -3.347  0.3185E+01  0.1415E+01
     -3.280  0.2435E+01  0.1579E+01
     -3.213  0.3004E+01  0.1781E+01
     -3.146  0.3741E+01  0.2032E+01
     -3.078  0.2597E+01  0.2207E+01
     -3.011  0.3367E+01  0.2434E+01
     -2.944  0.4040E+01  0.2706E+01
     -2.877  0.3086E+01  0.2913E+01
     -2.810  0.5164E+01  0.3260E+01
     -2.743  0.2863E+01  0.3453E+01
     -2.676  0.3626E+01  0.3696E+01
     -2.608  0.5403E+01  0.4059E+01
     -2.541  0.4979E+01  0.4394E+01
     -2.474  0.4245E+01  0.4680E+01
     -2.407  0.4238E+01  0.4964E+01
     -2.340  0.5825E+01  0.5355E+01
     -2.273  0.6233E+01  0.5774E+01
     -2.206  0.5664E+01  0.6155E+01
     -2.138  0.6645E+01  0.6601E+01
     -2.071  0.6166E+01  0.7015E+01
     -2.004  0.6509E+01  0.7453E+01
     -1.937  0.1010E+02  0.8131E+01
     -1.870  0.6739E+01  0.8586E+01
     -1.803  0.9631E+01  0.9234E+01
     -1.736  0.1283E+02  0.1010E+02
     -1.668  0.1804E+02  0.1131E+02
     -1.601  0.2154E+02  0.1276E+02
     -1.534  0.2125E+02  0.1419E+02
     -1.467  0.2426E+02  0.1582E+02
     -1.400  0.2743E+02  0.1766E+02
     -1.333  0.3022E+02  0.1969E+02
     -1.266  0.3417E+02  0.2199E+02
     -1.198  0.4394E+02  0.2494E+02
     -1.131  0.4366E+02  0.2788E+02
     -1.064  0.5534E+02  0.3160E+02
     -0.997  0.5817E+02  0.3552E+02
     -0.930  0.6223E+02  0.3970E+02
     -0.863  0.6727E+02  0.4423E+02
     -0.796  0.5879E+02  0.4818E+02
     -0.728  0.6733E+02  0.5271E+02
     -0.661  0.4784E+02  0.5593E+02
     -0.594  0.6668E+02  0.6041E+02
     -0.527  0.4570E+02  0.6348E+02
     -0.460  0.6047E+02  0.6755E+02
     -0.393  0.5151E+02  0.7101E+02
     -0.326  0.5442E+02  0.7467E+02
     -0.258  0.4084E+02  0.7742E+02
     -0.191  0.4023E+02  0.8013E+02
     -0.124  0.3373E+02  0.8240E+02
     -0.057  0.4939E+02  0.8572E+02
      0.010  0.5245E+02  0.8925E+02
      0.077  0.5989E+02  0.9327E+02
      0.144  0.6000E+02  0.9731E+02
      0.212  0.6451E+02  0.1016E+03
      0.279  0.6540E+02  0.1060E+03
      0.346  0.7026E+02  0.1108E+03
      0.413  0.6380E+02  0.1151E+03
      0.480  0.6289E+02  0.1193E+03
      0.547  0.7252E+02  0.1242E+03
      0.614  0.7078E+02  0.1289E+03
      0.682  0.6300E+02  0.1332E+03
      0.749  0.7309E+02  0.1381E+03
      0.816  0.7964E+02  0.1434E+03
      0.883  0.8319E+02  0.1490E+03
      0.950  0.9192E+02  0.1552E+03
      1.017  0.1046E+03  0.1622E+03
      1.084  0.1315E+03  0.1711E+03
      1.152  0.9719E+02  0.1776E+03
      1.219  0.8225E+02  0.1832E+03
      1.286  0.6648E+02  0.1876E+03
      1.353  0.5945E+02  0.1916E+03
      1.420  0.5056E+02  0.1950E+03
      1.487  0.6648E+02  0.1995E+03
      1.554  0.5217E+02  0.2030E+03
      1.622  0.5327E+02  0.2066E+03
      1.689  0.5532E+02  0.2103E+03
      1.756  0.5515E+02  0.2140E+03
      1.823  0.6395E+02  0.2183E+03
      1.890  0.6395E+02  0.2226E+03
      1.957  0.7022E+02  0.2273E+03
      2.024  0.6865E+02  0.2320E+03
      2.091  0.7535E+02  0.2370E+03
      2.159  0.7845E+02  0.2423E+03
      2.226  0.6367E+02  0.2466E+03
      2.293  0.6800E+02  0.2511E+03
      2.360  0.5893E+02  0.2551E+03
      2.427  0.6243E+02  0.2593E+03
      2.494  0.5557E+02  0.2631E+03
      2.561  0.5264E+02  0.2666E+03
      2.629  0.5979E+02  0.2706E+03
      2.696  0.5216E+02  0.2741E+03
      2.763  0.5654E+02  0.2779E+03
      2.830  0.5170E+02  0.2814E+03
      2.897  0.6211E+02  0.2856E+03
      2.964  0.5601E+02  0.2893E+03
      3.031  0.6310E+02  0.2936E+03
      3.099  0.7235E+02  0.2985E+03
      3.166  0.7329E+02  0.3034E+03
      3.233  0.1081E+03  0.3107E+03
      3.300  0.9170E+02  0.3168E+03
      3.367  0.1071E+03  0.3240E+03
      3.434  0.6156E+02  0.3282E+03
      3.501  0.5299E+02  0.3317E+03
      3.569  0.3602E+02  0.3341E+03
      3.636  0.3555E+02  0.3365E+03
      3.703  0.1381E+02  0.3375E+03
      3.770  0.4225E+01  0.3377E+03
      3.837  0.4592E+01  0.3381E+03
      3.904  0.1485E+02  0.3391E+03
      3.971  0.1085E+02  0.3398E+03
      4.039  0.5250E+01  0.3401E+03
      4.106  0.7848E+01  0.3407E+03
      4.173  0.1267E+02  0.3415E+03
      4.240  0.9458E+01  0.3421E+03
      4.307  0.6412E+01  0.3426E+03
      4.374  0.7859E+01  0.3431E+03
      4.441  0.1271E+02  0.3440E+03
      4.509  0.8227E+01  0.3445E+03
      4.576  0.8469E+01  0.3451E+03
      4.643  0.7667E+01  0.3456E+03
      4.710  0.1161E+02  0.3464E+03
      4.777  0.9222E+01  0.3470E+03
      4.844  0.8514E+01  0.3476E+03
      4.911  0.7781E+01  0.3481E+03
      4.979  0.9851E+01  0.3488E+03
      5.046  0.9665E+01  0.3494E+03
      5.113  0.1004E+02  0.3501E+03
      5.180  0.6931E+01  0.3505E+03
      5.247  0.8240E+01  0.3511E+03
      5.314  0.1080E+02  0.3518E+03
      5.381  0.1116E+02  0.3526E+03
      5.449  0.9329E+01  0.3532E+03
      5.516  0.7049E+01  0.3537E+03
      5.583  0.5887E+01  0.3541E+03
      5.650  0.1066E+02  0.3548E+03
      5.717  0.1115E+02  0.3555E+03
      5.784  0.1145E+02  0.3563E+03
      5.851  0.6634E+01  0.3568E+03
      5.919  0.6825E+01  0.3572E+03
      5.986  0.1150E+02  0.3580E+03
      6.053  0.7691E+01  0.3585E+03
      6.120  0.8185E+01  0.3591E+03
      6.187  0.1027E+02  0.3598E+03
      6.254  0.7988E+01  0.3603E+03
      6.321  0.1035E+02  0.3610E+03
      6.389  0.7289E+01  0.3615E+03
      6.456  0.9680E+01  0.3621E+03
      6.523  0.9120E+01  0.3627E+03
      6.590  0.9805E+01  0.3634E+03
      6.657  0.8325E+01  0.3640E+03
      6.724  0.6682E+01  0.3644E+03
      6.791  0.1205E+02  0.3652E+03
      6.859  0.6791E+01  0.3657E+03
      6.926  0.8481E+01  0.3662E+03
      6.993  0.9708E+01  0.3669E+03
      7.060  0.8385E+01  0.3675E+03
      7.127  0.9714E+01  0.3681E+03
      7.194  0.7336E+01  0.3686E+03
      7.261  0.7370E+01  0.3691E+03
      7.329  0.6372E+01  0.3695E+03
      7.396  0.1219E+02  0.3703E+03
      7.463  0.5951E+01  0.3707E+03
      7.530  0.8472E+01  0.3713E+03
      7.597  0.9541E+01  0.3720E+03
      7.664  0.7571E+01  0.3725E+03
      7.731  0.6211E+01  0.3729E+03
      7.798  0.7523E+01  0.3734E+03
      7.866  0.9437E+01  0.3740E+03
      7.933  0.6884E+01  0.3745E+03
      8.000  0.8041E+01  0.3750E+03
      8.067  0.5936E+01  0.3754E+03
      8.134  0.7641E+01  0.3759E+03
      8.201  0.8439E+01  0.3765E+03
      8.268  0.1903E+02  0.3778E+03
      8.336  0.1420E+02  0.3787E+03
      8.403  0.1459E+02  0.3797E+03
      8.470  0.1269E+02  0.3806E+03
      8.537  0.1295E+02  0.3814E+03
      8.604  0.1141E+02  0.3822E+03
      8.671  0.1013E+02  0.3829E+03
      8.738  0.9597E+01  0.3835E+03
      8.806  0.1297E+02  0.3844E+03
      8.873  0.1339E+02  0.3853E+03
      8.940  0.9431E+01  0.3859E+03
      9.007  0.5946E+01  0.3863E+03
      9.074  0.1052E+02  0.3871E+03
      9.141  0.1045E+02  0.3878E+03
      9.208  0.8521E+01  0.3883E+03
      9.276  0.8663E+01  0.3889E+03
      9.343  0.9388E+01  0.3895E+03
      9.410  0.7419E+01  0.3900E+03
      9.477  0.8743E+01  0.3906E+03
      9.544  0.8513E+01  0.3912E+03
      9.611  0.6702E+01  0.3917E+03
      9.678  0.9970E+01  0.3923E+03
      9.746  0.8265E+01  0.3929E+03
      9.813  0.1040E+02  0.3936E+03
      9.880  0.1021E+02  0.3943E+03
      9.947  0.6367E+01  0.3947E+03
     10.014  0.9723E+01  0.3954E+03
     10.081  0.1321E+02  0.3962E+03
     10.148  0.1257E+02  0.3971E+03
     10.216  0.8959E+01  0.3977E+03
     10.283  0.7908E+01  0.3982E+03
     10.350  0.1020E+02  0.3989E+03
     10.417  0.1448E+02  0.3999E+03
     10.484  0.1158E+02  0.4007E+03
     10.551  0.9186E+01  0.4013E+03
     10.618  0.1401E+02  0.4022E+03
     10.686  0.1051E+02  0.4029E+03
     10.753  0.1699E+02  0.4041E+03
     10.820  0.9531E+01  0.4047E+03
     10.887  0.1218E+02  0.4055E+03
     10.954  0.8389E+01  0.4061E+03
     11.021  0.9860E+01  0.4068E+03
     11.088  0.1393E+02  0.4077E+03
     11.156  0.1377E+02  0.4086E+03
     11.223  0.1222E+02  0.4094E+03
     11.290  0.7236E+01  0.4099E+03
     11.357  0.9086E+01  0.4105E+03
     11.424  0.8415E+01  0.4111E+03
     11.491  0.1231E+02  0.4119E+03
     11.558  0.1190E+02  0.4127E+03
     11.626  0.7802E+01  0.4132E+03
     11.693  0.8235E+01  0.4138E+03
     11.760  0.8566E+01  0.4144E+03
     11.827  0.1024E+02  0.4151E+03
     11.894  0.7385E+01  0.4156E+03
     11.961  0.1061E+02  0.4163E+03
     12.028  0.6816E+01  0.4167E+03
     12.096  0.6362E+01  0.4172E+03
     12.163  0.1297E+02  0.4180E+03
     12.230  0.1289E+02  0.4189E+03
     12.297  0.8822E+01  0.4195E+03
     12.364  0.1109E+02  0.4202E+03
     12.431  0.5578E+01  0.4206E+03
     12.498  0.1248E+02  0.4215E+03
     12.566  0.1097E+02  0.4222E+03
     12.633  0.1139E+02  0.4230E+03
     12.700  0.6859E+01  0.4234E+03
     12.767  0.1525E+02  0.4244E+03
     12.834  0.1477E+02  0.4254E+03
     12.901  0.1221E+02  0.4263E+03
     12.968  0.8694E+01  0.4268E+03
     13.035  0.4539E+01  0.4271E+03
     13.103  0.1102E+02  0.4279E+03
     13.170  0.1185E+02  0.4287E+03
     13.237  0.6449E+01  0.4291E+03
     13.304  0.5632E+01  0.4295E+03
     13.371  0.1114E+02  0.4302E+03
     13.438  0.6719E+01  0.4307E+03
     13.505  0.5252E+01  0.4310E+03
     13.573  0.2454E+01  0.4312E+03
     13.640  0.2854E+01  0.4314E+03
     13.707  0.3583E+01  0.4316E+03
     13.774  0.2837E+01  0.4318E+03
     13.841  0.5076E-01  0.4318E+03
     13.908  0.3212E-01  0.4318E+03
     13.975  0.5426E+00  0.4319E+03
     14.043  0.5857E+00  0.4319E+03
     14.110  0.1046E+01  0.4320E+03
     14.177  0.1379E+00  0.4320E+03
     14.244  0.0000E+00  0.4320E+03
     14.311  0.0000E+00  0.4320E+03
     14.378  0.0000E+00  0.4320E+03
     14.445  0.0000E+00  0.4320E+03
     14.513  0.0000E+00  0.4320E+03
     14.580  0.0000E+00  0.4320E+03
     14.647  0.0000E+00  0.4320E+03
     14.714  0.0000E+00  0.4320E+03
     14.781  0.0000E+00  0.4320E+03
     14.848  0.0000E+00  0.4320E+03
     14.915  0.0000E+00  0.4320E+03
     14.983  0.0000E+00  0.4320E+03
     15.050  0.0000E+00  0.4320E+03
