   32   32    1    1
  0.1762562E+02  0.8262247E-09  0.8262247E-09  0.8262247E-09  0.5000000E-15
  1.000000000000000E-004
  CAR 
 unknown system                          
  352  196  216
 
  0.0000000E+00  0.0000000E+00  0.0000000E+00  0.5787037E-03
   1       -4.1770
   2       -1.8255
   3       -1.8221
   4       -1.8221
   5       -1.8221
   6       -1.8221
   7       -1.8187
   8       -1.7211
   9       -1.7211
  10       -1.7211
  11       -1.7211
  12       -1.4784
  13       -1.4783
  14       -1.4783
  15       -1.1885
  16       -1.1885
  17       -1.1885
  18       -0.5438
  19       -0.5423
  20       -0.5423
  21       -0.5404
  22       -0.5402
  23       -0.5401
  24       -0.5401
  25       -0.5401
  26       -0.5399
  27       -0.5381
  28       -0.5381
  29       -0.5366
  30       -0.4288
  31       -0.4264
  32       -0.4264
  33       -0.4264
  34       -0.4264
  35       -0.4241
  36       -0.2985
  37       -0.2962
  38       -0.2962
  39       -0.2962
  40       -0.2962
  41       -0.2938
  42        0.2630
  43        0.2659
  44        0.2659
  45        0.2673
  46        0.2673
  47        0.2673
  48        0.2673
  49        0.2673
  50        0.2674
  51        0.2685
  52        0.2685
  53        0.2713
  54        0.3311
  55        0.3311
  56        0.3336
  57        0.3336
  58        0.3337
  59        0.3337
  60        0.3337
  61        0.3338
  62        0.3338
  63        0.3340
  64        0.3364
  65        0.3364
  66        0.5970
  67        0.6011
  68        0.6011
  69        0.6011
  70        0.6014
  71        0.6014
  72        0.6014
  73        0.6015
  74        0.6017
  75        0.6017
  76        0.6017
  77        0.6058
  78        0.7276
  79        0.7276
  80        0.7276
  81        0.7277
  82        0.7277
  83        0.7277
  84        0.7277
  85        0.7278
  86        0.7599
  87        0.7599
  88        0.7599
  89        1.4396
  90        1.4419
  91        1.4420
  92        1.4420
  93        1.4420
  94        1.4443
  95        1.6331
  96        1.6340
  97        1.6353
  98        1.6353
  99        1.6360
 100        1.6360
 101        1.6360
 102        1.6360
 103        1.6367
 104        1.6367
 105        1.6381
 106        1.6387
 107        1.9278
 108        1.9278
 109        1.9306
 110        1.9306
 111        1.9309
 112        1.9309
 113        1.9309
 114        1.9309
 115        1.9311
 116        1.9311
 117        1.9339
 118        1.9339
 119        2.0678
 120        2.0698
 121        2.0698
 122        2.0698
 123        2.0698
 124        2.0718
 125        2.1857
 126        2.1857
 127        2.1880
 128        2.1885
 129        2.1889
 130        2.1890
 131        2.1890
 132        2.1890
 133        2.1891
 134        2.1895
 135        2.1915
 136        2.1925
 137        2.1925
 138        2.1926
 139        2.7130
 140        2.7144
 141        2.7144
 142        2.7144
 143        2.7144
 144        2.7158
 145        3.2811
 146        3.2811
 147        3.2812
 148        3.3231
 149        3.3231
 150        3.3231
 151        3.3231
 152        3.3231
 153        3.3231
 154        3.3231
 155        3.3231
 156        3.6253
 157        3.6256
 158        3.6256
 159        3.6256
 160        3.6256
 161        3.6256
 162        3.6273
 163        3.6274
 164        3.6274
 165        3.6274
 166        3.6274
 167        3.6277
 168        4.5109
 169        4.5109
 170        4.5109
 171        4.5109
 172        4.9836
 173        4.9841
 174        4.9841
 175        4.9849
 176        4.9854
 177        4.9854
 178        4.9854
 179        4.9854
 180        4.9860
 181        4.9867
 182        4.9867
 183        4.9873
 184        6.4476
 185        6.4476
 186        6.4477
 187        8.2369
 188        8.2370
 189        8.2370
 190        8.2370
 191        9.9687
 192        9.9690
 193        9.9690
 194        9.9690
 195        9.9690
 196        9.9693
 197       10.8765
 198       10.8766
 199       10.8766
 200       11.5333
 201       11.5333
 202       11.5365
 203       11.5365
 204       11.5371
 205       11.5371
 206       11.5371
 207       11.5372
 208       11.5376
 209       11.5376
 210       11.5408
 211       11.5408
 212       13.7623
 213       13.7630
 214       13.7638
 215       13.7642
 216       13.7654
 
  0.8333333E-01  0.0000000E+00  0.0000000E+00  0.1157407E-02
   1       -4.1573
   2       -2.0987
   3       -1.8078
   4       -1.8078
   5       -1.8078
   6       -1.8078
   7       -1.7100
   8       -1.7100
   9       -1.7100
  10       -1.7100
  11       -1.5876
  12       -1.4715
  13       -1.4652
  14       -1.4652
  15       -1.1814
  16       -1.1777
  17       -1.1777
  18       -0.6450
  19       -0.6450
  20       -0.6450
  21       -0.6449
  22       -0.5975
  23       -0.5975
  24       -0.5975
  25       -0.5975
  26       -0.4538
  27       -0.4535
  28       -0.4497
  29       -0.4497
  30       -0.4497
  31       -0.4495
  32       -0.4206
  33       -0.4169
  34       -0.4169
  35       -0.4169
  36       -0.4168
  37       -0.2901
  38       -0.2901
  39       -0.2901
  40       -0.2901
  41       -0.1690
  42        0.0946
  43        0.0946
  44        0.2193
  45        0.2195
  46        0.2195
  47        0.2195
  48        0.3042
  49        0.3048
  50        0.3048
  51        0.3049
  52        0.3154
  53        0.3154
  54        0.3154
  55        0.3158
  56        0.3226
  57        0.3227
  58        0.3227
  59        0.3227
  60        0.3348
  61        0.3348
  62        0.3348
  63        0.3353
  64        0.5372
  65        0.5373
  66        0.5373
  67        0.5373
  68        0.5913
  69        0.5913
  70        0.6306
  71        0.6324
  72        0.6324
  73        0.6325
  74        0.6345
  75        0.6346
  76        0.6346
  77        0.6365
  78        0.7230
  79        0.7230
  80        0.7231
  81        0.7231
  82        0.7365
  83        0.7366
  84        0.7366
  85        0.7366
  86        0.7500
  87        0.7686
  88        0.7686
  89        1.3897
  90        1.3897
  91        1.3897
  92        1.3897
  93        1.4271
  94        1.5367
  95        1.5931
  96        1.5932
  97        1.5932
  98        1.5932
  99        1.6356
 100        1.6356
 101        1.6356
 102        1.6356
 103        1.6857
 104        1.6857
 105        1.6857
 106        1.6858
 107        1.7572
 108        1.7572
 109        1.9303
 110        1.9303
 111        1.9303
 112        1.9304
 113        1.9743
 114        1.9743
 115        1.9744
 116        1.9744
 117        2.0742
 118        2.0742
 119        2.0742
 120        2.0743
 121        2.1003
 122        2.1004
 123        2.1043
 124        2.1043
 125        2.1047
 126        2.1047
 127        2.1131
 128        2.1131
 129        2.1809
 130        2.1957
 131        2.2355
 132        2.2355
 133        2.2355
 134        2.2357
 135        2.2937
 136        2.2937
 137        2.2938
 138        2.2938
 139        2.6438
 140        2.7274
 141        2.7274
 142        2.7274
 143        2.7274
 144        2.7857
 145        3.2435
 146        3.2435
 147        3.2435
 148        3.2435
 149        3.2660
 150        3.2660
 151        3.2761
 152        3.3102
 153        3.3102
 154        3.3102
 155        3.3103
 156        3.5535
 157        3.5535
 158        3.6070
 159        3.6070
 160        3.6071
 161        3.6071
 162        3.6071
 163        3.6071
 164        3.6253
 165        3.6256
 166        3.6273
 167        3.6277
 168        4.5505
 169        4.5506
 170        4.5506
 171        4.5506
 172        4.6968
 173        4.6968
 174        4.6968
 175        4.6968
 176        4.9843
 177        4.9843
 178        4.9843
 179        4.9843
 180        5.2941
 181        5.2941
 182        5.2941
 183        5.2941
 184        6.2850
 185        6.5336
 186        6.5336
 187        8.3020
 188        8.3020
 189        8.3020
 190        8.3020
 191        9.8041
 192        9.8041
 193        9.8041
 194        9.8041
 195        9.9822
 196        9.9822
 197       10.8589
 198       10.8589
 199       11.0213
 200       11.0213
 201       11.0731
 202       11.5741
 203       11.5741
 204       11.5741
 205       11.5741
 206       11.6137
 207       11.6137
 208       11.6137
 209       11.6138
 210       12.0432
 211       12.0432
 212       13.4406
 213       13.4418
 214       13.4450
 215       13.4456
 216       13.4475
 
  0.1666667E+00  0.0000000E+00  0.0000000E+00  0.1157407E-02
   1       -4.0981
   2       -2.3955
   3       -1.7652
   4       -1.7652
   5       -1.7652
   6       -1.7652
   7       -1.6770
   8       -1.6770
   9       -1.6770
  10       -1.6770
  11       -1.4515
  12       -1.4263
  13       -1.4262
  14       -1.4144
  15       -1.1602
  16       -1.1455
  17       -1.1455
  18       -0.7666
  19       -0.7666
  20       -0.7666
  21       -0.7666
  22       -0.7311
  23       -0.7311
  24       -0.7310
  25       -0.7310
  26       -0.5403
  27       -0.5291
  28       -0.5291
  29       -0.3890
  30       -0.3889
  31       -0.3889
  32       -0.3889
  33       -0.3697
  34       -0.3697
  35       -0.3697
  36       -0.3696
  37       -0.2721
  38       -0.2721
  39       -0.2721
  40       -0.2721
  41       -0.1252
  42       -0.1252
  43       -0.0413
  44        0.1628
  45        0.1629
  46        0.1629
  47        0.1629
  48        0.2910
  49        0.2910
  50        0.2910
  51        0.2910
  52        0.3308
  53        0.3318
  54        0.3318
  55        0.3319
  56        0.3379
  57        0.3380
  58        0.3380
  59        0.3389
  60        0.4015
  61        0.4016
  62        0.4016
  63        0.4017
  64        0.4464
  65        0.4464
  66        0.4464
  67        0.4465
  68        0.6476
  69        0.6476
  70        0.6476
  71        0.6476
  72        0.7094
  73        0.7094
  74        0.7094
  75        0.7095
  76        0.7203
  77        0.7451
  78        0.7451
  79        0.7452
  80        0.7452
  81        0.7632
  82        0.7632
  83        0.7632
  84        0.7632
  85        0.7947
  86        0.7947
  87        0.8667
  88        0.8667
  89        1.2745
  90        1.2745
  91        1.2745
  92        1.2745
  93        1.4681
  94        1.4938
  95        1.4939
  96        1.4939
  97        1.4939
  98        1.5937
  99        1.5937
 100        1.6820
 101        1.6822
 102        1.6822
 103        1.6822
 104        1.7321
 105        1.7697
 106        1.7697
 107        1.7698
 108        1.7698
 109        1.9289
 110        1.9289
 111        1.9289
 112        1.9289
 113        2.0400
 114        2.0400
 115        2.0402
 116        2.0402
 117        2.0558
 118        2.0560
 119        2.0560
 120        2.0560
 121        2.0860
 122        2.0861
 123        2.0861
 124        2.0861
 125        2.1493
 126        2.1858
 127        2.1858
 128        2.2087
 129        2.3001
 130        2.3001
 131        2.3459
 132        2.3459
 133        2.3459
 134        2.3459
 135        2.4176
 136        2.4176
 137        2.4176
 138        2.4176
 139        2.5752
 140        2.7737
 141        2.7737
 142        2.7737
 143        2.7737
 144        2.8565
 145        3.0386
 146        3.0387
 147        3.0387
 148        3.0387
 149        3.2211
 150        3.2211
 151        3.2610
 152        3.2721
 153        3.2721
 154        3.2721
 155        3.2721
 156        3.3597
 157        3.3597
 158        3.5479
 159        3.5479
 160        3.5479
 161        3.5479
 162        3.5521
 163        3.5521
 164        3.6253
 165        3.6257
 166        3.6272
 167        3.6276
 168        4.4228
 169        4.4228
 170        4.4228
 171        4.4228
 172        4.6398
 173        4.6398
 174        4.6398
 175        4.6398
 176        4.9807
 177        4.9807
 178        4.9807
 179        4.9807
 180        5.6289
 181        5.6289
 182        5.6289
 183        5.6289
 184        5.8654
 185        6.7690
 186        6.7690
 187        8.4929
 188        8.4929
 189        8.4929
 190        8.4929
 191        9.4058
 192        9.4059
 193        9.4059
 194        9.4059
 195       10.0213
 196       10.0213
 197       10.5003
 198       10.5003
 199       10.8074
 200       10.8074
 201       11.5949
 202       11.6835
 203       11.6835
 204       11.6835
 205       11.6835
 206       11.7683
 207       11.7683
 208       11.7683
 209       11.7684
 210       12.5351
 211       12.5351
 212       12.8302
 213       12.8303
 214       12.8303
 215       12.8303
 216       13.1554
 
  0.2500000E+00  0.0000000E+00  0.0000000E+00  0.1157407E-02
   1       -4.0001
   2       -2.6939
   3       -1.6955
   4       -1.6955
   5       -1.6955
   6       -1.6955
   7       -1.6222
   8       -1.6222
   9       -1.6222
  10       -1.6222
  11       -1.4200
  12       -1.3624
  13       -1.3623
  14       -1.3100
  15       -1.1250
  16       -1.0918
  17       -1.0918
  18       -0.9040
  19       -0.9040
  20       -0.9040
  21       -0.9039
  22       -0.8901
  23       -0.8900
  24       -0.8899
  25       -0.8899
  26       -0.6536
  27       -0.6401
  28       -0.6401
  29       -0.3442
  30       -0.3441
  31       -0.3441
  32       -0.3441
  33       -0.3253
  34       -0.3253
  35       -0.2971
  36       -0.2971
  37       -0.2971
  38       -0.2971
  39       -0.2426
  40       -0.2425
  41       -0.2425
  42       -0.2425
  43        0.0848
  44        0.1000
  45        0.1000
  46        0.1000
  47        0.1000
  48        0.2438
  49        0.2438
  50        0.2438
  51        0.2438
  52        0.3413
  53        0.3413
  54        0.3413
  55        0.3414
  56        0.3416
  57        0.3426
  58        0.3426
  59        0.3427
  60        0.3491
  61        0.3492
  62        0.3492
  63        0.3502
  64        0.4642
  65        0.4642
  66        0.4643
  67        0.4643
  68        0.6600
  69        0.6601
  70        0.6601
  71        0.6601
  72        0.6720
  73        0.6877
  74        0.6877
  75        0.6877
  76        0.6878
  77        0.8071
  78        0.8071
  79        0.8071
  80        0.8072
  81        0.8381
  82        0.8381
  83        0.9488
  84        0.9488
  85        0.9488
  86        0.9488
  87        1.1434
  88        1.1434
  89        1.1435
  90        1.1436
  91        1.1586
  92        1.1586
  93        1.3749
  94        1.3750
  95        1.3750
  96        1.3750
  97        1.4419
  98        1.4419
  99        1.5444
 100        1.7600
 101        1.7601
 102        1.7601
 103        1.7601
 104        1.8663
 105        1.8663
 106        1.8663
 107        1.8663
 108        1.9271
 109        1.9271
 110        1.9271
 111        1.9271
 112        1.9935
 113        1.9935
 114        1.9935
 115        1.9935
 116        2.0360
 117        2.0977
 118        2.0992
 119        2.0993
 120        2.0993
 121        2.0997
 122        2.1136
 123        2.1136
 124        2.1136
 125        2.1137
 126        2.2299
 127        2.3122
 128        2.3123
 129        2.4822
 130        2.4823
 131        2.4823
 132        2.4823
 133        2.4903
 134        2.4903
 135        2.5097
 136        2.5581
 137        2.5581
 138        2.5581
 139        2.5581
 140        2.7636
 141        2.7636
 142        2.7636
 143        2.7636
 144        2.8689
 145        2.8689
 146        2.8689
 147        2.8689
 148        2.9256
 149        3.0883
 150        3.0883
 151        3.1473
 152        3.1473
 153        3.2097
 154        3.2097
 155        3.2097
 156        3.2098
 157        3.2362
 158        3.4541
 159        3.4541
 160        3.4541
 161        3.4541
 162        3.4637
 163        3.4637
 164        3.6254
 165        3.6259
 166        3.6271
 167        3.6276
 168        4.1596
 169        4.1596
 170        4.1596
 171        4.1596
 172        4.7346
 173        4.7346
 174        4.7346
 175        4.7346
 176        4.9738
 177        4.9738
 178        4.9738
 179        4.9738
 180        5.3080
 181        5.9961
 182        5.9961
 183        5.9961
 184        5.9961
 185        7.1093
 186        7.1093
 187        8.7983
 188        8.7983
 189        8.7983
 190        8.7983
 191        8.9045
 192        8.9045
 193        8.9046
 194        8.9046
 195        9.9780
 196        9.9780
 197       10.0849
 198       10.0849
 199       10.7268
 200       10.7268
 201       11.8608
 202       11.8608
 203       11.8608
 204       11.8608
 205       11.9218
 206       11.9218
 207       11.9219
 208       11.9219
 209       12.1564
 210       12.1564
 211       12.1564
 212       12.1564
 213       12.3241
 214       12.9060
 215       12.9061
 216       12.9069
 
  0.3333333E+00  0.0000000E+00  0.0000000E+00  0.1157407E-02
   1       -3.8642
   2       -2.9806
   3       -1.6008
   4       -1.6008
   5       -1.6008
   6       -1.6008
   7       -1.5461
   8       -1.5461
   9       -1.5460
  10       -1.5460
  11       -1.3799
  12       -1.2755
  13       -1.2754
  14       -1.2664
  15       -1.0764
  16       -1.0525
  17       -1.0525
  18       -1.0521
  19       -1.0520
  20       -1.0495
  21       -1.0494
  22       -1.0492
  23       -1.0492
  24       -1.0167
  25       -1.0167
  26       -0.7714
  27       -0.7714
  28       -0.7589
  29       -0.5051
  30       -0.5051
  31       -0.2864
  32       -0.2863
  33       -0.2863
  34       -0.2863
  35       -0.2329
  36       -0.2329
  37       -0.2329
  38       -0.2329
  39       -0.2024
  40       -0.2024
  41       -0.2024
  42       -0.2024
  43        0.0339
  44        0.0339
  45        0.0339
  46        0.0339
  47        0.1886
  48        0.1887
  49        0.1887
  50        0.1887
  51        0.2069
  52        0.2369
  53        0.2369
  54        0.2369
  55        0.2369
  56        0.3477
  57        0.3484
  58        0.3484
  59        0.3484
  60        0.3581
  61        0.3581
  62        0.3581
  63        0.3589
  64        0.5097
  65        0.5097
  66        0.5097
  67        0.5097
  68        0.6061
  69        0.6591
  70        0.6592
  71        0.6592
  72        0.6592
  73        0.6873
  74        0.6873
  75        0.6873
  76        0.6874
  77        0.8678
  78        0.8679
  79        0.8679
  80        0.8679
  81        0.8986
  82        0.8986
  83        1.0170
  84        1.0170
  85        1.0170
  86        1.0170
  87        1.2098
  88        1.2098
  89        1.2098
  90        1.2099
  91        1.2543
  92        1.2544
  93        1.2544
  94        1.2544
  95        1.3033
  96        1.3033
  97        1.4653
  98        1.4653
  99        1.6403
 100        1.8519
 101        1.8520
 102        1.8520
 103        1.8520
 104        1.9259
 105        1.9259
 106        1.9259
 107        1.9259
 108        1.9566
 109        1.9566
 110        1.9566
 111        1.9566
 112        1.9619
 113        1.9619
 114        1.9619
 115        1.9619
 116        2.0286
 117        2.1072
 118        2.1073
 119        2.1073
 120        2.1073
 121        2.1234
 122        2.1234
 123        2.1234
 124        2.1234
 125        2.2592
 126        2.4411
 127        2.4478
 128        2.4552
 129        2.4552
 130        2.4552
 131        2.4552
 132        2.4628
 133        2.4629
 134        2.6259
 135        2.6259
 136        2.6259
 137        2.6259
 138        2.6799
 139        2.6799
 140        2.7111
 141        2.7111
 142        2.7111
 143        2.7111
 144        2.7763
 145        2.7763
 146        2.9917
 147        3.0178
 148        3.0179
 149        3.0179
 150        3.0179
 151        3.0465
 152        3.0466
 153        3.1252
 154        3.1252
 155        3.1252
 156        3.1253
 157        3.2023
 158        3.3320
 159        3.3320
 160        3.3320
 161        3.3320
 162        3.3457
 163        3.3457
 164        3.6255
 165        3.6260
 166        3.6269
 167        3.6275
 168        3.9053
 169        3.9053
 170        3.9053
 171        3.9053
 172        4.6963
 173        4.8140
 174        4.8140
 175        4.8140
 176        4.8140
 177        4.9622
 178        4.9622
 179        4.9622
 180        4.9623
 181        6.4003
 182        6.4003
 183        6.4003
 184        6.4003
 185        7.5170
 186        7.5170
 187        8.3699
 188        8.3699
 189        8.3699
 190        8.3699
 191        9.2023
 192        9.2023
 193        9.2023
 194        9.2023
 195        9.4588
 196        9.4588
 197       10.1703
 198       10.1703
 199       10.6243
 200       10.6243
 201       11.4867
 202       11.4867
 203       11.4867
 204       11.4867
 205       12.0615
 206       12.0615
 207       12.0615
 208       12.0615
 209       12.0997
 210       12.0997
 211       12.0997
 212       12.0997
 213       12.6900
 214       12.6900
 215       12.6900
 216       12.6900
 
  0.4166667E+00  0.0000000E+00  0.0000000E+00  0.1157407E-02
   1       -3.6917
   2       -3.2462
   3       -1.4842
   4       -1.4841
   5       -1.4841
   6       -1.4841
   7       -1.4493
   8       -1.4493
   9       -1.4493
  10       -1.4493
  11       -1.3359
  12       -1.2672
  13       -1.2035
  14       -1.2035
  15       -1.2034
  16       -1.2033
  17       -1.1989
  18       -1.1988
  19       -1.1987
  20       -1.1987
  21       -1.1680
  22       -1.1680
  23       -1.0146
  24       -0.9204
  25       -0.9204
  26       -0.9095
  27       -0.9095
  28       -0.8550
  29       -0.6644
  30       -0.6644
  31       -0.2248
  32       -0.2246
  33       -0.2246
  34       -0.2246
  35       -0.1866
  36       -0.1866
  37       -0.1866
  38       -0.1864
  39       -0.1528
  40       -0.1528
  41       -0.1528
  42       -0.1527
  43       -0.0322
  44       -0.0322
  45       -0.0322
  46       -0.0322
  47        0.1378
  48        0.1378
  49        0.1378
  50        0.1379
  51        0.1520
  52        0.1520
  53        0.1520
  54        0.1521
  55        0.3224
  56        0.3532
  57        0.3541
  58        0.3541
  59        0.3542
  60        0.3607
  61        0.3608
  62        0.3608
  63        0.3618
  64        0.5245
  65        0.5501
  66        0.5501
  67        0.5501
  68        0.5501
  69        0.6256
  70        0.6256
  71        0.6256
  72        0.6256
  73        0.7365
  74        0.7365
  75        0.7365
  76        0.7366
  77        0.9038
  78        0.9038
  79        0.9038
  80        0.9039
  81        0.9445
  82        0.9445
  83        0.9445
  84        0.9445
  85        0.9759
  86        0.9759
  87        1.1399
  88        1.1399
  89        1.1399
  90        1.1399
  91        1.1788
  92        1.1788
  93        1.5024
  94        1.5025
  95        1.5025
  96        1.5025
  97        1.7441
  98        1.7847
  99        1.7847
 100        1.9267
 101        1.9267
 102        1.9267
 103        1.9267
 104        1.9421
 105        1.9421
 106        1.9422
 107        1.9422
 108        1.9426
 109        1.9443
 110        1.9444
 111        1.9444
 112        1.9456
 113        2.0287
 114        2.0287
 115        2.0287
 116        2.0287
 117        2.0900
 118        2.0901
 119        2.0902
 120        2.0902
 121        2.1021
 122        2.1021
 123        2.1022
 124        2.1023
 125        2.1342
 126        2.1342
 127        2.1342
 128        2.1342
 129        2.2963
 130        2.3913
 131        2.4468
 132        2.4468
 133        2.6221
 134        2.6221
 135        2.7673
 136        2.7673
 137        2.7673
 138        2.7673
 139        2.8650
 140        2.8650
 141        2.8715
 142        2.8715
 143        2.8715
 144        2.8715
 145        2.9216
 146        2.9220
 147        2.9305
 148        3.0211
 149        3.0211
 150        3.0211
 151        3.0211
 152        3.0536
 153        3.1600
 154        3.1891
 155        3.1891
 156        3.1891
 157        3.1891
 158        3.2029
 159        3.2029
 160        3.2085
 161        3.2085
 162        3.2087
 163        3.2087
 164        3.6256
 165        3.6263
 166        3.6267
 167        3.6274
 168        3.6599
 169        3.6599
 170        3.6599
 171        3.6599
 172        4.0783
 173        4.8734
 174        4.8735
 175        4.8735
 176        4.8735
 177        4.9437
 178        4.9437
 179        4.9437
 180        4.9438
 181        6.8436
 182        6.8436
 183        6.8436
 184        6.8436
 185        7.8368
 186        7.8368
 187        7.8368
 188        7.8368
 189        7.9681
 190        7.9681
 191        8.9470
 192        8.9470
 193        9.6879
 194        9.6879
 195        9.6879
 196        9.6879
 197       10.2735
 198       10.2735
 199       10.5085
 200       10.5085
 201       10.8431
 202       10.8432
 203       10.8432
 204       10.8432
 205       12.1974
 206       12.1974
 207       12.1974
 208       12.1974
 209       12.3923
 210       12.3923
 211       12.3923
 212       12.3923
 213       12.5035
 214       12.5035
 215       12.5035
 216       12.5036
 
  0.5000000E+00  0.0000000E+00  0.0000000E+00  0.5787037E-03
   1       -3.4865
   2       -3.4830
   3       -1.3535
   4       -1.3508
   5       -1.3504
   6       -1.3504
   7       -1.3490
   8       -1.3490
   9       -1.3486
  10       -1.3463
  11       -1.3348
  12       -1.3348
  13       -1.3341
  14       -1.3341
  15       -1.3320
  16       -1.3317
  17       -1.3312
  18       -1.3312
  19       -1.2959
  20       -1.2939
  21       -1.0463
  22       -1.0452
  23       -1.0433
  24       -1.0423
  25       -0.9419
  26       -0.9392
  27       -0.8044
  28       -0.8044
  29       -0.8014
  30       -0.8014
  31       -0.1841
  32       -0.1815
  33       -0.1815
  34       -0.1814
  35       -0.1814
  36       -0.1813
  37       -0.1813
  38       -0.1788
  39       -0.0973
  40       -0.0968
  41       -0.0968
  42       -0.0956
  43       -0.0950
  44       -0.0938
  45       -0.0938
  46       -0.0934
  47        0.1145
  48        0.1149
  49        0.1149
  50        0.1156
  51        0.1159
  52        0.1165
  53        0.1165
  54        0.1170
  55        0.3559
  56        0.3581
  57        0.3581
  58        0.3585
  59        0.3591
  60        0.3595
  61        0.3595
  62        0.3616
  63        0.4287
  64        0.4297
  65        0.5880
  66        0.5884
  67        0.5884
  68        0.5884
  69        0.5891
  70        0.5891
  71        0.5892
  72        0.5896
  73        0.8080
  74        0.8080
  75        0.8081
  76        0.8090
  77        0.8096
  78        0.8103
  79        0.8106
  80        0.8106
  81        1.0333
  82        1.0339
  83        1.0339
  84        1.0354
  85        1.0361
  86        1.0375
  87        1.0375
  88        1.0382
  89        1.0681
  90        1.0681
  91        1.0708
  92        1.0708
  93        1.8123
  94        1.8127
  95        1.8132
  96        1.8132
  97        1.8139
  98        1.8139
  99        1.8142
 100        1.8147
 101        1.8466
 102        1.8483
 103        1.9307
 104        1.9307
 105        1.9311
 106        1.9313
 107        1.9315
 108        1.9317
 109        1.9321
 110        1.9321
 111        2.0250
 112        2.0263
 113        2.0263
 114        2.0265
 115        2.0273
 116        2.0275
 117        2.0275
 118        2.0287
 119        2.0759
 120        2.0762
 121        2.0770
 122        2.0770
 123        2.0774
 124        2.0774
 125        2.0782
 126        2.0786
 127        2.1127
 128        2.1127
 129        2.1146
 130        2.1146
 131        2.3394
 132        2.3417
 133        2.7779
 134        2.7780
 135        2.7785
 136        2.7786
 137        2.8991
 138        2.8997
 139        2.8997
 140        2.9001
 141        2.9010
 142        2.9013
 143        2.9013
 144        2.9021
 145        3.0312
 146        3.0312
 147        3.0327
 148        3.0328
 149        3.0334
 150        3.0335
 151        3.0347
 152        3.0347
 153        3.0407
 154        3.0407
 155        3.0418
 156        3.0418
 157        3.1099
 158        3.1103
 159        3.4245
 160        3.4252
 161        3.4252
 162        3.4258
 163        3.4259
 164        3.4265
 165        3.4265
 166        3.4272
 167        3.4820
 168        3.4827
 169        3.6256
 170        3.6265
 171        3.6265
 172        3.6274
 173        4.9135
 174        4.9141
 175        4.9148
 176        4.9148
 177        4.9160
 178        4.9160
 179        4.9166
 180        4.9172
 181        7.3219
 182        7.3219
 183        7.3239
 184        7.3242
 185        7.3245
 186        7.3248
 187        7.3267
 188        7.3267
 189        8.4464
 190        8.4464
 191        8.4494
 192        8.4494
 193       10.2366
 194       10.2366
 195       10.2387
 196       10.2388
 197       10.2400
 198       10.2401
 199       10.2423
 200       10.2423
 201       10.3884
 202       10.3887
 203       10.3887
 204       10.3890
 205       12.3402
 206       12.3411
 207       12.3411
 208       12.3413
 209       12.3419
 210       12.3422
 211       12.3422
 212       12.3431
 213       12.7294
 214       12.7300
 215       12.7309
 216       12.7321
 
  0.0000000E+00  0.8333333E-01  0.0000000E+00  0.2314815E-02
   1       -4.1573
   2       -2.0987
   3       -1.8104
   4       -1.8078
   5       -1.8078
   6       -1.8052
   7       -1.7101
   8       -1.7101
   9       -1.7100
  10       -1.7100
  11       -1.5876
  12       -1.4715
  13       -1.4652
  14       -1.4652
  15       -1.1814
  16       -1.1777
  17       -1.1777
  18       -0.6471
  19       -0.6450
  20       -0.6449
  21       -0.6428
  22       -0.5986
  23       -0.5976
  24       -0.5973
  25       -0.5963
  26       -0.4537
  27       -0.4534
  28       -0.4515
  29       -0.4498
  30       -0.4498