       N       E                     dE             d eps       ncg     rms          rms(c)
DAV:   1     0.479246970492E+04    0.47925E+04   -0.20907E+05 84672   0.220E+03
DAV:   2     0.165650716101E+03   -0.46268E+04   -0.44273E+04 84672   0.567E+02
DAV:   3    -0.103435960771E+03   -0.26909E+03   -0.24806E+03 92376   0.150E+02
DAV:   4    -0.112291598703E+03   -0.88556E+01   -0.87209E+01 90808   0.255E+01
DAV:   5    -0.112436563630E+03   -0.14496E+00   -0.14456E+00 91304   0.281E+00    0.163E+01
DAV:   6    -0.105061364349E+03    0.73752E+01   -0.18813E+01 89504   0.153E+01    0.443E+00
DAV:   7    -0.104538537000E+03    0.52283E+00   -0.14081E+00 94704   0.355E+00    0.170E+00
DAV:   8    -0.104442202851E+03    0.96334E-01   -0.69439E-02 87872   0.943E-01    0.162E-01
DAV:   9    -0.104442273629E+03   -0.70778E-04   -0.64656E-03 95056   0.260E-01    0.884E-02
DAV:  10    -0.104442296761E+03   -0.23132E-04   -0.49155E-04 88032   0.677E-02    0.201E-02
DAV:  11    -0.104442300511E+03   -0.37499E-05   -0.36822E-05 91360   0.228E-02    0.303E-03
DAV:  12    -0.104442303565E+03   -0.30537E-05   -0.12735E-06 89816   0.385E-03    0.103E-03
DAV:  13    -0.104442302682E+03    0.88231E-06   -0.43704E-08 80272   0.818E-04    0.481E-04
DAV:  14    -0.104442301968E+03    0.71371E-06   -0.12174E-08 50128   0.393E-04    0.106E-04
DAV:  15    -0.104442301961E+03    0.70941E-08   -0.13977E-09 46936   0.179E-04
   1 F= -.10444230E+03 E0= -.10444203E+03  d E =-.541654E-03
