 vasp.4.6.28 25Jul05 complex 
 executed on             LinuxIFC date 2017.01.13  03:25:12
 running on    8 nodes
 distr:  one band on    1 nodes,    8 groups


--------------------------------------------------------------------------------------------------------


 INCAR:
 POTCAR:   PAW_PBE Au 06Sep2000                   
 POTCAR:   PAW_PBE Au 06Sep2000                   
   VRHFIN =Au: s1d10                                                            
   LEXCH  = PE                                                                  
   EATOM  =   926.0567 eV,   68.0632 Ry                                         
                                                                                
   TITEL  = PAW_PBE Au 06Sep2000                                                
   LULTRA =        F    use ultrasoft PP ?                                      
   IUNSCR =        1    unscreen: 0-lin 1-nonlin 2-no                           
   RPACOR =    2.330    partial core radius                                     
   POMASS =  196.966; ZVAL   =   11.000    mass and valenz                      
   RCORE  =    2.500    outmost cutoff radius                                   
   RWIGS  =    2.840; RWIGS  =    1.503    wigner-seitz radius (au A)           
   ENMAX  =  229.948; ENMIN  =  172.461 eV                                      
   RCLOC  =    1.964    cutoff for local pot                                    
   LCOR   =        T    correct aug charges                                     
   LPAW   =        T    paw PP                                                  
   EAUG   =  356.670                                                            
   DEXC   =    -.025                                                            
   RMAX   =    3.041    core radius for proj-oper                               
   RAUG   =    1.300    factor for augmentation sphere                          
   RDEP   =    2.598    radius for radial grids                                 
   QCUT   =   -4.111; QGAM   =    8.222    optimization parameters              
                                                                                
   Description                                                                  
     l     E      TYP  RCUT    TYP  RCUT                                        
     2   .000     23  2.500                                                     
     2   .000     23  2.500                                                     
     0   .000     23  2.500                                                     
     0   .000     23  2.500                                                     
     1  -.200     23  2.500                                                     
     1   .000     23  2.500                                                     
     3   .000      7   .000                                                     
  local pseudopotential read in
  partial core-charges read in
  atomic valenz-charges read in
  non local Contribution for L=           2  read in
    real space projection operators read in
  non local Contribution for L=           2  read in
    real space projection operators read in
  non local Contribution for L=           0  read in
    real space projection operators read in
  non local Contribution for L=           0  read in
    real space projection operators read in
  non local Contribution for L=           1  read in
    real space projection operators read in
  non local Contribution for L=           1  read in
    real space projection operators read in
    PAW grid and wavefunctions read in
 
   number of l-projection  operators is LMAX  =           6
   number of lm-projection operators is LMMAX =          18
 

 ----------------------------------------------------------------------------- 
|                                                                             |
|  ADVICE TO THIS USER RUNNING 'VASP/VAMP'   (HEAR YOUR MASTER'S VOICE ...):  |
|                                                                             |
|      You have a (more or less) 'large supercell' and for larger cells       |
|      it might be more efficient to use real space projection operators      |
|      So try LREAL= Auto  in the INCAR   file.                               |
|      Mind: If you want to do an extremely accurate calculations keep the    |
|      reciprocal projection scheme          (i.e. LREAL=.FALSE.)             |
|                                                                             |
 ----------------------------------------------------------------------------- 

 PAW_PBE Au 06Sep2000                   :
 energy of atom  1       EATOM= -926.0567
 kinetic energy error for atom=    0.0008 (will be added to EATOM!!)
 
 EXHCAR: internal setup
 exchange correlation table for  LEXCH =        8
   RHO(1)=    0.500       N(1)  =     2000
   RHO(2)=  100.500       N(2)  =     4000
 
 POSCAR: Au                                      
  positions in direct lattice
  No initial velocities read in
 


--------------------------------------------------------------------------------------------------------


 ion  position               nearest neighbor table
   1  0.001  0.000  0.000-   9 2.91  11 2.91  17 2.91  21 2.91  25 2.92  27 2.92  29 2.92  31 2.92
                            10 2.93  18 2.93  12 2.93  22 2.93
   2  0.500  0.000  0.000-   9 2.92  10 2.92  11 2.92  12 2.92  17 2.92  18 2.92  21 2.92  22 2.92
                            26 2.92  28 2.92  30 2.92  32 2.92
   3  0.000  0.500  0.000-   9 2.92  10 2.92  11 2.92  12 2.92  19 2.92  20 2.92  23 2.92  24 2.92
                            25 2.92  27 2.92  29 2.92  31 2.92
   4  0.500  0.500  0.000-   9 2.92  10 2.92  11 2.92  12 2.92  19 2.92  20 2.92  23 2.92  24 2.92
                            26 2.92  28 2.92  30 2.92  32 2.92
   5  0.000  0.000  0.500-  13 2.92  14 2.92  15 2.92  16 2.92  17 2.92  18 2.92  21 2.92  22 2.92
                            25 2.92  27 2.92  29 2.92  31 2.92
   6  0.500  0.000  0.500-  13 2.92  14 2.92  15 2.92  16 2.92  17 2.92  18 2.92  21 2.92  22 2.92
                            26 2.92  28 2.92  30 2.92  32 2.92
   7  0.000  0.500  0.500-  13 2.92  14 2.92  15 2.92  16 2.92  19 2.92  20 2.92  23 2.92  24 2.92
                            25 2.92  27 2.92  29 2.92  31 2.92
   8  0.500  0.500  0.500-  13 2.92  14 2.92  15 2.92  16 2.92  19 2.92  20 2.92  23 2.92  24 2.92
                            26 2.92  28 2.92  30 2.92  32 2.92
   9  0.250  0.250  0.000-   1 2.91   2 2.92   3 2.92   4 2.92  17 2.92  19 2.92  21 2.92  23 2.92
                            25 2.92  26 2.92  29 2.92  30 2.92
  10  0.750  0.250  0.000-   2 2.92   3 2.92   4 2.92  18 2.92  20 2.92  22 2.92  24 2.92  25 2.92
                            26 2.92  29 2.92  30 2.92   1 2.93
  11  0.250  0.750  0.000-   1 2.91   2 2.92   3 2.92   4 2.92  17 2.92  19 2.92  21 2.92  23 2.92
                            27 2.92  28 2.92  31 2.92  32 2.92
  12  0.750  0.750  0.000-   2 2.92   3 2.92   4 2.92  18 2.92  20 2.92  22 2.92  24 2.92  27 2.92
                            28 2.92  31 2.92  32 2.92   1 2.93
  13  0.250  0.250  0.500-   5 2.92   6 2.92   7 2.92   8 2.92  17 2.92  19 2.92  21 2.92  23 2.92
                            25 2.92  26 2.92  29 2.92  30 2.92
  14  0.750  0.250  0.500-   5 2.92   6 2.92   7 2.92   8 2.92  18 2.92  20 2.92  22 2.92  24 2.92
                            25 2.92  26 2.92  29 2.92  30 2.92
  15  0.250  0.750  0.500-   5 2.92   6 2.92   7 2.92   8 2.92  17 2.92  19 2.92  21 2.92  23 2.92
                            27 2.92  28 2.92  31 2.92  32 2.92
  16  0.750  0.750  0.500-   5 2.92   6 2.92   7 2.92   8 2.92  18 2.92  20 2.92  22 2.92  24 2.92
                            27 2.92  28 2.92  31 2.92  32 2.92
  17  0.250  0.000  0.250-   1 2.91   2 2.92   5 2.92   6 2.92   9 2.92  11 2.92  13 2.92  15 2.92
                            25 2.92  26 2.92  27 2.92  28 2.92
  18  0.750  0.000  0.250-   2 2.92   5 2.92   6 2.92  10 2.92  12 2.92  14 2.92  16 2.92  25 2.92
                            26 2.92  27 2.92  28 2.92   1 2.93
  19  0.250  0.500  0.250-   3 2.92   4 2.92   7 2.92   8 2.92   9 2.92  11 2.92  13 2.92  15 2.92
                            25 2.92  26 2.92  27 2.92  28 2.92
  20  0.750  0.500  0.250-   3 2.92   4 2.92   7 2.92   8 2.92  10 2.92  12 2.92  14 2.92  16 2.92
                            25 2.92  26 2.92  27 2.92  28 2.92
  21  0.250  0.000  0.750-   1 2.91   2 2.92   5 2.92   6 2.92   9 2.92  11 2.92  13 2.92  15 2.92
                            29 2.92  30 2.92  31 2.92  32 2.92
  22  0.750  0.000  0.750-   2 2.92   5 2.92   6 2.92  10 2.92  12 2.92  14 2.92  16 2.92  29 2.92
                            30 2.92  31 2.92  32 2.92   1 2.93
  23  0.250  0.500  0.750-   3 2.92   4 2.92   7 2.92   8 2.92   9 2.92  11 2.92  13 2.92  15 2.92
                            29 2.92  30 2.92  31 2.92  32 2.92
  24  0.750  0.500  0.750-   3 2.92   4 2.92   7 2.92   8 2.92  10 2.92  12 2.92  14 2.92  16 2.92
                            29 2.92  30 2.92  31 2.92  32 2.92
  25  0.000  0.250  0.250-   3 2.92   5 2.92   7 2.92   9 2.92  10 2.92  13 2.92  14 2.92  17 2.92
                            18 2.92  19 2.92  20 2.92   1 2.92
  26  0.500  0.250  0.250-   2 2.92   4 2.92   6 2.92   8 2.92   9 2.92  10 2.92  13 2.92  14 2.92
                            17 2.92  18 2.92  19 2.92  20 2.92
  27  0.000  0.750  0.250-   3 2.92   5 2.92   7 2.92  11 2.92  12 2.92  15 2.92  16 2.92  17 2.92
                            18 2.92  19 2.92  20 2.92   1 2.92
  28  0.500  0.750  0.250-   2 2.92   4 2.92   6 2.92   8 2.92  11 2.92  12 2.92  15 2.92  16 2.92
                            17 2.92  18 2.92  19 2.92  20 2.92
  29  0.000  0.250  0.750-   3 2.92   5 2.92   7 2.92   9 2.92  10 2.92  13 2.92  14 2.92  21 2.92
                            22 2.92  23 2.92  24 2.92   1 2.92
  30  0.500  0.250  0.750-   2 2.92   4 2.92   6 2.92   8 2.92   9 2.92  10 2.92  13 2.92  14 2.92
                            21 2.92  22 2.92  23 2.92  24 2.92
  31  0.000  0.750  0.750-   3 2.92   5 2.92   7 2.92  11 2.92  12 2.92  15 2.92  16 2.92  21 2.92
                            22 2.92  23 2.92  24 2.92   1 2.92
  32  0.500  0.750  0.750-   2 2.92   4 2.92   6 2.92   8 2.92  11 2.92  12 2.92  15 2.92  16 2.92
                            21 2.92  22 2.92  23 2.92  24 2.92
 
  LATTYP: Found a simple cubic cell.
 ALAT       =     8.2622467666
  
  Lattice vectors:
  
 A1 = (   8.2622467666,   0.0000000000,   0.0000000000)
 A2 = (   0.0000000000,   8.2622467666,   0.0000000000)
 A3 = (   0.0000000000,   0.0000000000,   8.2622467666)
 Subroutine PRICEL returns:
 Original cell was already a primitive cell.
 

Analysis of symmetry for initial positions (statically):

 Routine SETGRP: Setting up the symmetry group for a 
 simple cubic supercell.


 Subroutine GETGRP returns: Found  8 space group operations
 (whereof  8 operations were pure point group operations)
 out of a pool of 48 trial point group operations.


The static configuration has the point symmetry C_4v.

Analysis of symmetry for dynamics (positions and initial velocities):

 Subroutine DYNSYM returns: Found  8 space group operations
 (whereof  8 operations were pure point group operations)
 out of a pool of  8 trial space group operations
 (whereof  8 operations were pure point group operations)
 and found also     1 'primitive' translations


The dynamic configuration has the point symmetry C_4v.
 
 
 KPOINTS: Automatic mesh                          

Automatic generation of k-mesh.
 
 Subroutine IBZKPT returns following result:
 ===========================================
 
 Found    196 irreducible k-points:
 
 Following reciprocal coordinates:
            Coordinates               Weight
  0.000000  0.000000  0.000000      1.000000
  0.083333  0.000000  0.000000      2.000000
  0.166667  0.000000  0.000000      2.000000
  0.250000  0.000000  0.000000      2.000000
  0.333333  0.000000  0.000000      2.000000
  0.416667  0.000000  0.000000      2.000000
  0.500000  0.000000  0.000000      1.000000
  0.000000  0.083333  0.000000      4.000000
  0.083333  0.083333  0.000000      8.000000
  0.166667  0.083333  0.000000      8.000000
  0.250000  0.083333  0.000000      8.000000
  0.333333  0.083333  0.000000      8.000000
  0.416667  0.083333  0.000000      8.000000
  0.500000  0.083333  0.000000      4.000000
  0.000000  0.166667  0.000000      4.000000
  0.083333  0.166667  0.000000      8.000000
  0.166667  0.166667  0.000000      8.000000
  0.250000  0.166667  0.000000      8.000000
  0.333333  0.166667  0.000000      8.000000
  0.416667  0.166667  0.000000      8.000000
  0.500000  0.166667  0.000000      4.000000
  0.000000  0.250000  0.000000      4.000000
  0.083333  0.250000  0.000000      8.000000
  0.166667  0.250000  0.000000      8.000000
  0.250000  0.250000  0.000000      8.000000
  0.333333  0.250000  0.000000      8.000000
  0.416667  0.250000  0.000000      8.000000
  0.500000  0.250000  0.000000      4.000000
  0.000000  0.333333  0.000000      4.000000
  0.083333  0.333333  0.000000      8.000000
  0.166667  0.333333  0.000000      8.000000
  0.250000  0.333333  0.000000      8.000000
  0.333333  0.333333  0.000000      8.000000
  0.416667  0.333333  0.000000      8.000000
  0.500000  0.333333  0.000000      4.000000
  0.000000  0.416667  0.000000      4.000000
  0.083333  0.416667  0.000000      8.000000
  0.166667  0.416667  0.000000      8.000000
  0.250000  0.416667  0.000000      8.000000
  0.333333  0.416667  0.000000      8.000000
  0.416667  0.416667  0.000000      8.000000
  0.500000  0.416667  0.000000      4.000000
  0.000000  0.500000  0.000000      2.000000
  0.083333  0.500000  0.000000      4.000000
  0.166667  0.500000  0.000000      4.000000
  0.250000  0.500000  0.000000      4.000000
  0.333333  0.500000  0.000000      4.000000
  0.416667  0.500000  0.000000      4.000000
  0.500000  0.500000  0.000000      2.000000
  0.000000  0.083333  0.083333      4.000000
  0.083333  0.083333  0.083333      8.000000
  0.166667  0.083333  0.083333      8.000000
  0.250000  0.083333  0.083333      8.000000
  0.333333  0.083333  0.083333      8.000000
  0.416667  0.083333  0.083333      8.000000
  0.500000  0.083333  0.083333      4.000000
  0.000000  0.166667  0.083333      8.000000
  0.083333  0.166667  0.083333     16.000000
  0.166667  0.166667  0.083333     16.000000
  0.250000  0.166667  0.083333     16.000000
  0.333333  0.166667  0.083333     16.000000
  0.416667  0.166667  0.083333     16.000000
  0.500000  0.166667  0.083333      8.000000
  0.000000  0.250000  0.083333      8.000000
  0.083333  0.250000  0.083333     16.000000
  0.166667  0.250000  0.083333     16.000000
  0.250000  0.250000  0.083333     16.000000
  0.333333  0.250000  0.083333     16.000000
  0.416667  0.250000  0.083333     16.000000
  0.500000  0.250000  0.083333      8.000000
  0.000000  0.333333  0.083333      8.000000
  0.083333  0.333333  0.083333     16.000000
  0.166667  0.333333  0.083333     16.000000
  0.250000  0.333333  0.083333     16.000000
  0.333333  0.333333  0.083333     16.000000
  0.416667  0.333333  0.083333     16.000000
  0.500000  0.333333  0.083333      8.000000
  0.000000  0.416667  0.083333      8.000000
  0.083333  0.416667  0.083333     16.000000
  0.166667  0.416667  0.083333     16.000000
  0.250000  0.416667  0.083333     16.000000
  0.333333  0.416667  0.083333     16.000000
  0.416667  0.416667  0.083333     16.000000
  0.500000  0.416667  0.083333      8.000000
  0.000000  0.500000  0.083333      4.000000
  0.083333  0.500000  0.083333      8.000000
  0.166667  0.500000  0.083333      8.000000
  0.250000  0.500000  0.083333      8.000000
  0.333333  0.500000  0.083333      8.000000
  0.416667  0.500000  0.083333      8.000000
  0.500000  0.500000  0.083333      4.000000
  0.000000  0.166667  0.166667      4.000000
  0.083333  0.166667  0.166667      8.000000
  0.166667  0.166667  0.166667      8.000000
  0.250000  0.166667  0.166667      8.000000
  0.333333  0.166667  0.166667      8.000000
  0.416667  0.166667  0.166667      8.000000
  0.500000  0.166667  0.166667      4.000000
  0.000000  0.250000  0.166667      8.000000
  0.083333  0.250000  0.166667     16.000000
  0.166667  0.250000  0.166667     16.000000
  0.250000  0.250000  0.166667     16.000000
  0.333333  0.250000  0.166667     16.000000
  0.416667  0.250000  0.166667     16.000000
  0.500000  0.250000  0.166667      8.000000
  0.000000  0.333333  0.166667      8.000000
  0.083333  0.333333  0.166667     16.000000
  0.166667  0.333333  0.166667     16.000000
  0.250000  0.333333  0.166667     16.000000
  0.333333  0.333333  0.166667     16.000000
  0.416667  0.333333  0.166667     16.000000
  0.500000  0.333333  0.166667      8.000000
  0.000000  0.416667  0.166667      8.000000
  0.083333  0.416667  0.166667     16.000000
  0.166667  0.416667  0.166667     16.000000
  0.250000  0.416667  0.166667     16.000000
  0.333333  0.416667  0.166667     16.000000
  0.416667  0.416667  0.166667     16.000000
  0.500000  0.416667  0.166667      8.000000
  0.000000  0.500000  0.166667      4.000000
  0.083333  0.500000  0.166667      8.000000
  0.166667  0.500000  0.166667      8.000000
  0.250000  0.500000  0.166667      8.000000
  0.333333  0.500000  0.166667      8.000000
  0.416667  0.500000  0.166667      8.000000
  0.500000  0.500000  0.166667      4.000000
  0.000000  0.250000  0.250000      4.000000
  0.083333  0.250000  0.250000      8.000000
  0.166667  0.250000  0.250000      8.000000
  0.250000  0.250000  0.250000      8.000000
  0.333333  0.250000  0.250000      8.000000
  0.416667  0.250000  0.250000      8.000000
  0.500000  0.250000  0.250000      4.000000
  0.000000  0.333333  0.250000      8.000000
  0.083333  0.333333  0.250000     16.000000
  0.166667  0.333333  0.250000     16.000000
  0.250000  0.333333  0.250000     16.000000
  0.333333  0.333333  0.250000     16.000000
  0.416667  0.333333  0.250000     16.000000
  0.500000  0.333333  0.250000      8.000000
  0.000000  0.416667  0.250000      8.000000
  0.083333  0.416667  0.250000     16.000000
  0.166667  0.416667  0.250000     16.000000
  0.250000  0.416667  0.250000     16.000000
  0.333333  0.416667  0.250000     16.000000
  0.416667  0.416667  0.250000     16.000000
  0.500000  0.416667  0.250000      8.000000
  0.000000  0.500000  0.250000      4.000000
  0.083333  0.500000  0.250000      8.000000
  0.166667  0.500000  0.250000      8.000000
  0.250000  0.500000  0.250000      8.000000
  0.333333  0.500000  0.250000      8.000000
  0.416667  0.500000  0.250000      8.000000
  0.500000  0.500000  0.250000      4.000000
  0.000000  0.333333  0.333333      4.000000
  0.083333  0.333333  0.333333      8.000000
  0.166667  0.333333  0.333333      8.000000
  0.250000  0.333333  0.333333      8.000000
  0.333333  0.333333  0.333333      8.000000
  0.416667  0.333333  0.333333      8.000000
  0.500000  0.333333  0.333333      4.000000
  0.000000  0.416667  0.333333      8.000000
  0.083333  0.416667  0.333333     16.000000
  0.166667  0.416667  0.333333     16.000000
  0.250000  0.416667  0.333333     16.000000
  0.333333  0.416667  0.333333     16.000000
  0.416667  0.416667  0.333333     16.000000
  0.500000  0.416667  0.333333      8.000000
  0.000000  0.500000  0.333333      4.000000
  0.083333  0.500000  0.333333      8.000000
  0.166667  0.500000  0.333333      8.000000
  0.250000  0.500000  0.333333      8.000000
  0.333333  0.500000  0.333333      8.000000
  0.416667  0.500000  0.333333      8.000000
  0.500000  0.500000  0.333333      4.000000
  0.000000  0.416667  0.416667      4.000000
  0.083333  0.416667  0.416667      8.000000
  0.166667  0.416667  0.416667      8.000000
  0.250000  0.416667  0.416667      8.000000
  0.333333  0.416667  0.416667      8.000000
  0.416667  0.416667  0.416667      8.000000
  0.500000  0.416667  0.416667      4.000000
  0.000000  0.500000  0.416667      4.000000
  0.083333  0.500000  0.416667      8.000000
  0.166667  0.500000  0.416667      8.000000
  0.250000  0.500000  0.416667      8.000000
  0.333333  0.500000  0.416667      8.000000
  0.416667  0.500000  0.416667      8.000000
  0.500000  0.500000  0.416667      4.000000
  0.000000  0.500000  0.500000      1.000000
  0.083333  0.500000  0.500000      2.000000
  0.166667  0.500000  0.500000      2.000000
  0.250000  0.500000  0.500000      2.000000
  0.333333  0.500000  0.500000      2.000000
  0.416667  0.500000  0.500000      2.000000
  0.500000  0.500000  0.500000      1.000000
 
 Following cartesian coordinates:
            Coordinates               Weight
  0.000000  0.000000  0.000000      1.000000
  0.010086  0.000000  0.000000      2.000000
  0.020172  0.000000  0.000000      2.000000
  0.030258  0.000000  0.000000      2.000000
  0.040344  0.000000  0.000000      2.000000
  0.050430  0.000000  0.000000      2.000000
  0.060516  0.000000  0.000000      1.000000
  0.000000  0.010086  0.000000      4.000000
  0.010086  0.010086  0.000000      8.000000
  0.020172  0.010086  0.000000      8.000000
  0.030258  0.010086  0.000000      8.000000
  0.040344  0.010086  0.000000      8.000000
  0.050430  0.010086  0.000000      8.000000
  0.060516  0.010086  0.000000      4.000000
  0.000000  0.020172  0.000000      4.000000
  0.010086  0.020172  0.000000      8.000000
  0.020172  0.020172  0.000000      8.000000
  0.030258  0.020172  0.000000      8.000000
  0.040344  0.020172  0.000000      8.000000
  0.050430  0.020172  0.000000      8.000000
  0.060516  0.020172  0.000000      4.000000
  0.000000  0.030258  0.000000      4.000000
  0.010086  0.030258  0.000000      8.000000
  0.020172  0.030258  0.000000      8.000000
  0.030258  0.030258  0.000000      8.000000
  0.040344  0.030258  0.000000      8.000000
  0.050430  0.030258  0.000000      8.000000
  0.060516  0.030258  0.000000      4.000000
  0.000000  0.040344  0.000000      4.000000
  0.010086  0.040344  0.000000      8.000000
  0.020172  0.040344  0.000000      8.000000
  0.030258  0.040344  0.000000      8.000000
  0.040344  0.040344  0.000000      8.000000
  0.050430  0.040344  0.000000      8.000000
  0.060516  0.040344  0.000000      4.000000
  0.000000  0.050430  0.000000      4.000000
  0.010086  0.050430  0.000000      8.000000
  0.020172  0.050430  0.000000      8.000000
  0.030258  0.050430  0.000000      8.000000
  0.040344  0.050430  0.000000      8.000000
  0.050430  0.050430  0.000000      8.000000
  0.060516  0.050430  0.000000      4.000000
  0.000000  0.060516  0.000000      2.000000
  0.010086  0.060516  0.000000      4.000000
  0.020172  0.060516  0.000000      4.000000
  0.030258  0.060516  0.000000      4.000000
  0.040344  0.060516  0.000000      4.000000
  0.050430  0.060516  0.000000      4.000000
  0.060516  0.060516  0.000000      2.000000
  0.000000  0.010086  0.010086      4.000000
  0.010086  0.010086  0.010086      8.000000
  0.020172  0.010086  0.010086      8.000000
  0.030258  0.010086  0.010086      8.000000
  0.040344  0.010086  0.010086      8.000000
  0.050430  0.010086  0.010086      8.000000
  0.060516  0.010086  0.010086      4.000000
  0.000000  0.020172  0.010086      8.000000
  0.010086  0.020172  0.010086     16.000000
  0.020172  0.020172  0.010086     16.000000
  0.030258  0.020172  0.010086     16.000000
  0.040344  0.020172  0.010086     16.000000
  0.050430  0.020172  0.010086     16.000000
  0.060516  0.020172  0.010086      8.000000
  0.000000  0.030258  0.010086      8.000000
  0.010086  0.030258  0.010086     16.000000
  0.020172  0.030258  0.010086     16.000000
  0.030258  0.030258  0.010086     16.000000
  0.040344  0.030258  0.010086     16.000000
  0.050430  0.030258  0.010086     16.000000
  0.060516  0.030258  0.010086      8.000000
  0.000000  0.040344  0.010086      8.000000
  0.010086  0.040344  0.010086     16.000000
  0.020172  0.040344  0.010086     16.000000
  0.030258  0.040344  0.010086     16.000000
  0.040344  0.040344  0.010086     16.000000
  0.050430  0.040344  0.010086     16.000000
  0.060516  0.040344  0.010086      8.000000
  0.000000  0.050430  0.010086      8.000000
  0.010086  0.050430  0.010086     16.000000
  0.020172  0.050430  0.010086     16.000000
  0.030258  0.050430  0.010086     16.000000
  0.040344  0.050430  0.010086     16.000000
  0.050430  0.050430  0.010086     16.000000
  0.060516  0.050430  0.010086      8.000000
  0.000000  0.060516  0.010086      4.000000
  0.010086  0.060516  0.010086      8.000000
  0.020172  0.060516  0.010086      8.000000
  0.030258  0.060516  0.010086      8.000000
  0.040344  0.060516  0.010086      8.000000
  0.050430  0.060516  0.010086      8.000000
  0.060516  0.060516  0.010086      4.000000
  0.000000  0.020172  0.020172      4.000000
  0.010086  0.020172  0.020172      8.000000
  0.020172  0.020172  0.020172      8.000000
  0.030258  0.020172  0.020172      8.000000
  0.040344  0.020172  0.020172      8.000000
  0.050430  0.020172  0.020172      8.000000
  0.060516  0.020172  0.020172      4.000000
  0.000000  0.030258  0.020172      8.000000
  0.010086  0.030258  0.020172     16.000000
  0.020172  0.030258  0.020172     16.000000
  0.030258  0.030258  0.020172     16.000000
  0.040344  0.030258  0.020172     16.000000
  0.050430  0.030258  0.020172     16.000000
  0.060516  0.030258  0.020172      8.000000
  0.000000  0.040344  0.020172      8.000000
  0.010086  0.040344  0.020172     16.000000
  0.020172  0.040344  0.020172     16.000000
  0.030258  0.040344  0.020172     16.000000
  0.040344  0.040344  0.020172     16.000000
  0.050430  0.040344  0.020172     16.000000
  0.060516  0.040344  0.020172      8.000000
  0.000000  0.050430  0.020172      8.000000
  0.010086  0.050430  0.020172     16.000000
  0.020172  0.050430  0.020172     16.000000
  0.030258  0.050430  0.020172     16.000000
  0.040344  0.050430  0.020172     16.000000
  0.050430  0.050430  0.020172     16.000000
  0.060516  0.050430  0.020172      8.000000
  0.000000  0.060516  0.020172      4.000000
  0.010086  0.060516  0.020172      8.000000
  0.020172  0.060516  0.020172      8.000000
  0.030258  0.060516  0.020172      8.000000
  0.040344  0.060516  0.020172      8.000000
  0.050430  0.060516  0.020172      8.000000
  0.060516  0.060516  0.020172      4.000000
  0.000000  0.030258  0.030258      4.000000
  0.010086  0.030258  0.030258      8.000000
  0.020172  0.030258  0.030258      8.000000
  0.030258  0.030258  0.030258      8.000000
  0.040344  0.030258  0.030258      8.000000
  0.050430  0.030258  0.030258      8.000000
  0.060516  0.030258  0.030258      4.000000
  0.000000  0.040344  0.030258      8.000000
  0.010086  0.040344  0.030258     16.000000
  0.020172  0.040344  0.030258     16.000000
  0.030258  0.040344  0.030258     16.000000
  0.040344  0.040344  0.030258     16.000000
  0.050430  0.040344  0.030258     16.000000
  0.060516  0.040344  0.030258      8.000000
  0.000000  0.050430  0.030258      8.000000
  0.010086  0.050430  0.030258     16.000000
  0.020172  0.050430  0.030258     16.000000
  0.030258  0.050430  0.030258     16.000000
  0.040344  0.050430  0.030258     16.000000
  0.050430  0.050430  0.030258     16.000000
  0.060516  0.050430  0.030258      8.000000
  0.000000  0.060516  0.030258      4.000000
  0.010086  0.060516  0.030258      8.000000
  0.020172  0.060516  0.030258      8.000000
  0.030258  0.060516  0.030258      8.000000
  0.040344  0.060516  0.030258      8.000000
  0.050430  0.060516  0.030258      8.000000
  0.060516  0.060516  0.030258      4.000000
  0.000000  0.040344  0.040344      4.000000
  0.010086  0.040344  0.040344      8.000000
  0.020172  0.040344  0.040344      8.000000
  0.030258  0.040344  0.040344      8.000000
  0.040344  0.040344  0.040344      8.000000
  0.050430  0.040344  0.040344      8.000000
  0.060516  0.040344  0.040344      4.000000
  0.000000  0.050430  0.040344      8.000000
  0.010086  0.050430  0.040344     16.000000
  0.020172  0.050430  0.040344     16.000000
  0.030258  0.050430  0.040344     16.000000
  0.040344  0.050430  0.040344     16.000000
  0.050430  0.050430  0.040344     16.000000
  0.060516  0.050430  0.040344      8.000000
  0.000000  0.060516  0.040344      4.000000
  0.010086  0.060516  0.040344      8.000000
  0.020172  0.060516  0.040344      8.000000
  0.030258  0.060516  0.040344      8.000000
  0.040344  0.060516  0.040344      8.000000
  0.050430  0.060516  0.040344      8.000000
  0.060516  0.060516  0.040344      4.000000
  0.000000  0.050430  0.050430      4.000000
  0.010086  0.050430  0.050430      8.000000
  0.020172  0.050430  0.050430      8.000000
  0.030258  0.050430  0.050430      8.000000
  0.040344  0.050430  0.050430      8.000000
  0.050430  0.050430  0.050430      8.000000
  0.060516  0.050430  0.050430      4.000000
  0.000000  0.060516  0.050430      4.000000
  0.010086  0.060516  0.050430      8.000000
  0.020172  0.060516  0.050430      8.000000
  0.030258  0.060516  0.050430      8.000000
  0.040344  0.060516  0.050430      8.000000
  0.050430  0.060516  0.050430      8.000000
  0.060516  0.060516  0.050430      4.000000
  0.000000  0.060516  0.060516      1.000000
  0.010086  0.060516  0.060516      2.000000
  0.020172  0.060516  0.060516      2.000000
  0.030258  0.060516  0.060516      2.000000
  0.040344  0.060516  0.060516      2.000000
  0.050430  0.060516  0.060516      2.000000
  0.060516  0.060516  0.060516      1.000000
 


--------------------------------------------------------------------------------------------------------




 Dimension of arrays:
   k-Points           NKPTS =    196   number of bands    NBANDS=    216
   number of dos      NEDOS =    301   number of ions     NIONS =     32
   non local maximal  LDIM  =      6   non local SUM 2l+1 LMDIM =     18
   total plane-waves  NPLWV = 512000
   max r-space proj   IRMAX =      1   max aug-charges    IRDMAX= 444251
   dimension x,y,z NGX =    80 NGY =   80 NGZ =   80
   dimension x,y,z NGXF=   160 NGYF=  160 NGZF=  160
   support grid    NGXF=   320 NGYF=  320 NGZF=  320
   ions per type =              32
 NGX,Y,Z   is equivalent  to a cutoff of  16.10, 16.10, 16.10 a.u.
 NGXF,Y,Z  is equivalent  to a cutoff of  32.19, 32.19, 32.19 a.u.


 I would recommend the setting:
   dimension x,y,z NGX =    74 NGY =   74 NGZ =   74
 SYSTEM =  unknown system                          
 POSCAR =  Au                                      

 Startparameter for this run:
   NWRITE =      2    write-flag & timer
   PREC   = accura    medium, high low
   ISTART =      0    job   : 0-new  1-cont  2-samecut
   ICHARG =      2    charge: 1-file 2-atom 10-const
   ISPIN  =      1    spin polarized calculation?
   LNONCOLLINEAR =      F non collinear calculations
   LSORBIT =      F    spin-orbit coupling
   INIWAV =      1    electr: 0-lowe 1-rand  2-diag
   LASPH  =      F    aspherical Exc in radial PAW
   METAGGA=      F    non-selfconsistent MetaGGA calc.

 Electronic Relaxation 1
   ENCUT  =  750.0 eV  55.12 Ry    7.42 a.u.  18.45 18.45 18.45*2*pi/ulx,y,z
   ENINI  =  750.0     initial cutoff
   ENAUG  =  356.7 eV  augmentation charge cutoff
   NELM   =     60;   NELMIN=  2; NELMDL=  0     # of ELM steps 
   EDIFF  = 0.1E-07   stopping-criterion for ELM
   LREAL  =      F    real-space projection
   LCOMPAT=      F    compatible to vasp.4.4
   LREAL_COMPAT= F    compatible to vasp.4.5.1-3
   GGA_COMPAT  = T    GGA compatible to vasp.4.4-vasp.4.6
   LMAXPAW     = -100 max onsite density
   LMAXMIX     =    2 max onsite mixed and CHGCAR
   VOSKOWN=      0    Vosko Wilk Nusair interpolation
   ROPT   =    0.00000
 Ionic relaxation
   EDIFFG = 0.1E-06   stopping-criterion for IOM
   NSW    =      0    number of steps for IOM
   NBLOCK =      1;   KBLOCK =      1    inner block; outer block 
   IBRION =     -1    ionic relax: 0-MD 1-quasi-New 2-CG
   NFREE  =      0    steps in history (QN), initial steepest desc. (CG)
   ISIF   =      2    stress and relaxation
   IWAVPR =     10    prediction:  0-non 1-charg 2-wave 3-comb
   ISYM   =      2    0-nonsym 1-usesym 2-fastsym
   LCORR  =      T    Harris-Foulkes like correction to forces

   POTIM  =   0.50    time-step for ionic-motion
   TEIN   =    0.0    initial temperature
   TEBEG  =    0.0;   TEEND  =   0.0 temperature during run
   SMASS  =  -3.00    Nose mass-parameter (am)
   estimated Nose-frequenzy (Omega)   =  0.10E-29 period in steps =****** mass=  -0.156E-26a.u.
   NPACO  =    256;   APACO  = 16.0  distance and # of slots for P.C.
   PSTRESS=    0.0 pullay stress

  Mass of Ions in am
   POMASS = 196.97
  Ionic Valenz
   ZVAL   =  11.00
  Atomic Wigner-Seitz radii
   RWIGS  =  -1.00
   NELECT =     352.0000    total number of electrons
   NUPDOWN=      -1.0000    fix difference up-down

 DOS related values:
   EMIN   =  10.00;   EMAX   =-10.00  energy-range for DOS
   ISMEAR =     0;   SIGMA  =   0.01  broadening in eV -4-tet -1-fermi 0-gaus

 Electronic relaxation 2 (details)
   IALGO  =     38    algorithm
   LDIAG  =      T    sub-space diagonalisation
   IMIX   =      4    mixing-type and parameters
     AMIX     =   0.40;   BMIX     =  1.00
     AMIX_MAG =   1.60;   BMIX_MAG =  1.00
     AMIN     =   0.10
     WC   =   100.;   INIMIX=   1;  MIXPRE=   1

 Intra band minimization:
   WEIMIN = 0.0000     energy-eigenvalue tresh-hold
   EBREAK =  0.12E-10  absolut break condition
   DEPER  =   0.30     relativ break condition  

   TIME   =   0.10     timestep for ELM

  volume/ion in A,a.u.               =      17.63       118.94
  Fermi-wavevector in a.u.,eV,Ry     =   1.399021 26.630134  1.957260

 Second variation
   LSECVAR=     F    do a second variation
 
 Write flags
   LWAVE  =      F    write WAVECAR
   LCHARG =      F    write CHGCAR
   LVTOT  =      F    write LOCPOT, local potential
   LELF   =      F    write electronic localiz. function (ELF)
   LORBIT =      0    0 simple, 1 ext, 2 COOP (PROOUT)


 Dipole corrections
   IDIPOL =      0    1-x, 2-y, 3-z
   LDIPOL =      F    correct potential



--------------------------------------------------------------------------------------------------------


 Static calculation
 charge density will be updated during run
 non-spin polarized calculation
 Variant of blocked Davidson
 Davidson routine will perform the subspace rotation
 performe sub-space diagonalisation
    after iterative eigenvector-optimisation
 modified Broyden-mixing scheme, WC =      100.0
 initial mixing is a Kerker type mixing with AMIX =  0.4000 and BMIX =      1.0000
 Hartree-type preconditioning will be used
 using additional bands           40
 reciprocal scheme for non local part
 use partial core corrections
 calculate Harris-corrections to forces 
   (improved forces if not selfconsistent)
 use gradient corrections 
 use of overlap-Matrix (Vanderbilt PP)
 Gauss-broadening in eV      SIGMA  =   0.01


--------------------------------------------------------------------------------------------------------


  energy-cutoff  :      750.00
  volume of cell :      564.02
      direct lattice vectors                 reciprocal lattice vectors
     8.262246767  0.000000000  0.000000000     0.121032454  0.000000000  0.000000000
     0.000000000  8.262246767  0.000000000     0.000000000  0.121032454  0.000000000
     0.000000000  0.000000000  8.262246767     0.000000000  0.000000000  0.121032454

  length of vectors
     8.262246767  8.262246767  8.262246767     0.121032454  0.121032454  0.121032454


 
 k-points in units of 2pi/SCALE and weight: Automatic mesh                          
   0.00000000  0.00000000  0.00000000       0.001
   0.01008604  0.00000000  0.00000000       0.001
   0.02017208  0.00000000  0.00000000       0.001
   0.03025811  0.00000000  0.00000000       0.001
   0.04034415  0.00000000  0.00000000       0.001
   0.05043019  0.00000000  0.00000000       0.001
   0.06051623  0.00000000  0.00000000       0.001
   0.00000000  0.01008604  0.00000000       0.002
   0.01008604  0.01008604  0.00000000       0.005
   0.02017208  0.01008604  0.00000000       0.005
   0.03025811  0.01008604  0.00000000       0.005
   0.04034415  0.01008604  0.00000000       0.005
   0.05043019  0.01008604  0.00000000       0.005
   0.06051623  0.01008604  0.00000000       0.002
   0.00000000  0.02017208  0.00000000       0.002
   0.01008604  0.02017208  0.00000000       0.005
   0.02017208  0.02017208  0.00000000       0.005
   0.03025811  0.02017208  0.00000000       0.005
   0.04034415  0.02017208  0.00000000       0.005
   0.05043019  0.02017208  0.00000000       0.005
   0.06051623  0.02017208  0.00000000       0.002
   0.00000000  0.03025811  0.00000000       0.002
   0.01008604  0.03025811  0.00000000       0.005
   0.02017208  0.03025811  0.00000000       0.005
   0.03025811  0.03025811  0.00000000       0.005
   0.04034415  0.03025811  0.00000000       0.005
   0.05043019  0.03025811  0.00000000       0.005
   0.06051623  0.03025811  0.00000000       0.002
   0.00000000  0.04034415  0.00000000       0.002
   0.01008604  0.04034415  0.00000000       0.005
   0.02017208  0.04034415  0.00000000       0.005
   0.03025811  0.04034415  0.00000000       0.005
   0.04034415  0.04034415  0.00000000       0.005
   0.05043019  0.04034415  0.00000000       0.005
   0.06051623  0.04034415  0.00000000       0.002
   0.00000000  0.05043019  0.00000000       0.002
   0.01008604  0.05043019  0.00000000       0.005
   0.02017208  0.05043019  0.00000000       0.005
   0.03025811  0.05043019  0.00000000       0.005
   0.04034415  0.05043019  0.00000000       0.005
   0.05043019  0.05043019  0.00000000       0.005
   0.06051623  0.05043019  0.00000000       0.002
   0.00000000  0.06051623  0.00000000       0.001
   0.01008604  0.06051623  0.00000000       0.002
   0.02017208  0.06051623  0.00000000       0.002
   0.03025811  0.06051623  0.00000000       0.002
   0.04034415  0.06051623  0.00000000       0.002
   0.05043019  0.06051623  0.00000000       0.002
   0.06051623  0.06051623  0.00000000       0.001
   0.00000000  0.01008604  0.01008604       0.002
   0.01008604  0.01008604  0.01008604       0.005
   0.02017208  0.01008604  0.01008604       0.005
   0.03025811  0.01008604  0.01008604       0.005
   0.04034415  0.01008604  0.01008604       0.005
   0.05043019  0.01008604  0.01008604       0.005
   0.06051623  0.01008604  0.01008604       0.002
   0.00000000  0.02017208  0.01008604       0.005
   0.01008604  0.02017208  0.01008604       0.009
   0.02017208  0.02017208  0.01008604       0.009
   0.03025811  0.02017208  0.01008604       0.009
   0.04034415  0.02017208  0.01008604       0.009
   0.05043019  0.02017208  0.01008604       0.009
   0.06051623  0.02017208  0.01008604       0.005
   0.00000000  0.03025811  0.01008604       0.005
   0.01008604  0.03025811  0.01008604       0.009
   0.02017208  0.03025811  0.01008604       0.009
   0.03025811  0.03025811  0.01008604       0.009
   0.04034415  0.03025811  0.01008604       0.009
   0.05043019  0.03025811  0.01008604       0.009
   0.06051623  0.03025811  0.01008604       0.005
   0.00000000  0.04034415  0.01008604       0.005
   0.01008604  0.04034415  0.01008604       0.009
   0.02017208  0.04034415  0.01008604       0.009
   0.03025811  0.04034415  0.01008604       0.009
   0.04034415  0.04034415  0.01008604       0.009
   0.05043019  0.04034415  0.01008604       0.009
   0.06051623  0.04034415  0.01008604       0.005
   0.00000000  0.05043019  0.01008604       0.005
   0.01008604  0.05043019  0.01008604       0.009
   0.02017208  0.05043019  0.01008604       0.009
   0.03025811  0.05043019  0.01008604       0.009
   0.04034415  0.05043019  0.01008604       0.009
   0.05043019  0.05043019  0.01008604       0.009
   0.06051623  0.05043019  0.01008604       0.005
   0.00000000  0.06051623  0.01008604       0.002
   0.01008604  0.06051623  0.01008604       0.005
   0.02017208  0.06051623  0.01008604       0.005
   0.03025811  0.06051623  0.01008604       0.005
   0.04034415  0.06051623  0.01008604       0.005
   0.05043019  0.06051623  0.01008604       0.005
   0.06051623  0.06051623  0.01008604       0.002
   0.00000000  0.02017208  0.02017208       0.002
   0.01008604  0.02017208  0.02017208       0.005
   0.02017208  0.02017208  0.02017208       0.005
   0.03025811  0.02017208  0.02017208       0.005
   0.04034415  0.02017208  0.02017208       0.005
   0.05043019  0.02017208  0.02017208       0.005
   0.06051623  0.02017208  0.02017208       0.002
   0.00000000  0.03025811  0.02017208       0.005
   0.01008604  0.03025811  0.02017208       0.009
   0.02017208  0.03025811  0.02017208       0.009
   0.03025811  0.03025811  0.02017208       0.009
   0.04034415  0.03025811  0.02017208       0.009
   0.05043019  0.03025811  0.02017208       0.009
   0.06051623  0.03025811  0.02017208       0.005
   0.00000000  0.04034415  0.02017208       0.005
   0.01008604  0.04034415  0.02017208       0.009
   0.02017208  0.04034415  0.02017208       0.009
   0.03025811  0.04034415  0.02017208       0.009
   0.04034415  0.04034415  0.02017208       0.009
   0.05043019  0.04034415  0.02017208       0.009
   0.06051623  0.04034415  0.02017208       0.005
   0.00000000  0.05043019  0.02017208       0.005
   0.01008604  0.05043019  0.02017208       0.009
   0.02017208  0.05043019  0.02017208       0.009
   0.03025811  0.05043019  0.02017208       0.009
   0.04034415  0.05043019  0.02017208       0.009
   0.05043019  0.05043019  0.02017208       0.009
   0.06051623  0.05043019  0.02017208       0.005
   0.00000000  0.06051623  0.02017208       0.002
   0.01008604  0.06051623  0.02017208       0.005
   0.02017208  0.06051623  0.02017208       0.005
   0.03025811  0.06051623  0.02017208       0.005
   0.04034415  0.06051623  0.02017208       0.005
   0.05043019  0.06051623  0.02017208       0.005
   0.06051623  0.06051623  0.02017208       0.002
   0.00000000  0.03025811  0.03025811       0.002
   0.01008604  0.03025811  0.03025811       0.005
   0.02017208  0.03025811  0.03025811       0.005
   0.03025811  0.03025811  0.03025811       0.005
   0.04034415  0.03025811  0.03025811       0.005
   0.05043019  0.03025811  0.03025811       0.005
   0.06051623  0.03025811  0.03025811       0.002
   0.00000000  0.04034415  0.03025811       0.005
   0.01008604  0.04034415  0.03025811       0.009
   0.02017208  0.04034415  0.03025811       0.009
   0.03025811  0.04034415  0.03025811       0.009
   0.04034415  0.04034415  0.03025811       0.009
   0.05043019  0.04034415  0.03025811       0.009
   0.06051623  0.04034415  0.03025811       0.005
   0.00000000  0.05043019  0.03025811       0.005
   0.01008604  0.05043019  0.03025811       0.009
   0.02017208  0.05043019  0.03025811       0.009
   0.03025811  0.05043019  0.03025811       0.009
   0.04034415  0.05043019  0.03025811       0.009
   0.05043019  0.05043019  0.03025811       0.009
   0.06051623  0.05043019  0.03025811       0.005
   0.00000000  0.06051623  0.03025811       0.002
   0.01008604  0.06051623  0.03025811       0.005
   0.02017208  0.06051623  0.03025811       0.005
   0.03025811  0.06051623  0.03025811       0.005
   0.04034415  0.06051623  0.03025811       0.005
   0.05043019  0.06051623  0.03025811       0.005
   0.06051623  0.06051623  0.03025811       0.002
   0.00000000  0.04034415  0.04034415       0.002
   0.01008604  0.04034415  0.04034415       0.005
   0.02017208  0.04034415  0.04034415       0.005
   0.03025811  0.04034415  0.04034415       0.005
   0.04034415  0.04034415  0.04034415       0.005
   0.05043019  0.04034415  0.04034415       0.005
   0.06051623  0.04034415  0.04034415       0.002
   0.00000000  0.05043019  0.04034415       0.005
   0.01008604  0.05043019  0.04034415       0.009
   0.02017208  0.05043019  0.04034415       0.009
   0.03025811  0.05043019  0.04034415       0.009
   0.04034415  0.05043019  0.04034415       0.009
   0.05043019  0.05043019  0.04034415       0.009
   0.06051623  0.05043019  0.04034415       0.005
   0.00000000  0.06051623  0.04034415       0.002
   0.01008604  0.06051623  0.04034415       0.005
   0.02017208  0.06051623  0.04034415       0.005
   0.03025811  0.06051623  0.04034415       0.005
   0.04034415  0.06051623  0.04034415       0.005
   0.05043019  0.06051623  0.04034415       0.005
   0.06051623  0.06051623  0.04034415       0.002
   0.00000000  0.05043019  0.05043019       0.002
   0.01008604  0.05043019  0.05043019       0.005
   0.02017208  0.05043019  0.05043019       0.005
   0.03025811  0.05043019  0.05043019       0.005
   0.04034415  0.05043019  0.05043019       0.005
   0.05043019  0.05043019  0.05043019       0.005
   0.06051623  0.05043019  0.05043019       0.002
   0.00000000  0.06051623  0.05043019       0.002
   0.01008604  0.06051623  0.05043019       0.005
   0.02017208  0.06051623  0.05043019       0.005
   0.03025811  0.06051623  0.05043019       0.005
   0.04034415  0.06051623  0.05043019       0.005
   0.05043019  0.06051623  0.05043019       0.005
   0.06051623  0.06051623  0.05043019       0.002
   0.00000000  0.06051623  0.06051623       0.001
   0.01008604  0.06051623  0.06051623       0.001
   0.02017208  0.06051623  0.06051623       0.001
   0.03025811  0.06051623  0.06051623       0.001
   0.04034415  0.06051623  0.06051623       0.001
   0.05043019  0.06051623  0.06051623       0.001
   0.06051623  0.06051623  0.06051623       0.001
 
 k-points in reciprocal lattice and weights: Automatic mesh                          
   0.00000000  0.00000000  0.00000000       0.001
   0.08333333  0.00000000  0.00000000       0.001
   0.16666667  0.00000000  0.00000000       0.001
   0.25000000  0.00000000  0.00000000       0.001
   0.33333333  0.00000000  0.00000000       0.001
   0.41666667  0.00000000  0.00000000       0.001
   0.50000000  0.00000000  0.00000000       0.001
   0.00000000  0.08333333  0.00000000       0.002
   0.08333333  0.08333333  0.00000000       0.005
   0.16666667  0.08333333  0.00000000       0.005
   0.25000000  0.08333333  0.00000000       0.005
   0.33333333  0.08333333  0.00000000       0.005
   0.41666667  0.08333333  0.00000000       0.005
   0.50000000  0.08333333  0.00000000       0.002
   0.00000000  0.16666667  0.00000000       0.002
   0.08333333  0.16666667  0.00000000       0.005
   0.16666667  0.16666667  0.00000000       0.005
   0.25000000  0.16666667  0.00000000       0.005
   0.33333333  0.16666667  0.00000000       0.005
   0.41666667  0.16666667  0.00000000       0.005
   0.50000000  0.16666667  0.00000000       0.002
   0.00000000  0.25000000  0.00000000       0.002
   0.08333333  0.25000000  0.00000000       0.005
   0.16666667  0.25000000  0.00000000       0.005
   0.25000000  0.25000000  0.00000000       0.005
   0.33333333  0.25000000  0.00000000       0.005
   0.41666667  0.25000000  0.00000000       0.005
   0.50000000  0.25000000  0.00000000       0.002
   0.00000000  0.33333333  0.00000000       0.002
   0.08333333  0.33333333  0.00000000       0.005
   0.16666667  0.33333333  0.00000000       0.005
   0.25000000  0.33333333  0.00000000       0.005
   0.33333333  0.33333333  0.00000000       0.005
   0.41666667  0.33333333  0.00000000       0.005
   0.50000000  0.33333333  0.00000000       0.002
   0.00000000  0.41666667  0.00000000       0.002
   0.08333333  0.41666667  0.00000000       0.005
   0.16666667  0.41666667  0.00000000       0.005
   0.25000000  0.41666667  0.00000000       0.005
   0.33333333  0.41666667  0.00000000       0.005
   0.41666667  0.41666667  0.00000000       0.005
   0.50000000  0.41666667  0.00000000       0.002
   0.00000000  0.50000000  0.00000000       0.001
   0.08333333  0.50000000  0.00000000       0.002
   0.16666667  0.50000000  0.00000000       0.002
   0.25000000  0.50000000  0.00000000       0.002
   0.33333333  0.50000000  0.00000000       0.002
   0.41666667  0.50000000  0.00000000       0.002
   0.50000000  0.50000000  0.00000000       0.001
   0.00000000  0.08333333  0.08333333       0.002
   0.08333333  0.08333333  0.08333333       0.005
   0.16666667  0.08333333  0.08333333       0.005
   0.25000000  0.08333333  0.08333333       0.005
   0.33333333  0.08333333  0.08333333       0.005
   0.41666667  0.08333333  0.08333333       0.005
   0.50000000  0.08333333  0.08333333       0.002
   0.00000000  0.16666667  0.08333333       0.005
   0.08333333  0.16666667  0.08333333       0.009
   0.16666667  0.16666667  0.08333333       0.009
   0.25000000  0.16666667  0.08333333       0.009
   0.33333333  0.16666667  0.08333333       0.009
   0.41666667  0.16666667  0.08333333       0.009
   0.50000000  0.16666667  0.08333333       0.005
   0.00000000  0.25000000  0.08333333       0.005
   0.08333333  0.25000000  0.08333333       0.009
   0.16666667  0.25000000  0.08333333       0.009
   0.25000000  0.25000000  0.08333333       0.009
   0.33333333  0.25000000  0.08333333       0.009
   0.41666667  0.25000000  0.08333333       0.009
   0.50000000  0.25000000  0.08333333       0.005
   0.00000000  0.33333333  0.08333333       0.005
   0.08333333  0.33333333  0.08333333       0.009
   0.16666667  0.33333333  0.08333333       0.009
   0.25000000  0.33333333  0.08333333       0.009
   0.33333333  0.33333333  0.08333333       0.009
   0.41666667  0.33333333  0.08333333       0.009
   0.50000000  0.33333333  0.08333333       0.005
   0.00000000  0.41666667  0.08333333       0.005
   0.08333333  0.41666667  0.08333333       0.009
   0.16666667  0.41666667  0.08333333       0.009
   0.25000000  0.41666667  0.08333333       0.009
   0.33333333  0.41666667  0.08333333       0.009
   0.41666667  0.41666667  0.08333333       0.009
   0.50000000  0.41666667  0.08333333       0.005
   0.00000000  0.50000000  0.08333333       0.002
   0.08333333  0.50000000  0.08333333       0.005
   0.16666667  0.50000000  0.08333333       0.005
   0.25000000  0.50000000  0.08333333       0.005
   0.33333333  0.50000000  0.08333333       0.005
   0.41666667  0.50000000  0.08333333       0.005
   0.50000000  0.50000000  0.08333333       0.002
   0.00000000  0.16666667  0.16666667       0.002
   0.08333333  0.16666667  0.16666667       0.005
   0.16666667  0.16666667  0.16666667       0.005
   0.25000000  0.16666667  0.16666667       0.005
   0.33333333  0.16666667  0.16666667       0.005
   0.41666667  0.16666667  0.16666667       0.005
   0.50000000  0.16666667  0.16666667       0.002
   0.00000000  0.25000000  0.16666667       0.005
   0.08333333  0.25000000  0.16666667       0.009
   0.16666667  0.25000000  0.16666667       0.009
   0.25000000  0.25000000  0.16666667       0.009
   0.33333333  0.25000000  0.16666667       0.009
   0.41666667  0.25000000  0.16666667       0.009
   0.50000000  0.25000000  0.16666667       0.005
   0.00000000  0.33333333  0.16666667       0.005
   0.08333333  0.33333333  0.16666667       0.009
   0.16666667  0.33333333  0.16666667       0.009
   0.25000000  0.33333333  0.16666667       0.009
   0.33333333  0.33333333  0.16666667       0.009
   0.41666667  0.33333333  0.16666667       0.009
   0.50000000  0.33333333  0.16666667       0.005
   0.00000000  0.41666667  0.16666667       0.005
   0.08333333  0.41666667  0.16666667       0.009
   0.16666667  0.41666667  0.16666667       0.009
   0.25000000  0.41666667  0.16666667       0.009
   0.33333333  0.41666667  0.16666667       0.009
   0.41666667  0.41666667  0.16666667       0.009
   0.50000000  0.41666667  0.16666667       0.005
   0.00000000  0.50000000  0.16666667       0.002
   0.08333333  0.50000000  0.16666667       0.005
   0.16666667  0.50000000  0.16666667       0.005
   0.25000000  0.50000000  0.16666667       0.005
   0.33333333  0.50000000  0.16666667       0.005
   0.41666667  0.50000000  0.16666667       0.005
   0.50000000  0.50000000  0.16666667       0.002
   0.00000000  0.25000000  0.25000000       0.002
   0.08333333  0.25000000  0.25000000       0.005
   0.16666667  0.25000000  0.25000000       0.005
   0.25000000  0.25000000  0.25000000       0.005
   0.33333333  0.25000000  0.25000000       0.005
   0.41666667  0.25000000  0.25000000       0.005
   0.50000000  0.25000000  0.25000000       0.002
   0.00000000  0.33333333  0.25000000       0.005
   0.08333333  0.33333333  0.25000000       0.009
   0.16666667  0.33333333  0.25000000       0.009
   0.25000000  0.33333333  0.25000000       0.009
   0.33333333  0.33333333  0.25000000       0.009
   0.41666667  0.33333333  0.25000000       0.009
   0.50000000  0.33333333  0.25000000       0.005
   0.00000000  0.41666667  0.25000000       0.005
   0.08333333  0.41666667  0.25000000       0.009
   0.16666667  0.41666667  0.25000000       0.009
   0.25000000  0.41666667  0.25000000       0.009
   0.33333333  0.41666667  0.25000000       0.009
   0.41666667  0.41666667  0.25000000       0.009
   0.50000000  0.41666667  0.25000000       0.005
   0.00000000  0.50000000  0.25000000       0.002
   0.08333333  0.50000000  0.25000000       0.005
   0.16666667  0.50000000  0.25000000       0.005
   0.25000000  0.50000000  0.25000000       0.005
   0.33333333  0.50000000  0.25000000       0.005
   0.41666667  0.50000000  0.25000000       0.005
   0.50000000  0.50000000  0.25000000       0.002
   0.00000000  0.33333333  0.33333333       0.002
   0.08333333  0.33333333  0.33333333       0.005
   0.16666667  0.33333333  0.33333333       0.005
   0.25000000  0.33333333  0.33333333       0.005
   0.33333333  0.33333333  0.33333333       0.005
   0.41666667  0.33333333  0.33333333       0.005
   0.50000000  0.33333333  0.33333333       0.002
   0.00000000  0.41666667  0.33333333       0.005
   0.08333333  0.41666667  0.33333333       0.009
   0.16666667  0.41666667  0.33333333       0.009
   0.25000000  0.41666667  0.33333333       0.009
   0.33333333  0.41666667  0.33333333       0.009
   0.41666667  0.41666667  0.33333333       0.009
   0.50000000  0.41666667  0.33333333       0.005
   0.00000000  0.50000000  0.33333333       0.002
   0.08333333  0.50000000  0.33333333       0.005
   0.16666667  0.50000000  0.33333333       0.005
   0.25000000  0.50000000  0.33333333       0.005
   0.33333333  0.50000000  0.33333333       0.005
   0.41666667  0.50000000  0.33333333       0.005
   0.50000000  0.50000000  0.33333333       0.002
   0.00000000  0.41666667  0.41666667       0.002
   0.08333333  0.41666667  0.41666667       0.005
   0.16666667  0.41666667  0.41666667       0.005
   0.25000000  0.41666667  0.41666667       0.005
   0.33333333  0.41666667  0.41666667       0.005
   0.41666667  0.41666667  0.41666667       0.005
   0.50000000  0.41666667  0.41666667       0.002
   0.00000000  0.50000000  0.41666667       0.002
   0.08333333  0.50000000  0.41666667       0.005
   0.16666667  0.50000000  0.41666667       0.005
   0.25000000  0.50000000  0.41666667       0.005
   0.33333333  0.50000000  0.41666667       0.005
   0.41666667  0.50000000  0.41666667       0.005
   0.50000000  0.50000000  0.41666667       0.002
   0.00000000  0.50000000  0.50000000       0.001
   0.08333333  0.50000000  0.50000000       0.001
   0.16666667  0.50000000  0.50000000       0.001
   0.25000000  0.50000000  0.50000000       0.001
   0.33333333  0.50000000  0.50000000       0.001
   0.41666667  0.50000000  0.50000000       0.001
   0.50000000  0.50000000  0.50000000       0.001
 
 position of ions in fractional coordinates (direct lattice) 
   0.00121032  0.00000000  0.00000000
   0.50000000  0.00000000  0.00000000
   0.00000000  0.50000000  0.00000000
   0.50000000  0.50000000  0.00000000
   0.00000000  0.00000000  0.50000000
   0.50000000  0.00000000  0.50000000
   0.00000000  0.50000000  0.50000000
   0.50000000  0.50000000  0.50000000
   0.25000000  0.25000000  0.00000000
   0.75000000  0.25000000  0.00000000
   0.25000000  0.75000000  0.00000000
   0.75000000  0.75000000  0.00000000
   0.25000000  0.25000000  0.50000000
   0.75000000  0.25000000  0.50000000
   0.25000000  0.75000000  0.50000000
   0.75000000  0.75000000  0.50000000
   0.25000000  0.00000000  0.25000000
   0.75000000  0.00000000  0.25000000
   0.25000000  0.50000000  0.25000000
   0.75000000  0.50000000  0.25000000
   0.25000000  0.00000000  0.75000000
   0.75000000  0.00000000  0.75000000
   0.25000000  0.50000000  0.75000000
   0.75000000  0.50000000  0.75000000
   0.00000000  0.25000000  0.25000000
   0.50000000  0.25000000  0.25000000
   0.00000000  0.75000000  0.25000000
   0.50000000  0.75000000  0.25000000
   0.00000000  0.25000000  0.75000000
   0.50000000  0.25000000  0.75000000
   0.00000000  0.75000000  0.75000000
   0.50000000  0.75000000  0.75000000
 
 position of ions in cartesian coordinates  (Angst):
   0.01000000  0.00000000  0.00000000
   4.13112338  0.00000000  0.00000000
   0.00000000  4.13112338  0.00000000
   4.13112338  4.13112338  0.00000000
   0.00000000  0.00000000  4.13112338
   4.13112338  0.00000000  4.13112338
   0.00000000  4.13112338  4.13112338
   4.13112338  4.13112338  4.13112338
   2.06556169  2.06556169  0.00000000
   6.19668507  2.06556169  0.00000000
   2.06556169  6.19668507  0.00000000
   6.19668507  6.19668507  0.00000000
   2.06556169  2.06556169  4.13112338
   6.19668507  2.06556169  4.13112338
   2.06556169  6.19668507  4.13112338
   6.19668507  6.19668507  4.13112338
   2.06556169  0.00000000  2.06556169
   6.19668507  0.00000000  2.06556169
   2.06556169  4.13112338  2.06556169
   6.19668507  4.13112338  2.06556169
   2.06556169  0.00000000  6.19668507
   6.19668507  0.00000000  6.19668507
   2.06556169  4.13112338  6.19668507
   6.19668507  4.13112338  6.19668507
   0.00000000  2.06556169  2.06556169
   4.13112338  2.06556169  2.06556169
   0.00000000  6.19668507  2.06556169
   4.13112338  6.19668507  2.06556169
   0.00000000  2.06556169  6.19668507
   4.13112338  2.06556169  6.19668507
   0.00000000  6.19668507  6.19668507
   4.13112338  6.19668507  6.19668507
 


--------------------------------------------------------------------------------------------------------


 k-point  1 :  0.00000.00000.0000  plane waves:  26193
 k-point  2 :  0.08330.00000.0000  plane waves:  26321
 k-point  3 :  0.16670.00000.0000  plane waves:  26317
 k-point  4 :  0.25000.00000.0000  plane waves:  26321
 k-point  5 :  0.33330.00000.0000  plane waves:  26333
 k-point  6 :  0.41670.00000.0000  plane waves:  26377
 k-point  7 :  0.50000.00000.0000  plane waves:  26452
 k-point  8 :  0.00000.08330.0000  plane waves:  26321
 k-point  9 :  0.08330.08330.0000  plane waves:  26296
 k-point 10 :  0.16670.08330.0000  plane waves:  26314
 k-point 11 :  0.25000.08330.0000  plane waves:  26316
 k-point 12 :  0.33330.08330.0000  plane waves:  26326
 k-point 13 :  0.41670.08330.0000  plane waves:  26333
 k-point 14 :  0.50000.08330.0000  plane waves:  26346
 k-point 15 :  0.00000.16670.0000  plane waves:  26317
 k-point 16 :  0.08330.16670.0000  plane waves:  26314
 k-point 17 :  0.16670.16670.0000  plane waves:  26288
 k-point 18 :  0.25000.16670.0000  plane waves:  26306
 k-point 19 :  0.33330.16670.0000  plane waves:  26300
 k-point 20 :  0.41670.16670.0000  plane waves:  26333
 k-point 21 :  0.50000.16670.0000  plane waves:  26330
 k-point 22 :  0.00000.25000.0000  plane waves:  26321
 k-point 23 :  0.08330.25000.0000  plane waves:  26316
 k-point 24 :  0.16670.25000.0000  plane waves:  26306
 k-point 25 :  0.25000.25000.0000  plane waves:  26290
 k-point 26 :  0.33330.25000.0000  plane waves:  26330
 k-point 27 :  0.41670.25000.0000  plane waves:  26313
 k-point 28 :  0.50000.25000.0000  plane waves:  26334
 k-point 29 :  0.00000.33330.0000  plane waves:  26333
 k-point 30 :  0.08330.33330.0000  plane waves:  26326
 k-point 31 :  0.16670.33330.0000  plane waves:  26300
 k-point 32 :  0.25000.33330.0000  plane waves:  26330
 k-point 33 :  0.33330.33330.0000  plane waves:  26324
 k-point 34 :  0.41670.33330.0000  plane waves:  26308
 k-point 35 :  0.50000.33330.0000  plane waves:  26312
 k-point 36 :  0.00000.41670.0000  plane waves:  26377
 k-point 37 :  0.08330.41670.0000  plane waves:  26333
 k-point 38 :  0.16670.41670.0000  plane waves:  26333
 k-point 39 :  0.25000.41670.0000  plane waves:  26313
 k-point 40 :  0.33330.41670.0000  plane waves:  26308
 k-point 41 :  0.41670.41670.0000  plane waves:  26310
 k-point 42 :  0.50000.41670.0000  plane waves:  26264
 k-point 43 :  0.00000.50000.0000  plane waves:  26452
 k-point 44 :  0.08330.50000.0000  plane waves:  26346
 k-point 45 :  0.16670.50000.0000  plane waves:  26330
 k-point 46 :  0.25000.50000.0000  plane waves:  26334
 k-point 47 :  0.33330.50000.0000  plane waves:  26312
 k-point 48 :  0.41670.50000.0000  plane waves:  26264
 k-point 49 :  0.50000.50000.0000  plane waves:  26244
 k-point 50 :  0.00000.08330.0833  plane waves:  26296
 k-point 51 :  0.08330.08330.0833  plane waves:  26301
 k-point 52 :  0.16670.08330.0833  plane waves:  26321
 k-point 53 :  0.25000.08330.0833  plane waves:  26320
 k-point 54 :  0.33330.08330.0833  plane waves:  26317
 k-point 55 :  0.41670.08330.0833  plane waves:  26329
 k-point 56 :  0.50000.08330.0833  plane waves:  26316
 k-point 57 :  0.00000.16670.0833  plane waves:  26314
 k-point 58 :  0.08330.16670.0833  plane waves:  26321
 k-point 59 :  0.16670.16670.0833  plane waves:  26300
 k-point 60 :  0.25000.16670.0833  plane waves:  26317
 k-point 61 :  0.33330.16670.0833  plane waves:  26328
 k-point 62 :  0.41670.16670.0833  plane waves:  26334
 k-point 63 :  0.50000.16670.0833  plane waves:  26328
 k-point 64 :  0.00000.25000.0833  plane waves:  26316
 k-point 65 :  0.08330.25000.0833  plane waves:  26320
 k-point 66 :  0.16670.25000.0833  plane waves:  26317
 k-point 67 :  0.25000.25000.0833  plane waves:  26311
 k-point 68 :  0.33330.25000.0833  plane waves:  26323
 k-point 69 :  0.41670.25000.0833  plane waves:  26312
 k-point 70 :  0.50000.25000.0833  plane waves:  26298
 k-point 71 :  0.00000.33330.0833  plane waves:  26326
 k-point 72 :  0.08330.33330.0833  plane waves:  26317
 k-point 73 :  0.16670.33330.0833  plane waves:  26328
 k-point 74 :  0.25000.33330.0833  plane waves:  26323
 k-point 75 :  0.33330.33330.0833  plane waves:  26313
 k-point 76 :  0.41670.33330.0833  plane waves:  26289
 k-point 77 :  0.50000.33330.0833  plane waves:  26300
 k-point 78 :  0.00000.41670.0833  plane waves:  26333
 k-point 79 :  0.08330.41670.0833  plane waves:  26329
 k-point 80 :  0.16670.41670.0833  plane waves:  26334
 k-point 81 :  0.25000.41670.0833  plane waves:  26312
 k-point 82 :  0.33330.41670.0833  plane waves:  26289
 k-point 83 :  0.41670.41670.0833  plane waves:  26288
 k-point 84 :  0.50000.41670.0833  plane waves:  26272
 k-point 85 :  0.00000.50000.0833  plane waves:  26346
 k-point 86 :  0.08330.50000.0833  plane waves:  26316
 k-point 87 :  0.16670.50000.0833  plane waves:  26328
 k-point 88 :  0.25000.50000.0833  plane waves:  26298
 k-point 89 :  0.33330.50000.0833  plane waves:  26300
 k-point 90 :  0.41670.50000.0833  plane waves:  26272
 k-point 91 :  0.50000.50000.0833  plane waves:  26320
 k-point 92 :  0.00000.16670.1667  plane waves:  26288
 k-point 93 :  0.08330.16670.1667  plane waves:  26300
 k-point 94 :  0.16670.16670.1667  plane waves:  26322
 k-point 95 :  0.25000.16670.1667  plane waves:  26313
 k-point 96 :  0.33330.16670.1667  plane waves:  26328
 k-point 97 :  0.41670.16670.1667  plane waves:  26302
 k-point 98 :  0.50000.16670.1667  plane waves:  26342
 k-point 99 :  0.00000.25000.1667  plane waves:  26306
 k-point ** :  0.08330.25000.1667  plane waves:  26317
 k-point ** :  0.16670.25000.1667  plane waves:  26313
 k-point ** :  0.25000.25000.1667  plane waves:  26325
 k-point ** :  0.33330.25000.1667  plane waves:  26325
 k-point ** :  0.41670.25000.1667  plane waves:  26292
 k-point ** :  0.50000.25000.1667  plane waves:  26308
 k-point ** :  0.00000.33330.1667  plane waves:  26300
 k-point ** :  0.08330.33330.1667  plane waves:  26328
 k-point ** :  0.16670.33330.1667  plane waves:  26328
 k-point ** :  0.25000.33330.1667  plane waves:  26325
 k-point ** :  0.33330.33330.1667  plane waves:  26324
 k-point ** :  0.41670.33330.1667  plane waves:  26298
 k-point ** :  0.50000.33330.1667  plane waves:  26282
 k-point ** :  0.00000.41670.1667  plane waves:  26333
 k-point ** :  0.08330.41670.1667  plane waves:  26334
 k-point ** :  0.16670.41670.1667  plane waves:  26302
 k-point ** :  0.25000.41670.1667  plane waves:  26292
 k-point ** :  0.33330.41670.1667  plane waves:  26298
 k-point ** :  0.41670.41670.1667  plane waves:  26314
 k-point ** :  0.50000.41670.1667  plane waves:  26274
 k-point ** :  0.00000.50000.1667  plane waves:  26330
 k-point ** :  0.08330.50000.1667  plane waves:  26328
 k-point ** :  0.16670.50000.1667  plane waves:  26342
 k-point ** :  0.25000.50000.1667  plane waves:  26308
 k-point ** :  0.33330.50000.1667  plane waves:  26282
 k-point ** :  0.41670.50000.1667  plane waves:  26274
 k-point ** :  0.50000.50000.1667  plane waves:  26280
 k-point ** :  0.00000.25000.2500  plane waves:  26290
 k-point ** :  0.08330.25000.2500  plane waves:  26311
 k-point ** :  0.16670.25000.2500  plane waves:  26325
 k-point ** :  0.25000.25000.2500  plane waves:  26289
 k-point ** :  0.33330.25000.2500  plane waves:  26292
 k-point ** :  0.41670.25000.2500  plane waves:  26303
 k-point ** :  0.50000.25000.2500  plane waves:  26346
 k-point ** :  0.00000.33330.2500  plane waves:  26330
 k-point ** :  0.08330.33330.2500  plane waves:  26323
 k-point ** :  0.16670.33330.2500  plane waves:  26325
 k-point ** :  0.25000.33330.2500  plane waves:  26292
 k-point ** :  0.33330.33330.2500  plane waves:  26281
 k-point ** :  0.41670.33330.2500  plane waves:  26292
 k-point ** :  0.50000.33330.2500  plane waves:  26290
 k-point ** :  0.00000.41670.2500  plane waves:  26313
 k-point ** :  0.08330.41670.2500  plane waves:  26312
 k-point ** :  0.16670.41670.2500  plane waves:  26292
 k-point ** :  0.25000.41670.2500  plane waves:  26303
 k-point ** :  0.33330.41670.2500  plane waves:  26292
 k-point ** :  0.41670.41670.2500  plane waves:  26275
 k-point ** :  0.50000.41670.2500  plane waves:  26288
 k-point ** :  0.00000.50000.2500  plane waves:  26334
 k-point ** :  0.08330.50000.2500  plane waves:  26298
 k-point ** :  0.16670.50000.2500  plane waves:  26308
 k-point ** :  0.25000.50000.2500  plane waves:  26346
 k-point ** :  0.33330.50000.2500  plane waves:  26290
 k-point ** :  0.41670.50000.2500  plane waves:  26288
 k-point ** :  0.50000.50000.2500  plane waves:  26284
 k-point ** :  0.00000.33330.3333  plane waves:  26324
 k-point ** :  0.08330.33330.3333  plane waves:  26313
 k-point ** :  0.16670.33330.3333  plane waves:  26324
 k-point ** :  0.25000.33330.3333  plane waves:  26281
 k-point ** :  0.33330.33330.3333  plane waves:  26250
 k-point ** :  0.41670.33330.3333  plane waves:  26252
 k-point ** :  0.50000.33330.3333  plane waves:  26272
 k-point ** :  0.00000.41670.3333  plane waves:  26308
 k-point ** :  0.08330.41670.3333  plane waves:  26289
 k-point ** :  0.16670.41670.3333  plane waves:  26298
 k-point ** :  0.25000.41670.3333  plane waves:  26292
 k-point ** :  0.33330.41670.3333  plane waves:  26252
 k-point ** :  0.41670.41670.3333  plane waves:  26265
 k-point ** :  0.50000.41670.3333  plane waves:  26288
 k-point ** :  0.00000.50000.3333  plane waves:  26312
 k-point ** :  0.08330.50000.3333  plane waves:  26300
 k-point ** :  0.16670.50000.3333  plane waves:  26282
 k-point ** :  0.25000.50000.3333  plane waves:  26290
 k-point ** :  0.33330.50000.3333  plane waves:  26272
 k-point ** :  0.41670.50000.3333  plane waves:  26288
 k-point ** :  0.50000.50000.3333  plane waves:  26272
 k-point ** :  0.00000.41670.4167  plane waves:  26310
 k-point ** :  0.08330.41670.4167  plane waves:  26288
 k-point ** :  0.16670.41670.4167  plane waves:  26314
 k-point ** :  0.25000.41670.4167  plane waves:  26275
 k-point ** :  0.33330.41670.4167  plane waves:  26265
 k-point ** :  0.41670.41670.4167  plane waves:  26242
 k-point ** :  0.50000.41670.4167  plane waves:  26228
 k-point ** :  0.00000.50000.4167  plane waves:  26264
 k-point ** :  0.08330.50000.4167  plane waves:  26272
 k-point ** :  0.16670.50000.4167  plane waves:  26274
 k-point ** :  0.25000.50000.4167  plane waves:  26288
 k-point ** :  0.33330.50000.4167  plane waves:  26288
 k-point ** :  0.41670.50000.4167  plane waves:  26228
 k-point ** :  0.50000.50000.4167  plane waves:  26244
 k-point ** :  0.00000.50000.5000  plane waves:  26244
 k-point ** :  0.08330.50000.5000  plane waves:  26320
 k-point ** :  0.16670.50000.5000  plane waves:  26280
 k-point ** :  0.25000.50000.5000  plane waves:  26284
 k-point ** :  0.33330.50000.5000  plane waves:  26272
 k-point ** :  0.41670.50000.5000  plane waves:  26244
 k-point ** :  0.50000.50000.5000  plane waves:  26200

 maximum and minimum number of plane-waves per node :  26452 26193

 maximum number of plane-waves:  26452
 maximal index in each direction: 
   IXMAX= 18   IYMAX= 18   IZMAX= 18
   IXMIN=-18   IYMIN=-18   IZMIN=-18

 NGX is ok and might be reduce to  74
 NGY is ok and might be reduce to  74
 NGZ is ok and might be reduce to  74

 parallel 3dFFT wavefunction:
    minimum data exchange during FFTs selected (reduces bandwidth)
 parallel 3dFFT charge:
    minimum data exchange during FFTs selected (reduces bandwidth)

 For storing wavefunctions ******* MBYTES are necessary
 For predicting wavefunctions  192.70 MBYTES are necessary
Broyden mixing: mesh for mixing (old mesh)
   NGX = 37   NGY = 37   NGZ = 37
  (NGX  =160   NGY  =160   NGZ  =160)
 gives a total of  50653 points
 initial charge density was supplied:
 charge density of overlapping atoms calculated
 number of electron  352.0000000 magnetization 
 keeping initial charge density in first step


--------------------------------------------------------------------------------------------------------


 Maximum index for augmentation-charges        53791 (set IRDMAX)


--------------------------------------------------------------------------------------------------------


 First call to EWALD:  gamma=   0.215
 Maximum number of real-space cells 3x 3x 3
 Maximum number of reciprocal cells 3x 3x 3

    FEWALD:  VPU time    0.00: CPU time    0.00


----------------------------------------- Iteration    1(   1)  ---------------------------------------


    POTLOK:  VPU time    0.39: CPU time    0.39
    SETDIJ:  VPU time    0.60: CPU time    0.60
    EDDAV :  VPU time 1402.88: CPU time 1805.27
    DOS   :  VPU time   -0.00: CPU time   -0.06
    ------------------------------------------
      LOOP:  VPU time 1404.00: CPU time 1806.45

 eigenvalue-minimisations  : 84672
 total energy-change (2. order) : 0.4792470E+04  (-0.2090699E+05)
 number of electron  352.0000000 magnetization 
 augmentation part   352.0000000 magnetization 

 Free energy of the ion-electron system (eV)
  ---------------------------------------------------
  alpha Z        PSCENC =      3400.17760478
  Ewald energy   TEWEN  =    -30939.92845240
  -1/2 Hartree   DENC   =     -4104.17110196
  -V(xc)+E(xc)   XCENC  =       487.94446573
  PAW double counting   =     23920.39735419   -23172.13309131
  entropy T*S    EENTRO =        -0.00046766
  eigenvalues    EBANDS =      5566.39360166
  atomic energy  EATOM  =     29633.78979189
  ---------------------------------------------------
  free energy    TOTEN  =      4792.46970492 eV

  energy without entropy =     4792.47017259  energy(sigma->0) =     4792.46993876


--------------------------------------------------------------------------------------------------------




----------------------------------------- Iteration    1(   2)  ---------------------------------------


    EDDAV :  VPU time 1077.34: CPU time 1089.66
    DOS   :  VPU time    0.00: CPU time   -0.00
    ------------------------------------------
      LOOP:  VPU time 1077.46: CPU time 1089.80

 eigenvalue-minimisations  : 84672
 total energy-change (2. order) :-0.4626819E+04  (-0.4427295E+04)
 number of electron  352.0000000 magnetization 
 augmentation part   352.0000000 magnetization 

 Free energy of the ion-electron system (eV)
  ---------------------------------------------------
  alpha Z        PSCENC =      3400.17760478
  Ewald energy   TEWEN  =    -30939.92845240
  -1/2 Hartree   DENC   =     -4104.17110196
  -V(xc)+E(xc)   XCENC  =       487.94446573
  PAW double counting   =     23920.39735419   -23172.13309131
  entropy T*S    EENTRO =        -0.00066198
  eigenvalues    EBANDS =       939.57480716
  atomic energy  EATOM  =     29633.78979189
  ---------------------------------------------------
  free energy    TOTEN  =       165.65071610 eV

  energy without entropy =      165.65137808  energy(sigma->0) =      165.65104709


--------------------------------------------------------------------------------------------------------




----------------------------------------- Iteration    1(   3)  ---------------------------------------


    EDDAV :  VPU time 1130.05: CPU time 1129.99
    DOS   :  VPU time    0.00: CPU time   -0.00
    ------------------------------------------
      LOOP:  VPU time 1130.17: CPU time 1130.12

 eigenvalue-minimisations  : 92376
 total energy-change (2. order) :-0.2690867E+03  (-0.2480586E+03)
 number of electron  352.0000000 magnetization 
 augmentation part   352.0000000 magnetization 

 Free energy of the ion-electron system (eV)
  ---------------------------------------------------
  alpha Z        PSCENC =      3400.17760478
  Ewald energy   TEWEN  =    -30939.92845240
  -1/2 Hartree   DENC   =     -4104.17110196
  -V(xc)+E(xc)   XCENC  =       487.94446573
  PAW double counting   =     23920.39735419   -23172.13309131
  entropy T*S    EENTRO =        -0.00047796
  eigenvalues    EBANDS =       670.48794626
  atomic energy  EATOM  =     29633.78979189
  ---------------------------------------------------
  free energy    TOTEN  =      -103.43596077 eV

  energy without entropy =     -103.43548282  energy(sigma->0) =     -103.43572179


--------------------------------------------------------------------------------------------------------




----------------------------------------- Iteration    1(   4)  ---------------------------------------


    EDDAV :  VPU time 1203.66: CPU time 1203.56
    DOS   :  VPU time    0.00: CPU time   -0.00
    ------------------------------------------
      LOOP:  VPU time 1203.78: CPU time 1203.68

 eigenvalue-minimisations  : 90808
 total energy-change (2. order) :-0.8855638E+01  (-0.8720940E+01)
 number of electron  352.0000000 magnetization 
 augmentation part   352.0000000 magnetization 

 Free energy of the ion-electron system (eV)
  ---------------------------------------------------
  alpha Z        PSCENC =      3400.17760478
  Ewald energy   TEWEN  =    -30939.92845240
  -1/2 Hartree   DENC   =     -4104.17110196
  -V(xc)+E(xc)   XCENC  =       487.94446573
  PAW double counting   =     23920.39735419   -23172.13309131
  entropy T*S    EENTRO =        -0.00050045
  eigenvalues    EBANDS =       661.63233082
  atomic energy  EATOM  =     29633.78979189
  ---------------------------------------------------
  free energy    TOTEN  =      -112.29159870 eV

  energy without entropy =     -112.29109826  energy(sigma->0) =     -112.29134848


--------------------------------------------------------------------------------------------------------




----------------------------------------- Iteration    1(   5)  ---------------------------------------


    EDDAV :  VPU time 1312.84: CPU time 1312.78
    DOS   :  VPU time    0.00: CPU time   -0.00
    CHARGE:  VPU time  115.87: CPU time  117.67
    MIXING:  VPU time    0.17: CPU time    0.23
    ------------------------------------------
      LOOP:  VPU time 1429.00: CPU time 1430.80

 eigenvalue-minimisations  : 91304
 total energy-change (2. order) :-0.1449649E+00  (-0.1445567E+00)
 number of electron  352.0000006 magnetization 
 augmentation part   124.0409800 magnetization 

 Broyden mixing:
  rms(total) = 0.16337E+01    rms(broyden)= 0.16337E+01
  rms(prec ) = 0.25038E+01
  weight for this iteration     100.00

 Free energy of the ion-electron system (eV)
  ---------------------------------------------------
  alpha Z        PSCENC =      3400.17760478
  Ewald energy   TEWEN  =    -30939.92845240
  -1/2 Hartree   DENC   =     -4104.17110196
  -V(xc)+E(xc)   XCENC  =       487.94446573
  PAW double counting   =     23920.39735419   -23172.13309131
  entropy T*S    EENTRO =        -0.00050613
  eigenvalues    EBANDS =       661.48737158
  atomic energy  EATOM  =     29633.78979189
  ---------------------------------------------------
  free energy    TOTEN  =      -112.43656363 eV

  energy without entropy =     -112.43605750  energy(sigma->0) =     -112.43631056


--------------------------------------------------------------------------------------------------------




----------------------------------------- Iteration    1(   6)  ---------------------------------------


    POTLOK:  VPU time    0.61: CPU time    0.86
    SETDIJ:  VPU time    1.16: CPU time    1.21
    EDDAV :  VPU time 1306.88: CPU time 1323.15
    DOS   :  VPU time   -0.00: CPU time   -0.00
    CHARGE:  VPU time   53.90: CPU time  419.68
    MIXING:  VPU time    0.07: CPU time    0.53
    ------------------------------------------
      LOOP:  VPU time 1362.77: CPU time 1745.67

 eigenvalue-minimisations  : 89504
 total energy-change (2. order) : 0.7375199E+01  (-0.1881299E+01)
 number of electron  352.0000006 magnetization 
 augmentation part   128.1401345 magnetization 

 Broyden mixing:
  rms(total) = 0.44275E+00    rms(broyden)= 0.44275E+00
  rms(prec ) = 0.66277E+00
  weight for this iteration     100.00

 eigenvalues of (default mixing * dielectric matrix)
  average eigenvalue GAMMA=   1.2481
  1.2481

 Free energy of the ion-electron system (eV)
  ---------------------------------------------------
  alpha Z        PSCENC =      3400.17760478
  Ewald energy   TEWEN  =    -30939.92845240
  -1/2 Hartree   DENC   =     -3862.10535230
  -V(xc)+E(xc)   XCENC  =       477.28938006
  PAW double counting   =     23739.80498691   -23029.95948214
  entropy T*S    EENTRO =        -0.00098289
  eigenvalues    EBANDS =       475.87114174
  atomic energy  EATOM  =     29633.78979189
  ---------------------------------------------------
  free energy    TOTEN  =      -105.06136435 eV

  energy without entropy =     -105.06038146  energy(sigma->0) =     -105.06087290


--------------------------------------------------------------------------------------------------------




----------------------------------------- Iteration    1(   7)  ---------------------------------------


    POTLOK:  VPU time    0.51: CPU time    0.51
    SETDIJ:  VPU time    0.73: CPU time    0.84
    EDDAV :  VPU time 1565.28: CPU time 1769.86
    DOS   :  VPU time    0.00: CPU time   -0.00
    CHARGE:  VPU time   57.61: CPU time   60.38
    MIXING:  VPU time    0.31: CPU time    0.79
    ------------------------------------------
      LOOP:  VPU time 1624.67: CPU time 1832.85

 eigenvalue-minimisations  : 94704
 total energy-change (2. order) : 0.5228273E+00  (-0.1408145E+00)
 number of electron  352.0000006 magnetization 
 augmentation part   129.2257637 magnetization 

 Broyden mixing:
  rms(total) = 0.16959E+00    rms(broyden)= 0.16959E+00
  rms(prec ) = 0.19982E+00
  weight for this iteration     100.00

 eigenvalues of (default mixing * dielectric matrix)
  average eigenvalue GAMMA=   1.8314
  1.2307  2.4321

 Free energy of the ion-electron system (eV)
  ---------------------------------------------------
  alpha Z        PSCENC =      3400.17760478
  Ewald energy   TEWEN  =    -30939.92845240
  -1/2 Hartree   DENC   =     -3784.41209027
  -V(xc)+E(xc)   XCENC  =       473.78755160
  PAW double counting   =     23828.12018782   -23142.82007931
  entropy T*S    EENTRO =        -0.00053250
  eigenvalues    EBANDS =       426.74748138
  atomic energy  EATOM  =     29633.78979189
[...]
     72       1.0269      2.00000
     73       1.0273      2.00000
     74       1.0273      2.00000
     75       1.0274      2.00000
     76       1.0275      2.00000
     77       1.0282      2.00000
     78       1.0284      2.00000
     79       1.0288      2.00000
     80       1.0288      2.00000
     81       1.1134      2.00000
     82       1.1134      2.00000
     83       1.1147      2.00000
     84       1.1150      2.00000
     85       1.1168      2.00000
     86       1.1177      2.00000
     87       1.1177      2.00000
     88       1.1177      2.00000
     89       1.1178      2.00000
     90       1.1178      2.00000
     91       1.1179      2.00000
     92       1.1179      2.00000
     93       1.1180      2.00000
     94       1.1180      2.00000
     95       1.1181      2.00000
     96       1.1181      2.00000
     97       1.1181      2.00000
     98       1.1181      2.00000
     99       1.1182      2.00000
    100       1.1191      2.00000
    101       1.1210      2.00000
    102       1.1213      2.00000
    103       1.1226      2.00000
    104       1.1226      2.00000
    105       1.8790      2.00000
    106       1.8807      2.00000
    107       1.8807      2.00000
    108       1.8834      2.00000
    109       1.8835      2.00000
    110       1.8836      2.00000
    111       1.8836      2.00000
    112       1.8840      2.00000
    113       1.8841      2.00000
    114       1.8842      2.00000
    115       1.8842      2.00000
    116       1.8842      2.00000
    117       1.8843      2.00000
    118       1.8843      2.00000
    119       1.8843      2.00000
    120       1.8843      2.00000
    121       1.8845      2.00000
    122       1.8848      2.00000
    123       1.8848      2.00000
    124       1.8849      2.00000
    125       1.8852      2.00000
    126       1.8878      2.00000
    127       1.8878      2.00000
    128       1.8894      2.00000
    129       2.3501      2.00000
    130       2.3518      2.00000
    131       2.3519      2.00000
    132       2.3519      2.00000
    133       2.3532      2.00000
    134       2.3532      2.00000
    135       2.3534      2.00000
    136       2.3536      2.00000
    137       2.3537      2.00000
    138       2.3538      2.00000
    139       2.3541      2.00000
    140       2.3541      2.00000
    141       2.3554      2.00000
    142       2.3554      2.00000
    143       2.3555      2.00000
    144       2.3572      2.00000
    145       3.4057      2.00000
    146       3.4057      2.00000
    147       3.4060      2.00000
    148       3.4063      2.00000
    149       3.4063      2.00000
    150       3.4063      2.00000
    151       3.4063      2.00000
    152       3.4063      2.00000
    153       3.4065      2.00000
    154       3.4066      2.00000
    155       3.4066      2.00000
    156       3.4067      2.00000
    157       3.4068      2.00000
    158       3.4069      2.00000
    159       3.4069      2.00000
    160       3.4070      2.00000
    161       3.4071      2.00000
    162       3.4072      2.00000
    163       3.4072      2.00000
    164       3.4072      2.00000
    165       3.4072      2.00000
    166       3.4075      2.00000
    167       3.4078      2.00000
    168       3.4078      2.00000
    169       6.2949      0.00000
    170       6.2977      0.00000
    171       6.2977      0.00000
    172       6.2997      0.00000
    173       6.3004      0.00000
    174       6.3006      0.00000
    175       6.3006      0.00000
    176       6.3006      0.00000
    177       6.3007      0.00000
    178       6.3007      0.00000
    179       6.3008      0.00000
    180       6.3008      0.00000
    181       6.3011      0.00000
    182       6.3011      0.00000
    183       6.3011      0.00000
    184       6.3012      0.00000
    185       6.3012      0.00000
    186       6.3013      0.00000
    187       6.3013      0.00000
    188       6.3015      0.00000
    189       6.3022      0.00000
    190       6.3042      0.00000
    191       6.3042      0.00000
    192       6.3069      0.00000
    193      10.6762      0.00000
    194      10.6762      0.00000
    195      10.6797      0.00000
    196      10.6799      0.00000
    197      10.6805      0.00000
    198      10.6810      0.00000
    199      10.6810      0.00000
    200      10.6817      0.00000
    201      10.6818      0.00000
    202      10.6818      0.00000
    203      10.6818      0.00000
    204      10.6818      0.00000
    205      10.6818      0.00000
    206      10.6819      0.00000
    207      10.6819      0.00000
    208      10.6819      0.00000
    209      10.6819      0.00000
    210      10.6827      0.00000
    211      10.6827      0.00000
    212      10.6831      0.00000
    213      10.6837      0.00000
    214      10.6840      0.00000
    215      10.6875      0.00000
    216      10.6875      0.00000


--------------------------------------------------------------------------------------------------------


 soft charge-density along one line, spin component           1
         0         1         2         3         4         5         6         7         8         9
 total charge-density along one line
 
 pseudopotential strength for first ion, spin component:           1
 -9.934  -0.000  -0.000  -0.000  -0.000  -0.085   0.000   0.000
 -0.000  -9.934   0.000  -0.000   0.000   0.000  -0.085  -0.000
 -0.000   0.000  -9.919   0.000  -0.000   0.000  -0.000  -0.086
 -0.000  -0.000   0.000  -9.934  -0.000   0.000  -0.000  -0.000
 -0.000   0.000  -0.000  -0.000  -9.919   0.000  -0.000   0.000
 -0.085   0.000   0.000   0.000   0.000   0.282  -0.000  -0.000
  0.000  -0.085  -0.000  -0.000  -0.000  -0.000   0.282   0.000
  0.000  -0.000  -0.086  -0.000   0.000  -0.000   0.000   0.282
  0.000  -0.000  -0.000  -0.085   0.000  -0.000   0.000   0.000
  0.000  -0.000   0.000   0.000  -0.086  -0.000   0.000  -0.000
 -0.000   0.000   0.000   0.000  -0.000  -0.000   0.000  -0.000
  0.000  -0.000  -0.000  -0.000   0.000  -0.000   0.000   0.000
 -0.000  -0.000   0.000  -0.000  -0.000   0.000   0.000  -0.000
 -0.000  -0.000   0.000  -0.000  -0.000   0.000   0.000   0.000
 -0.000  -0.000   0.000  -0.000  -0.000   0.000   0.000  -0.000
  0.000   0.000  -0.000   0.000   0.000  -0.000  -0.000   0.000
  0.000  -0.000  -0.000   0.000   0.000  -0.000  -0.000   0.000
  0.000   0.000  -0.000   0.000   0.000  -0.000  -0.000   0.000
 total augmentation occupancy for first ion, spin component:           1
  1.901  -0.000  -0.003  -0.001  -0.001  -0.037   0.000   0.001   0.001   0.001   0.006   0.001   0.000   0.000  -0.000  -0.000
 -0.000   1.908  -0.001  -0.002  -0.003   0.000  -0.044   0.002   0.002   0.001   0.006   0.000   0.000   0.000  -0.000  -0.000
 -0.003  -0.001   1.961   0.000  -0.004   0.001   0.002  -0.092   0.001   0.003   0.014   0.004   0.000  -0.000  -0.000  -0.000
 -0.001  -0.002   0.000   1.915   0.002   0.001   0.002   0.001  -0.051   0.000   0.005   0.000   0.000   0.000  -0.000  -0.000
 -0.001  -0.003  -0.004   0.002   1.947   0.001   0.001   0.003   0.000  -0.081   0.008   0.002   0.000   0.000   0.000  -0.000
 -0.037   0.000   0.001   0.001   0.001   0.194   0.000   0.002  -0.001  -0.001  -0.002   0.001   0.002  -0.000   0.000  -0.000
  0.000  -0.044   0.002   0.002   0.001   0.000   0.200  -0.003  -0.001   0.001  -0.002   0.001  -0.000  -0.000   0.000   0.000
  0.001   0.002  -0.092   0.001   0.003   0.002  -0.003   0.161  -0.002  -0.002  -0.010  -0.002   0.000   0.000  -0.000   0.000
  0.001   0.002   0.001  -0.051   0.000  -0.001  -0.001  -0.002   0.206  -0.003  -0.001   0.002  -0.000   0.002   0.000   0.000
  0.001   0.001   0.003   0.000  -0.081  -0.001   0.001  -0.002  -0.003   0.155  -0.006  -0.001  -0.000  -0.000   0.001   0.000
  0.006   0.006   0.014   0.005   0.008  -0.002  -0.002  -0.010  -0.001  -0.006   1.062  -0.369   0.000  -0.000   0.003   0.000
  0.001   0.000   0.004   0.000   0.002   0.001   0.001  -0.002   0.002  -0.001  -0.369   0.237   0.000   0.000  -0.001   0.000
  0.000   0.000   0.000   0.000   0.000   0.002  -0.000   0.000  -0.000  -0.000   0.000   0.000   0.153   0.001   0.002  -0.011
  0.000   0.000  -0.000   0.000   0.000  -0.000  -0.000   0.000   0.002  -0.000  -0.000   0.000   0.001   0.153   0.000  -0.000
 -0.000  -0.000  -0.000  -0.000   0.000   0.000   0.000  -0.000   0.000   0.001   0.003  -0.001   0.002   0.000   0.153  -0.000
 -0.000  -0.000  -0.000  -0.000  -0.000  -0.000   0.000   0.000   0.000   0.000   0.000   0.000  -0.011  -0.000  -0.000   0.001
 -0.000  -0.000   0.000  -0.000   0.000   0.000   0.000  -0.000  -0.000  -0.000   0.000   0.000  -0.000  -0.011  -0.000   0.000
  0.000   0.000   0.000   0.000  -0.000  -0.000  -0.000   0.000  -0.000  -0.000  -0.000   0.000  -0.000  -0.000  -0.011   0.000


------------------------ aborting loop because EDIFF is reached ----------------------------------------




--------------------------------------------------------------------------------------------------------


    CHARGE:  VPU time   60.18: CPU time   62.24
    FORLOC:  VPU time    0.09: CPU time    0.17
    FORNL :  VPU time  418.00: CPU time  417.81
    STRESS:  VPU time  887.44: CPU time  894.58
    FORCOR:  VPU time    0.41: CPU time    0.64
    FORHAR:  VPU time    0.12: CPU time    0.12
    MIXING:  VPU time    0.04: CPU time    0.04


--------------------------------------------------------------------------------------------------------



  FREE ENERGIE OF THE ION-ELECTRON SYSTEM (eV)
  ---------------------------------------------------
  free  energy   TOTEN  =      -104.442302 eV

  energy  without entropy=     -104.441760  energy(sigma->0) =     -104.442031
 

  FORCE on cell =-STRESS in cart. coord.  units (eV/reduce length):
  Direction    X        Y        Z        XY       YZ       ZX
  --------------------------------------------------------------------------------------
  Alpha Z   3400.18   3400.18   3400.18
  Ewald   -10313.38 -10313.34 -10313.34      0.00     -0.00     -0.00
  Hartree   1252.91   1252.93   1252.93     -0.00     -0.00     -0.00
  E(xc)    -1589.04  -1589.04  -1589.04      0.00     -0.00     -0.00
  Local     2579.18   2579.12   2579.12      0.00     -0.00     -0.00
  n-local  -1586.73  -1593.16  -1580.31      4.18      3.62      3.07
  augment   1374.18   1374.18   1374.18     -0.00     -0.00     -0.00
  Kinetic   4898.67   4892.37   4904.97      0.71     -0.25     -1.20
  -------------------------------------------------------------------------------------
  Total       15.97     15.97     15.97      0.00      0.00      0.00
  in kB       45.35     45.35     45.35      0.00      0.00      0.00
  external pressure =       45.35 kB  Pullay stress =        0.00 kB


 VOLUME and BASIS-vectors are now :
 -----------------------------------------------------------------------------
  energy-cutoff  :      750.00
  volume of cell :      564.02
      direct lattice vectors                 reciprocal lattice vectors
     8.262246767  0.000000000  0.000000000     0.121032454  0.000000000  0.000000000
     0.000000000  8.262246767  0.000000000     0.000000000  0.121032454  0.000000000
     0.000000000  0.000000000  8.262246767     0.000000000  0.000000000  0.121032454

  length of vectors
     8.262246767  8.262246767  8.262246767     0.121032454  0.121032454  0.121032454


 FORCES acting on ions
    electron-ion (+dipol)            ewald-force                    non-local-force                 convergence-correction
 -----------------------------------------------------------------------------------------------
   0.398E+01 0.613E-13 0.122E-07   -.401E+01 -.462E-13 0.320E-13   -.362E-01 -.200E-19 0.460E-19   0.143E-04 0.119E-12 -.142E-12
   -.105E+01 0.909E-13 -.124E-07   0.106E+01 0.995E-13 0.426E-13   -.742E-02 -.241E-19 -.807E-20   0.268E-04 0.107E-12 -.253E-12
   0.332E+00 -.619E-13 -.136E-11   -.335E+00 0.888E-13 0.959E-13   0.179E-02 0.283E-19 0.214E-20   -.212E-04 -.211E-12 -.764E-13
   -.269E+00 0.131E-11 -.164E-11   0.263E+00 0.853E-13 0.156E-12   0.365E-02 -.690E-20 -.179E-22   0.177E-04 -.204E-12 -.117E-12
   0.332E+00 0.612E-13 -.160E-11   -.335E+00 0.103E-12 0.117E-12   0.179E-02 -.143E-19 -.305E-20   -.209E-04 0.112E-12 0.451E-13
   -.269E+00 0.413E-13 -.491E-12   0.263E+00 0.995E-13 0.853E-13   0.365E-02 0.711E-21 -.224E-19   0.177E-04 0.101E-12 0.151E-12
   0.140E+00 -.615E-13 0.423E-11   -.138E+00 0.924E-13 0.604E-13   -.110E-02 0.140E-19 -.202E-19   -.268E-04 -.207E-12 -.312E-13
   -.129E+00 -.449E-11 0.545E-11   0.129E+00 0.995E-13 0.284E-13   -.617E-03 0.384E-20 0.532E-20   0.220E-04 -.200E-12 0.585E-14
   -.503E+00 -.967E+00 0.402E-11   0.509E+00 0.978E+00 0.639E-13   0.424E-02 0.131E-02 -.485E-20   -.219E-05 0.467E-06 -.213E-12
   -.507E+00 0.960E+00 -.204E-11   0.512E+00 -.970E+00 0.924E-13   0.413E-02 -.122E-02 -.860E-20   -.261E-05 0.498E-05 -.130E-12
   -.503E+00 0.967E+00 0.396E-11   0.509E+00 -.978E+00 0.114E-12   0.424E-02 -.131E-02 -.199E-20   -.219E-05 -.467E-06 -.153E-12
   -.507E+00 -.960E+00 0.970E-11   0.512E+00 0.970E+00 0.853E-13   0.413E-02 0.122E-02 0.457E-20   -.261E-05 -.498E-05 -.994E-13
   -.146E-01 -.801E-01 0.552E-11   0.155E-01 0.804E-01 0.142E-12   -.767E-03 -.111E-03 -.195E-20   0.244E-05 -.513E-06 0.955E-13
   -.161E-01 0.800E-01 0.676E-11   0.171E-01 -.802E-01 0.995E-13   -.770E-03 0.103E-03 0.127E-20   0.290E-05 0.424E-05 0.235E-13
   -.146E-01 0.801E-01 0.559E-11   0.155E-01 -.804E-01 0.711E-13   -.767E-03 0.111E-03 -.257E-20   0.244E-05 0.513E-06 0.400E-13
   -.161E-01 -.800E-01 -.513E-11   0.171E-01 0.802E-01 0.711E-13   -.770E-03 -.103E-03 -.231E-20   0.290E-05 -.424E-05 -.803E-14
   -.503E+00 0.468E-13 -.967E+00   0.509E+00 -.178E-13 0.978E+00   0.424E-02 -.167E-20 0.131E-02   -.227E-05 0.710E-13 0.535E-06
   -.507E+00 0.552E-13 0.960E+00   0.512E+00 -.178E-13 -.970E+00   0.413E-02 0.582E-20 -.122E-02   -.269E-05 0.108E-12 0.491E-05
   -.146E-01 0.594E-12 -.801E-01   0.155E-01 -.142E-13 0.804E-01   -.767E-03 -.408E-20 -.111E-03   0.246E-05 -.165E-12 -.445E-06
   -.161E-01 0.734E-11 0.800E-01   0.171E-01 -.142E-13 -.802E-01   -.770E-03 0.406E-20 0.103E-03   0.292E-05 -.204E-12 0.417E-05
   -.503E+00 0.708E-13 0.967E+00   0.509E+00 -.284E-13 -.978E+00   0.424E-02 0.104E-19 -.131E-02   -.227E-05 0.130E-12 -.535E-06
   -.507E+00 0.582E-13 -.960E+00   0.512E+00 -.284E-13 0.970E+00   0.413E-02 -.286E-20 0.122E-02   -.269E-05 0.140E-12 -.491E-05
   -.146E-01 0.673E-12 0.801E-01   0.155E-01 -.284E-13 -.804E-01   -.767E-03 0.188E-21 0.111E-03   0.246E-05 -.222E-12 0.445E-06
   -.161E-01 -.463E-11 -.800E-01   0.171E-01 0.000E+00 0.802E-01   -.770E-03 -.192E-20 -.103E-03   0.292E-05 -.236E-12 -.417E-05
   0.625E+00 0.239E-02 0.239E-02   -.632E+00 -.241E-02 -.241E-02   0.351E-02 0.496E-05 0.496E-05   -.264E-04 0.188E-05 0.188E-05
   -.353E+00 -.703E-03 -.703E-03   0.356E+00 0.721E-03 0.721E-03   -.172E-02 -.165E-04 -.165E-04   0.187E-04 0.140E-05 0.140E-05
   0.625E+00 -.239E-02 0.239E-02   -.632E+00 0.241E-02 -.241E-02   0.351E-02 -.496E-05 0.496E-05   -.264E-04 -.188E-05 0.188E-05
   -.353E+00 0.703E-03 -.703E-03   0.356E+00 -.721E-03 0.721E-03   -.172E-02 0.165E-04 -.165E-04   0.187E-04 -.140E-05 0.140E-05
   0.625E+00 0.239E-02 -.239E-02   -.632E+00 -.241E-02 0.241E-02   0.351E-02 0.496E-05 -.496E-05   -.264E-04 0.188E-05 -.188E-05
   -.353E+00 -.703E-03 0.703E-03   0.356E+00 0.721E-03 -.721E-03   -.172E-02 -.165E-04 0.165E-04   0.187E-04 0.140E-05 -.140E-05
   0.625E+00 -.239E-02 -.239E-02   -.632E+00 0.241E-02 0.241E-02   0.351E-02 -.496E-05 -.496E-05   -.264E-04 -.188E-05 -.188E-05
   -.353E+00 0.703E-03 0.703E-03   0.356E+00 -.721E-03 -.721E-03   -.172E-02 0.165E-04 0.165E-04   0.187E-04 -.140E-05 -.140E-05
 -----------------------------------------------------------------------------------------------
   -.322E-05 0.439E-11 0.247E-10   -.303E-13 -.964E-13 -.427E-13   0.155E-05 0.251E-18 0.285E-18   0.102E-05 -.420E-12 -.482E-12
 
 
 POSITION                                       TOTAL-FORCE (eV/Angst)
 -----------------------------------------------------------------------------------
      0.01000      0.00000      0.00000        -0.063537      0.000000      0.000000
      4.13112      0.00000      0.00000         0.004870     -0.000000     -0.000000
      0.00000      4.13112      0.00000        -0.000973      0.000000     -0.000000
      4.13112      4.13112      0.00000        -0.002032      0.000000     -0.000000
      0.00000      0.00000      4.13112        -0.000973     -0.000000      0.000000
      4.13112      0.00000      4.13112        -0.002032     -0.000000      0.000000
      0.00000      4.13112      4.13112         0.000159     -0.000000      0.000000
      4.13112      4.13112      4.13112         0.000011     -0.000000     -0.000000
      2.06556      2.06556      0.00000         0.009541      0.011817      0.000000
      6.19669      2.06556      0.00000         0.009244     -0.011396      0.000000
      2.06556      6.19669      0.00000         0.009541     -0.011817      0.000000
      6.19669      6.19669      0.00000         0.009244      0.011396     -0.000000
      2.06556      2.06556      4.13112         0.000177      0.000130      0.000000
      6.19669      2.06556      4.13112         0.000175     -0.000125     -0.000000
      2.06556      6.19669      4.13112         0.000177     -0.000130     -0.000000
      6.19669      6.19669      4.13112         0.000175      0.000125      0.000000
      2.06556      0.00000      2.06556         0.009541      0.000000      0.011817
      6.19669      0.00000      2.06556         0.009244      0.000000     -0.011396
      2.06556      4.13112      2.06556         0.000177      0.000000      0.000130
      6.19669      4.13112      2.06556         0.000175      0.000000     -0.000125
      2.06556      0.00000      6.19669         0.009541      0.000000     -0.011817
      6.19669      0.00000      6.19669         0.009244      0.000000      0.011396
      2.06556      4.13112      6.19669         0.000177     -0.000000     -0.000130
      6.19669      4.13112      6.19669         0.000175     -0.000000      0.000125
      0.00000      2.06556      2.06556        -0.003711     -0.000013     -0.000013
      4.13112      2.06556      2.06556         0.000700      0.000003      0.000003
      0.00000      6.19669      2.06556        -0.003711      0.000013     -0.000013
      4.13112      6.19669      2.06556         0.000700     -0.000003      0.000003
      0.00000      2.06556      6.19669        -0.003711     -0.000013      0.000013
      4.13112      2.06556      6.19669         0.000700      0.000003     -0.000003
      0.00000      6.19669      6.19669        -0.003711      0.000013      0.000013
      4.13112      6.19669      6.19669         0.000700     -0.000003     -0.000003
 -----------------------------------------------------------------------------------
    total drift:                               -0.000001      0.000000      0.000000


--------------------------------------------------------------------------------------------------------



 mean value of Nose-termostat <S>:     1.000 mean value of <T> :     0.000
 mean temperature <T/S>/<1/S>  :     0.000

     LOOP+:  VPU time19885.91: CPU time20940.45
  
  
 General timing and accounting informations for this job:
 ========================================================
  
                  Total CPU time used (sec):    20063.405
                            User time (sec):    17358.199
                          System time (sec):     2705.206
                         Elapsed time (sec):    21122.314
  
                   Maximum memory used (kb):     6280008.
                   Average memory used (kb):           0.
  
                          Minor page faults:      2917555
                          Major page faults:        95332
                 Voluntary context switches:       150850
