<?xml version="1.0" encoding="ISO-8859-1"?>
<modeling>
 <generator>
  <i name="program" type="string">vasp</i>
  <i name="version" type="string">4.6.28 </i>
  <i name="subversion" type="string">25Jul05 complex  parallel</i>
  <i name="platform" type="string">LinuxIFC</i>
  <i name="date" type="string">2017 01 13</i>
  <i name="time" type="string">03:25:12</i>
 </generator>
 <incar>
  <i type="string" name="PREC">accurate</i>
  <i type="int" name="IALGO">    38</i>
  <i type="logical" name="ADDGRID"> T  </i>
  <i name="EDIFF">      0.00000001</i>
  <i type="int" name="IBRION">    -1</i>
  <i name="ENCUT">    750.00000000</i>
  <i type="logical" name="LREAL"> F  </i>
  <i type="int" name="ISMEAR">     0</i>
  <i name="SIGMA">      0.01000000</i>
  <i type="logical" name="LWAVE"> F  </i>
  <i type="logical" name="LCHARG"> F  </i>
 </incar>
 <kpoints>
  <generation param="Gamma">
   <v type="int" name="divisions">      12      12      12</v>
   <v name="usershift">      0.00000000      0.00000000      0.00000000</v>
   <v name="genvec1">      0.08333333      0.00000000      0.00000000</v>
   <v name="genvec2">      0.00000000      0.08333333      0.00000000</v>
   <v name="genvec3">      0.00000000      0.00000000      0.08333333</v>
   <v name="shift">      0.00000000      0.00000000      0.00000000</v>
  </generation>
  <varray name="kpointlist" >
   <v>       0.00000000      0.00000000      0.00000000</v>
   <v>       0.08333333      0.00000000      0.00000000</v>
   <v>       0.16666667      0.00000000      0.00000000</v>
   <v>       0.25000000      0.00000000      0.00000000</v>
   <v>       0.33333333      0.00000000      0.00000000</v>
   <v>       0.41666667      0.00000000      0.00000000</v>
   <v>       0.50000000      0.00000000      0.00000000</v>
   <v>       0.00000000      0.08333333      0.00000000</v>
   <v>       0.08333333      0.08333333      0.00000000</v>
   <v>       0.16666667      0.08333333      0.00000000</v>
   <v>       0.25000000      0.08333333      0.00000000</v>
   <v>       0.33333333      0.08333333      0.00000000</v>
   <v>       0.41666667      0.08333333      0.00000000</v>
   <v>       0.50000000      0.08333333      0.00000000</v>
   <v>       0.00000000      0.16666667      0.00000000</v>
   <v>       0.08333333      0.16666667      0.00000000</v>
   <v>       0.16666667      0.16666667      0.00000000</v>
   <v>       0.25000000      0.16666667      0.00000000</v>
   <v>       0.33333333      0.16666667      0.00000000</v>
   <v>       0.41666667      0.16666667      0.00000000</v>
   <v>       0.50000000      0.16666667      0.00000000</v>
   <v>       0.00000000      0.25000000      0.00000000</v>
   <v>       0.08333333      0.25000000      0.00000000</v>
   <v>       0.16666667      0.25000000      0.00000000</v>
   <v>       0.25000000      0.25000000      0.00000000</v>
   <v>       0.33333333      0.25000000      0.00000000</v>
   <v>       0.41666667      0.25000000      0.00000000</v>
   <v>       0.50000000      0.25000000      0.00000000</v>
   <v>       0.00000000      0.33333333      0.00000000</v>
   <v>       0.08333333      0.33333333      0.00000000</v>
   <v>       0.16666667      0.33333333      0.00000000</v>
   <v>       0.25000000      0.33333333      0.00000000</v>
   <v>       0.33333333      0.33333333      0.00000000</v>
   <v>       0.41666667      0.33333333      0.00000000</v>
   <v>       0.50000000      0.33333333      0.00000000</v>
   <v>       0.00000000      0.41666667      0.00000000</v>
   <v>       0.08333333      0.41666667      0.00000000</v>
   <v>       0.16666667      0.41666667      0.00000000</v>
   <v>       0.25000000      0.41666667      0.00000000</v>
   <v>       0.33333333      0.41666667      0.00000000</v>
   <v>       0.41666667      0.41666667      0.00000000</v>
   <v>       0.50000000      0.41666667      0.00000000</v>
   <v>       0.00000000      0.50000000      0.00000000</v>
   <v>       0.08333333      0.50000000      0.00000000</v>
   <v>       0.16666667      0.50000000      0.00000000</v>
   <v>       0.25000000      0.50000000      0.00000000</v>
   <v>       0.33333333      0.50000000      0.00000000</v>
   <v>       0.41666667      0.50000000      0.00000000</v>
   <v>       0.50000000      0.50000000      0.00000000</v>
   <v>       0.00000000      0.08333333      0.08333333</v>
   <v>       0.08333333      0.08333333      0.08333333</v>
   <v>       0.16666667      0.08333333      0.08333333</v>
   <v>       0.25000000      0.08333333      0.08333333</v>
   <v>       0.33333333      0.08333333      0.08333333</v>
   <v>       0.41666667      0.08333333      0.08333333</v>
   <v>       0.50000000      0.08333333      0.08333333</v>
   <v>       0.00000000      0.16666667      0.08333333</v>
   <v>       0.08333333      0.16666667      0.08333333</v>
   <v>       0.16666667      0.16666667      0.08333333</v>
   <v>       0.25000000      0.16666667      0.08333333</v>
   <v>       0.33333333      0.16666667      0.08333333</v>
   <v>       0.41666667      0.16666667      0.08333333</v>
   <v>       0.50000000      0.16666667      0.08333333</v>
   <v>       0.00000000      0.25000000      0.08333333</v>
   <v>       0.08333333      0.25000000      0.08333333</v>
   <v>       0.16666667      0.25000000      0.08333333</v>
   <v>       0.25000000      0.25000000      0.08333333</v>
   <v>       0.33333333      0.25000000      0.08333333</v>
   <v>       0.41666667      0.25000000      0.08333333</v>
   <v>       0.50000000      0.25000000      0.08333333</v>
   <v>       0.00000000      0.33333333      0.08333333</v>
   <v>       0.08333333      0.33333333      0.08333333</v>
   <v>       0.16666667      0.33333333      0.08333333</v>
   <v>       0.25000000      0.33333333      0.08333333</v>
   <v>       0.33333333      0.33333333      0.08333333</v>
   <v>       0.41666667      0.33333333      0.08333333</v>
   <v>       0.50000000      0.33333333      0.08333333</v>
   <v>       0.00000000      0.41666667      0.08333333</v>
   <v>       0.08333333      0.41666667      0.08333333</v>
   <v>       0.16666667      0.41666667      0.08333333</v>
   <v>       0.25000000      0.41666667      0.08333333</v>
   <v>       0.33333333      0.41666667      0.08333333</v>
   <v>       0.41666667      0.41666667      0.08333333</v>
   <v>       0.50000000      0.41666667      0.08333333</v>
   <v>       0.00000000      0.50000000      0.08333333</v>
   <v>       0.08333333      0.50000000      0.08333333</v>
   <v>       0.16666667      0.50000000      0.08333333</v>
   <v>       0.25000000      0.50000000      0.08333333</v>
   <v>       0.33333333      0.50000000      0.08333333</v>
   <v>       0.41666667      0.50000000      0.08333333</v>
   <v>       0.50000000      0.50000000      0.08333333</v>
   <v>       0.00000000      0.16666667      0.16666667</v>
   <v>       0.08333333      0.16666667      0.16666667</v>
   <v>       0.16666667      0.16666667      0.16666667</v>
   <v>       0.25000000      0.16666667      0.16666667</v>
   <v>       0.33333333      0.16666667      0.16666667</v>
   <v>       0.41666667      0.16666667      0.16666667</v>
   <v>       0.50000000      0.16666667      0.16666667</v>
   <v>       0.00000000      0.25000000      0.16666667</v>
   <v>       0.08333333      0.25000000      0.16666667</v>
   <v>       0.16666667      0.25000000      0.16666667</v>
   <v>       0.25000000      0.25000000      0.16666667</v>
   <v>       0.33333333      0.25000000      0.16666667</v>
   <v>       0.41666667      0.25000000      0.16666667</v>
   <v>       0.50000000      0.25000000      0.16666667</v>
   <v>       0.00000000      0.33333333      0.16666667</v>
   <v>       0.08333333      0.33333333      0.16666667</v>
   <v>       0.16666667      0.33333333      0.16666667</v>
   <v>       0.25000000      0.33333333      0.16666667</v>
   <v>       0.33333333      0.33333333      0.16666667</v>
   <v>       0.41666667      0.33333333      0.16666667</v>
   <v>       0.50000000      0.33333333      0.16666667</v>
   <v>       0.00000000      0.41666667      0.16666667</v>
   <v>       0.08333333      0.41666667      0.16666667</v>
   <v>       0.16666667      0.41666667      0.16666667</v>
   <v>       0.25000000      0.41666667      0.16666667</v>
   <v>       0.33333333      0.41666667      0.16666667</v>
   <v>       0.41666667      0.41666667      0.16666667</v>
   <v>       0.50000000      0.41666667      0.16666667</v>
   <v>       0.00000000      0.50000000      0.16666667</v>
   <v>       0.08333333      0.50000000      0.16666667</v>
   <v>       0.16666667      0.50000000      0.16666667</v>
   <v>       0.25000000      0.50000000      0.16666667</v>
   <v>       0.33333333      0.50000000      0.16666667</v>
   <v>       0.41666667      0.50000000      0.16666667</v>
   <v>       0.50000000      0.50000000      0.16666667</v>
   <v>       0.00000000      0.25000000      0.25000000</v>
   <v>       0.08333333      0.25000000      0.25000000</v>
   <v>       0.16666667      0.25000000      0.25000000</v>
   <v>       0.25000000      0.25000000      0.25000000</v>
   <v>       0.33333333      0.25000000      0.25000000</v>
   <v>       0.41666667      0.25000000      0.25000000</v>
   <v>       0.50000000      0.25000000      0.25000000</v>
   <v>       0.00000000      0.33333333      0.25000000</v>
   <v>       0.08333333      0.33333333      0.25000000</v>
   <v>       0.16666667      0.33333333      0.25000000</v>
   <v>       0.25000000      0.33333333      0.25000000</v>
   <v>       0.33333333      0.33333333      0.25000000</v>
   <v>       0.41666667      0.33333333      0.25000000</v>
   <v>       0.50000000      0.33333333      0.25000000</v>
   <v>       0.00000000      0.41666667      0.25000000</v>
   <v>       0.08333333      0.41666667      0.25000000</v>
   <v>       0.16666667      0.41666667      0.25000000</v>
   <v>       0.25000000      0.41666667      0.25000000</v>
   <v>       0.33333333      0.41666667      0.25000000</v>
   <v>       0.41666667      0.41666667      0.25000000</v>
   <v>       0.50000000      0.41666667      0.25000000</v>
   <v>       0.00000000      0.50000000      0.25000000</v>
   <v>       0.08333333      0.50000000      0.25000000</v>
   <v>       0.16666667      0.50000000      0.25000000</v>
   <v>       0.25000000      0.50000000      0.25000000</v>
   <v>       0.33333333      0.50000000      0.25000000</v>
   <v>       0.41666667      0.50000000      0.25000000</v>
   <v>       0.50000000      0.50000000      0.25000000</v>
   <v>       0.00000000      0.33333333      0.33333333</v>
   <v>       0.08333333      0.33333333      0.33333333</v>
   <v>       0.16666667      0.33333333      0.33333333</v>
   <v>       0.25000000      0.33333333      0.33333333</v>
   <v>       0.33333333      0.33333333      0.33333333</v>
   <v>       0.41666667      0.33333333      0.33333333</v>
   <v>       0.50000000      0.33333333      0.33333333</v>
   <v>       0.00000000      0.41666667      0.33333333</v>
   <v>       0.08333333      0.41666667      0.33333333</v>
   <v>       0.16666667      0.41666667      0.33333333</v>
   <v>       0.25000000      0.41666667      0.33333333</v>
   <v>       0.33333333      0.41666667      0.33333333</v>
   <v>       0.41666667      0.41666667      0.33333333</v>
   <v>       0.50000000      0.41666667      0.33333333</v>
   <v>       0.00000000      0.50000000      0.33333333</v>
   <v>       0.08333333      0.50000000      0.33333333</v>
   <v>       0.16666667      0.50000000      0.33333333</v>
   <v>       0.25000000      0.50000000      0.33333333</v>
   <v>       0.33333333      0.50000000      0.33333333</v>
   <v>       0.41666667      0.50000000      0.33333333</v>
   <v>       0.50000000      0.50000000      0.33333333</v>
   <v>       0.00000000      0.41666667      0.41666667</v>
   <v>       0.08333333      0.41666667      0.41666667</v>
   <v>       0.16666667      0.41666667      0.41666667</v>
   <v>       0.25000000      0.41666667      0.41666667</v>
   <v>       0.33333333      0.41666667      0.41666667</v>
   <v>       0.41666667      0.41666667      0.41666667</v>
   <v>       0.50000000      0.41666667      0.41666667</v>
   <v>       0.00000000      0.50000000      0.41666667</v>
   <v>       0.08333333      0.50000000      0.41666667</v>
   <v>       0.16666667      0.50000000      0.41666667</v>
   <v>       0.25000000      0.50000000      0.41666667</v>
   <v>       0.33333333      0.50000000      0.41666667</v>
   <v>       0.41666667      0.50000000      0.41666667</v>
   <v>       0.50000000      0.50000000      0.41666667</v>
   <v>       0.00000000      0.50000000      0.50000000</v>
   <v>       0.08333333      0.50000000      0.50000000</v>
   <v>       0.16666667      0.50000000      0.50000000</v>
   <v>       0.25000000      0.50000000      0.50000000</v>
   <v>       0.33333333      0.50000000      0.50000000</v>
   <v>       0.41666667      0.50000000      0.50000000</v>
   <v>       0.50000000      0.50000000      0.50000000</v>
  </varray>
  <varray name="weights" >
   <v>       0.00057870</v>
   <v>       0.00115741</v>
   <v>       0.00115741</v>
   <v>       0.00115741</v>
   <v>       0.00115741</v>
   <v>       0.00115741</v>
   <v>       0.00057870</v>
   <v>       0.00231481</v>
   <v>       0.00462963</v>
   <v>       0.00462963</v>
   <v>       0.00462963</v>
   <v>       0.00462963</v>
   <v>       0.00462963</v>
   <v>       0.00231481</v>
   <v>       0.00231481</v>
   <v>       0.00462963</v>
   <v>       0.00462963</v>
   <v>       0.00462963</v>
   <v>       0.00462963</v>
   <v>       0.00462963</v>
   <v>       0.00231481</v>
   <v>       0.00231481</v>
   <v>       0.00462963</v>
   <v>       0.00462963</v>
   <v>       0.00462963</v>
   <v>       0.00462963</v>
   <v>       0.00462963</v>
   <v>       0.00231481</v>
   <v>       0.00231481</v>
   <v>       0.00462963</v>
   <v>       0.00462963</v>
   <v>       0.00462963</v>
   <v>       0.00462963</v>
   <v>       0.00462963</v>
   <v>       0.00231481</v>
   <v>       0.00231481</v>
   <v>       0.00462963</v>
   <v>       0.00462963</v>
   <v>       0.00462963</v>
   <v>       0.00462963</v>
   <v>       0.00462963</v>
   <v>       0.00231481</v>
   <v>       0.00115741</v>
   <v>       0.00231481</v>
   <v>       0.00231481</v>
   <v>       0.00231481</v>
   <v>       0.00231481</v>
   <v>       0.00231481</v>
   <v>       0.00115741</v>
   <v>       0.00231481</v>
   <v>       0.00462963</v>
   <v>       0.00462963</v>
   <v>       0.00462963</v>
   <v>       0.00462963</v>
   <v>       0.00462963</v>
   <v>       0.00231481</v>
   <v>       0.00462963</v>
   <v>       0.00925926</v>
   <v>       0.00925926</v>
   <v>       0.00925926</v>
   <v>       0.00925926</v>
   <v>       0.00925926</v>
   <v>       0.00462963</v>
   <v>       0.00462963</v>
   <v>       0.00925926</v>
   <v>       0.00925926</v>
   <v>       0.00925926</v>
   <v>       0.00925926</v>
   <v>       0.00925926</v>
   <v>       0.00462963</v>
   <v>       0.00462963</v>
   <v>       0.00925926</v>
   <v>       0.00925926</v>
   <v>       0.00925926</v>
   <v>       0.00925926</v>
   <v>       0.00925926</v>
   <v>       0.00462963</v>
   <v>       0.00462963</v>
   <v>       0.00925926</v>
   <v>       0.00925926</v>
   <v>       0.00925926</v>
   <v>       0.00925926</v>
   <v>       0.00925926</v>
   <v>       0.00462963</v>
   <v>       0.00231481</v>
   <v>       0.00462963</v>
   <v>       0.00462963</v>
   <v>       0.00462963</v>
   <v>       0.00462963</v>
   <v>       0.00462963</v>
   <v>       0.00231481</v>
   <v>       0.00231481</v>
   <v>       0.00462963</v>
   <v>       0.00462963</v>
   <v>       0.00462963</v>
   <v>       0.00462963</v>
   <v>       0.00462963</v>
   <v>       0.00231481</v>
   <v>       0.00462963</v>
   <v>       0.00925926</v>
   <v>       0.00925926</v>
   <v>       0.00925926</v>
   <v>       0.00925926</v>
   <v>       0.00925926</v>
   <v>       0.00462963</v>
   <v>       0.00462963</v>
   <v>       0.00925926</v>
   <v>       0.00925926</v>
   <v>       0.00925926</v>
   <v>       0.00925926</v>
   <v>       0.00925926</v>
   <v>       0.00462963</v>
   <v>       0.00462963</v>
   <v>       0.00925926</v>
   <v>       0.00925926</v>
   <v>       0.00925926</v>
   <v>       0.00925926</v>
   <v>       0.00925926</v>
   <v>       0.00462963</v>
   <v>       0.00231481</v>
   <v>       0.00462963</v>
   <v>       0.00462963</v>
   <v>       0.00462963</v>
   <v>       0.00462963</v>
   <v>       0.00462963</v>
   <v>       0.00231481</v>
   <v>       0.00231481</v>
   <v>       0.00462963</v>
   <v>       0.00462963</v>
   <v>       0.00462963</v>
   <v>       0.00462963</v>
   <v>       0.00462963</v>
   <v>       0.00231481</v>
   <v>       0.00462963</v>
   <v>       0.00925926</v>
   <v>       0.00925926</v>
   <v>       0.00925926</v>
   <v>       0.00925926</v>
   <v>       0.00925926</v>
   <v>       0.00462963</v>
   <v>       0.00462963</v>
   <v>       0.00925926</v>
   <v>       0.00925926</v>
   <v>       0.00925926</v>
   <v>       0.00925926</v>
   <v>       0.00925926</v>
   <v>       0.00462963</v>
   <v>       0.00231481</v>
   <v>       0.00462963</v>
   <v>       0.00462963</v>
   <v>       0.00462963</v>
   <v>       0.00462963</v>
   <v>       0.00462963</v>
   <v>       0.00231481</v>
   <v>       0.00231481</v>
   <v>       0.00462963</v>
   <v>       0.00462963</v>
   <v>       0.00462963</v>
   <v>       0.00462963</v>
   <v>       0.00462963</v>
   <v>       0.00231481</v>
   <v>       0.00462963</v>
   <v>       0.00925926</v>
   <v>       0.00925926</v>
   <v>       0.00925926</v>
   <v>       0.00925926</v>
   <v>       0.00925926</v>
   <v>       0.00462963</v>
   <v>       0.00231481</v>
   <v>       0.00462963</v>
   <v>       0.00462963</v>
   <v>       0.00462963</v>
   <v>       0.00462963</v>
   <v>       0.00462963</v>
   <v>       0.00231481</v>
   <v>       0.00231481</v>
   <v>       0.00462963</v>
   <v>       0.00462963</v>
   <v>       0.00462963</v>
   <v>       0.00462963</v>
   <v>       0.00462963</v>
   <v>       0.00231481</v>
   <v>       0.00231481</v>
   <v>       0.00462963</v>
   <v>       0.00462963</v>
   <v>       0.00462963</v>
   <v>       0.00462963</v>
   <v>       0.00462963</v>
   <v>       0.00231481</v>
   <v>       0.00057870</v>
   <v>       0.00115741</v>
   <v>       0.00115741</v>
   <v>       0.00115741</v>
   <v>       0.00115741</v>
   <v>       0.00115741</v>
   <v>       0.00057870</v>
  </varray>
 </kpoints>
 <parameters>
  <separator name="general" >
   <i type="string" name="SYSTEM">unknown system</i>
   <i type="logical" name="LCOMPAT"> F  </i>
  </separator>
  <separator name="electronic" >
   <i type="string" name="PREC">accura</i>
   <i name="ENMAX">    750.00000000</i>
   <i name="ENAUG">    356.67000000</i>
   <i name="EDIFF">      0.00000001</i>
   <i type="int" name="IALGO">    38</i>
   <i type="int" name="IWAVPR">    10</i>
   <i type="int" name="NBANDS">   211</i>
   <i name="NELECT">    352.00000000</i>
   <separator name="electronic smearing" >
    <i type="int" name="ISMEAR">     0</i>
    <i name="SIGMA">      0.01000000</i>
   </separator>
   <separator name="electronic projectors" >
    <i type="logical" name="LREAL"> F  </i>
    <v name="ROPT">      0.00000000</v>
    <i type="int" name="LMAXPAW">  -100</i>
    <i type="int" name="LMAXMIX">     2</i>
   </separator>
   <separator name="electronic startup" >
    <i type="int" name="ISTART">     0</i>
    <i type="int" name="ICHARG">     2</i>
    <i type="int" name="INIWAV">     1</i>
   </separator>
   <separator name="electronic spin" >
    <i type="int" name="ISPIN">     1</i>
    <i type="logical" name="LNONCOLLINEAR"> F  </i>
    <v name="MAGMOM">      1.00000000      1.00000000      1.00000000      1.00000000      1.00000000      1.00000000      1.00000000      1.00000000      1.00000000      1.00000000      1.00000000      1.00000000      1.00000000      1.00000000      1.00000000      1.00000000      1.00000000      1.00000000      1.00000000      1.00000000
      1.00000000      1.00000000      1.00000000      1.00000000      1.00000000      1.00000000      1.00000000      1.00000000      1.00000000      1.00000000      1.00000000      1.00000000</v>
    <i name="NUPDOWN">     -1.00000000</i>
    <i type="logical" name="LSORBIT"> F  </i>
    <v name="SAXIS">      0.00000000      0.00000000      1.00000000</v>
    <i type="logical" name="LSPIRAL"> F  </i>
    <v name="QSPIRAL">      0.00000000      0.00000000      0.00000000</v>
    <i type="logical" name="LZEROZ"> F  </i>
   </separator>
   <separator name="electronic exchange-correlation" >
    <i type="string" name="GGA">--</i>
    <i type="int" name="VOSKOWN">     0</i>
    <i type="logical" name="LASPH"> F  </i>
    <i type="logical" name="LMETAGGA"> F  </i>
    <i type="string" name="GGA2">--</i>
   </separator>
   <separator name="electronic convergence" >
    <i type="int" name="NELM">    60</i>
    <i type="int" name="NELMDL">     0</i>
    <i type="int" name="NELMIN">     2</i>
    <i name="ENINI">    750.00000000</i>
    <separator name="electronic convergence detail" >
     <i type="logical" name="LDIAG"> T  </i>
     <i name="WEIMIN">      0.00000000</i>
     <i name="EBREAK">      0.00000000</i>
     <i name="DEPER">      0.30000000</i>
     <i type="int" name="NRMM">     4</i>
     <i name="TIME">      0.10000000</i>
    </separator>
   </separator>
   <separator name="electronic mixer" >
    <i name="AMIX">      0.40000000</i>
    <i name="BMIX">      1.00000000</i>
    <i name="AMIN">      0.10000000</i>
    <i name="AMIX_MAG">      1.60000000</i>
    <i name="BMIX_MAG">      1.00000000</i>
    <separator name="electronic mixer details" >
     <i type="int" name="IMIX">     4</i>
     <i type="int" name="MAXMIX">   -45</i>
     <i name="WC">    100.00000000</i>
     <i type="int" name="INIMIX">     1</i>
     <i type="int" name="MIXPRE">     1</i>
     <i type="int" name="MREMOVE">     5</i>
    </separator>
   </separator>
   <separator name="electronic dipolcorrection" >
    <i type="int" name="IDIPOL">     0</i>
    <i type="logical" name="LDIPOL"> F  </i>
    <v name="DIPOL">   -100.00000000</v>
    <i name="EFIELD">      0.00000000</i>
   </separator>
  </separator>
  <separator name="grids" >
   <i type="int" name="NGX">    80</i>
   <i type="int" name="NGY">    80</i>
   <i type="int" name="NGZ">    80</i>
   <i type="int" name="NGXF">   160</i>
   <i type="int" name="NGYF">   160</i>
   <i type="int" name="NGZF">   160</i>
   <i type="logical" name="ADDGRID"> T  </i>
  </separator>
  <separator name="ionic" >
   <i type="int" name="NSW">     0</i>
   <i type="int" name="IBRION">    -1</i>
   <i type="int" name="ISIF">     2</i>
   <i name="PSTRESS">      0.00000000</i>
   <i name="EDIFFG">      0.00000010</i>
   <i type="int" name="NFREE">     0</i>
   <i name="POTIM">      0.50000000</i>
   <i name="SMASS">     -3.00000000</i>
  </separator>
  <separator name="ionic md" >
   <i name="TEBEG">      0.00010000</i>
   <i name="TEEND">      0.00010000</i>
   <i type="int" name="NBLOCK">     1</i>
   <i type="int" name="KBLOCK">     1</i>
   <i type="int" name="NPACO">   256</i>
   <i name="APACO">     16.00000000</i>
  </separator>
  <separator name="symmetry" >
   <i type="int" name="ISYM">     2</i>
   <i name="SYMPREC">      0.00001000</i>
  </separator>
  <separator name="dos" >
   <i type="logical" name="LORBIT"> F  </i>
   <v name="RWIGS">     -1.00000000</v>
   <i type="int" name="NEDOS">   301</i>
   <i name="EMIN">     10.00000000</i>
   <i name="EMAX">    -10.00000000</i>
  </separator>
  <separator name="writing" >
   <i type="int" name="NWRITE">     2</i>
   <i type="logical" name="LWAVE"> F  </i>
   <i type="logical" name="LCHARG"> F  </i>
   <i type="logical" name="LPARD"> F  </i>
   <i type="logical" name="LVTOT"> F  </i>
   <i type="logical" name="LELF"> F  </i>
   <i type="logical" name="LOPTICS"> F  </i>
   <i name="STM">      0.00000000</i>
  </separator>
  <separator name="performance" >
   <i type="int" name="NPAR">     8</i>
   <i type="int" name="NSIM">     4</i>
   <i type="int" name="NBLK">   256</i>
   <i type="logical" name="LPLANE"> T  </i>
   <i type="logical" name="LCRITICAL_MEM"> F  </i>
   <i type="logical" name="LSCALAPACK"> F  </i>
   <i type="logical" name="LSCALU"> F  </i>
   <i type="logical" name="LASYNC"> F  </i>
  </separator>
  <separator name="miscellaneous" >
   <i type="int" name="IDIOT">     3</i>
   <i type="logical" name="LMUSIC"> F  </i>
   <v name="POMASS">    196.96600000</v>
   <i type="logical" name="LCORR"> T  </i>
  </separator>
  <i type="logical" name="LREAL_COMPAT"> F  </i>
  <i type="logical" name="GGA_COMPAT"> T  </i>
  <i type="logical" name="LBERRY"> F  </i>
  <i type="int" name="ICORELEVEL">     0</i>
  <i type="logical" name="LDAU"> F  </i>
  <i type="int" name="I_CONSTRAINED_M">     0</i>
 </parameters>
 <atominfo>
  <atoms>      32</atoms>
  <types>       1</types>
  <array name="atoms" >
   <dimension dim="1">ion</dimension>
   <field type="string">element</field>
   <field type="int">atomtype</field>
   <set>
    <rc><c>Au</c><c>   1</c></rc>
    <rc><c>Au</c><c>   1</c></rc>
    <rc><c>Au</c><c>   1</c></rc>
    <rc><c>Au</c><c>   1</c></rc>
    <rc><c>Au</c><c>   1</c></rc>
    <rc><c>Au</c><c>   1</c></rc>
    <rc><c>Au</c><c>   1</c></rc>
    <rc><c>Au</c><c>   1</c></rc>
    <rc><c>Au</c><c>   1</c></rc>
    <rc><c>Au</c><c>   1</c></rc>
    <rc><c>Au</c><c>   1</c></rc>
    <rc><c>Au</c><c>   1</c></rc>
    <rc><c>Au</c><c>   1</c></rc>
    <rc><c>Au</c><c>   1</c></rc>
    <rc><c>Au</c><c>   1</c></rc>
    <rc><c>Au</c><c>   1</c></rc>
    <rc><c>Au</c><c>   1</c></rc>
    <rc><c>Au</c><c>   1</c></rc>
    <rc><c>Au</c><c>   1</c></rc>
    <rc><c>Au</c><c>   1</c></rc>
    <rc><c>Au</c><c>   1</c></rc>
    <rc><c>Au</c><c>   1</c></rc>
    <rc><c>Au</c><c>   1</c></rc>
    <rc><c>Au</c><c>   1</c></rc>
    <rc><c>Au</c><c>   1</c></rc>
    <rc><c>Au</c><c>   1</c></rc>
    <rc><c>Au</c><c>   1</c></rc>
    <rc><c>Au</c><c>   1</c></rc>
    <rc><c>Au</c><c>   1</c></rc>
    <rc><c>Au</c><c>   1</c></rc>
    <rc><c>Au</c><c>   1</c></rc>
    <rc><c>Au</c><c>   1</c></rc>
   </set>
  </array>
  <array name="atomtypes" >
   <dimension dim="1">type</dimension>
   <field type="int">atomspertype</field>
   <field type="string">element</field>
   <field>mass</field>
   <field>valence</field>
   <field type="string">pseudopotential</field>
   <set>
    <rc><c>  32</c><c>Au</c><c>    196.96600000</c><c>     11.00000000</c><c> PAW_PBE Au 06Sep2000                   </c></rc>
   </set>
  </array>
 </atominfo>
 <structure name="initialpos" >
  <crystal>
   <varray name="basis" >
    <v>       8.26224677      0.00000000      0.00000000</v>
    <v>       0.00000000      8.26224677      0.00000000</v>
    <v>       0.00000000      0.00000000      8.26224677</v>
   </varray>
   <i name="volume">    564.01997558</i>
   <varray name="rec_basis" >
    <v>       0.12103245      0.00000000      0.00000000</v>
    <v>       0.00000000      0.12103245      0.00000000</v>
    <v>       0.00000000      0.00000000      0.12103245</v>
   </varray>
  </crystal>
  <varray name="positions" >
   <v>       0.00121032      0.00000000      0.00000000</v>
   <v>       0.50000000      0.00000000      0.00000000</v>
   <v>       0.00000000      0.50000000      0.00000000</v>
   <v>       0.50000000      0.50000000      0.00000000</v>
   <v>       0.00000000      0.00000000      0.50000000</v>
   <v>       0.50000000      0.00000000      0.50000000</v>
   <v>       0.00000000      0.50000000      0.50000000</v>
   <v>       0.50000000      0.50000000      0.50000000</v>
   <v>       0.25000000      0.25000000      0.00000000</v>
   <v>       0.75000000      0.25000000      0.00000000</v>
   <v>       0.25000000      0.75000000      0.00000000</v>
   <v>       0.75000000      0.75000000      0.00000000</v>
   <v>       0.25000000      0.25000000      0.50000000</v>
   <v>       0.75000000      0.25000000      0.50000000</v>
   <v>       0.25000000      0.75000000      0.50000000</v>
   <v>       0.75000000      0.75000000      0.50000000</v>
   <v>       0.25000000      0.00000000      0.25000000</v>
   <v>       0.75000000      0.00000000      0.25000000</v>
   <v>       0.25000000      0.50000000      0.25000000</v>
   <v>       0.75000000      0.50000000      0.25000000</v>
   <v>       0.25000000      0.00000000      0.75000000</v>
   <v>       0.75000000      0.00000000      0.75000000</v>
   <v>       0.25000000      0.50000000      0.75000000</v>
   <v>       0.75000000      0.50000000      0.75000000</v>
   <v>       0.00000000      0.25000000      0.25000000</v>
   <v>       0.50000000      0.25000000      0.25000000</v>
   <v>       0.00000000      0.75000000      0.25000000</v>
   <v>       0.50000000      0.75000000      0.25000000</v>
   <v>       0.00000000      0.25000000      0.75000000</v>
   <v>       0.50000000      0.25000000      0.75000000</v>
   <v>       0.00000000      0.75000000      0.75000000</v>
   <v>       0.50000000      0.75000000      0.75000000</v>
  </varray>
 </structure>
 <calculation>
  <scstep>
   <time name="dav"> 1402.88 1805.27</time>
   <time name="total"> 1404.00 1806.45</time>
   <energy>
    <i name="alphaZ">   3400.17760478</i>
    <i name="ewald"> -30939.92845240</i>
    <i name="hartreedc">  -4104.17110196</i>
    <i name="XCdc">    487.94446573</i>
    <i name="pawpsdc">  23920.39735419</i>
    <i name="pawaedc"> -23172.13309131</i>
    <i name="eentropy">     -0.00046766</i>
    <i name="bandstr">   5566.39360166</i>
    <i name="atom">  29633.78979189</i>
    <i name="e_fr_energy">   4792.46970492</i>
    <i name="e_wo_entrp">   4792.47017259</i>
    <i name="e_0_energy">   4792.46993876</i>
   </energy>
  </scstep>
  <scstep>
   <time name="dav"> 1077.34 1089.66</time>
   <time name="total"> 1077.46 1089.80</time>
   <energy>
    <i name="e_fr_energy">    165.65071610</i>
    <i name="e_wo_entrp">    165.65137808</i>
    <i name="e_0_energy">    165.65104709</i>
   </energy>
  </scstep>
  <scstep>
   <time name="dav"> 1130.05 1129.99</time>
   <time name="total"> 1130.17 1130.12</time>
   <energy>
    <i name="e_fr_energy">   -103.43596077</i>
    <i name="e_wo_entrp">   -103.43548282</i>
    <i name="e_0_energy">   -103.43572179</i>
   </energy>
  </scstep>
  <scstep>
   <time name="dav"> 1203.66 1203.56</time>
   <time name="total"> 1203.78 1203.68</time>
   <energy>
    <i name="e_fr_energy">   -112.29159870</i>
    <i name="e_wo_entrp">   -112.29109826</i>
    <i name="e_0_energy">   -112.29134848</i>
   </energy>
  </scstep>
  <scstep>
   <time name="dav"> 1312.84 1312.78</time>
   <time name="total"> 1429.00 1430.80</time>
   <energy>
    <i name="e_fr_energy">   -112.43656363</i>
    <i name="e_wo_entrp">   -112.43605750</i>
    <i name="e_0_energy">   -112.43631056</i>
   </energy>
  </scstep>
  <scstep>
   <time name="dav"> 1306.88 1323.15</time>
   <time name="total"> 1362.77 1745.67</time>
   <energy>
    <i name="e_fr_energy">   -105.06136435</i>
    <i name="e_wo_entrp">   -105.06038146</i>
    <i name="e_0_energy">   -105.06087290</i>
   </energy>
  </scstep>
  <scstep>
   <time name="dav"> 1565.28 1769.86</time>
   <time name="total"> 1624.67 1832.85</time>
   <energy>
    <i name="e_fr_energy">   -104.53853700</i>
    <i name="e_wo_entrp">   -104.53800450</i>
    <i name="e_0_energy">   -104.53827075</i>
   </energy>
  </scstep>
  <scstep>
   <time name="dav"> 1272.92 1290.02</time>
   <time name="total"> 1332.68 1351.93</time>
   <energy>
    <i name="e_fr_energy">   -104.44220285</i>
    <i name="e_wo_entrp">   -104.44167275</i>
    <i name="e_0_energy">   -104.44193780</i>
   </energy>
  </scstep>
  <scstep>
   <time name="dav"> 1336.37 1336.81</time>
   <time name="total"> 1394.92 1398.44</time>
   <energy>
    <i name="e_fr_energy">   -104.44227363</i>
    <i name="e_wo_entrp">   -104.44172499</i>
    <i name="e_0_energy">   -104.44199931</i>
   </energy>
  </scstep>
  <scstep>
   <time name="dav"> 1181.73 1181.83</time>
   <time name="total"> 1239.71 1241.20</time>
   <energy>
    <i name="e_fr_energy">   -104.44229676</i>
    <i name="e_wo_entrp">   -104.44175361</i>
    <i name="e_0_energy">   -104.44202518</i>
   </energy>
  </scstep>
  <scstep>
   <time name="dav"> 1154.72 1154.98</time>
   <time name="total"> 1230.88 1234.55</time>
   <energy>
    <i name="e_fr_energy">   -104.44230051</i>
    <i name="e_wo_entrp">   -104.44175864</i>
    <i name="e_0_energy">   -104.44202958</i>
   </energy>
  </scstep>
  <scstep>
   <time name="dav"> 1206.62 1206.62</time>
   <time name="total"> 1264.82 1268.05</time>
   <energy>
    <i name="e_fr_energy">   -104.44230356</i>
    <i name="e_wo_entrp">   -104.44176187</i>
    <i name="e_0_energy">   -104.44203272</i>
   </energy>
  </scstep>
  <scstep>
   <time name="dav"> 1101.87 1103.00</time>
   <time name="total"> 1161.67 1164.80</time>
   <energy>
    <i name="e_fr_energy">   -104.44230268</i>
    <i name="e_wo_entrp">   -104.44176102</i>
    <i name="e_0_energy">   -104.44203185</i>
   </energy>
  </scstep>
  <scstep>
   <time name="dav">  823.32  823.88</time>
   <time name="total">  881.40  883.99</time>
   <energy>
    <i name="e_fr_energy">   -104.44230197</i>
    <i name="e_wo_entrp">   -104.44176031</i>
    <i name="e_0_energy">   -104.44203114</i>
   </energy>
  </scstep>
  <scstep>
   <time name="dav">  780.10  780.08</time>
   <time name="total">  781.41  781.39</time>
   <energy>
    <i name="alphaZ">   3400.17760478</i>
    <i name="ewald"> -30939.92845240</i>
    <i name="hartreedc">  -3758.76837296</i>
    <i name="XCdc">    472.49218867</i>
    <i name="pawpsdc">  24058.56753943</i>
    <i name="pawaedc"> -23392.33922358</i>
    <i name="eentropy">     -0.00054165</i>
    <i name="bandstr">    421.56716387</i>
    <i name="atom">  29633.78979189</i>
    <i name="e_fr_energy">   -104.44230196</i>
    <i name="e_wo_entrp">   -104.44176031</i>
    <i name="e_0_energy">   -104.44203113</i>
   </energy>
  </scstep>
  <structure>
   <crystal>
    <varray name="basis" >
     <v>       8.26224677      0.00000000      0.00000000</v>
     <v>       0.00000000      8.26224677      0.00000000</v>
     <v>       0.00000000      0.00000000      8.26224677</v>
    </varray>
    <i name="volume">    564.01997558</i>
    <varray name="rec_basis" >
     <v>       0.12103245      0.00000000      0.00000000</v>
     <v>       0.00000000      0.12103245      0.00000000</v>
     <v>       0.00000000      0.00000000      0.12103245</v>
    </varray>
   </crystal>
   <varray name="positions" >
    <v>       0.00121032      0.00000000      0.00000000</v>
    <v>       0.50000000      0.00000000      0.00000000</v>
    <v>       0.00000000      0.50000000      0.00000000</v>
    <v>       0.50000000      0.50000000      0.00000000</v>
    <v>       0.00000000      0.00000000      0.50000000</v>
    <v>       0.50000000      0.00000000      0.50000000</v>
    <v>       0.00000000      0.50000000      0.50000000</v>
    <v>       0.50000000      0.50000000      0.50000000</v>
    <v>       0.25000000      0.25000000      0.00000000</v>
    <v>       0.75000000      0.25000000      0.00000000</v>
    <v>       0.25000000      0.75000000      0.00000000</v>
    <v>       0.75000000      0.75000000      0.00000000</v>
    <v>       0.25000000      0.25000000      0.50000000</v>
    <v>       0.75000000      0.25000000      0.50000000</v>
    <v>       0.25000000      0.75000000      0.50000000</v>
    <v>       0.75000000      0.75000000      0.50000000</v>
    <v>       0.25000000      0.00000000      0.25000000</v>
    <v>       0.75000000      0.00000000      0.25000000</v>
    <v>       0.25000000      0.50000000      0.25000000</v>
    <v>       0.75000000      0.50000000      0.25000000</v>
    <v>       0.25000000      0.00000000      0.75000000</v>
    <v>       0.75000000      0.00000000      0.75000000</v>
    <v>       0.25000000      0.50000000      0.75000000</v>
    <v>       0.75000000      0.50000000      0.75000000</v>
    <v>       0.00000000      0.25000000      0.25000000</v>
    <v>       0.50000000      0.25000000      0.25000000</v>
    <v>       0.00000000      0.75000000      0.25000000</v>
    <v>       0.50000000      0.75000000      0.25000000</v>
    <v>       0.00000000      0.25000000      0.75000000</v>
    <v>       0.50000000      0.25000000      0.75000000</v>
    <v>       0.00000000      0.75000000      0.75000000</v>
    <v>       0.50000000      0.75000000      0.75000000</v>
   </varray>
  </structure>
  <varray name="forces" >
   <v>      -0.06353724      0.00000000      0.00000000</v>
   <v>       0.00487043     -0.00000000     -0.00000000</v>
   <v>      -0.00097313      0.00000000     -0.00000000</v>
   <v>      -0.00203156      0.00000000     -0.00000000</v>
   <v>      -0.00097313     -0.00000000      0.00000000</v>
   <v>      -0.00203156     -0.00000000      0.00000000</v>
   <v>       0.00015864     -0.00000000      0.00000000</v>
   <v>       0.00001127     -0.00000000     -0.00000000</v>
   <v>       0.00954074      0.01181655      0.00000000</v>
   <v>       0.00924439     -0.01139563      0.00000000</v>
   <v>       0.00954074     -0.01181655      0.00000000</v>
   <v>       0.00924439      0.01139563     -0.00000000</v>
   <v>       0.00017696      0.00012980      0.00000000</v>
   <v>       0.00017509     -0.00012470     -0.00000000</v>
   <v>       0.00017696     -0.00012980     -0.00000000</v>
   <v>       0.00017509      0.00012470      0.00000000</v>
   <v>       0.00954074      0.00000000      0.01181655</v>
   <v>       0.00924439      0.00000000     -0.01139563</v>
   <v>       0.00017696      0.00000000      0.00012980</v>
   <v>       0.00017509      0.00000000     -0.00012470</v>
   <v>       0.00954074      0.00000000     -0.01181655</v>
   <v>       0.00924439      0.00000000      0.01139563</v>
   <v>       0.00017696     -0.00000000     -0.00012980</v>
   <v>       0.00017509     -0.00000000      0.00012470</v>
   <v>      -0.00371074     -0.00001308     -0.00001308</v>
   <v>       0.00070012      0.00000282      0.00000282</v>
   <v>      -0.00371074      0.00001308     -0.00001308</v>
   <v>       0.00070012     -0.00000282      0.00000282</v>
   <v>      -0.00371074     -0.00001308      0.00001308</v>
   <v>       0.00070012      0.00000282     -0.00000282</v>
   <v>      -0.00371074      0.00001308      0.00001308</v>
   <v>       0.00070012     -0.00000282     -0.00000282</v>
  </varray>
  <varray name="stress" >
   <v>      45.35357244     -0.00000000      0.00000000</v>
   <v>       0.00000000     45.35339060      0.00000000</v>
   <v>       0.00000000      0.00000000     45.35339060</v>
  </varray>
  <energy>
   <i name="e_fr_energy">   -104.44230196</i>
   <i name="e_wo_entrp">   -104.44203113</i>
   <i name="e_0_energy">     -0.00054165</i>
  </energy>
  <eigenvalues>
   <array>
    <dimension dim="1">band</dimension>
    <dimension dim="2">kpoint</dimension>
    <dimension dim="3">spin</dimension>
    <field>eigene</field>
    <field>occ</field>
    <set>
     <set comment="spin 1">
      <set comment="kpoint 1">
       <r>  -4.1770  1.0000</r>
       <r>  -1.8255  1.0000</r>
       <r>  -1.8221  1.0000</r>
       <r>  -1.8221  1.0000</r>
       <r>  -1.8221  1.0000</r>
       <r>  -1.8221  1.0000</r>
       <r>  -1.8187  1.0000</r>
       <r>  -1.7211  1.0000</r>
       <r>  -1.7211  1.0000</r>
       <r>  -1.7211  1.0000</r>
       <r>  -1.7211  1.0000</r>
       <r>  -1.4784  1.0000</r>
       <r>  -1.4783  1.0000</r>
       <r>  -1.4783  1.0000</r>
       <r>  -1.1885  1.0000</r>
       <r>  -1.1885  1.0000</r>
       <r>  -1.1885  1.0000</r>
       <r>  -0.5438  1.0000</r>
       <r>  -0.5423  1.0000</r>
       <r>  -0.5423  1.0000</r>
       <r>  -0.5404  1.0000</r>
       <r>  -0.5402  1.0000</r>
       <r>  -0.5401  1.0000</r>
       <r>  -0.5401  1.0000</r>
       <r>  -0.5401  1.0000</r>
       <r>  -0.5399  1.0000</r>
       <r>  -0.5381  1.0000</r>
       <r>  -0.5381  1.0000</r>
       <r>  -0.5366  1.0000</r>
       <r>  -0.4288  1.0000</r>
       <r>  -0.4264  1.0000</r>
       <r>  -0.4264  1.0000</r>
       <r>  -0.4264  1.0000</r>
       <r>  -0.4264  1.0000</r>
       <r>  -0.4241  1.0000</r>
       <r>  -0.2985  1.0000</r>
       <r>  -0.2962  1.0000</r>
       <r>  -0.2962  1.0000</r>
       <r>  -0.2962  1.0000</r>
       <r>  -0.2962  1.0000</r>
       <r>  -0.2938  1.0000</r>
       <r>   0.2630  1.0000</r>
       <r>   0.2659  1.0000</r>
       <r>   0.2659  1.0000</r>
       <r>   0.2673  1.0000</r>
       <r>   0.2673  1.0000</r>
       <r>   0.2673  1.0000</r>
       <r>   0.2673  1.0000</r>
       <r>   0.2673  1.0000</r>
       <r>   0.2674  1.0000</r>
       <r>   0.2685  1.0000</r>
       <r>   0.2685  1.0000</r>
       <r>   0.2713  1.0000</r>
       <r>   0.3311  1.0000</r>
       <r>   0.3311  1.0000</r>
       <r>   0.3336  1.0000</r>
       <r>   0.3336  1.0000</r>
       <r>   0.3337  1.0000</r>
       <r>   0.3337  1.0000</r>
       <r>   0.3337  1.0000</r>
       <r>   0.3338  1.0000</r>
       <r>   0.3338  1.0000</r>
       <r>   0.3340  1.0000</r>
       <r>   0.3364  1.0000</r>
       <r>   0.3364  1.0000</r>
       <r>   0.5970  1.0000</r>
       <r>   0.6011  1.0000</r>
       <r>   0.6011  1.0000</r>
       <r>   0.6011  1.0000</r>
       <r>   0.6014  1.0000</r>
       <r>   0.6014  1.0000</r>
       <r>   0.6014  1.0000</r>
       <r>   0.6015  1.0000</r>
       <r>   0.6017  1.0000</r>
       <r>   0.6017  1.0000</r>
       <r>   0.6017  1.0000</r>
       <r>   0.6058  1.0000</r>
       <r>   0.7276  1.0000</r>
       <r>   0.7276  1.0000</r>
       <r>   0.7276  1.0000</r>
       <r>   0.7277  1.0000</r>
       <r>   0.7277  1.0000</r>
       <r>   0.7277  1.0000</r>
       <r>   0.7277  1.0000</r>
       <r>   0.7278  1.0000</r>
       <r>   0.7599  1.0000</r>
       <r>   0.7599  1.0000</r>
       <r>   0.7599  1.0000</r>
       <r>   1.4396  1.0000</r>
       <r>   1.4419  1.0000</r>
       <r>   1.4420  1.0000</r>
       <r>   1.4420  1.0000</r>
       <r>   1.4420  1.0000</r>
       <r>   1.4443  1.0000</r>
       <r>   1.6331  1.0000</r>
       <r>   1.6340  1.0000</r>
       <r>   1.6353  1.0000</r>
       <r>   1.6353  1.0000</r>
       <r>   1.6360  1.0000</r>
       <r>   1.6360  1.0000</r>
       <r>   1.6360  1.0000</r>
       <r>   1.6360  1.0000</r>
       <r>   1.6367  1.0000</r>
       <r>   1.6367  1.0000</r>
       <r>   1.6381  1.0000</r>
       <r>   1.6387  1.0000</r>
       <r>   1.9278  1.0000</r>
       <r>   1.9278  1.0000</r>
       <r>   1.9306  1.0000</r>
       <r>   1.9306  1.0000</r>
       <r>   1.9309  1.0000</r>
       <r>   1.9309  1.0000</r>
       <r>   1.9309  1.0000</r>
       <r>   1.9309  1.0000</r>
       <r>   1.9311  1.0000</r>
       <r>   1.9311  1.0000</r>
       <r>   1.9339  1.0000</r>
       <r>   1.9339  1.0000</r>
       <r>   2.0678  1.0000</r>
       <r>   2.0698  1.0000</r>
       <r>   2.0698  1.0000</r>
       <r>   2.0698  1.0000</r>
       <r>   2.0698  1.0000</r>
       <r>   2.0718  1.0000</r>
       <r>   2.1857  1.0000</r>
       <r>   2.1857  1.0000</r>
       <r>   2.1880  1.0000</r>
       <r>   2.1885  1.0000</r>
       <r>   2.1889  1.0000</r>
       <r>   2.1890  1.0000</r>
       <r>   2.1890  1.0000</r>
       <r>   2.1890  1.0000</r>
       <r>   2.1891  1.0000</r>
       <r>   2.1895  1.0000</r>
       <r>   2.1915  1.0000</r>
       <r>   2.1925  1.0000</r>
       <r>   2.1925  1.0000</r>
       <r>   2.1926  1.0000</r>
       <r>   2.7130  1.0000</r>
       <r>   2.7144  1.0000</r>
       <r>   2.7144  1.0000</r>
       <r>   2.7144  1.0000</r>
       <r>   2.7144  1.0000</r>
       <r>   2.7158  1.0000</r>
       <r>   3.2811  1.0000</r>
       <r>   3.2811  1.0000</r>
       <r>   3.2812  1.0000</r>
       <r>   3.3231  1.0000</r>
       <r>   3.3231  1.0000</r>
       <r>   3.3231  1.0000</r>
       <r>   3.3231  1.0000</r>
       <r>   3.3231  1.0000</r>
       <r>   3.3231  1.0000</r>
       <r>   3.3231  1.0000</r>
       <r>   3.3231  1.0000</r>
       <r>   3.6253  1.0000</r>
       <r>   3.6256  1.0000</r>
       <r>   3.6256  1.0000</r>
       <r>   3.6256  1.0000</r>
       <r>   3.6256  1.0000</r>
       <r>   3.6256  1.0000</r>
       <r>   3.6273  1.0000</r>
       <r>   3.6274  1.0000</r>
       <r>   3.6274  1.0000</r>
       <r>   3.6274  1.0000</r>
       <r>   3.6274  1.0000</r>
       <r>   3.6277  1.0000</r>
       <r>   4.5109  1.0000</r>
       <r>   4.5109  1.0000</r>
       <r>   4.5109  1.0000</r>
       <r>   4.5109  1.0000</r>
       <r>   4.9836  1.0000</r>
       <r>   4.9841  1.0000</r>
       <r>   4.9841  1.0000</r>
       <r>   4.9849  1.0000</r>
       <r>   4.9854  1.0000</r>
       <r>   4.9854  1.0000</r>
       <r>   4.9854  1.0000</r>
       <r>   4.9854  1.0000</r>
       <r>   4.9860  1.0000</r>
       <r>   4.9867  1.0000</r>
       <r>   4.9867  1.0000</r>
       <r>   4.9873  1.0000</r>
       <r>   6.4476  0.0000</r>
       <r>   6.4476  0.0000</r>
       <r>   6.4477  0.0000</r>
       <r>   8.2369  0.0000</r>
       <r>   8.2370  0.0000</r>
       <r>   8.2370  0.0000</r>
       <r>   8.2370  0.0000</r>
       <r>   9.9687  0.0000</r>
       <r>   9.9690  0.0000</r>
       <r>   9.9690  0.0000</r>
       <r>   9.9690  0.0000</r>
       <r>   9.9690  0.0000</r>
       <r>   9.9693  0.0000</r>
       <r>  10.8765  0.0000</r>
       <r>  10.8766  0.0000</r>
       <r>  10.8766  0.0000</r>
       <r>  11.5333  0.0000</r>
       <r>  11.5333  0.0000</r>
       <r>  11.5365  0.0000</r>
       <r>  11.5365  0.0000</r>
       <r>  11.5371  0.0000</r>
       <r>  11.5371  0.0000</r>
       <r>  11.5371  0.0000</r>
       <r>  11.5372  0.0000</r>
       <r>  11.5376  0.0000</r>
       <r>  11.5376  0.0000</r>
       <r>  11.5408  0.0000</r>
       <r>  11.5408  0.0000</r>
       <r>  13.7623  0.0000</r>
       <r>  13.7630  0.0000</r>
       <r>  13.7638  0.0000</r>
       <r>  13.7642  0.0000</r>
       <r>  13.7654  0.0000</r>
      </set>
      <set comment="kpoint 2">
       <r>  -4.1573  1.0000</r>
       <r>  -2.0987  1.0000</r>
       <r>  -1.8078  1.0000</r>
       <r>  -1.8078  1.0000</r>
       <r>  -1.8078  1.0000</r>
       <r>  -1.8078  1.0000</r>
       <r>  -1.7100  1.0000</r>
       <r>  -1.7100  1.0000</r>
       <r>  -1.7100  1.0000</r>
       <r>  -1.7100  1.0000</r>
       <r>  -1.5876  1.0000</r>
       <r>  -1.4715  1.0000</r>
       <r>  -1.4652  1.0000</r>
       <r>  -1.4652  1.0000</r>
       <r>  -1.1814  1.0000</r>
       <r>  -1.1777  1.0000</r>
       <r>  -1.1777  1.0000</r>
       <r>  -0.6450  1.0000</r>
       <r>  -0.6450  1.0000</r>
       <r>  -0.6450  1.0000</r>
       <r>  -0.6449  1.0000</r>
       <r>  -0.5975  1.0000</r>
       <r>  -0.5975  1.0000</r>
       <r>  -0.5975  1.0000</r>
       <r>  -0.5975  1.0000</r>
       <r>  -0.4538  1.0000</r>
       <r>  -0.4535  1.0000</r>
       <r>  -0.4497  1.0000</r>
       <r>  -0.4497  1.0000</r>
       <r>  -0.4497  1.0000</r>
       <r>  -0.4495  1.0000</r>
       <r>  -0.4206  1.0000</r>
       <r>  -0.4169  1.0000</r>
       <r>  -0.4169  1.0000</r>
       <r>  -0.4169  1.0000</r>
       <r>  -0.4168  1.0000</r>
       <r>  -0.2901  1.0000</r>
       <r>  -0.2901  1.0000</r>
       <r>  -0.2901  1.0000</r>
       <r>  -0.2901  1.0000</r>
       <r>  -0.1690  1.0000</r>
       <r>   0.0946  1.0000</r>
       <r>   0.0946  1.0000</r>
       <r>   0.2193  1.0000</r>
       <r>   0.2195  1.0000</r>
       <r>   0.2195  1.0000</r>
       <r>   0.2195  1.0000</r>
       <r>   0.3042  1.0000</r>
       <r>   0.3048  1.0000</r>
       <r>   0.3048  1.0000</r>
       <r>   0.3049  1.0000</r>
       <r>   0.3154  1.0000</r>
       <r>   0.3154  1.0000</r>
       <r>   0.3154  1.0000</r>
       <r>   0.3158  1.0000</r>
       <r>   0.3226  1.0000</r>
       <r>   0.3227  1.0000</r>
       <r>   0.3227  1.0000</r>
       <r>   0.3227  1.0000</r>
       <r>   0.3348  1.0000</r>
       <r>   0.3348  1.0000</r>
       <r>   0.3348  1.0000</r>
       <r>   0.3353  1.0000</r>
       <r>   0.5372  1.0000</r>
       <r>   0.5373  1.0000</r>
       <r>   0.5373  1.0000</r>
       <r>   0.5373  1.0000</r>
       <r>   0.5913  1.0000</r>
       <r>   0.5913  1.0000</r>
       <r>   0.6306  1.0000</r>
       <r>   0.6324  1.0000</r>
       <r>   0.6324  1.0000</r>
       <r>   0.6325  1.0000</r>
       <r>   0.6345  1.0000</r>
       <r>   0.6346  1.0000</r>
       <r>   0.6346  1.0000</r>
       <r>   0.6365  1.0000</r>
       <r>   0.7230  1.0000</r>
       <r>   0.7230  1.0000</r>
       <r>   0.7231  1.0000</r>
       <r>   0.7231  1.0000</r>
       <r>   0.7365  1.0000</r>
       <r>   0.7366  1.0000</r>
       <r>   0.7366  1.0000</r>
       <r>   0.7366  1.0000</r>
       <r>   0.7500  1.0000</r>
       <r>   0.7686  1.0000</r>
       <r>   0.7686  1.0000</r>
       <r>   1.3897  1.0000</r>
       <r>   1.3897  1.0000</r>
       <r>   1.3897  1.0000</r>
       <r>   1.3897  1.0000</r>
       <r>   1.4271  1.0000</r>
       <r>   1.5367  1.0000</r>
       <r>   1.5931  1.0000</r>
       <r>   1.5932  1.0000</r>
       <r>   1.5932  1.0000</r>
       <r>   1.5932  1.0000</r>
       <r>   1.6356  1.0000</r>
       <r>   1.6356  1.0000</r>
       <r>   1.6356  1.0000</r>
       <r>   1.6356  1.0000</r>
       <r>   1.6857  1.0000</r>
       <r>   1.6857  1.0000</r>
       <r>   1.6857  1.0000</r>
       <r>   1.6858  1.0000</r>
       <r>   1.7572  1.0000</r>
       <r>   1.7572  1.0000</r>
       <r>   1.9303  1.0000</r>
       <r>   1.9303  1.0000</r>
       <r>   1.9303  1.0000</r>
       <r>   1.9304  1.0000</r>
       <r>   1.9743  1.0000</r>
       <r>   1.9743  1.0000</r>
       <r>   1.9744  1.0000</r>
       <r>   1.9744  1.0000</r>
       <r>   2.0742  1.0000</r>
       <r>   2.0742  1.0000</r>
       <r>   2.0742  1.0000</r>
       <r>   2.0743  1.0000</r>
       <r>   2.1003  1.0000</r>
       <r>   2.1004  1.0000</r>
       <r>   2.1043  1.0000</r>
       <r>   2.1043  1.0000</r>
       <r>   2.1047  1.0000</r>
       <r>   2.1047  1.0000</r>
       <r>   2.1131  1.0000</r>
       <r>   2.1131  1.0000</r>
       <r>   2.1809  1.0000</r>
       <r>   2.1957  1.0000</r>
       <r>   2.2355  1.0000</r>
       <r>   2.2355  1.0000</r>
       <r>   2.2355  1.0000</r>
       <r>   2.2357  1.0000</r>
       <r>   2.2937  1.0000</r>
       <r>   2.2937  1.0000</r>
       <r>   2.2938  1.0000</r>
       <r>   2.2938  1.0000</r>
       <r>   2.6438  1.0000</r>
       <r>   2.7274  1.0000</r>
       <r>   2.7274  1.0000</r>
       <r>   2.7274  1.0000</r>
       <r>   2.7274  1.0000</r>
       <r>   2.7857  1.0000</r>
       <r>   3.2435  1.0000</r>
       <r>   3.2435  1.0000</r>
       <r>   3.2435  1.0000</r>
       <r>   3.2435  1.0000</r>
       <r>   3.2660  1.0000</r>
       <r>   3.2660  1.0000</r>
       <r>   3.2761  1.0000</r>
       <r>   3.3102  1.0000</r>
       <r>   3.3102  1.0000</r>
       <r>   3.3102  1.0000</r>
       <r>   3.3103  1.0000</r>
       <r>   3.5535  1.0000</r>
       <r>   3.5535  1.0000</r>
       <r>   3.6070  1.0000</r>
       <r>   3.6070  1.0000</r>
       <r>   3.6071  1.0000</r>
       <r>   3.6071  1.0000</r>
       <r>   3.6071  1.0000</r>
       <r>   3.6071  1.0000</r>
       <r>   3.6253  1.0000</r>
       <r>   3.6256  1.0000</r>
       <r>   3.6273  1.0000</r>
       <r>   3.6277  1.0000</r>
       <r>   4.5505  1.0000</r>
       <r>   4.5506  1.0000</r>
       <r>   4.5506  1.0000</r>
       <r>   4.5506  1.0000</r>
       <r>   4.6968  1.0000</r>
       <r>   4.6968  1.0000</r>
       <r>   4.6968  1.0000</r>
       <r>   4.6968  1.0000</r>
       <r>   4.9843  1.0000</r>
       <r>   4.9843  1.0000</r>
       <r>   4.9843  1.0000</r>
       <r>   4.9843  1.0000</r>
       <r>   5.2941  1.0000</r>
       <r>   5.2941  1.0000</r>
       <r>   5.2941  1.0000</r>
       <r>   5.2941  1.0000</r>
       <r>   6.2850  0.0000</r>
       <r>   6.5336  0.0000</r>
       <r>   6.5336  0.0000</r>
       <r>   8.3020  0.0000</r>
       <r>   8.3020  0.0000</r>
       <r>   8.3020  0.0000</r>
       <r>   8.3020  0.0000</r>
       <r>   9.8041  0.0000</r>
       <r>   9.8041  0.0000</r>
       <r>   9.8041  0.0000</r>
       <r>   9.8041  0.0000</r>
       <r>   9.9822  0.0000</r>
       <r>   9.9822  0.0000</r>
       <r>  10.8589  0.0000</r>
       <r>  10.8589  0.0000</r>
       <r>  11.0213  0.0000</r>
       <r>  11.0213  0.0000</r>
       <r>  11.0731  0.0000</r>
       <r>  11.5741  0.0000</r>
       <r>  11.5741  0.0000</r>
       <r>  11.5741  0.0000</r>
       <r>  11.5741  0.0000</r>
       <r>  11.6137  0.0000</r>
       <r>  11.6137  0.0000</r>
       <r>  11.6137  0.0000</r>
       <r>  11.6138  0.0000</r>
       <r>  12.0432  0.0000</r>
       <r>  12.0432  0.0000</r>
       <r>  13.4406  0.0000</r>
       <r>  13.4418  0.0000</r>
       <r>  13.4450  0.0000</r>
       <r>  13.4456  0.0000</r>
       <r>  13.4475  0.0000</r>
      </set>
      <set comment="kpoint 3">
       <r>  -4.0981  1.0000</r>
       <r>  -2.3955  1.0000</r>
       <r>  -1.7652  1.0000</r>
       <r>  -1.7652  1.0000</r>
       <r>  -1.7652  1.0000</r>
       <r>  -1.7652  1.0000</r>
       <r>  -1.6770  1.0000</r>
       <r>  -1.6770  1.0000</r>
       <r>  -1.6770  1.0000</r>
       <r>  -1.6770  1.0000</r>
       <r>  -1.4515  1.0000</r>
       <r>  -1.4263  1.0000</r>
       <r>  -1.4262  1.0000</r>
       <r>  -1.4144  1.0000</r>
       <r>  -1.1602  1.0000</r>
       <r>  -1.1455  1.0000</r>
       <r>  -1.1455  1.0000</r>
       <r>  -0.7666  1.0000</r>
       <r>  -0.7666  1.0000</r>
       <r>  -0.7666  1.0000</r>
       <r>  -0.7666  1.0000</r>
       <r>  -0.7311  1.0000</r>
       <r>  -0.7311  1.0000</r>
       <r>  -0.7310  1.0000</r>
       <r>  -0.7310  1.0000</r>
       <r>  -0.5403  1.0000</r>
       <r>  -0.5291  1.0000</r>
       <r>  -0.5291  1.0000</r>
       <r>  -0.3890  1.0000</r>
       <r>  -0.3889  1.0000</r>
       <r>  -0.3889  1.0000</r>
       <r>  -0.3889  1.0000</r>
       <r>  -0.3697  1.0000</r>
       <r>  -0.3697  1.0000</r>
       <r>  -0.3697  1.0000</r>
       <r>  -0.3696  1.0000</r>
       <r>  -0.2721  1.0000</r>
       <r>  -0.2721  1.0000</r>
       <r>  -0.2721  1.0000</r>
       <r>  -0.2721  1.0000</r>
       <r>  -0.1252  1.0000</r>
       <r>  -0.1252  1.0000</r>
       <r>  -0.0413  1.0000</r>
       <r>   0.1628  1.0000</r>
       <r>   0.1629  1.0000</r>
       <r>   0.1629  1.0000</r>
       <r>   0.1629  1.0000</r>
       <r>   0.2910  1.0000</r>
       <r>   0.2910  1.0000</r>
       <r>   0.2910  1.0000</r>
       <r>   0.2910  1.0000</r>
       <r>   0.3308  1.0000</r>
       <r>   0.3318  1.0000</r>
       <r>   0.3318  1.0000</r>
       <r>   0.3319  1.0000</r>
       <r>   0.3379  1.0000</r>
       <r>   0.3380  1.0000</r>
       <r>   0.3380  1.0000</r>
       <r>   0.3389  1.0000</r>
       <r>   0.4015  1.0000</r>
       <r>   0.4016  1.0000</r>
       <r>   0.4016  1.0000</r>
       <r>   0.4017  1.0000</r>
       <r>   0.4464  1.0000</r>
       <r>   0.4464  1.0000</r>
       <r>   0.4464  1.0000</r>
       <r>   0.4465  1.0000</r>
       <r>   0.6476  1.0000</r>
       <r>   0.6476  1.0000</r>
       <r>   0.6476  1.0000</r>
       <r>   0.6476  1.0000</r>
       <r>   0.7094  1.0000</r>
       <r>   0.7094  1.0000</r>
       <r>   0.7094  1.0000</r>
       <r>   0.7095  1.0000</r>
       <r>   0.7203  1.0000</r>
       <r>   0.7451  1.0000</r>
       <r>   0.7451  1.0000</r>
       <r>   0.7452  1.0000</r>
       <r>   0.7452  1.0000</r>
       <r>   0.7632  1.0000</r>
       <r>   0.7632  1.0000</r>
       <r>   0.7632  1.0000</r>
       <r>   0.7632  1.0000</r>
       <r>   0.7947  1.0000</r>
       <r>   0.7947  1.0000</r>
       <r>   0.8667  1.0000</r>
       <r>   0.8667  1.0000</r>
       <r>   1.2745  1.0000</r>
       <r>   1.2745  1.0000</r>
       <r>   1.2745  1.0000</r>
       <r>   1.2745  1.0000</r>
       <r>   1.4681  1.0000</r>
       <r>   1.4938  1.0000</r>
       <r>   1.4939  1.0000</r>
       <r>   1.4939  1.0000</r>
       <r>   1.4939  1.0000</r>
       <r>   1.5937  1.0000</r>
       <r>   1.5937  1.0000</r>
       <r>   1.6820  1.0000</r>
       <r>   1.6822  1.0000</r>
       <r>   1.6822  1.0000</r>
       <r>   1.6822  1.0000</r>
       <r>   1.7321  1.0000</r>
       <r>   1.7697  1.0000</r>
       <r>   1.7697  1.0000</r>
       <r>   1.7698  1.0000</r>
       <r>   1.7698  1.0000</r>
       <r>   1.9289  1.0000</r>
       <r>   1.9289  1.0000</r>
       <r>   1.9289  1.0000</r>
       <r>   1.9289  1.0000</r>
       <r>   2.0400  1.0000</r>
       <r>   2.0400  1.0000</r>
       <r>   2.0402  1.0000</r>
       <r>   2.0402  1.0000</r>
       <r>   2.0558  1.0000</r>
       <r>   2.0560  1.0000</r>
       <r>   2.0560  1.0000</r>
       <r>   2.0560  1.0000</r>
       <r>   2.0860  1.0000</r>
       <r>   2.0861  1.0000</r>
       <r>   2.0861  1.0000</r>
       <r>   2.0861  1.0000</r>
       <r>   2.1493  1.0000</r>
       <r>   2.1858  1.0000</r>
       <r>   2.1858  1.0000</r>
       <r>   2.2087  1.0000</r>
       <r>   2.3001  1.0000</r>
       <r>   2.3001  1.0000</r>
       <r>   2.3459  1.0000</r>
       <r>   2.3459  1.0000</r>
       <r>   2.3459  1.0000</r>
       <r>   2.3459  1.0000</r>
       <r>   2.4176  1.0000</r>
       <r>   2.4176  1.0000</r>
       <r>   2.4176  1.0000</r>
       <r>   2.4176  1.0000</r>
       <r>   2.5752  1.0000</r>
       <r>   2.7737  1.0000</r>
       <r>   2.7737  1.0000</r>
       <r>   2.7737  1.0000</r>
       <r>   2.7737  1.0000</r>
       <r>   2.8565  1.0000</r>
       <r>   3.0386  1.0000</r>
       <r>   3.0387  1.0000</r>
       <r>   3.0387  1.0000</r>
       <r>   3.0387  1.0000</r>
       <r>   3.2211  1.0000</r>
       <r>   3.2211  1.0000</r>
       <r>   3.2610  1.0000</r>
       <r>   3.2721  1.0000</r>
       <r>   3.2721  1.0000</r>
       <r>   3.2721  1.0000</r>
       <r>   3.2721  1.0000</r>
       <r>   3.3597  1.0000</r>
       <r>   3.3597  1.0000</r>
       <r>   3.5479  1.0000</r>
       <r>   3.5479  1.0000</r>
       <r>   3.5479  1.0000</r>
       <r>   3.5479  1.0000</r>
       <r>   3.5521  1.0000</r>
       <r>   3.5521  1.0000</r>
       <r>   3.6253  1.0000</r>
       <r>   3.6257  1.0000</r>
       <r>   3.6272  1.0000</r>
       <r>   3.6276  1.0000</r>
       <r>   4.4228  1.0000</r>
       <r>   4.4228  1.0000</r>
       <r>   4.4228  1.0000</r>
       <r>   4.4228  1.0000</r>
       <r>   4.6398  1.0000</r>
       <r>   4.6398  1.0000</r>
       <r>   4.6398  1.0000</r>
       <r>   4.6398  1.0000</r>
       <r>   4.9807  1.0000</r>
       <r>   4.9807  1.0000</r>
       <r>   4.9807  1.0000</r>
       <r>   4.9807  1.0000</r>
       <r>   5.6289  0.0000</r>
       <r>   5.6289  0.0000</r>
       <r>   5.6289  0.0000</r>
       <r>   5.6289  0.0000</r>
       <r>   5.8654  0.0000</r>
       <r>   6.7690  0.0000</r>
       <r>   6.7690  0.0000</r>
       <r>   8.4929  0.0000</r>
       <r>   8.4929  0.0000</r>
       <r>   8.4929  0.0000</r>
       <r>   8.4929  0.0000</r>
       <r>   9.4058  0.0000</r>
       <r>   9.4059  0.0000</r>
       <r>   9.4059  0.0000</r>
       <r>   9.4059  0.0000</r>
       <r>  10.0213  0.0000</r>
       <r>  10.0213  0.0000</r>
       <r>  10.5003  0.0000</r>
       <r>  10.5003  0.0000</r>
       <r>  10.8074  0.0000</r>
       <r>  10.8074  0.0000</r>
       <r>  11.5949  0.0000</r>
       <r>  11.6835  0.0000</r>
       <r>  11.6835  0.0000</r>
       <r>  11.6835  0.0000</r>
       <r>  11.6835  0.0000</r>
       <r>  11.7683  0.0000</r>
       <r>  11.7683  0.0000</r>
       <r>  11.7683  0.0000</r>
       <r>  11.7684  0.0000</r>
       <r>  12.5351  0.0000</r>
       <r>  12.5351  0.0000</r>
       <r>  12.8302  0.0000</r>
       <r>  12.8303  0.0000</r>
       <r>  12.8303  0.0000</r>
       <r>  12.8303  0.0000</r>
       <r>  13.1554  0.0000</r>
      </set>
      <set comment="kpoint 4">
       <r>  -4.0001  1.0000</r>
       <r>  -2.6939  1.0000</r>
       <r>  -1.6955  1.0000</r>
       <r>  -1.6955  1.0000</r>
       <r>  -1.6955  1.0000</r>
       <r>  -1.6955  1.0000</r>
       <r>  -1.6222  1.0000</r>
       <r>  -1.6222  1.0000</r>
       <r>  -1.6222  1.0000</r>
       <r>  -1.6222  1.0000</r>
       <r>  -1.4200  1.0000</r>
       <r>  -1.3624  1.0000</r>
       <r>  -1.3623  1.0000</r>
       <r>  -1.3100  1.0000</r>
       <r>  -1.1250  1.0000</r>
       <r>  -1.0918  1.0000</r>
       <r>  -1.0918  1.0000</r>
       <r>  -0.9040  1.0000</r>
       <r>  -0.9040  1.0000</r>
       <r>  -0.9040  1.0000</r>
       <r>  -0.9039  1.0000</r>
       <r>  -0.8901  1.0000</r>
       <r>  -0.8900  1.0000</r>
       <r>  -0.8899  1.0000</r>
       <r>  -0.8899  1.0000</r>
       <r>  -0.6536  1.0000</r>
       <r>  -0.6401  1.0000</r>
       <r>  -0.6401  1.0000</r>
       <r>  -0.3442  1.0000</r>
       <r>  -0.3441  1.0000</r>
       <r>  -0.3441  1.0000</r>
       <r>  -0.3441  1.0000</r>
       <r>  -0.3253  1.0000</r>
       <r>  -0.3253  1.0000</r>
       <r>  -0.2971  1.0000</r>
       <r>  -0.2971  1.0000</r>
       <r>  -0.2971  1.0000</r>
       <r>  -0.2971  1.0000</r>
       <r>  -0.2426  1.0000</r>
       <r>  -0.2425  1.0000</r>
       <r>  -0.2425  1.0000</r>
       <r>  -0.2425  1.0000</r>
       <r>   0.0848  1.0000</r>
       <r>   0.1000  1.0000</r>
       <r>   0.1000  1.0000</r>
       <r>   0.1000  1.0000</r>
       <r>   0.1000  1.0000</r>
       <r>   0.2438  1.0000</r>
       <r>   0.2438  1.0000</r>
       <r>   0.2438  1.0000</r>
       <r>   0.2438  1.0000</r>
       <r>   0.3413  1.0000</r>
       <r>   0.3413  1.0000</r>
       <r>   0.3413  1.0000</r>
       <r>   0.3414  1.0000</r>
       <r>   0.3416  1.0000</r>
       <r>   0.3426  1.0000</r>
       <r>   0.3426  1.0000</r>
       <r>   0.3427  1.0000</r>
       <r>   0.3491  1.0000</r>
       <r>   0.3492  1.0000</r>
       <r>   0.3492  1.0000</r>
       <r>   0.3502  1.0000</r>
       <r>   0.4642  1.0000</r>
       <r>   0.4642  1.0000</r>
       <r>   0.4643  1.0000</r>
       <r>   0.4643  1.0000</r>
       <r>   0.6600  1.0000</r>
       <r>   0.6601  1.0000</r>
       <r>   0.6601  1.0000</r>
       <r>   0.6601  1.0000</r>
       <r>   0.6720  1.0000</r>
       <r>   0.6877  1.0000</r>
       <r>   0.6877  1.0000</r>
       <r>   0.6877  1.0000</r>
       <r>   0.6878  1.0000</r>
       <r>   0.8071  1.0000</r>
       <r>   0.8071  1.0000</r>
       <r>   0.8071  1.0000</r>
       <r>   0.8072  1.0000</r>
       <r>   0.8381  1.0000</r>
       <r>   0.8381  1.0000</r>
       <r>   0.9488  1.0000</r>
       <r>   0.9488  1.0000</r>
       <r>   0.9488  1.0000</r>
       <r>   0.9488  1.0000</r>
       <r>   1.1434  1.0000</r>
       <r>   1.1434  1.0000</r>
       <r>   1.1435  1.0000</r>
       <r>   1.1436  1.0000</r>
       <r>   1.1586  1.0000</r>
       <r>   1.1586  1.0000</r>
       <r>   1.3749  1.0000</r>
       <r>   1.3750  1.0000</r>
       <r>   1.3750  1.0000</r>
       <r>   1.3750  1.0000</r>
       <r>   1.4419  1.0000</r>
       <r>   1.4419  1.0000</r>
       <r>   1.5444  1.0000</r>
       <r>   1.7600  1.0000</r>
       <r>   1.7601  1.0000</r>
       <r>   1.7601  1.0000</r>
       <r>   1.7601  1.0000</r>
       <r>   1.8663  1.0000</r>
       <r>   1.8663  1.0000</r>
       <r>   1.8663  1.0000</r>
       <r>   1.8663  1.0000</r>
       <r>   1.9271  1.0000</r>
       <r>   1.9271  1.0000</r>
       <r>   1.9271  1.0000</r>
       <r>   1.9271  1.0000</r>
       <r>   1.9935  1.0000</r>
       <r>   1.9935  1.0000</r>
       <r>   1.9935  1.0000</r>
       <r>   1.9935  1.0000</r>
       <r>   2.0360  1.0000</r>
       <r>   2.0977  1.0000</r>
       <r>   2.0992  1.0000</r>
       <r>   2.0993  1.0000</r>
       <r>   2.0993  1.0000</r>
       <r>   2.0997  1.0000</r>
       <r>   2.1136  1.0000</r>
       <r>   2.1136  1.0000</r>
       <r>   2.1136  1.0000</r>
       <r>   2.1137  1.0000</r>
       <r>   2.2299  1.0000</r>
       <r>   2.3122  1.0000</r>
       <r>   2.3123  1.0000</r>
       <r>   2.4822  1.0000</r>
       <r>   2.4823  1.0000</r>
       <r>   2.4823  1.0000</r>
       <r>   2.4823  1.0000</r>
       <r>   2.4903  1.0000</r>
       <r>   2.4903  1.0000</r>
       <r>   2.5097  1.0000</r>
       <r>   2.5581  1.0000</r>
       <r>   2.5581  1.0000</r>
       <r>   2.5581  1.0000</r>
       <r>   2.5581  1.0000</r>
       <r>   2.7636  1.0000</r>
       <r>   2.7636  1.0000</r>
       <r>   2.7636  1.0000</r>
       <r>   2.7636  1.0000</r>
       <r>   2.8689  1.0000</r>
       <r>   2.8689  1.0000</r>
       <r>   2.8689  1.0000</r>
       <r>   2.8689  1.0000</r>
       <r>   2.9256  1.0000</r>
       <r>   3.0883  1.0000</r>
       <r>   3.0883  1.0000</r>
       <r>   3.1473  1.0000</r>
       <r>   3.1473  1.0000</r>
       <r>   3.2097  1.0000</r>
       <r>   3.2097  1.0000</r>
       <r>   3.2097  1.0000</r>
       <r>   3.2098  1.0000</r>
       <r>   3.2362  1.0000</r>
       <r>   3.4541  1.0000</r>
       <r>   3.4541  1.0000</r>
       <r>   3.4541  1.0000</r>
       <r>   3.4541  1.0000</r>
       <r>   3.4637  1.0000</r>
       <r>   3.4637  1.0000</r>
       <r>   3.6254  1.0000</r>
       <r>   3.6259  1.0000</r>
       <r>   3.6271  1.0000</r>
       <r>   3.6276  1.0000</r>
       <r>   4.1596  1.0000</r>
       <r>   4.1596  1.0000</r>
       <r>   4.1596  1.0000</r>
       <r>   4.1596  1.0000</r>
       <r>   4.7346  1.0000</r>
       <r>   4.7346  1.0000</r>
       <r>   4.7346  1.0000</r>
       <r>   4.7346  1.0000</r>
       <r>   4.9738  1.0000</r>
       <r>   4.9738  1.0000</r>
       <r>   4.9738  1.0000</r>
       <r>   4.9738  1.0000</r>
       <r>   5.3080  0.9961</r>
       <r>   5.9961  0.0000</r>
       <r>   5.9961  0.0000</r>
       <r>   5.9961  0.0000</r>
       <r>   5.9961  0.0000</r>
       <r>   7.1093  0.0000</r>
       <r>   7.1093  0.0000</r>
       <r>   8.7983  0.0000</r>
       <r>   8.7983  0.0000</r>
       <r>   8.7983  0.0000</r>
       <r>   8.7983  0.0000</r>
       <r>   8.9045  0.0000</r>
       <r>   8.9045  0.0000</r>
       <r>   8.9046  0.0000</r>
       <r>   8.9046  0.0000</r>
       <r>   9.9780  0.0000</r>
       <r>   9.9780  0.0000</r>
       <r>  10.0849  0.0000</r>
       <r>  10.0849  0.0000</r>
       <r>  10.7268  0.0000</r>
       <r>  10.7268  0.0000</r>
       <r>  11.8608  0.0000</r>
       <r>  11.8608  0.0000</r>
       <r>  11.8608  0.0000</r>
       <r>  11.8608  0.0000</r>
       <r>  11.9218  0.0000</r>
       <r>  11.9218  0.0000</r>
       <r>  11.9219  0.0000</r>
       <r>  11.9219  0.0000</r>
       <r>  12.1564  0.0000</r>
       <r>  12.1564  0.0000</r>
       <r>  12.1564  0.0000</r>
       <r>  12.1564  0.0000</r>
       <r>  12.3241  0.0000</r>
       <r>  12.9060  0.0000</r>
       <r>  12.9061  0.0000</r>
       <r>  12.9069  0.0000</r>
      </set>
      <set comment="kpoint 5">
       <r>  -3.8642  1.0000</r>
       <r>  -2.9806  1.0000</r>
       <r>  -1.6008  1.0000</r>
       <r>  -1.6008  1.0000</r>
       <r>  -1.6008  1.0000</r>
       <r>  -1.6008  1.0000</r>
       <r>  -1.5461  1.0000</r>
       <r>  -1.5461  1.0000</r>
       <r>  -1.5460  1.0000</r>
       <r>  -1.5460  1.0000</r>
       <r>  -1.3799  1.0000</r>
       <r>  -1.2755  1.0000</r>
       <r>  -1.2754  1.0000</r>
       <r>  -1.2664  1.0000</r>
       <r>  -1.0764  1.0000</r>
       <r>  -1.0525  1.0000</r>
       <r>  -1.0525  1.0000</r>
       <r>  -1.0521  1.0000</r>
       <r>  -1.0520  1.0000</r>
       <r>  -1.0495  1.0000</r>
       <r>  -1.0494  1.0000</r>
       <r>  -1.0492  1.0000</r>
       <r>  -1.0492  1.0000</r>
       <r>  -1.0167  1.0000</r>
       <r>  -1.0167  1.0000</r>
       <r>  -0.7714  1.0000</r>
       <r>  -0.7714  1.0000</r>
       <r>  -0.7589  1.0000</r>
       <r>  -0.5051  1.0000</r>
       <r>  -0.5051  1.0000</r>
       <r>  -0.2864  1.0000</r>
       <r>  -0.2863  1.0000</r>
       <r>  -0.2863  1.0000</r>
       <r>  -0.2863  1.0000</r>
       <r>  -0.2329  1.0000</r>
       <r>  -0.2329  1.0000</r>
       <r>  -0.2329  1.0000</r>
       <r>  -0.2329  1.0000</r>
       <r>  -0.2024  1.0000</r>
       <r>  -0.2024  1.0000</r>
       <r>  -0.2024  1.0000</r>
       <r>  -0.2024  1.0000</r>
       <r>   0.0339  1.0000</r>
       <r>   0.0339  1.0000</r>
       <r>   0.0339  1.0000</r>
       <r>   0.0339  1.0000</r>
       <r>   0.1886  1.0000</r>
       <r>   0.1887  1.0000</r>
       <r>   0.1887  1.0000</r>
       <r>   0.1887  1.0000</r>
       <r>   0.2069  1.0000</r>
       <r>   0.2369  1.0000</r>
       <r>   0.2369  1.0000</r>
       <r>   0.2369  1.0000</r>
       <r>   0.2369  1.0000</r>
       <r>   0.3477  1.0000</r>
       <r>   0.3484  1.0000</r>
       <r>   0.3484  1.0000</r>
       <r>   0.3484  1.0000</r>
       <r>   0.3581  1.0000</r>
       <r>   0.3581  1.0000</r>
       <r>   0.3581  1.0000</r>
       <r>   0.3589  1.0000</r>
       <r>   0.5097  1.0000</r>
       <r>   0.5097  1.0000</r>
       <r>   0.5097  1.0000</r>
       <r>   0.5097  1.0000</r>
       <r>   0.6061  1.0000</r>
       <r>   0.6591  1.0000</r>
       <r>   0.6592  1.0000</r>
       <r>   0.6592  1.0000</r>
       <r>   0.6592  1.0000</r>
       <r>   0.6873  1.0000</r>
       <r>   0.6873  1.0000</r>
       <r>   0.6873  1.0000</r>
       <r>   0.6874  1.0000</r>
       <r>   0.8678  1.0000</r>
       <r>   0.8679  1.0000</r>
       <r>   0.8679  1.0000</r>
       <r>   0.8679  1.0000</r>
       <r>   0.8986  1.0000</r>
       <r>   0.8986  1.0000</r>
       <r>   1.0170  1.0000</r>
       <r>   1.0170  1.0000</r>
       <r>   1.0170  1.0000</r>
       <r>   1.0170  1.0000</r>
       <r>   1.2098  1.0000</r>
       <r>   1.2098  1.0000</r>
       <r>   1.2098  1.0000</r>
       <r>   1.2099  1.0000</r>
       <r>   1.2543  1.0000</r>
       <r>   1.2544  1.0000</r>
       <r>   1.2544  1.0000</r>
       <r>   1.2544  1.0000</r>
       <r>   1.3033  1.0000</r>
       <r>   1.3033  1.0000</r>
       <r>   1.4653  1.0000</r>
       <r>   1.4653  1.0000</r>
       <r>   1.6403  1.0000</r>
       <r>   1.8519  1.0000</r>
       <r>   1.8520  1.0000</r>
       <r>   1.8520  1.0000</r>
       <r>   1.8520  1.0000</r>
       <r>   1.9259  1.0000</r>
       <r>   1.9259  1.0000</r>
       <r>   1.9259  1.0000</r>
       <r>   1.9259  1.0000</r>
       <r>   1.9566  1.0000</r>
       <r>   1.9566  1.0000</r>
       <r>   1.9566  1.0000</r>
       <r>   1.9566  1.0000</r>
       <r>   1.9619  1.0000</r>
       <r>   1.9619  1.0000</r>
       <r>   1.9619  1.0000</r>
       <r>   1.9619  1.0000</r>
       <r>   2.0286  1.0000</r>
       <r>   2.1072  1.0000</r>
       <r>   2.1073  1.0000</r>
       <r>   2.1073  1.0000</r>
       <r>   2.1073  1.0000</r>
       <r>   2.1234  1.0000</r>
       <r>   2.1234  1.0000</r>
       <r>   2.1234  1.0000</r>
       <r>   2.1234  1.0000</r>
       <r>   2.2592  1.0000</r>
       <r>   2.4411  1.0000</r>
       <r>   2.4478  1.0000</r>
       <r>   2.4552  1.0000</r>
       <r>   2.4552  1.0000</r>
       <r>   2.4552  1.0000</r>
       <r>   2.4552  1.0000</r>
       <r>   2.4628  1.0000</r>
       <r>   2.4629  1.0000</r>
       <r>   2.6259  1.0000</r>
       <r>   2.6259  1.0000</r>
       <r>   2.6259  1.0000</r>
       <r>   2.6259  1.0000</r>
       <r>   2.6799  1.0000</r>
       <r>   2.6799  1.0000</r>
       <r>   2.7111  1.0000</r>
       <r>   2.7111  1.0000</r>
       <r>   2.7111  1.0000</r>
       <r>   2.7111  1.0000</r>
       <r>   2.7763  1.0000</r>
       <r>   2.7763  1.0000</r>
       <r>   2.9917  1.0000</r>
       <r>   3.0178  1.0000</r>
       <r>   3.0179  1.0000</r>
       <r>   3.0179  1.0000</r>
       <r>   3.0179  1.0000</r>
       <r>   3.0465  1.0000</r>
       <r>   3.0466  1.0000</r>
       <r>   3.1252  1.0000</r>
       <r>   3.1252  1.0000</r>
       <r>   3.1252  1.0000</r>
       <r>   3.1253  1.0000</r>
       <r>   3.2023  1.0000</r>
       <r>   3.3320  1.0000</r>
       <r>   3.3320  1.0000</r>
       <r>   3.3320  1.0000</r>
       <r>   3.3320  1.0000</r>
       <r>   3.3457  1.0000</r>
       <r>   3.3457  1.0000</r>
       <r>   3.6255  1.0000</r>
       <r>   3.6260  1.0000</r>
       <r>   3.6269  1.0000</r>
       <r>   3.6275  1.0000</r>
       <r>   3.9053  1.0000</r>
       <r>   3.9053  1.0000</r>
       <r>   3.9053  1.0000</r>
       <r>   3.9053  1.0000</r>
       <r>   4.6963  1.0000</r>
       <r>   4.8140  1.0000</r>
       <r>   4.8140  1.0000</r>
       <r>   4.8140  1.0000</r>
       <r>   4.8140  1.0000</r>
       <r>   4.9622  1.0000</r>
       <r>   4.9622  1.0000</r>
       <r>   4.9622  1.0000</r>
       <r>   4.9623  1.0000</r>
       <r>   6.4003  0.0000</r>
       <r>   6.4003  0.0000</r>
       <r>   6.4003  0.0000</r>
       <r>   6.4003  0.0000</r>
       <r>   7.5170  0.0000</r>
       <r>   7.5170  0.0000</r>
       <r>   8.3699  0.0000</r>
       <r>   8.3699  0.0000</r>
       <r>   8.3699  0.0000</r>
       <r>   8.3699  0.0000</r>
       <r>   9.2023  0.0000</r>
       <r>   9.2023  0.0000</r>
       <r>   9.2023  0.0000</r>
       <r>   9.2023  0.0000</r>
       <r>   9.4588  0.0000</r>
       <r>   9.4588  0.0000</r>
       <r>  10.1703  0.0000</r>
       <r>  10.1703  0.0000</r>
       <r>  10.6243  0.0000</r>
       <r>  10.6243  0.0000</r>
       <r>  11.4867  0.0000</r>
       <r>  11.4867  0.0000</r>
       <r>  11.4867  0.0000</r>
       <r>  11.4867  0.0000</r>
       <r>  12.0615  0.0000</r>
       <r>  12.0615  0.0000</r>
       <r>  12.0615  0.0000</r>
       <r>  12.0615  0.0000</r>
       <r>  12.0997  0.0000</r>
       <r>  12.0997  0.0000</r>
       <r>  12.0997  0.0000</r>
       <r>  12.0997  0.0000</r>
       <r>  12.6900  0.0000</r>
       <r>  12.6900  0.0000</r>
       <r>  12.6900  0.0000</r>
       <r>  12.6900  0.0000</r>
      </set>
      <set comment="kpoint 6">
       <r>  -3.6917  1.0000</r>
       <r>  -3.2462  1.0000</r>
       <r>  -1.4842  1.0000</r>
       <r>  -1.4841  1.0000</r>
       <r>  -1.4841  1.0000</r>
       <r>  -1.4841  1.0000</r>
       <r>  -1.4493  1.0000</r>
       <r>  -1.4493  1.0000</r>
       <r>  -1.4493  1.0000</r>
       <r>  -1.4493  1.0000</r>
       <r>  -1.3359  1.0000</r>
       <r>  -1.2672  1.0000</r>
       <r>  -1.2035  1.0000</r>
       <r>  -1.2035  1.0000</r>
       <r>  -1.2034  1.0000</r>
       <r>  -1.2033  1.0000</r>
       <r>  -1.1989  1.0000</r>
       <r>  -1.1988  1.0000</r>
       <r>  -1.1987  1.0000</r>
       <r>  -1.1987  1.0000</r>
       <r>  -1.1680  1.0000</r>
       <r>  -1.1680  1.0000</r>
       <r>  -1.0146  1.0000</r>
       <r>  -0.9204  1.0000</r>
       <r>  -0.9204  1.0000</r>
       <r>  -0.9095  1.0000</r>
       <r>  -0.9095  1.0000</r>
       <r>  -0.8550  1.0000</r>
       <r>  -0.6644  1.0000</r>
       <r>  -0.6644  1.0000</r>
       <r>  -0.2248  1.0000</r>
       <r>  -0.2246  1.0000</r>
       <r>  -0.2246  1.0000</r>
       <r>  -0.2246  1.0000</r>
       <r>  -0.1866  1.0000</r>
       <r>  -0.1866  1.0000</r>
       <r>  -0.1866  1.0000</r>
       <r>  -0.1864  1.0000</r>
       <r>  -0.1528  1.0000</r>
       <r>  -0.1528  1.0000</r>
       <r>  -0.1528  1.0000</r>
       <r>  -0.1527  1.0000</r>
       <r>  -0.0322  1.0000</r>
       <r>  -0.0322  1.0000</r>
       <r>  -0.0322  1.0000</r>
       <r>  -0.0322  1.0000</r>
       <r>   0.1378  1.0000</r>
       <r>   0.1378  1.0000</r>
       <r>   0.1378  1.0000</r>
       <r>   0.1379  1.0000</r>
       <r>   0.1520  1.0000</r>
       <r>   0.1520  1.0000</r>
       <r>   0.1520  1.0000</r>
       <r>   0.1521  1.0000</r>
       <r>   0.3224  1.0000</r>
       <r>   0.3532  1.0000</r>
       <r>   0.3541  1.0000</r>
       <r>   0.3541  1.0000</r>
       <r>   0.3542  1.0000</r>
       <r>   0.3607  1.0000</r>
       <r>   0.3608  1.0000</r>
       <r>   0.3608  1.0000</r>
       <r>   0.3618  1.0000</r>
       <r>   0.5245  1.0000</r>
       <r>   0.5501  1.0000</r>
       <r>   0.5501  1.0000</r>
       <r>   0.5501  1.0000</r>
       <r>   0.5501  1.0000</r>
       <r>   0.6256  1.0000</r>
       <r>   0.6256  1.0000</r>
       <r>   0.6256  1.0000</r>
       <r>   0.6256  1.0000</r>
       <r>   0.7365  1.0000</r>
       <r>   0.7365  1.0000</r>
       <r>   0.7365  1.0000</r>
       <r>   0.7366  1.0000</r>
       <r>   0.9038  1.0000</r>
       <r>   0.9038  1.0000</r>
       <r>   0.9038  1.0000</r>
       <r>   0.9039  1.0000</r>
       <r>   0.9445  1.0000</r>
       <r>   0.9445  1.0000</r>
       <r>   0.9445  1.0000</r>
       <r>   0.9445  1.0000</r>
       <r>   0.9759  1.0000</r>
       <r>   0.9759  1.0000</r>
       <r>   1.1399  1.0000</r>
       <r>   1.1399  1.0000</r>
       <r>   1.1399  1.0000</r>
       <r>   1.1399  1.0000</r>
       <r>   1.1788  1.0000</r>
       <r>   1.1788  1.0000</r>
       <r>   1.5024  1.0000</r>
       <r>   1.5025  1.0000</r>
       <r>   1.5025  1.0000</r>
       <r>   1.5025  1.0000</r>
       <r>   1.7441  1.0000</r>
       <r>   1.7847  1.0000</r>
       <r>   1.7847  1.0000</r>
       <r>   1.9267  1.0000</r>
       <r>   1.9267  1.0000</r>
       <r>   1.9267  1.0000</r>
       <r>   1.9267  1.0000</r>
       <r>   1.9421  1.0000</r>
       <r>   1.9421  1.0000</r>
       <r>   1.9422  1.0000</r>
       <r>   1.9422  1.0000</r>
       <r>   1.9426  1.0000</r>
       <r>   1.9443  1.0000</r>
       <r>   1.9444  1.0000</r>
       <r>   1.9444  1.0000</r>
       <r>   1.9456  1.0000</r>
       <r>   2.0287  1.0000</r>
       <r>   2.0287  1.0000</r>
       <r>   2.0287  1.0000</r>
       <r>   2.0287  1.0000</r>
       <r>   2.0900  1.0000</r>
       <r>   2.0901  1.0000</r>
       <r>   2.0902  1.0000</r>
       <r>   2.0902  1.0000</r>
       <r>   2.1021  1.0000</r>
       <r>   2.1021  1.0000</r>
       <r>   2.1022  1.0000</r>
       <r>   2.1023  1.0000</r>
       <r>   2.1342  1.0000</r>
       <r>   2.1342  1.0000</r>
       <r>   2.1342  1.0000</r>
       <r>   2.1342  1.0000</r>
       <r>   2.2963  1.0000</r>
       <r>   2.3913  1.0000</r>
       <r>   2.4468  1.0000</r>
       <r>   2.4468  1.0000</r>
       <r>   2.6221  1.0000</r>
       <r>   2.6221  1.0000</r>
       <r>   2.7673  1.0000</r>
       <r>   2.7673  1.0000</r>
       <r>   2.7673  1.0000</r>
       <r>   2.7673  1.0000</r>
       <r>   2.8650  1.0000</r>
       <r>   2.8650  1.0000</r>
       <r>   2.8715  1.0000</r>
       <r>   2.8715  1.0000</r>
       <r>   2.8715  1.0000</r>
       <r>   2.8715  1.0000</r>
       <r>   2.9216  1.0000</r>
       <r>   2.9220  1.0000</r>
       <r>   2.9305  1.0000</r>
       <r>   3.0211  1.0000</r>
       <r>   3.0211  1.0000</r>
       <r>   3.0211  1.0000</r>
       <r>   3.0211  1.0000</r>
       <r>   3.0536  1.0000</r>
       <r>   3.1600  1.0000</r>
       <r>   3.1891  1.0000</r>
       <r>   3.1891  1.0000</r>
       <r>   3.1891  1.0000</r>
       <r>   3.1891  1.0000</r>
       <r>   3.2029  1.0000</r>
       <r>   3.2029  1.0000</r>
       <r>   3.2085  1.0000</r>
       <r>   3.2085  1.0000</r>
       <r>   3.2087  1.0000</r>
       <r>   3.2087  1.0000</r>
       <r>   3.6256  1.0000</r>
       <r>   3.6263  1.0000</r>
       <r>   3.6267  1.0000</r>
       <r>   3.6274  1.0000</r>
       <r>   3.6599  1.0000</r>
       <r>   3.6599  1.0000</r>
       <r>   3.6599  1.0000</r>
       <r>   3.6599  1.0000</r>
       <r>   4.0783  1.0000</r>
       <r>   4.8734  1.0000</r>
       <r>   4.8735  1.0000</r>
       <r>   4.8735  1.0000</r>
       <r>   4.8735  1.0000</r>
       <r>   4.9437  1.0000</r>
       <r>   4.9437  1.0000</r>
       <r>   4.9437  1.0000</r>
       <r>   4.9438  1.0000</r>
[...]
       <r>   1.7245  1.0000</r>
       <r>   1.7245  1.0000</r>
       <r>   1.7249  1.0000</r>
       <r>   1.7249  1.0000</r>
       <r>   1.7249  1.0000</r>
       <r>   1.7250  1.0000</r>
       <r>   1.7254  1.0000</r>
       <r>   1.7254  1.0000</r>
       <r>   2.1018  1.0000</r>
       <r>   2.1021  1.0000</r>
       <r>   2.1021  1.0000</r>
       <r>   2.1022  1.0000</r>
       <r>   2.1460  1.0000</r>
       <r>   2.1462  1.0000</r>
       <r>   2.1462  1.0000</r>
       <r>   2.1464  1.0000</r>
       <r>   2.1479  1.0000</r>
       <r>   2.1479  1.0000</r>
       <r>   2.1486  1.0000</r>
       <r>   2.1486  1.0000</r>
       <r>   2.1486  1.0000</r>
       <r>   2.1494  1.0000</r>
       <r>   2.1494  1.0000</r>
       <r>   2.1494  1.0000</r>
       <r>   2.4008  1.0000</r>
       <r>   2.4010  1.0000</r>
       <r>   2.4010  1.0000</r>
       <r>   2.4010  1.0000</r>
       <r>   2.4170  1.0000</r>
       <r>   2.4170  1.0000</r>
       <r>   2.4170  1.0000</r>
       <r>   2.4172  1.0000</r>
       <r>   2.6215  1.0000</r>
       <r>   2.6215  1.0000</r>
       <r>   2.6215  1.0000</r>
       <r>   2.6215  1.0000</r>
       <r>   3.3374  1.0000</r>
       <r>   3.3374  1.0000</r>
       <r>   3.3377  1.0000</r>
       <r>   3.3377  1.0000</r>
       <r>   3.3377  1.0000</r>
       <r>   3.3377  1.0000</r>
       <r>   3.3379  1.0000</r>
       <r>   3.3379  1.0000</r>
       <r>   3.3572  1.0000</r>
       <r>   3.3572  1.0000</r>
       <r>   3.3572  1.0000</r>
       <r>   3.3572  1.0000</r>
       <r>   3.3820  1.0000</r>
       <r>   3.3820  1.0000</r>
       <r>   3.3822  1.0000</r>
       <r>   3.3823  1.0000</r>
       <r>   3.3827  1.0000</r>
       <r>   3.3827  1.0000</r>
       <r>   3.3828  1.0000</r>
       <r>   3.3829  1.0000</r>
       <r>   3.3829  1.0000</r>
       <r>   3.3830  1.0000</r>
       <r>   3.3833  1.0000</r>
       <r>   3.3833  1.0000</r>
       <r>   5.1364  1.0000</r>
       <r>   5.1364  1.0000</r>
       <r>   5.1364  1.0000</r>
       <r>   5.1364  1.0000</r>
       <r>   5.8440  0.0000</r>
       <r>   5.8440  0.0000</r>
       <r>   5.8443  0.0000</r>
       <r>   5.8444  0.0000</r>
       <r>   5.8444  0.0000</r>
       <r>   5.8444  0.0000</r>
       <r>   5.8447  0.0000</r>
       <r>   5.8447  0.0000</r>
       <r>   6.8426  0.0000</r>
       <r>   6.8426  0.0000</r>
       <r>   6.8433  0.0000</r>
       <r>   6.8433  0.0000</r>
       <r>   6.8434  0.0000</r>
       <r>   6.8434  0.0000</r>
       <r>   6.8441  0.0000</r>
       <r>   6.8441  0.0000</r>
       <r>   7.5593  0.0000</r>
       <r>   7.5593  0.0000</r>
       <r>   7.5593  0.0000</r>
       <r>   7.5593  0.0000</r>
       <r>   9.7020  0.0000</r>
       <r>   9.7020  0.0000</r>
       <r>   9.7020  0.0000</r>
       <r>   9.7020  0.0000</r>
       <r>   9.7020  0.0000</r>
       <r>   9.7020  0.0000</r>
       <r>   9.7021  0.0000</r>
       <r>   9.7021  0.0000</r>
       <r>  10.0802  0.0000</r>
       <r>  10.0802  0.0000</r>
       <r>  10.0802  0.0000</r>
       <r>  10.0802  0.0000</r>
       <r>  11.4483  0.0000</r>
       <r>  11.4483  0.0000</r>
       <r>  11.4483  0.0000</r>
       <r>  11.4483  0.0000</r>
       <r>  11.7824  0.0000</r>
       <r>  11.7824  0.0000</r>
       <r>  11.7825  0.0000</r>
       <r>  11.7825  0.0000</r>
       <r>  11.7825  0.0000</r>
       <r>  11.7825  0.0000</r>
       <r>  11.7826  0.0000</r>
       <r>  11.7826  0.0000</r>
      </set>
      <set comment="kpoint 195">
       <r>  -2.5561  1.0000</r>
       <r>  -2.5560  1.0000</r>
       <r>  -2.5560  1.0000</r>
       <r>  -2.5560  1.0000</r>
       <r>  -2.2881  1.0000</r>
       <r>  -2.2881  1.0000</r>
       <r>  -2.2881  1.0000</r>
       <r>  -2.2880  1.0000</r>
       <r>  -0.9334  1.0000</r>
       <r>  -0.9332  1.0000</r>
       <r>  -0.9332  1.0000</r>
       <r>  -0.9332  1.0000</r>
       <r>  -0.9084  1.0000</r>
       <r>  -0.9084  1.0000</r>
       <r>  -0.9081  1.0000</r>
       <r>  -0.9081  1.0000</r>
       <r>  -0.9080  1.0000</r>
       <r>  -0.9078  1.0000</r>
       <r>  -0.9077  1.0000</r>
       <r>  -0.9077  1.0000</r>
       <r>  -0.8826  1.0000</r>
       <r>  -0.8820  1.0000</r>
       <r>  -0.8820  1.0000</r>
       <r>  -0.8818  1.0000</r>
       <r>  -0.8773  1.0000</r>
       <r>  -0.8773  1.0000</r>
       <r>  -0.8767  1.0000</r>
       <r>  -0.8767  1.0000</r>
       <r>  -0.8766  1.0000</r>
       <r>  -0.8760  1.0000</r>
       <r>  -0.8759  1.0000</r>
       <r>  -0.8759  1.0000</r>
       <r>  -0.1496  1.0000</r>
       <r>  -0.1496  1.0000</r>
       <r>  -0.1491  1.0000</r>
       <r>  -0.1490  1.0000</r>
       <r>  -0.1490  1.0000</r>
       <r>  -0.1490  1.0000</r>
       <r>  -0.1484  1.0000</r>
       <r>  -0.1484  1.0000</r>
       <r>  -0.1167  1.0000</r>
       <r>  -0.1166  1.0000</r>
       <r>  -0.1166  1.0000</r>
       <r>  -0.1166  1.0000</r>
       <r>   0.0731  1.0000</r>
       <r>   0.0734  1.0000</r>
       <r>   0.0734  1.0000</r>
       <r>   0.0739  1.0000</r>
       <r>   0.0739  1.0000</r>
       <r>   0.0739  1.0000</r>
       <r>   0.0741  1.0000</r>
       <r>   0.0741  1.0000</r>
       <r>   0.0742  1.0000</r>
       <r>   0.0747  1.0000</r>
       <r>   0.0747  1.0000</r>
       <r>   0.0747  1.0000</r>
       <r>   0.5894  1.0000</r>
       <r>   0.5895  1.0000</r>
       <r>   0.5895  1.0000</r>
       <r>   0.5895  1.0000</r>
       <r>   0.7133  1.0000</r>
       <r>   0.7133  1.0000</r>
       <r>   0.7134  1.0000</r>
       <r>   0.7134  1.0000</r>
       <r>   1.0087  1.0000</r>
       <r>   1.0089  1.0000</r>
       <r>   1.0089  1.0000</r>
       <r>   1.0092  1.0000</r>
       <r>   1.0157  1.0000</r>
       <r>   1.0157  1.0000</r>
       <r>   1.0157  1.0000</r>
       <r>   1.0161  1.0000</r>
       <r>   1.0240  1.0000</r>
       <r>   1.0242  1.0000</r>
       <r>   1.0242  1.0000</r>
       <r>   1.0242  1.0000</r>
       <r>   1.0407  1.0000</r>
       <r>   1.0407  1.0000</r>
       <r>   1.0411  1.0000</r>
       <r>   1.0411  1.0000</r>
       <r>   1.0425  1.0000</r>
       <r>   1.0426  1.0000</r>
       <r>   1.0429  1.0000</r>
       <r>   1.0429  1.0000</r>
       <r>   1.0691  1.0000</r>
       <r>   1.0691  1.0000</r>
       <r>   1.0709  1.0000</r>
       <r>   1.0709  1.0000</r>
       <r>   1.0709  1.0000</r>
       <r>   1.0710  1.0000</r>
       <r>   1.0728  1.0000</r>
       <r>   1.0728  1.0000</r>
       <r>   1.1686  1.0000</r>
       <r>   1.1686  1.0000</r>
       <r>   1.1700  1.0000</r>
       <r>   1.1700  1.0000</r>
       <r>   1.1700  1.0000</r>
       <r>   1.1701  1.0000</r>
       <r>   1.1715  1.0000</r>
       <r>   1.1715  1.0000</r>
       <r>   1.2335  1.0000</r>
       <r>   1.2335  1.0000</r>
       <r>   1.2336  1.0000</r>
       <r>   1.2336  1.0000</r>
       <r>   1.7539  1.0000</r>
       <r>   1.7539  1.0000</r>
       <r>   1.7539  1.0000</r>
       <r>   1.7540  1.0000</r>
       <r>   1.7936  1.0000</r>
       <r>   1.7936  1.0000</r>
       <r>   1.7942  1.0000</r>
       <r>   1.7942  1.0000</r>
       <r>   1.7943  1.0000</r>
       <r>   1.7943  1.0000</r>
       <r>   1.7949  1.0000</r>
       <r>   1.7949  1.0000</r>
       <r>   2.0012  1.0000</r>
       <r>   2.0012  1.0000</r>
       <r>   2.0019  1.0000</r>
       <r>   2.0020  1.0000</r>
       <r>   2.0020  1.0000</r>
       <r>   2.0020  1.0000</r>
       <r>   2.0027  1.0000</r>
       <r>   2.0027  1.0000</r>
       <r>   2.0165  1.0000</r>
       <r>   2.0165  1.0000</r>
       <r>   2.0165  1.0000</r>
       <r>   2.0166  1.0000</r>
       <r>   2.2240  1.0000</r>
       <r>   2.2240  1.0000</r>
       <r>   2.2240  1.0000</r>
       <r>   2.2240  1.0000</r>
       <r>   2.3536  1.0000</r>
       <r>   2.3537  1.0000</r>
       <r>   2.3537  1.0000</r>
       <r>   2.3537  1.0000</r>
       <r>   2.3801  1.0000</r>
       <r>   2.3801  1.0000</r>
       <r>   2.3801  1.0000</r>
       <r>   2.3802  1.0000</r>
       <r>   2.4872  1.0000</r>
       <r>   2.4872  1.0000</r>
       <r>   2.4872  1.0000</r>
       <r>   2.4873  1.0000</r>
       <r>   3.3800  1.0000</r>
       <r>   3.3800  1.0000</r>
       <r>   3.3802  1.0000</r>
       <r>   3.3802  1.0000</r>
       <r>   3.3802  1.0000</r>
       <r>   3.3802  1.0000</r>
       <r>   3.3803  1.0000</r>
       <r>   3.3803  1.0000</r>
       <r>   3.3901  1.0000</r>
       <r>   3.3901  1.0000</r>
       <r>   3.3902  1.0000</r>
       <r>   3.3902  1.0000</r>
       <r>   3.4045  1.0000</r>
       <r>   3.4045  1.0000</r>
       <r>   3.4045  1.0000</r>
       <r>   3.4045  1.0000</r>
       <r>   3.4096  1.0000</r>
       <r>   3.4096  1.0000</r>
       <r>   3.4097  1.0000</r>
       <r>   3.4097  1.0000</r>
       <r>   3.4097  1.0000</r>
       <r>   3.4097  1.0000</r>
       <r>   3.4099  1.0000</r>
       <r>   3.4099  1.0000</r>
       <r>   5.7025  0.0000</r>
       <r>   5.7025  0.0000</r>
       <r>   5.7025  0.0000</r>
       <r>   5.7026  0.0000</r>
       <r>   6.0578  0.0000</r>
       <r>   6.0578  0.0000</r>
       <r>   6.0583  0.0000</r>
       <r>   6.0583  0.0000</r>
       <r>   6.0583  0.0000</r>
       <r>   6.0583  0.0000</r>
       <r>   6.0588  0.0000</r>
       <r>   6.0588  0.0000</r>
       <r>   6.5639  0.0000</r>
       <r>   6.5639  0.0000</r>
       <r>   6.5646  0.0000</r>
       <r>   6.5646  0.0000</r>
       <r>   6.5646  0.0000</r>
       <r>   6.5646  0.0000</r>
       <r>   6.5653  0.0000</r>
       <r>   6.5653  0.0000</r>
       <r>   6.9240  0.0000</r>
       <r>   6.9240  0.0000</r>
       <r>   6.9240  0.0000</r>
       <r>   6.9240  0.0000</r>
       <r>  10.1747  0.0000</r>
       <r>  10.1747  0.0000</r>
       <r>  10.1747  0.0000</r>
       <r>  10.1747  0.0000</r>
       <r>  10.1747  0.0000</r>
       <r>  10.1747  0.0000</r>
       <r>  10.1747  0.0000</r>
       <r>  10.1747  0.0000</r>
       <r>  10.3555  0.0000</r>
       <r>  10.3555  0.0000</r>
       <r>  10.3555  0.0000</r>
       <r>  10.3555  0.0000</r>
       <r>  11.0488  0.0000</r>
       <r>  11.0488  0.0000</r>
       <r>  11.0488  0.0000</r>
       <r>  11.0488  0.0000</r>
       <r>  11.2200  0.0000</r>
       <r>  11.2200  0.0000</r>
       <r>  11.2200  0.0000</r>
       <r>  11.2200  0.0000</r>
       <r>  11.2200  0.0000</r>
       <r>  11.2200  0.0000</r>
       <r>  11.2201  0.0000</r>
       <r>  11.2201  0.0000</r>
      </set>
      <set comment="kpoint 196">
       <r>  -2.4344  1.0000</r>
       <r>  -2.4309  1.0000</r>
       <r>  -2.4309  1.0000</r>
       <r>  -2.4303  1.0000</r>
       <r>  -2.4299  1.0000</r>
       <r>  -2.4293  1.0000</r>
       <r>  -2.4293  1.0000</r>
       <r>  -2.4259  1.0000</r>
       <r>  -0.9008  1.0000</r>
       <r>  -0.9007  1.0000</r>
       <r>  -0.9007  1.0000</r>
       <r>  -0.9006  1.0000</r>
       <r>  -0.8999  1.0000</r>
       <r>  -0.8990  1.0000</r>
       <r>  -0.8982  1.0000</r>
       <r>  -0.8981  1.0000</r>
       <r>  -0.8981  1.0000</r>
       <r>  -0.8981  1.0000</r>
       <r>  -0.8981  1.0000</r>
       <r>  -0.8979  1.0000</r>
       <r>  -0.8978  1.0000</r>
       <r>  -0.8977  1.0000</r>
       <r>  -0.8977  1.0000</r>
       <r>  -0.8976  1.0000</r>
       <r>  -0.8976  1.0000</r>
       <r>  -0.8976  1.0000</r>
       <r>  -0.8968  1.0000</r>
       <r>  -0.8959  1.0000</r>
       <r>  -0.8952  1.0000</r>
       <r>  -0.8951  1.0000</r>
       <r>  -0.8951  1.0000</r>
       <r>  -0.8950  1.0000</r>
       <r>  -0.0353  1.0000</r>
       <r>  -0.0313  1.0000</r>
       <r>  -0.0309  1.0000</r>
       <r>  -0.0307  1.0000</r>
       <r>  -0.0307  1.0000</r>
       <r>  -0.0300  1.0000</r>
       <r>  -0.0295  1.0000</r>
       <r>  -0.0295  1.0000</r>
       <r>  -0.0293  1.0000</r>
       <r>  -0.0293  1.0000</r>
       <r>  -0.0293  1.0000</r>
       <r>  -0.0292  1.0000</r>
       <r>  -0.0292  1.0000</r>
       <r>  -0.0291  1.0000</r>
       <r>  -0.0291  1.0000</r>
       <r>  -0.0291  1.0000</r>
       <r>  -0.0288  1.0000</r>
       <r>  -0.0288  1.0000</r>
       <r>  -0.0284  1.0000</r>
       <r>  -0.0277  1.0000</r>
       <r>  -0.0277  1.0000</r>
       <r>  -0.0275  1.0000</r>
       <r>  -0.0271  1.0000</r>
       <r>  -0.0232  1.0000</r>
       <r>   0.6554  1.0000</r>
       <r>   0.6573  1.0000</r>
       <r>   0.6579  1.0000</r>
       <r>   0.6579  1.0000</r>
       <r>   0.6581  1.0000</r>
       <r>   0.6581  1.0000</r>
       <r>   0.6587  1.0000</r>
       <r>   0.6606  1.0000</r>
       <r>   1.0252  1.0000</r>
       <r>   1.0252  1.0000</r>
       <r>   1.0257  1.0000</r>
       <r>   1.0260  1.0000</r>
       <r>   1.0267  1.0000</r>
       <r>   1.0268  1.0000</r>
       <r>   1.0269  1.0000</r>
       <r>   1.0269  1.0000</r>
       <r>   1.0273  1.0000</r>
       <r>   1.0273  1.0000</r>
       <r>   1.0274  1.0000</r>
       <r>   1.0275  1.0000</r>
       <r>   1.0282  1.0000</r>
       <r>   1.0284  1.0000</r>
       <r>   1.0288  1.0000</r>
       <r>   1.0288  1.0000</r>
       <r>   1.1134  1.0000</r>
       <r>   1.1134  1.0000</r>
       <r>   1.1147  1.0000</r>
       <r>   1.1150  1.0000</r>
       <r>   1.1168  1.0000</r>
       <r>   1.1177  1.0000</r>
       <r>   1.1177  1.0000</r>
       <r>   1.1177  1.0000</r>
       <r>   1.1178  1.0000</r>
       <r>   1.1178  1.0000</r>
       <r>   1.1179  1.0000</r>
       <r>   1.1179  1.0000</r>
       <r>   1.1180  1.0000</r>
       <r>   1.1180  1.0000</r>
       <r>   1.1181  1.0000</r>
       <r>   1.1181  1.0000</r>
       <r>   1.1181  1.0000</r>
       <r>   1.1181  1.0000</r>
       <r>   1.1182  1.0000</r>
       <r>   1.1191  1.0000</r>
       <r>   1.1210  1.0000</r>
       <r>   1.1213  1.0000</r>
       <r>   1.1226  1.0000</r>
       <r>   1.1226  1.0000</r>
       <r>   1.8790  1.0000</r>
       <r>   1.8807  1.0000</r>
       <r>   1.8807  1.0000</r>
       <r>   1.8834  1.0000</r>
       <r>   1.8835  1.0000</r>
       <r>   1.8836  1.0000</r>
       <r>   1.8836  1.0000</r>
       <r>   1.8840  1.0000</r>
       <r>   1.8841  1.0000</r>
       <r>   1.8842  1.0000</r>
       <r>   1.8842  1.0000</r>
       <r>   1.8842  1.0000</r>
       <r>   1.8843  1.0000</r>
       <r>   1.8843  1.0000</r>
       <r>   1.8843  1.0000</r>
       <r>   1.8843  1.0000</r>
       <r>   1.8845  1.0000</r>
       <r>   1.8848  1.0000</r>
       <r>   1.8848  1.0000</r>
       <r>   1.8849  1.0000</r>
       <r>   1.8852  1.0000</r>
       <r>   1.8878  1.0000</r>
       <r>   1.8878  1.0000</r>
       <r>   1.8894  1.0000</r>
       <r>   2.3501  1.0000</r>
       <r>   2.3518  1.0000</r>
       <r>   2.3519  1.0000</r>
       <r>   2.3519  1.0000</r>
       <r>   2.3532  1.0000</r>
       <r>   2.3532  1.0000</r>
       <r>   2.3534  1.0000</r>
       <r>   2.3536  1.0000</r>
       <r>   2.3537  1.0000</r>
       <r>   2.3538  1.0000</r>
       <r>   2.3541  1.0000</r>
       <r>   2.3541  1.0000</r>
       <r>   2.3554  1.0000</r>
       <r>   2.3554  1.0000</r>
       <r>   2.3555  1.0000</r>
       <r>   2.3572  1.0000</r>
       <r>   3.4057  1.0000</r>
       <r>   3.4057  1.0000</r>
       <r>   3.4060  1.0000</r>
       <r>   3.4063  1.0000</r>
       <r>   3.4063  1.0000</r>
       <r>   3.4063  1.0000</r>
       <r>   3.4063  1.0000</r>
       <r>   3.4063  1.0000</r>
       <r>   3.4065  1.0000</r>
       <r>   3.4066  1.0000</r>
       <r>   3.4066  1.0000</r>
       <r>   3.4067  1.0000</r>
       <r>   3.4068  1.0000</r>
       <r>   3.4069  1.0000</r>
       <r>   3.4069  1.0000</r>
       <r>   3.4070  1.0000</r>
       <r>   3.4071  1.0000</r>
       <r>   3.4072  1.0000</r>
       <r>   3.4072  1.0000</r>
       <r>   3.4072  1.0000</r>
       <r>   3.4072  1.0000</r>
       <r>   3.4075  1.0000</r>
       <r>   3.4078  1.0000</r>
       <r>   3.4078  1.0000</r>
       <r>   6.2949  0.0000</r>
       <r>   6.2977  0.0000</r>
       <r>   6.2977  0.0000</r>
       <r>   6.2997  0.0000</r>
       <r>   6.3004  0.0000</r>
       <r>   6.3006  0.0000</r>
       <r>   6.3006  0.0000</r>
       <r>   6.3006  0.0000</r>
       <r>   6.3007  0.0000</r>
       <r>   6.3007  0.0000</r>
       <r>   6.3008  0.0000</r>
       <r>   6.3008  0.0000</r>
       <r>   6.3011  0.0000</r>
       <r>   6.3011  0.0000</r>
       <r>   6.3011  0.0000</r>
       <r>   6.3012  0.0000</r>
       <r>   6.3012  0.0000</r>
       <r>   6.3013  0.0000</r>
       <r>   6.3013  0.0000</r>
       <r>   6.3015  0.0000</r>
       <r>   6.3022  0.0000</r>
       <r>   6.3042  0.0000</r>
       <r>   6.3042  0.0000</r>
       <r>   6.3069  0.0000</r>
       <r>  10.6762  0.0000</r>
       <r>  10.6762  0.0000</r>
       <r>  10.6797  0.0000</r>
       <r>  10.6799  0.0000</r>
       <r>  10.6805  0.0000</r>
       <r>  10.6810  0.0000</r>
       <r>  10.6810  0.0000</r>
       <r>  10.6817  0.0000</r>
       <r>  10.6818  0.0000</r>
       <r>  10.6818  0.0000</r>
       <r>  10.6818  0.0000</r>
       <r>  10.6818  0.0000</r>
       <r>  10.6818  0.0000</r>
       <r>  10.6819  0.0000</r>
       <r>  10.6819  0.0000</r>
       <r>  10.6819  0.0000</r>
       <r>  10.6819  0.0000</r>
       <r>  10.6827  0.0000</r>
       <r>  10.6827  0.0000</r>
       <r>  10.6831  0.0000</r>
       <r>  10.6837  0.0000</r>
       <r>  10.6840  0.0000</r>
       <r>  10.6875  0.0000</r>
       <r>  10.6875  0.0000</r>
      </set>
     </set>
    </set>
   </array>
  </eigenvalues>
 </calculation>
 <structure name="finalpos" >
  <crystal>
   <varray name="basis" >
    <v>       8.26224677      0.00000000      0.00000000</v>
    <v>       0.00000000      8.26224677      0.00000000</v>
    <v>       0.00000000      0.00000000      8.26224677</v>
   </varray>
   <i name="volume">    564.01997558</i>
   <varray name="rec_basis" >
    <v>       0.12103245      0.00000000      0.00000000</v>
    <v>       0.00000000      0.12103245      0.00000000</v>
    <v>       0.00000000      0.00000000      0.12103245</v>
   </varray>
  </crystal>
  <varray name="positions" >
   <v>       0.00121032      0.00000000      0.00000000</v>
   <v>       0.50000000      0.00000000      0.00000000</v>
   <v>       0.00000000      0.50000000      0.00000000</v>
   <v>       0.50000000      0.50000000      0.00000000</v>
   <v>       0.00000000      0.00000000      0.50000000</v>
   <v>       0.50000000      0.00000000      0.50000000</v>
   <v>       0.00000000      0.50000000      0.50000000</v>
   <v>       0.50000000      0.50000000      0.50000000</v>
   <v>       0.25000000      0.25000000      0.00000000</v>
   <v>       0.75000000      0.25000000      0.00000000</v>
   <v>       0.25000000      0.75000000      0.00000000</v>
   <v>       0.75000000      0.75000000      0.00000000</v>
   <v>       0.25000000      0.25000000      0.50000000</v>
   <v>       0.75000000      0.25000000      0.50000000</v>
   <v>       0.25000000      0.75000000      0.50000000</v>
   <v>       0.75000000      0.75000000      0.50000000</v>
   <v>       0.25000000      0.00000000      0.25000000</v>
   <v>       0.75000000      0.00000000      0.25000000</v>
   <v>       0.25000000      0.50000000      0.25000000</v>
   <v>       0.75000000      0.50000000      0.25000000</v>
   <v>       0.25000000      0.00000000      0.75000000</v>
   <v>       0.75000000      0.00000000      0.75000000</v>
   <v>       0.25000000      0.50000000      0.75000000</v>
   <v>       0.75000000      0.50000000      0.75000000</v>
   <v>       0.00000000      0.25000000      0.25000000</v>
   <v>       0.50000000      0.25000000      0.25000000</v>
   <v>       0.00000000      0.75000000      0.25000000</v>
   <v>       0.50000000      0.75000000      0.25000000</v>
   <v>       0.00000000      0.25000000      0.75000000</v>
   <v>       0.50000000      0.25000000      0.75000000</v>
   <v>       0.00000000      0.75000000      0.75000000</v>
   <v>       0.50000000      0.75000000      0.75000000</v>
  </varray>
 </structure>
</modeling>
