    4    4    1    1
  0.1410542E+02  0.3835441E-09  0.3835441E-09  0.3835441E-09  0.5000000E-15
  1.000000000000000E-004
  CAR 
 unknown system                          
   12   84   16
 
  0.0000000E+00  0.0000000E+00  0.0000000E+00  0.4551661E-03
   1       -2.5256
   2        6.4351
   3        6.4351
   4        6.4351
   5        8.0623
   6        8.0623
   7        8.0623
   8       15.0230
   9       15.0230
  10       15.0230
  11       16.1239
  12       16.1239
  13       16.1239
  14       16.1239
  15       16.1239
  16       16.1239
 
  0.7692308E-01  0.0000000E+00  0.0000000E+00  0.2730997E-02
   1       -2.4661
   2        5.6328
   3        6.4884
   4        6.4884
   5        8.1161
   6        8.1161
   7        8.9635
   8       14.1105
   9       14.1105
  10       15.0819
  11       15.7583
  12       15.7583
  13       16.1724
  14       16.1724
  15       17.1468
  16       17.1468
 
  0.1538462E+00  0.0000000E+00  0.0000000E+00  0.2730997E-02
   1       -2.2878
   2        4.4310
   3        6.6483
   4        6.6483
   5        8.2759
   6        8.2759
   7       10.4622
   8       12.9118
   9       12.9118
  10       14.9435
  11       14.9435
  12       15.2584
  13       16.3180
  14       16.3180
  15       18.6763
  16       18.6763
 
  0.2307692E+00  0.0000000E+00  0.0000000E+00  0.2730997E-02
   1       -1.9913
   2        3.2688
   3        6.9150
   4        6.9150
   5        8.5349
   6        8.5349
   7       11.7910
   8       11.7910
   9       12.1188
  10       14.0130
  11       14.0130
  12       15.5522
  13       16.5608
  14       16.5608
  15       20.3469
  16       20.3469
 
  0.3076923E+00  0.0000000E+00  0.0000000E+00  0.2730997E-02
   1       -1.5774
   2        2.1947
   3        7.2887
   4        7.2887
   5        8.8765
   6        8.8765
   7       10.7720
   8       10.7720
   9       13.1181
  10       13.1181
  11       13.8838
  12       15.9629
  13       16.9010
  14       16.9010
  15       19.7039
  16       20.0481
 
  0.3846154E+00  0.0000000E+00  0.0000000E+00  0.2730997E-02
   1       -1.0474
   2        1.2213
   3        7.7697
   4        7.7697
   5        9.2584
   6        9.2584
   7        9.8595
   8        9.8595
   9       12.3513
  10       12.3513
  11       15.7426
  12       16.4895
  13       17.3387
  14       17.3387
  15       18.7441
  16       19.2314
 
  0.4615385E+00  0.0000000E+00  0.0000000E+00  0.2730997E-02
   1       -0.4028
   2        0.3542
   3        8.3584
   4        8.3584
   5        9.0549
   6        9.0549
   7        9.5612
   8        9.5612
   9       11.8523
  10       11.8523
  11       17.1305
  12       17.6849
  13       17.8736
  14       17.8736
  15       17.8835
  16       18.5051
 
  0.7692308E-01  0.7692308E-01  0.0000000E+00  0.5461994E-02
   1       -2.4066
   2        5.6874
   3        5.6874
   4        6.5417
   5        8.1689
   6        9.0155
   7        9.0155
   8       13.3863
   9       14.1661
  10       14.1661
  11       15.8090
  12       15.8090
  13       16.2222
  14       17.1211
  15       17.1985
  16       17.1985
 
  0.1538462E+00  0.7692308E-01  0.0000000E+00  0.1092399E-01
   1       -2.2285
   2        4.4867
   3        5.8508
   4        6.7016
   5        8.3244
   6        9.1694
   7       10.5108
   8       12.2646
   9       12.9665
  10       14.3327
  11       14.9989
  12       15.6461
  13       15.9613
  14       17.3538
  15       18.2951
  16       18.7287
 
  0.2307692E+00  0.7692308E-01  0.0000000E+00  0.1092399E-01
   1       -1.9321
   2        3.3253
   3        6.1227
   4        6.9684
   5        8.5695
   6        9.4173
   7       11.1888
   8       11.8453
   9       12.1612
  10       14.0762
  11       14.6101
  12       14.7214
  13       16.2167
  14       17.6127
  15       19.5413
  16       19.8971
 
  0.3076923E+00  0.7692308E-01  0.0000000E+00  0.1092399E-01
   1       -1.5184
   2        2.2517
   3        6.5017
   4        7.3422
   5        8.8513
   6        9.7382
   7       10.2569
   8       10.8261
   9       13.1980
  10       13.8089
  11       13.9122
  12       14.9976
  13       16.5798
  14       17.9754
  15       18.5365
  16       19.6804
 
  0.3846154E+00  0.7692308E-01  0.0000000E+00  0.1092399E-01
   1       -0.9887
   2        1.2788
   3        6.9854
   4        7.8233
   5        8.8337
   6        9.7949
   7        9.9135
   8       10.0693
   9       12.4800
  10       12.9947
  11       15.4943
  12       15.7230
  13       17.0765
  14       17.6235
  15       18.4419
  16       18.8497
 
  0.4615385E+00  0.7692308E-01  0.0000000E+00  0.1092399E-01
   1       -0.3444
   2        0.4123
   3        7.5680
   4        8.2288
   5        8.4120
   6        9.1087
   7       10.0267
   8       10.2254
   9       12.1340
  10       12.3683
  11       16.0989
  12       16.8095
  13       17.2713
  14       18.0192
  15       18.0863
  16       19.0115
 
  0.1538462E+00  0.1538462E+00  0.0000000E+00  0.5461994E-02
   1       -2.0506
   2        4.6534
   3        4.6534
   4        6.8617
   5        8.4604
   6       10.6527
   7       10.6527
   8       11.2014
   9       13.1305
  10       13.1305
  11       15.1669
  12       15.1669
  13       16.5174
  14       17.9306
  15       18.8859
  16       18.8859
 
  0.2307692E+00  0.1538462E+00  0.0000000E+00  0.1092399E-01
   1       -1.7546
   2        3.4944
   3        4.9306
   4        7.1286
   5        8.6283
   6       10.2202
   7       10.8724
   8       12.0083
   9       12.2789
  10       13.4038
  11       14.2725
  12       15.4554
  13       16.0125
  14       18.3248
  15       19.0634
  16       19.1478
 
  0.3076923E+00  0.1538462E+00  0.0000000E+00  0.1092399E-01
   1       -1.3416
   2        2.4228
   3        5.3171
   4        7.5026
   5        8.5151
   6        9.7000
   7       10.9884
   8       11.1179
   9       13.4659
  10       13.7859
  11       13.9641
  12       15.1436
  13       15.8974
  14       17.3090
  15       18.8713
  16       19.5138
 
  0.3846154E+00  0.1538462E+00  0.0000000E+00  0.1092399E-01
   1       -0.8126
   2        1.4515
   3        5.8107
   4        7.8532
   5        7.9840
   6        9.9167
   7       10.0753
   8       11.2137
   9       12.9757
  10       14.2767
  11       14.3117
  12       15.5041
  13       16.3933
  14       16.6814
  15       18.0257
  16       19.9827
 
  0.4615385E+00  0.1538462E+00  0.0000000E+00  0.1092399E-01
   1       -0.1693
   2        0.5862
   3        6.4075
   4        7.0983
   5        8.5730
   6        9.2701
   7       10.3970
   8       10.9129
   9       13.0729
  10       13.5927
  11       14.8755
  12       15.5815
  13       16.4854
  14       17.2428
  15       18.2102
  16       20.1362
 
  0.2307692E+00  0.2307692E+00  0.0000000E+00  0.5461994E-02
   1       -1.4595
   2        3.7757
   3        3.7757
   4        7.3957
   5        8.4065
   6        9.6347
   7       12.2799
   8       12.2799
   9       12.4259
  10       12.4259
  11       14.6381
  12       14.6381
  13       17.0105
  14       17.2018
  15       18.6715
  16       18.8543
 
  0.3076923E+00  0.2307692E+00  0.0000000E+00  0.1092399E-01
   1       -1.0474
   2        2.7073
   3        4.1680
   4        7.6490
   5        7.7701
   6        9.7634
   7       11.2590
   8       12.4295
   9       12.6600
  10       13.8641
  11       14.0732
  12       15.3350
  13       16.1797
  14       16.6189
  15       17.9457
  16       19.8473
 
  0.3846154E+00  0.2307692E+00  0.0000000E+00  0.1092399E-01
   1       -0.5198
   2        1.7386
   3        4.6698
   4        6.7896
   5        8.2519
   6       10.1885
   7       10.3450
   8       12.0242
   9       13.1486
  10       14.0786
  11       14.8480
  12       15.2618
  13       15.8490
  14       16.6846
  15       17.0908
  16       21.5925
 
  0.4615385E+00  0.2307692E+00  0.0000000E+00  0.1092399E-01
   1        0.1219
   2        0.8756
   3        5.2781
   4        5.9883
   5        8.8415
   6        9.5392
   7       10.7475
   8       11.3866
   9       13.7454
  10       14.4500
  11       14.5005
  12       15.1177
  13       15.5756
  14       16.3033
  15       18.4758
  16       20.4350
 
  0.3076923E+00  0.3076923E+00  0.0000000E+00  0.5461994E-02
   1       -0.6368
   2        3.1042
   3        3.1042
   4        6.6845
   5        8.1449
   6       10.1004
   7       11.6378
   8       11.6378
   9       13.3430
  10       13.3430
  11       15.1545
  12       15.2964
  13       15.2964
  14       17.0290
  15       17.7027
  16       19.5428
 
  0.3846154E+00  0.3076923E+00  0.0000000E+00  0.1092399E-01
   1       -0.1110
   2        2.1393
   3        3.6122
   4        5.7740
   5        8.6273
   6       10.5790
   7       10.7229
   8       12.1249
   9       12.5990
  10       14.0061
  11       14.2356
  12       15.6358
  13       16.1666
  14       16.9680
  15       17.4369
  16       20.7790
 
  0.4615385E+00  0.3076923E+00  0.0000000E+00  0.1092399E-01
   1        0.5284
   2        1.2794
   3        4.2291
   4        4.9516
   5        9.2176
   6        9.9161
   7       11.1686
   8       11.8510
   9       12.7204
  10       13.4240
  11       14.6607
  12       15.3761
  13       16.1537
  14       16.7794
  15       18.8275
  16       20.7739
 
  0.3846154E+00  0.3846154E+00  0.0000000E+00  0.5461994E-02
   1        0.4125
   2        2.6523
   3        2.6523
   4        4.8419
   5        9.1105
   6       11.0793
   7       11.2088
   8       11.2088
   9       13.1646
  10       13.1646
  11       13.3166
  12       15.2983
  13       17.3954
  14       17.3954
  15       18.5955
  16       20.5897
 
  0.4615385E+00  0.3846154E+00  0.0000000E+00  0.1092399E-01
   1        1.0490
   2        1.7966
   3        3.2757
   4        4.0069
   5        9.7016
   6       10.4010
   7       11.6830
   8       11.8031
   9       12.3824
  10       12.5057
  11       13.7940
  12       14.5048
  13       17.9171
  14       18.4586
  15       19.2518
  16       21.0962
 
  0.4615385E+00  0.4615385E+00  0.0000000E+00  0.5461994E-02
   1        1.6820
   2        2.4252
   3        2.4252
   4        3.1631
   5       10.2937
   6       10.9942
   7       10.9942
   8       11.6957
   9       12.2947
  10       13.0008
  11       13.0008
  12       13.7096
  13       19.6798
  14       19.6798
  15       19.6904
  16       20.9877
 
  0.7692308E-01  0.7692308E-01  0.7692308E-01  0.3641329E-02
   1       -2.3472
   2        5.7419
   3        5.7419
   4        5.7419
   5        9.0661
   6        9.0661
   7        9.0661
   8       13.4425
   9       13.4425
  10       13.4425
  11       16.2707
  12       16.2707
  13       16.2707
  14       17.1766
  15       17.1766
  16       17.1766
 
  0.1538462E+00  0.7692308E-01  0.7692308E-01  0.1092399E-01
   1       -2.1691
   2        4.5423
   3        5.9051
   4        5.9051
   5        9.2137
   6        9.2137
   7       10.5560
   8       12.3241
   9       12.3241
  10       13.6123
  11       15.6988
  12       15.6988
  13       16.4164
  14       17.3432
  15       18.3493
  16       18.3493
 
  0.2307692E+00  0.7692308E-01  0.7692308E-01  0.1092399E-01
   1       -1.8729
   2        3.3817
   3        6.1764
   4        6.1764
   5        9.4378
   6        9.4378
   7       11.2617
   8       11.2617
   9       12.1912
  10       13.9032
  11       14.7793
  12       14.7793
  13       16.6593
  14       17.6211
  15       18.7253
  16       19.9502
 
  0.3076923E+00  0.7692308E-01  0.7692308E-01  0.1092399E-01
   1       -1.4594
   2        2.3088
   3        6.5540
   4        6.5540
   5        9.5973
   6        9.5973
   7       10.4404
   8       10.4404
   9       13.8271
  10       13.8760
  11       13.8760
  12       14.4077
  13       16.9997
  14       17.7283
  15       18.0112
  16       20.1499
 
  0.3846154E+00  0.7692308E-01  0.7692308E-01  0.1092399E-01
   1       -0.9300
   2        1.3364
   3        7.0330
   4        7.0330
   5        9.1104
   6        9.1104
   7       10.4258
   8       10.4258
   9       13.0864
  10       13.0864
  11       14.6744
  12       15.8938
  13       16.8222
  14       17.4376
  15       18.5184
  16       19.3321
 
  0.4615385E+00  0.7692308E-01  0.7692308E-01  0.1092399E-01
   1       -0.2860
   2        0.4703
   3        7.5835
   4        7.5835
   5        8.4029
   6        8.4029
   7       10.7113
   8       10.7113
   9       12.5475
  10       12.5475
  11       15.3018
  12       16.0131
  13       17.7533
  14       17.9729
  15       18.6050
  16       19.1696
 
  0.1538462E+00  0.1538462E+00  0.7692308E-01  0.1092399E-01
   1       -1.9913
   2        4.7088
   3        4.7088
   4        6.0675
   5        9.3299
   6       10.6796
   7       10.6796
   8       11.2793
   9       12.5107
  10       12.5107
  11       15.8576
  12       15.8576
  13       16.5660
  14       17.9889
  15       18.5117
  16       18.5117
 
  0.2307692E+00  0.1538462E+00  0.7692308E-01  0.2184797E-01
   1       -1.6956
   2        3.5507
   3        4.9856
   4        6.3366
   5        9.3761
   6       10.4170
   7       10.7658
   8       11.5688
   9       12.1834
  10       12.9212
  11       14.9558
  12       16.0654
  13       16.1246
  14       17.5833
  15       18.7824
  16       19.1186
 
  0.3076923E+00  0.1538462E+00  0.7692308E-01  0.2184797E-01
   1       -1.2827
   2        2.4797
   3        5.3713
   4        6.7075
   5        8.8463
   6       10.1972
   7       10.3138
   8       11.4339
   9       13.0033
  10       14.0899
  11       14.2164
  12       15.2013
  13       16.5095
  14       16.5800
  15       19.1609
  16       19.6196
 
  0.3846154E+00  0.1538462E+00  0.7692308E-01  0.2184797E-01
   1       -0.7540
   2        1.5089
   3        5.8629
   4        7.1479
   5        8.0661
   6        9.3452
   7       10.6821
   8       11.6537
   9       13.4204
  10       13.5423
  11       14.3780
  12       15.6710
  13       15.9172
  14       17.0698
  15       18.7771
  16       19.6475
 
  0.4615385E+00  0.1538462E+00  0.7692308E-01  0.2184797E-01
   1       -0.1110
   2        0.6441
   3        6.4528
   4        7.0959
   5        7.9223
   6        8.5619
   7       11.1678
   8       11.5964
   9       13.2608
  10       13.6837
  11       14.1530
  12       14.8615
  13       17.2161
  14       18.0000
  15       18.2412
  16       20.0464
 
  0.2307692E+00  0.2307692E+00  0.7692308E-01  0.1092399E-01
   1       -1.4005
   2        3.8317
   3        3.8317
   4        6.5987
   5        8.7484
   6       10.2434
   7       11.4979
   8       11.4979
   9       12.7146
  10       12.7146
  11       15.2654
  12       15.2654
  13       16.4885
  14       17.0592
  15       18.7299
  16       19.6214
 
  0.3076923E+00  0.2307692E+00  0.7692308E-01  0.2184797E-01
   1       -0.9887
   2        2.7640
   3        4.2236
   4        6.9299
   5        7.8720
   6       10.5337
   7       10.5352
   8       11.9386
   9       12.8491
  10       14.2730
  11       14.5234
  12       15.4795
  13       15.7769
  14       16.6715
  15       18.7126
  16       19.9020
 
  0.3846154E+00  0.2307692E+00  0.7692308E-01  0.2184797E-01
   1       -0.4613
   2        1.7959
   3        4.7244
   4        6.7825
   5        7.6113
   6        9.6358
   7       10.9867
   8       12.4450
   9       12.7006
  10       14.2628
  11       14.5674
  12       15.5399
  13       15.9059
  14       16.8195
  15       17.8581
  16       21.2113
 
  0.4615385E+00  0.2307692E+00  0.7692308E-01  0.2184797E-01
   1        0.1801
   2        0.9334
   3        5.3306
   4        6.0333
   5        8.1438
   6        8.8342
   7       11.5435
   8       12.1589
   9       13.0494
  10       13.7567
  11       14.5884
  12       15.1825
  13       16.3388
  14       17.0719
  15       18.5224
  16       20.4555
 
  0.3076923E+00  0.3076923E+00  0.7692308E-01  0.1092399E-01
   1       -0.5783
   2        3.1607
   3        3.1607
   4        6.6765
   5        7.5057
   6       10.9016
   7       10.9348
   8       10.9348
   9       14.0191
  10       14.0191
  11       14.4667
  12       15.4665
  13       15.4665
  14       17.7514
  15       17.7967
  16       19.5997
 
  0.3846154E+00  0.3076923E+00  0.7692308E-01  0.2184797E-01
   1       -0.0527
   2        2.1964
   3        3.6681
   4        5.8190
   5        7.9305
   6       10.0242
   7       11.3843
   8       11.4323
   9       13.3641
  10       13.5524
  11       14.7671
  12       15.7179
  13       16.9352
  14       17.0392
  15       17.4887
  16       20.8320
 
  0.4615385E+00  0.3076923E+00  0.7692308E-01  0.2184797E-01
   1        0.5864
   2        1.3370
   3        4.2841
   4        5.0043
   5        8.5158
   6        9.2162
   7       11.9688
   8       12.0339
   9       12.6401
  10       12.7408
  11       15.4325
  12       16.1469
  13       16.2159
  14       16.8350
  15       18.8768
  16       20.8141
 
  0.3846154E+00  0.3846154E+00  0.7692308E-01  0.1092399E-01
   1        0.4705
   2        2.7090
   3        2.7090
   4        4.8947
   5        8.4088
   6       10.5177
   7       10.5177
   8       11.8825
   9       12.6366
  10       13.9435
  11       13.9435
  12       16.0688
  13       17.4532
  14       17.4532
  15       18.6441
  16       20.6437
 
  0.4615385E+00  0.3846154E+00  0.7692308E-01  0.2184797E-01
   1        1.1067
   2        1.8538
   3        3.3319
   4        4.0621
   5        9.0030
   6        9.7070
   7       11.1178
   8       11.8244
   9       12.4801
  10       13.1713
  11       14.5718
  12       15.2787
  13       17.9705
  14       18.5094
  15       19.3014
  16       21.1417
 
  0.4615385E+00  0.4615385E+00  0.7692308E-01  0.1092399E-01
   1        1.7394
   2        2.4821
   3        2.4821
   4        3.2194
   5        9.6003
   6       10.3059
   7       10.3059
   8       11.0121
   9       13.0858
  10       13.7851
  11       13.7851
  12       14.4884
  13       19.7289
  14       19.7289
  15       19.7386
  16       21.0349
 
  0.1538462E+00  0.1538462E+00  0.1538462E+00  0.3641329E-02
   1       -1.8138
   2        4.8748
   3        4.8748
   4        4.8748
   5       10.6556
   6       10.6556
   7       10.6556
   8       11.6055
   9       11.6055
  10       11.6055
  11       16.7119
  12       16.7119
  13       16.7119
  14       17.5481
  15       18.1639
  16       18.1639
 
  0.2307692E+00  0.1538462E+00  0.1538462E+00  0.1092399E-01
   1       -1.5185
   2        3.7193
   3        5.1502
   4        5.1502
   5       10.0426
   6       10.0426
   7       11.3935
   8       11.3935
   9       11.4434
  10       12.7364
  11       16.2245
  12       16.2245
  13       16.4632
  14       16.9552
  15       18.4552
  16       19.2839
 
  0.3076923E+00  0.1538462E+00  0.1538462E+00  0.1092399E-01
   1       -1.1062
   2        2.6504
   3        5.5326
   4        5.5326
   5        9.1160
   6        9.1160
   7       11.6650
   8       11.6650
   9       11.9078
  10       14.4037
  11       15.3772
  12       15.3772
  13       15.4591
  14       17.2960
  15       18.8630
  16       20.4546
 
  0.3846154E+00  0.1538462E+00  0.1538462E+00  0.1092399E-01
   1       -0.5783
   2        1.6812
   3        6.0144
   4        6.0144
   5        8.2348
   6        8.2348
   7       12.0596
   8       12.0596
   9       12.4220
  10       14.5491
  11       14.5901
  12       14.5901
  13       16.2109
  14       17.7346
  15       19.3909
  16       19.6336
 
  0.4615385E+00  0.1538462E+00  0.1538462E+00  0.1092399E-01
   1        0.0637
   2        0.8178
   3        6.5484
   4        6.5484
   5        7.4961
   6        7.4961
   7       12.4262
   8       12.4262
   9       13.0298
  10       13.7386
  11       14.0244
  12       14.0244
  13       18.0746
  14       18.2709
  15       18.9044
  16       19.8262
 
  0.2307692E+00  0.2307692E+00  0.1538462E+00  0.1092399E-01
   1       -1.2238
   2        3.9995
   3        3.9995
   4        5.4222
   5        9.0257
   6       10.4128
   7       10.4128
   8       11.6028
   9       12.9306
  10       12.9306
  11       15.3744
  12       16.4922
  13       16.4922
  14       17.2052
  15       18.9048
  16       19.5586
 
  0.3076923E+00  0.2307692E+00  0.1538462E+00  0.2184797E-01
   1       -0.8126
   2        2.9341
   3        4.3897
   4        5.7943
   5        8.0437
   6        9.4185
   7       10.8235
   8       11.9557
   9       13.2307
  10       14.3668
  11       14.6279
  12       15.6862
  13       16.8294
  14       16.8782
  15       19.9414
  16       19.9855
 
  0.3846154E+00  0.2307692E+00  0.1538462E+00  0.2184797E-01
   1       -0.2860
   2        1.9677
   3        4.8870
   4        6.2197
   5        7.1981
   6        8.5115
   7       11.3270
   8       12.4109
   9       13.4539
  10       13.5091
  11       15.0296
  12       16.0792
  13       16.3504
  14       17.4444
  15       19.1506
  16       20.4305
 
  0.4615385E+00  0.2307692E+00  0.1538462E+00  0.2184797E-01
   1        0.3544
   2        1.1065
   3        5.4827
   4        6.1251
   5        7.0768
   6        7.7126
   7       11.9324
   8       12.6416
   9       12.9348
  10       13.4172
  11       14.9203
  12       15.3891
  13       17.6078
  14       18.3777
  15       18.6482
  16       20.4461
 
  0.3076923E+00  0.3076923E+00  0.1538462E+00  0.1092399E-01
   1       -0.4028
   2        3.3297
   3        3.3297
   4        6.1100
   5        7.0951
   6        9.8135
   7        9.8135
   8       12.3400
   9       13.3557
  10       14.8200
  11       14.8200
  12       16.2046
  13       16.2046
  14       17.8975
  15       19.1319
  16       19.7697
 
  0.3846154E+00  0.3076923E+00  0.1538462E+00  0.2184797E-01
   1        0.1220
   2        2.3674
   3        3.8355
   4        5.9104
   5        6.8615
   6        8.8977
   7       10.3120
   8       12.4402
   9       12.8211
  10       14.6227
  11       16.0274
  12       16.0325
  13       17.2993
  14       17.6447
  15       18.2921
  16       20.9900
 
  0.4615385E+00  0.3076923E+00  0.1538462E+00  0.2184797E-01
   1        0.7601
   2        1.5095
   3        4.4477
   4        5.1572
   5        7.3898
   6        8.0861
   7       10.9162
   8       11.6261
   9       13.3914
  10       14.0260
  11       16.4132
  12       16.7928
  13       17.0039
  14       17.5139
  15       19.0219
  16       20.9214
 
  0.3846154E+00  0.3846154E+00  0.1538462E+00  0.1092399E-01
   1        0.6444
   2        2.8789
   3        2.8789
   4        5.0479
   5        7.2812
   6        9.3930
   7        9.3930
   8       11.5226
   9       13.3186
  10       15.3196
  11       15.3196
  12       17.4481
  13       17.6340
  14       17.6340
  15       18.7900
  16       20.8045
 
  0.4615385E+00  0.3846154E+00  0.1538462E+00  0.2184797E-01
   1        1.2796
   2        2.0255
   3        3.4999
   4        4.2262
   5        7.8703
   6        8.5773
   7        9.9965
   8       10.7070
   9       13.9077
  10       14.5821
  11       15.9659
  12       16.6697
  13       18.1322
  14       18.6621
  15       19.4492
  16       21.2748
 
  0.4615385E+00  0.4615385E+00  0.1538462E+00  0.1092399E-01
   1        1.9112
   2        2.6524
   3        2.6524
   4        3.3876
   5        8.4696
   6        9.1797
   7        9.1797
   8        9.8904
   9       14.5086
  10       15.1971
  11       15.1971
  12       15.8929
  13       19.8757
  14       19.8757
  15       19.8832
  16       21.1756
 
  0.2307692E+00  0.2307692E+00  0.2307692E+00  0.3641329E-02
   1       -0.9300
   2        4.2779
   3        4.2779
   4        4.2779
   5        9.3309
   6        9.3309
   7        9.3309
   8       13.2062
   9       13.2062
  10       13.2062
  11       14.2843
  12       17.4489
  13       17.4489
  14       17.4489
  15       19.1950
  16       19.1950
 
  0.3076923E+00  0.2307692E+00  0.2307692E+00  0.1092399E-01
   1       -0.5198
   2        3.2167
   3        4.6643
   4        4.6643
   5        8.3220
   6        8.3220
   7        9.7275
   8       13.2738
   9       13.5657
  10       13.5657
  11       14.9341
  12       17.0951
  13       17.0951
  14       17.7903
  15       19.5994
  16       20.3362
 
  0.3846154E+00  0.2307692E+00  0.2307692E+00  0.1092399E-01
   1        0.0055
   2        2.2533
   3        5.1506
   4        5.1506
   5        7.4145
   6        7.4145
   7       10.2272
   8       12.3581
   9       13.9921
  10       13.9921
  11       16.3829
  12       16.3829
  13       16.7481
  14       18.2297
  15       20.1180
  16       20.1345
 
  0.4615385E+00  0.2307692E+00  0.2307692E+00  0.1092399E-01
   1        0.6443
   2        1.3945
   3        5.6861
   4        5.6861
   5        6.6671
   6        6.6671
   7       10.8325
   8       11.5434
   9       14.3868
  10       14.3868
  11       15.8187
  12       15.8187
  13       18.6051
  14       18.7673
  15       19.4026
  16       20.3590
 
  0.3076923E+00  0.3076923E+00  0.2307692E+00  0.1092399E-01
   1       -0.1110
   2        3.6103
   3        3.6103
   4        5.0396
   5        7.3118
   6        8.7097
   7        8.7097
   8       12.2601
   9       13.9594
  10       15.2762
  11       15.2762
  12       17.4776
  13       17.4776
  14       18.1413
  15       20.0506
  16       20.5239
 
  0.3846154E+00  0.3076923E+00  0.2307692E+00  0.2184797E-01
   1        0.4125
   2        2.6517
   3        4.1120
   4        5.4664
   5        6.4544
   6        7.7894
   7        9.2067
   8       11.3415
   9       14.4317
  10       15.5832
  11       16.8923
  12       16.9972
  13       17.9065
  14       18.0375
  15       19.7376
  16       21.1843
 
  0.4615385E+00  0.3076923E+00  0.2307692E+00  0.2184797E-01
   1        1.0490
   2        1.7964
   3        4.7131
   4        5.3617
   5        6.3391
   6        6.9812
   7        9.8120
   8       10.5243
   9       14.9685
  10       15.4779
  11       16.8192
  12       17.2981
  13       18.2283
  14       18.9806
  15       19.2456
  16       21.0165
 
  0.3846154E+00  0.3846154E+00  0.2307692E+00  0.1092399E-01
   1        0.9336
   2        3.1610
   3        3.1610
   4        5.2532
   5        6.2286
   6        8.2827
   7        8.2827
   8       10.4201
   9       14.9311
  10       16.7718
  11       16.7718
  12       17.9899
  13       17.9899
  14       18.9656
  15       19.0332
  16       21.0673
 
  0.4615385E+00  0.3846154E+00  0.2307692E+00  0.2184797E-01
   1        1.5671
   2        2.3107
   3        3.7777
   4        4.4927
   5        6.7620
   6        7.4641
   7        8.8875
   8        9.6009
   9       15.5074
  10       16.1476
  11       17.5070
  12       18.2114
  13       18.4095
  14       18.9174
  15       19.6909
  16       21.4787
 
  0.4615385E+00  0.4615385E+00  0.2307692E+00  0.1092399E-01
   1        2.1968
   2        2.9352
   3        2.9352
   4        3.6658
   5        7.3550
   6        8.0666
   7        8.0666
   8        8.7803
   9       16.1053
  10       16.7768
  11       16.7768
  12       17.4626
  13       20.1182
  14       20.1182
  15       20.1237
  16       21.4057
 
  0.3076923E+00  0.3076923E+00  0.3076923E+00  0.3641329E-02
   1        0.2964
   2        3.9999
   3        3.9999
   4        3.9999
   5        7.6871
   6        7.6871
   7        7.6871
   8       11.2430
   9       15.6873
  10       15.6873
  11       15.6873
  12       18.4830
  13       18.4830
  14       18.4830
  15       20.4382
  16       20.4382
 
  0.3846154E+00  0.3076923E+00  0.3076923E+00  0.1092399E-01
   1        0.8180
   2        3.0478
   3        4.4904
   4        4.4904
   5        6.7698
   6        6.7698
   7        8.1810
   8       10.3209
   9       16.1367
  10       16.1367
  11       17.4926
  12       18.2819
  13       18.2819
  14       18.9227
  15       20.8290
  16       20.9263
 
  0.4615385E+00  0.3076923E+00  0.3076923E+00  0.1092399E-01
   1        1.4522
   2        2.1966
   3        5.0321
   4        5.0321
   5        6.0137
   6        6.0137
   7        8.7866
   8        9.5009
   9       16.5570
  10       16.5570
  11       17.7852
  12       17.7852
  13       19.3309
  14       19.4606
  15       20.0965
  16       21.0366
 
  0.3846154E+00  0.3846154E+00  0.3076923E+00  0.1092399E-01
   1        1.3372
   2        3.5526
   3        3.5526
   4        4.9221
   5        5.9038
   6        7.2541
   7        7.2541
   8        9.3958
   9       16.6468
  10       17.8493
  11       17.8493
  12       18.8257
  13       18.8257
  14       19.3737
  15       20.4759
  16       21.4224
 
  0.4615385E+00  0.3846154E+00  0.3076923E+00  0.2184797E-01
   1        1.9682
   2        2.7083
   3        4.1581
   4        4.8139
   5        5.7904
   6        6.4398
   7        7.8581
   8        8.5734
   9       17.1968
  10       17.7288
  11       18.8500
  12       19.0535
  13       19.2798
  14       19.7752
  15       20.0108
  16       21.6764
 
  0.4615385E+00  0.4615385E+00  0.3076923E+00  0.1092399E-01
   1        2.5948
   2        3.3280
   3        3.3280
   4        4.0470
   5        6.3291
   6        7.0354
   7        7.0354
   8        7.7497
   9       17.7960
  10       18.4322
  11       18.4322
  12       19.1012
  13       20.4519
  14       20.4519
  15       20.4586
  16       21.7104
 
  0.3846154E+00  0.3846154E+00  0.3846154E+00  0.3641329E-02
   1        1.8538
   2        4.0463
   3        4.0463
   4        4.0463
   5        6.3311
   6        6.3311
   7        6.3311
   8        8.4674
   9       18.4298
  10       18.4298
  11       18.4298
  12       19.8114
  13       19.8114
  14       19.8114
  15       21.6844
  16       21.6844
 
  0.4615385E+00  0.3846154E+00  0.3846154E+00  0.1092399E-01
   1        2.4810