 vasp.4.6.28 25Jul05 complex 
 executed on             LinuxIFC date 2016.10.19  17:44:43
 running on    8 nodes
 distr:  one band on    1 nodes,    8 groups


--------------------------------------------------------------------------------------------------------


 INCAR:
 POTCAR:   PAW_PBE Al 04Jan2001                   
 POTCAR:   PAW_PBE Al 04Jan2001                   
   VRHFIN =Al: s2p1                                                             
   LEXCH  = PE                                                                  
   EATOM  =    53.5387 eV,    3.9350 Ry                                         
                                                                                
   TITEL  = PAW_PBE Al 04Jan2001                                                
   LULTRA =        F    use ultrasoft PP ?                                      
   IUNSCR =        1    unscreen: 0-lin 1-nonlin 2-no                           
   RPACOR =    1.500    partial core radius                                     
   POMASS =   26.982; ZVAL   =    3.000    mass and valenz                      
   RCORE  =    1.900    outmost cutoff radius                                   
   RWIGS  =    2.650; RWIGS  =    1.402    wigner-seitz radius (au A)           
   ENMAX  =  240.300; ENMIN  =  180.225 eV                                      
   ICORE  =        2    local potential                                         
   LCOR   =        T    correct aug charges                                     
   LPAW   =        T    paw PP                                                  
   EAUG   =  291.052                                                            
   DEXC   =    -.041                                                            
   RMAX   =    2.974    core radius for proj-oper                               
   RAUG   =    1.300    factor for augmentation sphere                          
   RDEP   =    1.966    radius for radial grids                                 
   QCUT   =   -4.203; QGAM   =    8.405    optimization parameters              
                                                                                
   Description                                                                  
     l     E      TYP  RCUT    TYP  RCUT                                        
     0   .000     23  1.900                                                     
     0   .000     23  1.900                                                     
     1   .000     23  1.900                                                     
     1  1.000     23  1.900                                                     
     2   .000      7  1.900                                                     
  local pseudopotential read in
  partial core-charges read in
  atomic valenz-charges read in
  non local Contribution for L=           0  read in
    real space projection operators read in
  non local Contribution for L=           0  read in
    real space projection operators read in
  non local Contribution for L=           1  read in
    real space projection operators read in
  non local Contribution for L=           1  read in
    real space projection operators read in
    PAW grid and wavefunctions read in
 
   number of l-projection  operators is LMAX  =           4
   number of lm-projection operators is LMMAX =           8
 
 PAW_PBE Al 04Jan2001                   :
 energy of atom  1       EATOM=  -53.5387
 kinetic energy error for atom=    0.0003 (will be added to EATOM!!)
 
 EXHCAR: internal setup
 exchange correlation table for  LEXCH =        8
   RHO(1)=    0.500       N(1)  =     2000
   RHO(2)=  100.500       N(2)  =     4000
 
 POSCAR: Al                                      
  positions in direct lattice
  No initial velocities read in
 


--------------------------------------------------------------------------------------------------------


 ion  position               nearest neighbor table
   1  0.500  0.500  0.000-   2 2.71   3 2.71   4 2.71   2 2.71   3 2.71   2 2.71   4 2.71   2 2.71
                             3 2.71   4 2.71   3 2.71   4 2.71
   2  0.500  0.000  0.500-   1 2.71   3 2.71   4 2.71   1 2.71   4 2.71   1 2.71   3 2.71   1 2.71
                             3 2.71   4 2.71   4 2.71   3 2.71
   3  0.000  0.500  0.500-   1 2.71   2 2.71   4 2.71   1 2.71   4 2.71   2 2.71   4 2.71   4 2.71
                             1 2.71   2 2.71   1 2.71   2 2.71
   4  0.000  0.000  0.000-   1 2.71   2 2.71   3 2.71   2 2.71   3 2.71   1 2.71   3 2.71   3 2.71
                             1 2.71   2 2.71   2 2.71   1 2.71
 
  LATTYP: Found a simple cubic cell.
 ALAT       =     3.8354410512
  
  Lattice vectors:
  
 A1 = (   3.8354410512,   0.0000000000,   0.0000000000)
 A2 = (   0.0000000000,   3.8354410512,   0.0000000000)
 A3 = (   0.0000000000,   0.0000000000,   3.8354410512)
 Subroutine PRICEL returns following result:
 
  LATTYP: Found a face centered cubic cell.
 ALAT       =     3.8354410512
  
  Lattice vectors:
  
 A1 = (   1.9177205256,   1.9177205256,   0.0000000000)
 A2 = (   1.9177205256,   0.0000000000,  -1.9177205256)
 A3 = (   0.0000000000,   1.9177205256,  -1.9177205256)
 
   4 primitive cells build up your supercell.
 

Analysis of symmetry for initial positions (statically):

 Routine SETGRP: Setting up the symmetry group for a 
 simple cubic supercell.


 Subroutine GETGRP returns: Found 48 space group operations
 (whereof 48 operations were pure point group operations)
 out of a pool of 48 trial point group operations.


The static configuration has the point symmetry O_h .

Analysis of symmetry for dynamics (positions and initial velocities):

 Subroutine DYNSYM returns: Found 48 space group operations
 (whereof 48 operations were pure point group operations)
 out of a pool of 48 trial space group operations
 (whereof 48 operations were pure point group operations)
 and found also     4 'primitive' translations


The dynamic configuration has the point symmetry O_h .
 
 
 KPOINTS: Automatic mesh                          

Automatic generation of k-mesh.
 generate k-points for:  13  13  13
 
 Subroutine IBZKPT returns following result:
 ===========================================
 
 Found     84 irreducible k-points:
 
 Following reciprocal coordinates:
            Coordinates               Weight
  0.000000  0.000000  0.000000      1.000000
  0.076923  0.000000  0.000000      6.000000
  0.153846  0.000000  0.000000      6.000000
  0.230769  0.000000  0.000000      6.000000
  0.307692  0.000000  0.000000      6.000000
  0.384615  0.000000  0.000000      6.000000
  0.461538  0.000000  0.000000      6.000000
  0.076923  0.076923  0.000000     12.000000
  0.153846  0.076923  0.000000     24.000000
  0.230769  0.076923  0.000000     24.000000
  0.307692  0.076923  0.000000     24.000000
  0.384615  0.076923  0.000000     24.000000
  0.461538  0.076923  0.000000     24.000000
  0.153846  0.153846  0.000000     12.000000
  0.230769  0.153846  0.000000     24.000000
  0.307692  0.153846  0.000000     24.000000
  0.384615  0.153846  0.000000     24.000000
  0.461538  0.153846  0.000000     24.000000
  0.230769  0.230769  0.000000     12.000000
  0.307692  0.230769  0.000000     24.000000
  0.384615  0.230769  0.000000     24.000000
  0.461538  0.230769  0.000000     24.000000
  0.307692  0.307692  0.000000     12.000000
  0.384615  0.307692  0.000000     24.000000
  0.461538  0.307692  0.000000     24.000000
  0.384615  0.384615  0.000000     12.000000
  0.461538  0.384615  0.000000     24.000000
  0.461538  0.461538  0.000000     12.000000
  0.076923  0.076923  0.076923      8.000000
  0.153846  0.076923  0.076923     24.000000
  0.230769  0.076923  0.076923     24.000000
  0.307692  0.076923  0.076923     24.000000
  0.384615  0.076923  0.076923     24.000000
  0.461538  0.076923  0.076923     24.000000
  0.153846  0.153846  0.076923     24.000000
  0.230769  0.153846  0.076923     48.000000
  0.307692  0.153846  0.076923     48.000000
  0.384615  0.153846  0.076923     48.000000
  0.461538  0.153846  0.076923     48.000000
  0.230769  0.230769  0.076923     24.000000
  0.307692  0.230769  0.076923     48.000000
  0.384615  0.230769  0.076923     48.000000
  0.461538  0.230769  0.076923     48.000000
  0.307692  0.307692  0.076923     24.000000
  0.384615  0.307692  0.076923     48.000000
  0.461538  0.307692  0.076923     48.000000
  0.384615  0.384615  0.076923     24.000000
  0.461538  0.384615  0.076923     48.000000
  0.461538  0.461538  0.076923     24.000000
  0.153846  0.153846  0.153846      8.000000
  0.230769  0.153846  0.153846     24.000000
  0.307692  0.153846  0.153846     24.000000
  0.384615  0.153846  0.153846     24.000000
  0.461538  0.153846  0.153846     24.000000
  0.230769  0.230769  0.153846     24.000000
  0.307692  0.230769  0.153846     48.000000
  0.384615  0.230769  0.153846     48.000000
  0.461538  0.230769  0.153846     48.000000
  0.307692  0.307692  0.153846     24.000000
  0.384615  0.307692  0.153846     48.000000
  0.461538  0.307692  0.153846     48.000000
  0.384615  0.384615  0.153846     24.000000
  0.461538  0.384615  0.153846     48.000000
  0.461538  0.461538  0.153846     24.000000
  0.230769  0.230769  0.230769      8.000000
  0.307692  0.230769  0.230769     24.000000
  0.384615  0.230769  0.230769     24.000000
  0.461538  0.230769  0.230769     24.000000
  0.307692  0.307692  0.230769     24.000000
  0.384615  0.307692  0.230769     48.000000
  0.461538  0.307692  0.230769     48.000000
  0.384615  0.384615  0.230769     24.000000
  0.461538  0.384615  0.230769     48.000000
  0.461538  0.461538  0.230769     24.000000
  0.307692  0.307692  0.307692      8.000000
  0.384615  0.307692  0.307692     24.000000
  0.461538  0.307692  0.307692     24.000000
  0.384615  0.384615  0.307692     24.000000
  0.461538  0.384615  0.307692     48.000000
  0.461538  0.461538  0.307692     24.000000
  0.384615  0.384615  0.384615      8.000000
  0.461538  0.384615  0.384615     24.000000
  0.461538  0.461538  0.384615     24.000000
  0.461538  0.461538  0.461538      8.000000
 
 Following cartesian coordinates:
            Coordinates               Weight
  0.000000  0.000000  0.000000      1.000000
  0.019053  0.000000  0.000000      6.000000
  0.038106  0.000000  0.000000      6.000000
  0.057159  0.000000  0.000000      6.000000
  0.076212  0.000000  0.000000      6.000000
  0.095265  0.000000  0.000000      6.000000
  0.114318  0.000000  0.000000      6.000000
  0.019053  0.019053  0.000000     12.000000
  0.038106  0.019053  0.000000     24.000000
  0.057159  0.019053  0.000000     24.000000
  0.076212  0.019053  0.000000     24.000000
  0.095265  0.019053  0.000000     24.000000
  0.114318  0.019053  0.000000     24.000000
  0.038106  0.038106  0.000000     12.000000
  0.057159  0.038106  0.000000     24.000000
  0.076212  0.038106  0.000000     24.000000
  0.095265  0.038106  0.000000     24.000000
  0.114318  0.038106  0.000000     24.000000
  0.057159  0.057159  0.000000     12.000000
  0.076212  0.057159  0.000000     24.000000
  0.095265  0.057159  0.000000     24.000000
  0.114318  0.057159  0.000000     24.000000
  0.076212  0.076212  0.000000     12.000000
  0.095265  0.076212  0.000000     24.000000
  0.114318  0.076212  0.000000     24.000000
  0.095265  0.095265  0.000000     12.000000
  0.114318  0.095265  0.000000     24.000000
  0.114318  0.114318  0.000000     12.000000
  0.019053  0.019053  0.019053      8.000000
  0.038106  0.019053  0.019053     24.000000
  0.057159  0.019053  0.019053     24.000000
  0.076212  0.019053  0.019053     24.000000
  0.095265  0.019053  0.019053     24.000000
  0.114318  0.019053  0.019053     24.000000
  0.038106  0.038106  0.019053     24.000000
  0.057159  0.038106  0.019053     48.000000
  0.076212  0.038106  0.019053     48.000000
  0.095265  0.038106  0.019053     48.000000
  0.114318  0.038106  0.019053     48.000000
  0.057159  0.057159  0.019053     24.000000
  0.076212  0.057159  0.019053     48.000000
  0.095265  0.057159  0.019053     48.000000
  0.114318  0.057159  0.019053     48.000000
  0.076212  0.076212  0.019053     24.000000
  0.095265  0.076212  0.019053     48.000000
  0.114318  0.076212  0.019053     48.000000
  0.095265  0.095265  0.019053     24.000000
  0.114318  0.095265  0.019053     48.000000
  0.114318  0.114318  0.019053     24.000000
  0.038106  0.038106  0.038106      8.000000
  0.057159  0.038106  0.038106     24.000000
  0.076212  0.038106  0.038106     24.000000
  0.095265  0.038106  0.038106     24.000000
  0.114318  0.038106  0.038106     24.000000
  0.057159  0.057159  0.038106     24.000000
  0.076212  0.057159  0.038106     48.000000
  0.095265  0.057159  0.038106     48.000000
  0.114318  0.057159  0.038106     48.000000
  0.076212  0.076212  0.038106     24.000000
  0.095265  0.076212  0.038106     48.000000
  0.114318  0.076212  0.038106     48.000000
  0.095265  0.095265  0.038106     24.000000
  0.114318  0.095265  0.038106     48.000000
  0.114318  0.114318  0.038106     24.000000
  0.057159  0.057159  0.057159      8.000000
  0.076212  0.057159  0.057159     24.000000
  0.095265  0.057159  0.057159     24.000000
  0.114318  0.057159  0.057159     24.000000
  0.076212  0.076212  0.057159     24.000000
  0.095265  0.076212  0.057159     48.000000
  0.114318  0.076212  0.057159     48.000000
  0.095265  0.095265  0.057159     24.000000
  0.114318  0.095265  0.057159     48.000000
  0.114318  0.114318  0.057159     24.000000
  0.076212  0.076212  0.076212      8.000000
  0.095265  0.076212  0.076212     24.000000
  0.114318  0.076212  0.076212     24.000000
  0.095265  0.095265  0.076212     24.000000
  0.114318  0.095265  0.076212     48.000000
  0.114318  0.114318  0.076212     24.000000
  0.095265  0.095265  0.095265      8.000000
  0.114318  0.095265  0.095265     24.000000
  0.114318  0.114318  0.095265     24.000000
  0.114318  0.114318  0.114318      8.000000
 


--------------------------------------------------------------------------------------------------------




 Dimension of arrays:
   k-Points           NKPTS =     84   number of bands    NBANDS=     16
   number of dos      NEDOS =    301   number of ions     NIONS =      4
   non local maximal  LDIM  =      4   non local SUM 2l+1 LMDIM =      8
   total plane-waves  NPLWV =  21952
   max r-space proj   IRMAX =      1   max aug-charges    IRDMAX=  15340
   dimension x,y,z NGX =    28 NGY =   28 NGZ =   28
   dimension x,y,z NGXF=    56 NGYF=   56 NGZF=   56
   support grid    NGXF=    56 NGYF=   56 NGZF=   56
   ions per type =               4
 NGX,Y,Z   is equivalent  to a cutoff of  12.14, 12.14, 12.14 a.u.
 NGXF,Y,Z  is equivalent  to a cutoff of  24.27, 24.27, 24.27 a.u.


 I would recommend the setting:
   dimension x,y,z NGX =    28 NGY =   28 NGZ =   28
 SYSTEM =  unknown system                          
 POSCAR =  Al                                      

 Startparameter for this run:
   NWRITE =      2    write-flag & timer
   PREC   = accura    medium, high low
   ISTART =      0    job   : 0-new  1-cont  2-samecut
   ICHARG =      2    charge: 1-file 2-atom 10-const
   ISPIN  =      1    spin polarized calculation?
   LNONCOLLINEAR =      F non collinear calculations
   LSORBIT =      F    spin-orbit coupling
   INIWAV =      1    electr: 0-lowe 1-rand  2-diag
   LASPH  =      F    aspherical Exc in radial PAW
   METAGGA=      F    non-selfconsistent MetaGGA calc.

 Electronic Relaxation 1
   ENCUT  =  500.0 eV  36.75 Ry    6.06 a.u.   6.99  6.99  6.99*2*pi/ulx,y,z
   ENINI  =  500.0     initial cutoff
   ENAUG  =  291.1 eV  augmentation charge cutoff
   NELM   =     60;   NELMIN=  2; NELMDL=  0     # of ELM steps 
   EDIFF  = 0.1E-07   stopping-criterion for ELM
   LREAL  =      F    real-space projection
   LCOMPAT=      F    compatible to vasp.4.4
   LREAL_COMPAT= F    compatible to vasp.4.5.1-3
   GGA_COMPAT  = T    GGA compatible to vasp.4.4-vasp.4.6
   LMAXPAW     = -100 max onsite density
   LMAXMIX     =    2 max onsite mixed and CHGCAR
   VOSKOWN=      0    Vosko Wilk Nusair interpolation
   ROPT   =    0.00000
 Ionic relaxation
   EDIFFG = 0.1E-06   stopping-criterion for IOM
   NSW    =      0    number of steps for IOM
   NBLOCK =      1;   KBLOCK =      1    inner block; outer block 
   IBRION =     -1    ionic relax: 0-MD 1-quasi-New 2-CG
   NFREE  =      0    steps in history (QN), initial steepest desc. (CG)
   ISIF   =      2    stress and relaxation
   IWAVPR =     10    prediction:  0-non 1-charg 2-wave 3-comb
   ISYM   =      2    0-nonsym 1-usesym 2-fastsym
   LCORR  =      T    Harris-Foulkes like correction to forces

   POTIM  =   0.50    time-step for ionic-motion
   TEIN   =    0.0    initial temperature
   TEBEG  =    0.0;   TEEND  =   0.0 temperature during run
   SMASS  =  -3.00    Nose mass-parameter (am)
   estimated Nose-frequenzy (Omega)   =  0.10E-29 period in steps =****** mass=  -0.336E-27a.u.
   NPACO  =    256;   APACO  = 16.0  distance and # of slots for P.C.
   PSTRESS=    0.0 pullay stress

  Mass of Ions in am
   POMASS =  26.98
  Ionic Valenz
   ZVAL   =   3.00
  Atomic Wigner-Seitz radii
   RWIGS  =  -1.00
   NELECT =      12.0000    total number of electrons
   NUPDOWN=      -1.0000    fix difference up-down

 DOS related values:
   EMIN   =  10.00;   EMAX   =-10.00  energy-range for DOS
   ISMEAR =     0;   SIGMA  =   0.01  broadening in eV -4-tet -1-fermi 0-gaus

 Electronic relaxation 2 (details)
   IALGO  =     38    algorithm
   LDIAG  =      T    sub-space diagonalisation
   IMIX   =      4    mixing-type and parameters
     AMIX     =   0.40;   BMIX     =  1.00
     AMIX_MAG =   1.60;   BMIX_MAG =  1.00
     AMIN     =   0.10
     WC   =   100.;   INIMIX=   1;  MIXPRE=   1

 Intra band minimization:
   WEIMIN = 0.0000     energy-eigenvalue tresh-hold
   EBREAK =  0.25E-09  absolut break condition
   DEPER  =   0.30     relativ break condition  

   TIME   =   0.10     timestep for ELM

  volume/ion in A,a.u.               =      14.11        95.19
  Fermi-wavevector in a.u.,eV,Ry     =   0.977207 12.992661  0.954934

 Second variation
   LSECVAR=     F    do a second variation
 
 Write flags
   LWAVE  =      F    write WAVECAR
   LCHARG =      F    write CHGCAR
   LVTOT  =      F    write LOCPOT, local potential
   LELF   =      F    write electronic localiz. function (ELF)
   LORBIT =      0    0 simple, 1 ext, 2 COOP (PROOUT)


 Dipole corrections
   IDIPOL =      0    1-x, 2-y, 3-z
   LDIPOL =      F    correct potential



--------------------------------------------------------------------------------------------------------


 Static calculation
 charge density will be updated during run
 non-spin polarized calculation
 Variant of blocked Davidson
 Davidson routine will perform the subspace rotation
 performe sub-space diagonalisation
    after iterative eigenvector-optimisation
 modified Broyden-mixing scheme, WC =      100.0
 initial mixing is a Kerker type mixing with AMIX =  0.4000 and BMIX =      1.0000
 Hartree-type preconditioning will be used
 using additional bands           10
 reciprocal scheme for non local part
 use partial core corrections
 calculate Harris-corrections to forces 
   (improved forces if not selfconsistent)
 use gradient corrections 
 use of overlap-Matrix (Vanderbilt PP)
 Gauss-broadening in eV      SIGMA  =   0.01


--------------------------------------------------------------------------------------------------------


  energy-cutoff  :      500.00
  volume of cell :       56.42
      direct lattice vectors                 reciprocal lattice vectors
     3.835441051  0.000000000  0.000000000     0.260726208  0.000000000  0.000000000
     0.000000000  3.835441051  0.000000000     0.000000000  0.260726208  0.000000000
     0.000000000  0.000000000  3.835441051     0.000000000  0.000000000  0.260726208

  length of vectors
     3.835441051  3.835441051  3.835441051     0.260726208  0.260726208  0.260726208


 
 k-points in units of 2pi/SCALE and weight: Automatic mesh                          
   0.00000000  0.00000000  0.00000000       0.000
   0.01905307  0.00000000  0.00000000       0.003
   0.03810614  0.00000000  0.00000000       0.003
   0.05715921  0.00000000  0.00000000       0.003
   0.07621228  0.00000000  0.00000000       0.003
   0.09526535  0.00000000  0.00000000       0.003
   0.11431841  0.00000000  0.00000000       0.003
   0.01905307  0.01905307  0.00000000       0.005
   0.03810614  0.01905307  0.00000000       0.011
   0.05715921  0.01905307  0.00000000       0.011
   0.07621228  0.01905307  0.00000000       0.011
   0.09526535  0.01905307  0.00000000       0.011
   0.11431841  0.01905307  0.00000000       0.011
   0.03810614  0.03810614  0.00000000       0.005
   0.05715921  0.03810614  0.00000000       0.011
   0.07621228  0.03810614  0.00000000       0.011
   0.09526535  0.03810614  0.00000000       0.011
   0.11431841  0.03810614  0.00000000       0.011
   0.05715921  0.05715921  0.00000000       0.005
   0.07621228  0.05715921  0.00000000       0.011
   0.09526535  0.05715921  0.00000000       0.011
   0.11431841  0.05715921  0.00000000       0.011
   0.07621228  0.07621228  0.00000000       0.005
   0.09526535  0.07621228  0.00000000       0.011
   0.11431841  0.07621228  0.00000000       0.011
   0.09526535  0.09526535  0.00000000       0.005
   0.11431841  0.09526535  0.00000000       0.011
   0.11431841  0.11431841  0.00000000       0.005
   0.01905307  0.01905307  0.01905307       0.004
   0.03810614  0.01905307  0.01905307       0.011
   0.05715921  0.01905307  0.01905307       0.011
   0.07621228  0.01905307  0.01905307       0.011
   0.09526535  0.01905307  0.01905307       0.011
   0.11431841  0.01905307  0.01905307       0.011
   0.03810614  0.03810614  0.01905307       0.011
   0.05715921  0.03810614  0.01905307       0.022
   0.07621228  0.03810614  0.01905307       0.022
   0.09526535  0.03810614  0.01905307       0.022
   0.11431841  0.03810614  0.01905307       0.022
   0.05715921  0.05715921  0.01905307       0.011
   0.07621228  0.05715921  0.01905307       0.022
   0.09526535  0.05715921  0.01905307       0.022
   0.11431841  0.05715921  0.01905307       0.022
   0.07621228  0.07621228  0.01905307       0.011
   0.09526535  0.07621228  0.01905307       0.022
   0.11431841  0.07621228  0.01905307       0.022
   0.09526535  0.09526535  0.01905307       0.011
   0.11431841  0.09526535  0.01905307       0.022
   0.11431841  0.11431841  0.01905307       0.011
   0.03810614  0.03810614  0.03810614       0.004
   0.05715921  0.03810614  0.03810614       0.011
   0.07621228  0.03810614  0.03810614       0.011
   0.09526535  0.03810614  0.03810614       0.011
   0.11431841  0.03810614  0.03810614       0.011
   0.05715921  0.05715921  0.03810614       0.011
   0.07621228  0.05715921  0.03810614       0.022
   0.09526535  0.05715921  0.03810614       0.022
   0.11431841  0.05715921  0.03810614       0.022
   0.07621228  0.07621228  0.03810614       0.011
   0.09526535  0.07621228  0.03810614       0.022
   0.11431841  0.07621228  0.03810614       0.022
   0.09526535  0.09526535  0.03810614       0.011
   0.11431841  0.09526535  0.03810614       0.022
   0.11431841  0.11431841  0.03810614       0.011
   0.05715921  0.05715921  0.05715921       0.004
   0.07621228  0.05715921  0.05715921       0.011
   0.09526535  0.05715921  0.05715921       0.011
   0.11431841  0.05715921  0.05715921       0.011
   0.07621228  0.07621228  0.05715921       0.011
   0.09526535  0.07621228  0.05715921       0.022
   0.11431841  0.07621228  0.05715921       0.022
   0.09526535  0.09526535  0.05715921       0.011
   0.11431841  0.09526535  0.05715921       0.022
   0.11431841  0.11431841  0.05715921       0.011
   0.07621228  0.07621228  0.07621228       0.004
   0.09526535  0.07621228  0.07621228       0.011
   0.11431841  0.07621228  0.07621228       0.011
   0.09526535  0.09526535  0.07621228       0.011
   0.11431841  0.09526535  0.07621228       0.022
   0.11431841  0.11431841  0.07621228       0.011
   0.09526535  0.09526535  0.09526535       0.004
   0.11431841  0.09526535  0.09526535       0.011
   0.11431841  0.11431841  0.09526535       0.011
   0.11431841  0.11431841  0.11431841       0.004
 
 k-points in reciprocal lattice and weights: Automatic mesh                          
   0.00000000  0.00000000  0.00000000       0.000
   0.07692308  0.00000000  0.00000000       0.003
   0.15384615  0.00000000  0.00000000       0.003
   0.23076923  0.00000000  0.00000000       0.003
   0.30769231  0.00000000  0.00000000       0.003
   0.38461538  0.00000000  0.00000000       0.003
   0.46153846  0.00000000  0.00000000       0.003
   0.07692308  0.07692308  0.00000000       0.005
   0.15384615  0.07692308  0.00000000       0.011
   0.23076923  0.07692308  0.00000000       0.011
   0.30769231  0.07692308  0.00000000       0.011
   0.38461538  0.07692308  0.00000000       0.011
   0.46153846  0.07692308  0.00000000       0.011
   0.15384615  0.15384615  0.00000000       0.005
   0.23076923  0.15384615  0.00000000       0.011
   0.30769231  0.15384615  0.00000000       0.011
   0.38461538  0.15384615  0.00000000       0.011
   0.46153846  0.15384615  0.00000000       0.011
   0.23076923  0.23076923  0.00000000       0.005
   0.30769231  0.23076923  0.00000000       0.011
   0.38461538  0.23076923  0.00000000       0.011
   0.46153846  0.23076923  0.00000000       0.011
   0.30769231  0.30769231  0.00000000       0.005
   0.38461538  0.30769231  0.00000000       0.011
   0.46153846  0.30769231  0.00000000       0.011
   0.38461538  0.38461538  0.00000000       0.005
   0.46153846  0.38461538  0.00000000       0.011
   0.46153846  0.46153846  0.00000000       0.005
   0.07692308  0.07692308  0.07692308       0.004
   0.15384615  0.07692308  0.07692308       0.011
   0.23076923  0.07692308  0.07692308       0.011
   0.30769231  0.07692308  0.07692308       0.011
   0.38461538  0.07692308  0.07692308       0.011
   0.46153846  0.07692308  0.07692308       0.011
   0.15384615  0.15384615  0.07692308       0.011
   0.23076923  0.15384615  0.07692308       0.022
   0.30769231  0.15384615  0.07692308       0.022
   0.38461538  0.15384615  0.07692308       0.022
   0.46153846  0.15384615  0.07692308       0.022
   0.23076923  0.23076923  0.07692308       0.011
   0.30769231  0.23076923  0.07692308       0.022
   0.38461538  0.23076923  0.07692308       0.022
   0.46153846  0.23076923  0.07692308       0.022
   0.30769231  0.30769231  0.07692308       0.011
   0.38461538  0.30769231  0.07692308       0.022
   0.46153846  0.30769231  0.07692308       0.022
   0.38461538  0.38461538  0.07692308       0.011
   0.46153846  0.38461538  0.07692308       0.022
   0.46153846  0.46153846  0.07692308       0.011
   0.15384615  0.15384615  0.15384615       0.004
   0.23076923  0.15384615  0.15384615       0.011
   0.30769231  0.15384615  0.15384615       0.011
   0.38461538  0.15384615  0.15384615       0.011
   0.46153846  0.15384615  0.15384615       0.011
   0.23076923  0.23076923  0.15384615       0.011
   0.30769231  0.23076923  0.15384615       0.022
   0.38461538  0.23076923  0.15384615       0.022
   0.46153846  0.23076923  0.15384615       0.022
   0.30769231  0.30769231  0.15384615       0.011
   0.38461538  0.30769231  0.15384615       0.022
   0.46153846  0.30769231  0.15384615       0.022
   0.38461538  0.38461538  0.15384615       0.011
   0.46153846  0.38461538  0.15384615       0.022
   0.46153846  0.46153846  0.15384615       0.011
   0.23076923  0.23076923  0.23076923       0.004
   0.30769231  0.23076923  0.23076923       0.011
   0.38461538  0.23076923  0.23076923       0.011
   0.46153846  0.23076923  0.23076923       0.011
   0.30769231  0.30769231  0.23076923       0.011
   0.38461538  0.30769231  0.23076923       0.022
   0.46153846  0.30769231  0.23076923       0.022
   0.38461538  0.38461538  0.23076923       0.011
   0.46153846  0.38461538  0.23076923       0.022
   0.46153846  0.46153846  0.23076923       0.011
   0.30769231  0.30769231  0.30769231       0.004
   0.38461538  0.30769231  0.30769231       0.011
   0.46153846  0.30769231  0.30769231       0.011
   0.38461538  0.38461538  0.30769231       0.011
   0.46153846  0.38461538  0.30769231       0.022
   0.46153846  0.46153846  0.30769231       0.011
   0.38461538  0.38461538  0.38461538       0.004
   0.46153846  0.38461538  0.38461538       0.011
   0.46153846  0.46153846  0.38461538       0.011
   0.46153846  0.46153846  0.46153846       0.004
 
 position of ions in fractional coordinates (direct lattice) 
   0.50000000  0.50000000  0.00000000
   0.50000000  0.00000000  0.50000000
   0.00000000  0.50000000  0.50000000
   0.00000000  0.00000000  0.00000000
 
 position of ions in cartesian coordinates  (Angst):
   1.91772053  1.91772053  0.00000000
   1.91772053  0.00000000  1.91772053
   0.00000000  1.91772053  1.91772053
   0.00000000  0.00000000  0.00000000
 


--------------------------------------------------------------------------------------------------------


 k-point  1 :  0.00000.00000.0000  plane waves:   1365
 k-point  2 :  0.07690.00000.0000  plane waves:   1390
 k-point  3 :  0.15380.00000.0000  plane waves:   1414
 k-point  4 :  0.23080.00000.0000  plane waves:   1430
 k-point  5 :  0.30770.00000.0000  plane waves:   1430
 k-point  6 :  0.38460.00000.0000  plane waves:   1434
 k-point  7 :  0.46150.00000.0000  plane waves:   1422
 k-point  8 :  0.07690.07690.0000  plane waves:   1400
 k-point  9 :  0.15380.07690.0000  plane waves:   1411
 k-point 10 :  0.23080.07690.0000  plane waves:   1417
 k-point 11 :  0.30770.07690.0000  plane waves:   1430
 k-point 12 :  0.38460.07690.0000  plane waves:   1429
 k-point 13 :  0.46150.07690.0000  plane waves:   1432
 k-point 14 :  0.15380.15380.0000  plane waves:   1420
 k-point 15 :  0.23080.15380.0000  plane waves:   1420
 k-point 16 :  0.30770.15380.0000  plane waves:   1427
 k-point 17 :  0.38460.15380.0000  plane waves:   1440
 k-point 18 :  0.46150.15380.0000  plane waves:   1434
 k-point 19 :  0.23080.23080.0000  plane waves:   1420
 k-point 20 :  0.30770.23080.0000  plane waves:   1426
 k-point 21 :  0.38460.23080.0000  plane waves:   1426
 k-point 22 :  0.46150.23080.0000  plane waves:   1434
 k-point 23 :  0.30770.30770.0000  plane waves:   1436
 k-point 24 :  0.38460.30770.0000  plane waves:   1422
 k-point 25 :  0.46150.30770.0000  plane waves:   1425
 k-point 26 :  0.38460.38460.0000  plane waves:   1428
 k-point 27 :  0.46150.38460.0000  plane waves:   1436
 k-point 28 :  0.46150.46150.0000  plane waves:   1444
 k-point 29 :  0.07690.07690.0769  plane waves:   1406
 k-point 30 :  0.15380.07690.0769  plane waves:   1419
 k-point 31 :  0.23080.07690.0769  plane waves:   1426
 k-point 32 :  0.30770.07690.0769  plane waves:   1425
 k-point 33 :  0.38460.07690.0769  plane waves:   1428
 k-point 34 :  0.46150.07690.0769  plane waves:   1437
 k-point 35 :  0.15380.15380.0769  plane waves:   1423
 k-point 36 :  0.23080.15380.0769  plane waves:   1423
 k-point 37 :  0.30770.15380.0769  plane waves:   1426
 k-point 38 :  0.38460.15380.0769  plane waves:   1434
 k-point 39 :  0.46150.15380.0769  plane waves:   1435
 k-point 40 :  0.23080.23080.0769  plane waves:   1429
 k-point 41 :  0.30770.23080.0769  plane waves:   1425
 k-point 42 :  0.38460.23080.0769  plane waves:   1438
 k-point 43 :  0.46150.23080.0769  plane waves:   1438
 k-point 44 :  0.30770.30770.0769  plane waves:   1436
 k-point 45 :  0.38460.30770.0769  plane waves:   1440
 k-point 46 :  0.46150.30770.0769  plane waves:   1434
 k-point 47 :  0.38460.38460.0769  plane waves:   1435
 k-point 48 :  0.46150.38460.0769  plane waves:   1433
 k-point 49 :  0.46150.46150.0769  plane waves:   1434
 k-point 50 :  0.15380.15380.1538  plane waves:   1424
 k-point 51 :  0.23080.15380.1538  plane waves:   1424
 k-point 52 :  0.30770.15380.1538  plane waves:   1430
 k-point 53 :  0.38460.15380.1538  plane waves:   1436
 k-point 54 :  0.46150.15380.1538  plane waves:   1441
 k-point 55 :  0.23080.23080.1538  plane waves:   1431
 k-point 56 :  0.30770.23080.1538  plane waves:   1439
 k-point 57 :  0.38460.23080.1538  plane waves:   1435
 k-point 58 :  0.46150.23080.1538  plane waves:   1437
 k-point 59 :  0.30770.30770.1538  plane waves:   1435
 k-point 60 :  0.38460.30770.1538  plane waves:   1440
 k-point 61 :  0.46150.30770.1538  plane waves:   1438
 k-point 62 :  0.38460.38460.1538  plane waves:   1431
 k-point 63 :  0.46150.38460.1538  plane waves:   1432
 k-point 64 :  0.46150.46150.1538  plane waves:   1433
 k-point 65 :  0.23080.23080.2308  plane waves:   1433
 k-point 66 :  0.30770.23080.2308  plane waves:   1429
 k-point 67 :  0.38460.23080.2308  plane waves:   1436
 k-point 68 :  0.46150.23080.2308  plane waves:   1440
 k-point 69 :  0.30770.30770.2308  plane waves:   1436
 k-point 70 :  0.38460.30770.2308  plane waves:   1439
 k-point 71 :  0.46150.30770.2308  plane waves:   1445
 k-point 72 :  0.38460.38460.2308  plane waves:   1450
 k-point 73 :  0.46150.38460.2308  plane waves:   1438
 k-point 74 :  0.46150.46150.2308  plane waves:   1442
 k-point 75 :  0.30770.30770.3077  plane waves:   1445
 k-point 76 :  0.38460.30770.3077  plane waves:   1442
 k-point 77 :  0.46150.30770.3077  plane waves:   1444
 k-point 78 :  0.38460.38460.3077  plane waves:   1438
 k-point 79 :  0.46150.38460.3077  plane waves:   1435
 k-point 80 :  0.46150.46150.3077  plane waves:   1434
 k-point 81 :  0.38460.38460.3846  plane waves:   1436
 k-point 82 :  0.46150.38460.3846  plane waves:   1435
 k-point 83 :  0.46150.46150.3846  plane waves:   1430
 k-point 84 :  0.46150.46150.4615  plane waves:   1430

 maximum and minimum number of plane-waves per node :   1450  1365

 maximum number of plane-waves:   1450
 maximal index in each direction: 
   IXMAX=  6   IYMAX=  6   IZMAX=  6
   IXMIN= -7   IYMIN= -7   IZMIN= -7

 NGX is ok and might be reduce to  28
 NGY is ok and might be reduce to  28
 NGZ is ok and might be reduce to  28

 parallel 3dFFT wavefunction:
    minimum data exchange during FFTs selected (reduces bandwidth)
 parallel 3dFFT charge:
    minimum data exchange during FFTs selected (reduces bandwidth)

 For storing wavefunctions   30.75 MBYTES are necessary
 For predicting wavefunctions    1.04 MBYTES are necessary
Broyden mixing: mesh for mixing (old mesh)
   NGX = 13   NGY = 13   NGZ = 13
  (NGX  = 56   NGY  = 56   NGZ  = 56)
 gives a total of   2197 points
 initial charge density was supplied:
 charge density of overlapping atoms calculated
 number of electron   12.0000000 magnetization 
 keeping initial charge density in first step


--------------------------------------------------------------------------------------------------------


 Maximum index for augmentation-charges         1900 (set IRDMAX)


--------------------------------------------------------------------------------------------------------


 First call to EWALD:  gamma=   0.462
 Maximum number of real-space cells 3x 3x 3
 Maximum number of reciprocal cells 3x 3x 3

    FEWALD:  VPU time    0.00: CPU time    0.00


----------------------------------------- Iteration    1(   1)  ---------------------------------------


    POTLOK:  VPU time    0.01: CPU time    0.01
    SETDIJ:  VPU time    0.00: CPU time    0.00
    EDDAV :  VPU time    0.69: CPU time    0.69
    DOS   :  VPU time    0.00: CPU time   -0.00
    ------------------------------------------
      LOOP:  VPU time    0.70: CPU time    0.71

 eigenvalue-minimisations  :  2688
 total energy-change (2. order) : 0.7583788E+01  (-0.4093423E+03)
 number of electron   12.0000000 magnetization 
 augmentation part    12.0000000 magnetization 

 Free energy of the ion-electron system (eV)
  ---------------------------------------------------
  alpha Z        PSCENC =        -0.95248850
  Ewald energy   TEWEN  =      -309.84147110
  -1/2 Hartree   DENC   =        -0.26291379
  -V(xc)+E(xc)   XCENC  =      -103.79929549
  PAW double counting   =       142.21701965      -14.39593217
  entropy T*S    EENTRO =        -0.00010050
  eigenvalues    EBANDS =        80.46532873
  atomic energy  EATOM  =       214.15364153
  ---------------------------------------------------
  free energy    TOTEN  =         7.58378836 eV

  energy without entropy =        7.58388886  energy(sigma->0) =        7.58383861


--------------------------------------------------------------------------------------------------------




----------------------------------------- Iteration    1(   2)  ---------------------------------------


    EDDAV :  VPU time    0.88: CPU time    0.88
    DOS   :  VPU time    0.00: CPU time   -0.00
    ------------------------------------------
      LOOP:  VPU time    0.88: CPU time    0.88

 eigenvalue-minimisations  :  3696
 total energy-change (2. order) :-0.2157494E+02  (-0.2038254E+02)
 number of electron   12.0000000 magnetization 
 augmentation part    12.0000000 magnetization 

 Free energy of the ion-electron system (eV)
  ---------------------------------------------------
  alpha Z        PSCENC =        -0.95248850
  Ewald energy   TEWEN  =      -309.84147110
  -1/2 Hartree   DENC   =        -0.26291379
  -V(xc)+E(xc)   XCENC  =      -103.79929549
  PAW double counting   =       142.21701965      -14.39593217
  entropy T*S    EENTRO =        -0.00009503
  eigenvalues    EBANDS =        58.89038177
  atomic energy  EATOM  =       214.15364153
  ---------------------------------------------------
  free energy    TOTEN  =       -13.99115313 eV

  energy without entropy =      -13.99105810  energy(sigma->0) =      -13.99110562


--------------------------------------------------------------------------------------------------------




----------------------------------------- Iteration    1(   3)  ---------------------------------------


    EDDAV :  VPU time    0.82: CPU time    0.83
    DOS   :  VPU time    0.00: CPU time   -0.00
    ------------------------------------------
      LOOP:  VPU time    0.83: CPU time    0.83

 eigenvalue-minimisations  :  3432
 total energy-change (2. order) :-0.6557592E+00  (-0.6536224E+00)
 number of electron   12.0000000 magnetization 
 augmentation part    12.0000000 magnetization 

 Free energy of the ion-electron system (eV)
  ---------------------------------------------------
  alpha Z        PSCENC =        -0.95248850
  Ewald energy   TEWEN  =      -309.84147110
  -1/2 Hartree   DENC   =        -0.26291379
  -V(xc)+E(xc)   XCENC  =      -103.79929549
  PAW double counting   =       142.21701965      -14.39593217
  entropy T*S    EENTRO =        -0.00019937
  eigenvalues    EBANDS =        58.23472696
  atomic energy  EATOM  =       214.15364153
  ---------------------------------------------------
  free energy    TOTEN  =       -14.64691229 eV

  energy without entropy =      -14.64671292  energy(sigma->0) =      -14.64681260


--------------------------------------------------------------------------------------------------------




----------------------------------------- Iteration    1(   4)  ---------------------------------------


    EDDAV :  VPU time    0.82: CPU time    0.82
    DOS   :  VPU time    0.00: CPU time   -0.00
    ------------------------------------------
      LOOP:  VPU time    0.82: CPU time    0.82

 eigenvalue-minimisations  :  3400
 total energy-change (2. order) :-0.3755221E-02  (-0.3754965E-02)
 number of electron   12.0000000 magnetization 
 augmentation part    12.0000000 magnetization 

 Free energy of the ion-electron system (eV)
  ---------------------------------------------------
  alpha Z        PSCENC =        -0.95248850
  Ewald energy   TEWEN  =      -309.84147110
  -1/2 Hartree   DENC   =        -0.26291379
  -V(xc)+E(xc)   XCENC  =      -103.79929549
  PAW double counting   =       142.21701965      -14.39593217
  entropy T*S    EENTRO =        -0.00020067
  eigenvalues    EBANDS =        58.23097304
  atomic energy  EATOM  =       214.15364153
  ---------------------------------------------------
  free energy    TOTEN  =       -14.65066751 eV

  energy without entropy =      -14.65046683  energy(sigma->0) =      -14.65056717


--------------------------------------------------------------------------------------------------------




----------------------------------------- Iteration    1(   5)  ---------------------------------------


    EDDAV :  VPU time    0.83: CPU time    0.83
    DOS   :  VPU time    0.00: CPU time   -0.00
    CHARGE:  VPU time    0.03: CPU time    0.03
    MIXING:  VPU time    0.00: CPU time    0.00
    ------------------------------------------
      LOOP:  VPU time    0.86: CPU time    0.86

 eigenvalue-minimisations  :  3464
 total energy-change (2. order) :-0.4469768E-04  (-0.4469781E-04)
 number of electron   12.0000000 magnetization 
 augmentation part    -0.1373573 magnetization 

 Broyden mixing:
  rms(total) = 0.20118E+00    rms(broyden)= 0.20118E+00
  rms(prec ) = 0.45799E+00
  weight for this iteration     100.00

 Free energy of the ion-electron system (eV)
  ---------------------------------------------------
  alpha Z        PSCENC =        -0.95248850
  Ewald energy   TEWEN  =      -309.84147110
  -1/2 Hartree   DENC   =        -0.26291379
  -V(xc)+E(xc)   XCENC  =      -103.79929549
  PAW double counting   =       142.21701965      -14.39593217
  entropy T*S    EENTRO =        -0.00020067
  eigenvalues    EBANDS =        58.23092834
  atomic energy  EATOM  =       214.15364153
  ---------------------------------------------------
  free energy    TOTEN  =       -14.65071220 eV

  energy without entropy =      -14.65051153  energy(sigma->0) =      -14.65061187


--------------------------------------------------------------------------------------------------------




----------------------------------------- Iteration    1(   6)  ---------------------------------------


    POTLOK:  VPU time    0.01: CPU time    0.01
    SETDIJ:  VPU time    0.00: CPU time    0.00
    EDDAV :  VPU time    0.78: CPU time    0.78
    DOS   :  VPU time    0.00: CPU time   -0.00
    CHARGE:  VPU time    0.02: CPU time    0.02
    MIXING:  VPU time    0.00: CPU time    0.00
    ------------------------------------------
      LOOP:  VPU time    0.82: CPU time    0.82

 eigenvalue-minimisations  :  3152
 total energy-change (2. order) : 0.6267654E-01  (-0.3552168E-03)
 number of electron   12.0000000 magnetization 
 augmentation part    -0.1391312 magnetization 

 Broyden mixing:
  rms(total) = 0.12506E+00    rms(broyden)= 0.12506E+00
  rms(prec ) = 0.28675E+00
  weight for this iteration     100.00

 eigenvalues of (default mixing * dielectric matrix)
  average eigenvalue GAMMA=   2.6347
  2.6347

 Free energy of the ion-electron system (eV)
  ---------------------------------------------------
  alpha Z        PSCENC =        -0.95248850
  Ewald energy   TEWEN  =      -309.84147110
  -1/2 Hartree   DENC   =        -0.30980473
  -V(xc)+E(xc)   XCENC  =      -103.60639856
  PAW double counting   =       143.38092471      -15.62287728
  entropy T*S    EENTRO =        -0.00021164
  eigenvalues    EBANDS =        58.21064990
  atomic energy  EATOM  =       214.15364153
  ---------------------------------------------------
  free energy    TOTEN  =       -14.58803567 eV

  energy without entropy =      -14.58782403  energy(sigma->0) =      -14.58792985


--------------------------------------------------------------------------------------------------------




----------------------------------------- Iteration    1(   7)  ---------------------------------------


    POTLOK:  VPU time    0.01: CPU time    0.01
    SETDIJ:  VPU time    0.00: CPU time    0.00
    EDDAV :  VPU time    0.70: CPU time    0.70
    DOS   :  VPU time    0.00: CPU time   -0.00
    CHARGE:  VPU time    0.02: CPU time    0.03
    MIXING:  VPU time    0.00: CPU time    0.00
    ------------------------------------------
      LOOP:  VPU time    0.74: CPU time    0.74

 eigenvalue-minimisations  :  2776
 total energy-change (2. order) : 0.4497274E-01  (-0.1185471E-02)
 number of electron   12.0000000 magnetization 
 augmentation part    -0.1430571 magnetization 

 Broyden mixing:
  rms(total) = 0.50162E-02    rms(broyden)= 0.50160E-02
  rms(prec ) = 0.72201E-02
  weight for this iteration     100.00

 eigenvalues of (default mixing * dielectric matrix)
  average eigenvalue GAMMA=   2.4718
  2.4718  2.4718

 Free energy of the ion-electron system (eV)
  ---------------------------------------------------
  alpha Z        PSCENC =        -0.95248850
  Ewald energy   TEWEN  =      -309.84147110
  -1/2 Hartree   DENC   =        -0.56941193
  -V(xc)+E(xc)   XCENC  =      -103.22978468
  PAW double counting   =       145.18232197      -17.53963725
  entropy T*S    EENTRO =        -0.00021322
  eigenvalues    EBANDS =        58.25398027
  atomic energy  EATOM  =       214.15364153
  ---------------------------------------------------
  free energy    TOTEN  =       -14.54306293 eV

  energy without entropy =      -14.54284970  energy(sigma->0) =      -14.54295631


--------------------------------------------------------------------------------------------------------




----------------------------------------- Iteration    1(   8)  ---------------------------------------


    POTLOK:  VPU time    0.01: CPU time    0.01
    SETDIJ:  VPU time    0.00: CPU time    0.00
    EDDAV :  VPU time    0.89: CPU time    0.89
    DOS   :  VPU time    0.00: CPU time   -0.00
    CHARGE:  VPU time    0.02: CPU time    0.03
    MIXING:  VPU time    0.00: CPU time    0.00
    ------------------------------------------
      LOOP:  VPU time    0.94: CPU time    0.94

 eigenvalue-minimisations  :  3752
 total energy-change (2. order) :-0.3803095E-04  (-0.1126580E-04)
 number of electron   12.0000000 magnetization 
 augmentation part    -0.1432771 magnetization 

 Broyden mixing:
  rms(total) = 0.14002E-02    rms(broyden)= 0.14002E-02
  rms(prec ) = 0.25277E-02
  weight for this iteration     100.00

 eigenvalues of (default mixing * dielectric matrix)
  average eigenvalue GAMMA=   2.0868
  1.0298  2.6747  2.5559

 Free energy of the ion-electron system (eV)
  ---------------------------------------------------
  alpha Z        PSCENC =        -0.95248850
  Ewald energy   TEWEN  =      -309.84147110
  -1/2 Hartree   DENC   =        -0.57134925
  -V(xc)+E(xc)   XCENC  =      -103.22636068
  PAW double counting   =       145.14836879      -17.50523179
  entropy T*S    EENTRO =        -0.00021272
  eigenvalues    EBANDS =        58.25200277
  atomic energy  EATOM  =       214.15364153
  ---------------------------------------------------
  free energy    TOTEN  =       -14.54310096 eV

  energy without entropy =      -14.54288824  energy(sigma->0) =      -14.54299460


--------------------------------------------------------------------------------------------------------




----------------------------------------- Iteration    1(   9)  ---------------------------------------


    POTLOK:  VPU time    0.01: CPU time    0.01
    SETDIJ:  VPU time    0.00: CPU time    0.00
    EDDAV :  VPU time    0.83: CPU time    0.83
    DOS   :  VPU time    0.00: CPU time   -0.00
    CHARGE:  VPU time    0.03: CPU time    0.03
    MIXING:  VPU time    0.00: CPU time    0.00
    ------------------------------------------
      LOOP:  VPU time    0.88: CPU time    0.88

 eigenvalue-minimisations  :  3456
 total energy-change (2. order) :-0.3268903E-05  (-0.4770472E-06)
 number of electron   12.0000000 magnetization 
 augmentation part    -0.1433832 magnetization 

 Broyden mixing:
  rms(total) = 0.12650E-03    rms(broyden)= 0.12650E-03
  rms(prec ) = 0.19068E-03
  weight for this iteration     100.00

 eigenvalues of (default mixing * dielectric matrix)
  average eigenvalue GAMMA=   2.0620
  0.9968  2.6142  2.6142  2.0229

 Free energy of the ion-electron system (eV)
  ---------------------------------------------------
  alpha Z        PSCENC =        -0.95248850
  Ewald energy   TEWEN  =      -309.84147110
  -1/2 Hartree   DENC   =        -0.57526363
  -V(xc)+E(xc)   XCENC  =      -103.22139118
  PAW double counting   =       145.14090040      -17.49847526
  entropy T*S    EENTRO =        -0.00021217
  eigenvalues    EBANDS =        58.25165570
  atomic energy  EATOM  =       214.15364153
  ---------------------------------------------------
  free energy    TOTEN  =       -14.54310423 eV

  energy without entropy =      -14.54289206  energy(sigma->0) =      -14.54299814


--------------------------------------------------------------------------------------------------------




----------------------------------------- Iteration    1(  10)  ---------------------------------------


    POTLOK:  VPU time    0.01: CPU time    0.01
    SETDIJ:  VPU time    0.00: CPU time    0.00
    EDDAV :  VPU time    0.89: CPU time    0.89
    DOS   :  VPU time    0.00: CPU time   -0.00
    CHARGE:  VPU time    0.03: CPU time    0.03
    MIXING:  VPU time    0.00: CPU time    0.00
    ------------------------------------------
      LOOP:  VPU time    0.93: CPU time    0.94

 eigenvalue-minimisations  :  3744
 total energy-change (2. order) : 0.2552128E-06  (-0.6240210E-08)
 number of electron   12.0000000 magnetization 
 augmentation part    -0.1433834 magnetization 

 Broyden mixing:
  rms(total) = 0.48254E-04    rms(broyden)= 0.48252E-04
  rms(prec ) = 0.86736E-04
  weight for this iteration     100.00

 eigenvalues of (default mixing * dielectric matrix)
  average eigenvalue GAMMA=   1.9589
  2.6637  2.6637  2.4950  1.0209  0.9515

 Free energy of the ion-electron system (eV)
  ---------------------------------------------------
  alpha Z        PSCENC =        -0.95248850
  Ewald energy   TEWEN  =      -309.84147110
  -1/2 Hartree   DENC   =        -0.57515392
  -V(xc)+E(xc)   XCENC  =      -103.22149070
  PAW double counting   =       145.13683580      -17.49441404
  entropy T*S    EENTRO =        -0.00021219
  eigenvalues    EBANDS =        58.25164915
  atomic energy  EATOM  =       214.15364153
  ---------------------------------------------------
  free energy    TOTEN  =       -14.54310397 eV

  energy without entropy =      -14.54289178  energy(sigma->0) =      -14.54299788


--------------------------------------------------------------------------------------------------------




----------------------------------------- Iteration    1(  11)  ---------------------------------------


    POTLOK:  VPU time    0.01: CPU time    0.01
    SETDIJ:  VPU time    0.00: CPU time    0.00
    EDDAV :  VPU time    0.63: CPU time    0.63
    DOS   :  VPU time    0.00: CPU time   -0.00
    CHARGE:  VPU time    0.03: CPU time    0.03
    MIXING:  VPU time    0.00: CPU time    0.00
    ------------------------------------------
      LOOP:  VPU time    0.67: CPU time    0.67

 eigenvalue-minimisations  :  2328
 total energy-change (2. order) : 0.6362262E-07  (-0.1227387E-09)
 number of electron   12.0000000 magnetization 
 augmentation part    -0.1433845 magnetization 

 Broyden mixing:
  rms(total) = 0.29984E-05    rms(broyden)= 0.29977E-05
  rms(prec ) = 0.45545E-05
  weight for this iteration     100.00

 eigenvalues of (default mixing * dielectric matrix)
  average eigenvalue GAMMA=   2.0205
  1.0027  0.9907  2.6174  2.6174  2.5979  2.2969

 Free energy of the ion-electron system (eV)
  ---------------------------------------------------
  alpha Z        PSCENC =        -0.95248850
  Ewald energy   TEWEN  =      -309.84147110
  -1/2 Hartree   DENC   =        -0.57526972
  -V(xc)+E(xc)   XCENC  =      -103.22135579
  PAW double counting   =       145.13625360      -17.49387291
  entropy T*S    EENTRO =        -0.00021218
  eigenvalues    EBANDS =        58.25167117
  atomic energy  EATOM  =       214.15364153
  ---------------------------------------------------
  free energy    TOTEN  =       -14.54310391 eV

  energy without entropy =      -14.54289173  energy(sigma->0) =      -14.54299782


--------------------------------------------------------------------------------------------------------




----------------------------------------- Iteration    1(  12)  ---------------------------------------


    POTLOK:  VPU time    0.01: CPU time    0.01
    SETDIJ:  VPU time    0.00: CPU time    0.00
    EDDAV :  VPU time    0.62: CPU time    0.62
    DOS   :  VPU time    0.00: CPU time   -0.00
    ------------------------------------------
      LOOP:  VPU time    0.63: CPU time    0.64

 eigenvalue-minimisations  :  2224
 total energy-change (2. order) : 0.5702219E-08  (-0.1543311E-10)
 number of electron   12.0000000 magnetization 
 augmentation part    -0.1433845 magnetization 

 Free energy of the ion-electron system (eV)
  ---------------------------------------------------
  alpha Z        PSCENC =        -0.95248850
  Ewald energy   TEWEN  =      -309.84147110
  -1/2 Hartree   DENC   =        -0.57527175
  -V(xc)+E(xc)   XCENC  =      -103.22135463
  PAW double counting   =       145.13623702      -17.49385088
  entropy T*S    EENTRO =        -0.00021218
  eigenvalues    EBANDS =        58.25166660
  atomic energy  EATOM  =       214.15364153
  ---------------------------------------------------
  free energy    TOTEN  =       -14.54310390 eV

  energy without entropy =      -14.54289172  energy(sigma->0) =      -14.54299781


--------------------------------------------------------------------------------------------------------




 average (electrostatic) potential at core
  the test charge radii are     1.0406
  (the norm of the test charge is              1.0000)
       1 -70.6650       2 -70.6650       3 -70.6650       4 -70.6650
 
 
 
 E-fermi :   9.7066     XC(G=0): -10.7779     alpha+bet :-17.4018
   add alpha+bet to get absolut eigen values

 k-point   1 :       0.0000    0.0000    0.0000
  band No.  band energies     occupation 
      1      -2.5256      2.00000
      2       6.4351      2.00000
      3       6.4351      2.00000
      4       6.4351      2.00000
      5       8.0623      2.00000
      6       8.0623      2.00000
      7       8.0623      2.00000
      8      15.0230      0.00000
      9      15.0230      0.00000
     10      15.0230      0.00000
     11      16.1239      0.00000
     12      16.1239      0.00000
     13      16.1239      0.00000
     14      16.1239      0.00000
     15      16.1239      0.00000
     16      16.1239      0.00000

 k-point   2 :       0.0769    0.0000    0.0000
  band No.  band energies     occupation 
      1      -2.4661      2.00000
      2       5.6328      2.00000
      3       6.4884      2.00000
      4       6.4884      2.00000
      5       8.1161      2.00000
      6       8.1161      2.00000
      7       8.9635      2.00000
      8      14.1105      0.00000
      9      14.1105      0.00000
     10      15.0819      0.00000
     11      15.7583      0.00000
     12      15.7583      0.00000
     13      16.1724      0.00000
     14      16.1724      0.00000
     15      17.1468      0.00000
     16      17.1468      0.00000

 k-point   3 :       0.1538    0.0000    0.0000
  band No.  band energies     occupation 
      1      -2.2878      2.00000
      2       4.4310      2.00000
      3       6.6483      2.00000
      4       6.6483      2.00000
      5       8.2759      2.00000
      6       8.2759      2.00000
      7      10.4622      0.00000
      8      12.9118      0.00000
      9      12.9118      0.00000
     10      14.9435      0.00000
     11      14.9435      0.00000
     12      15.2584      0.00000
     13      16.3180      0.00000
     14      16.3180      0.00000
     15      18.6763      0.00000
     16      18.6763      0.00000

 k-point   4 :       0.2308    0.0000    0.0000
  band No.  band energies     occupation 
      1      -1.9913      2.00000
      2       3.2688      2.00000
      3       6.9150      2.00000
      4       6.9150      2.00000
      5       8.5349      2.00000
      6       8.5349      2.00000
      7      11.7910      0.00000
      8      11.7910      0.00000
      9      12.1188      0.00000
     10      14.0130      0.00000
     11      14.0130      0.00000
     12      15.5522      0.00000
     13      16.5608      0.00000
     14      16.5608      0.00000
     15      20.3469      0.00000
     16      20.3469      0.00000

 k-point   5 :       0.3077    0.0000    0.0000
  band No.  band energies     occupation 
      1      -1.5774      2.00000
      2       2.1947      2.00000
      3       7.2887      2.00000
      4       7.2887      2.00000
      5       8.8765      2.00000
      6       8.8765      2.00000
      7      10.7720      0.00000
      8      10.7720      0.00000
      9      13.1181      0.00000
     10      13.1181      0.00000
     11      13.8838      0.00000
     12      15.9629      0.00000
     13      16.9010      0.00000
     14      16.9010      0.00000
     15      19.7039      0.00000
     16      20.0481      0.00000

 k-point   6 :       0.3846    0.0000    0.0000
  band No.  band energies     occupation 
      1      -1.0474      2.00000
      2       1.2213      2.00000
      3       7.7697      2.00000
      4       7.7697      2.00000
      5       9.2584      2.00000
      6       9.2584      2.00000
      7       9.8595      0.00000
      8       9.8595      0.00000
      9      12.3513      0.00000
     10      12.3513      0.00000
     11      15.7426      0.00000
     12      16.4895      0.00000
     13      17.3387      0.00000
     14      17.3387      0.00000
     15      18.7441      0.00000
     16      19.2314      0.00000

 k-point   7 :       0.4615    0.0000    0.0000
  band No.  band energies     occupation 
      1      -0.4028      2.00000
      2       0.3542      2.00000
      3       8.3584      2.00000
      4       8.3584      2.00000
      5       9.0549      2.00000
      6       9.0549      2.00000
      7       9.5612      2.00000
      8       9.5612      2.00000
      9      11.8523      0.00000
     10      11.8523      0.00000
     11      17.1305      0.00000
     12      17.6849      0.00000
     13      17.8736      0.00000
     14      17.8736      0.00000
     15      17.8835      0.00000
     16      18.5051      0.00000

 k-point   8 :       0.0769    0.0769    0.0000
  band No.  band energies     occupation 
      1      -2.4066      2.00000
      2       5.6874      2.00000
      3       5.6874      2.00000
      4       6.5417      2.00000
      5       8.1689      2.00000
      6       9.0155      2.00000
      7       9.0155      2.00000
      8      13.3863      0.00000
      9      14.1661      0.00000
     10      14.1661      0.00000
     11      15.8090      0.00000
     12      15.8090      0.00000
     13      16.2222      0.00000
     14      17.1211      0.00000
     15      17.1985      0.00000
     16      17.1985      0.00000

 k-point   9 :       0.1538    0.0769    0.0000
  band No.  band energies     occupation 
      1      -2.2285      2.00000
      2       4.4867      2.00000
      3       5.8508      2.00000
      4       6.7016      2.00000
      5       8.3244      2.00000
      6       9.1694      2.00000
      7      10.5108      0.00000
      8      12.2646      0.00000
      9      12.9665      0.00000
     10      14.3327      0.00000
     11      14.9989      0.00000
     12      15.6461      0.00000
     13      15.9613      0.00000
     14      17.3538      0.00000
     15      18.2951      0.00000
     16      18.7287      0.00000

 k-point  10 :       0.2308    0.0769    0.0000
  band No.  band energies     occupation 
      1      -1.9321      2.00000
      2       3.3253      2.00000
      3       6.1227      2.00000
      4       6.9684      2.00000
      5       8.5695      2.00000
      6       9.4173      2.00000
      7      11.1888      0.00000
      8      11.8453      0.00000
      9      12.1612      0.00000
     10      14.0762      0.00000
     11      14.6101      0.00000
     12      14.7214      0.00000
     13      16.2167      0.00000
     14      17.6127      0.00000
     15      19.5413      0.00000
     16      19.8971      0.00000

 k-point  11 :       0.3077    0.0769    0.0000
  band No.  band energies     occupation 
      1      -1.5184      2.00000
      2       2.2517      2.00000
      3       6.5017      2.00000
      4       7.3422      2.00000
      5       8.8513      2.00000
      6       9.7382      0.00001
      7      10.2569      0.00000
      8      10.8261      0.00000
      9      13.1980      0.00000
     10      13.8089      0.00000
     11      13.9122      0.00000
     12      14.9976      0.00000
     13      16.5798      0.00000
     14      17.9754      0.00000
     15      18.5365      0.00000
     16      19.6804      0.00000

 k-point  12 :       0.3846    0.0769    0.0000
  band No.  band energies     occupation 
      1      -0.9887      2.00000
      2       1.2788      2.00000
      3       6.9854      2.00000
      4       7.8233      2.00000
      5       8.8337      2.00000
      6       9.7949      0.00000
      7       9.9135      0.00000
      8      10.0693      0.00000
      9      12.4800      0.00000
     10      12.9947      0.00000
     11      15.4943      0.00000
     12      15.7230      0.00000
     13      17.0765      0.00000
     14      17.6235      0.00000
     15      18.4419      0.00000
     16      18.8497      0.00000

 k-point  13 :       0.4615    0.0769    0.0000
  band No.  band energies     occupation 
      1      -0.3444      2.00000
      2       0.4123      2.00000
      3       7.5680      2.00000
      4       8.2288      2.00000
      5       8.4120      2.00000
      6       9.1087      2.00000
      7      10.0267      0.00000
      8      10.2254      0.00000
      9      12.1340      0.00000
     10      12.3683      0.00000
     11      16.0989      0.00000
     12      16.8095      0.00000
     13      17.2713      0.00000
     14      18.0192      0.00000
     15      18.0863      0.00000
     16      19.0115      0.00000

 k-point  14 :       0.1538    0.1538    0.0000
  band No.  band energies     occupation 
      1      -2.0506      2.00000
      2       4.6534      2.00000
      3       4.6534      2.00000
      4       6.8617      2.00000
      5       8.4604      2.00000
      6      10.6527      0.00000
      7      10.6527      0.00000
      8      11.2014      0.00000
      9      13.1305      0.00000
     10      13.1305      0.00000
     11      15.1669      0.00000
     12      15.1669      0.00000
     13      16.5174      0.00000
     14      17.9306      0.00000
     15      18.8859      0.00000
     16      18.8859      0.00000

 k-point  15 :       0.2308    0.1538    0.0000
  band No.  band energies     occupation 
      1      -1.7546      2.00000
      2       3.4944      2.00000
      3       4.9306      2.00000
      4       7.1286      2.00000
      5       8.6283      2.00000
      6      10.2202      0.00000
      7      10.8724      0.00000
      8      12.0083      0.00000
      9      12.2789      0.00000
     10      13.4038      0.00000
     11      14.2725      0.00000
     12      15.4554      0.00000
     13      16.0125      0.00000
     14      18.3248      0.00000
     15      19.0634      0.00000
     16      19.1478      0.00000

 k-point  16 :       0.3077    0.1538    0.0000
  band No.  band energies     occupation 
      1      -1.3416      2.00000
      2       2.4228      2.00000
      3       5.3171      2.00000
      4       7.5026      2.00000
      5       8.5151      2.00000
      6       9.7000      1.64456
      7      10.9884      0.00000
      8      11.1179      0.00000
      9      13.4659      0.00000
     10      13.7859      0.00000
     11      13.9641      0.00000
     12      15.1436      0.00000
     13      15.8974      0.00000
     14      17.3090      0.00000
     15      18.8713      0.00000
     16      19.5138      0.00000

 k-point  17 :       0.3846    0.1538    0.0000
  band No.  band energies     occupation 
      1      -0.8126      2.00000
      2       1.4515      2.00000
      3       5.8107      2.00000
      4       7.8532      2.00000
      5       7.9840      2.00000
      6       9.9167      0.00000
      7      10.0753      0.00000
      8      11.2137      0.00000
      9      12.9757      0.00000
     10      14.2767      0.00000
     11      14.3117      0.00000
     12      15.5041      0.00000
     13      16.3933      0.00000
     14      16.6814      0.00000
     15      18.0257      0.00000
     16      19.9827      0.00000

 k-point  18 :       0.4615    0.1538    0.0000
  band No.  band energies     occupation 
      1      -0.1693      2.00000
      2       0.5862      2.00000
      3       6.4075      2.00000
      4       7.0983      2.00000
      5       8.5730      2.00000
      6       9.2701      2.00000
      7      10.3970      0.00000
      8      10.9129      0.00000
      9      13.0729      0.00000
     10      13.5927      0.00000
     11      14.8755      0.00000
     12      15.5815      0.00000
     13      16.4854      0.00000
     14      17.2428      0.00000
     15      18.2102      0.00000
     16      20.1362      0.00000

 k-point  19 :       0.2308    0.2308    0.0000
  band No.  band energies     occupation 
      1      -1.4595      2.00000
      2       3.7757      2.00000
      3       3.7757      2.00000
      4       7.3957      2.00000
      5       8.4065      2.00000
      6       9.6347      2.00000
      7      12.2799      0.00000
      8      12.2799      0.00000
      9      12.4259      0.00000
     10      12.4259      0.00000
     11      14.6381      0.00000
     12      14.6381      0.00000
     13      17.0105      0.00000
     14      17.2018      0.00000
     15      18.6715      0.00000
     16      18.8543      0.00000

 k-point  20 :       0.3077    0.2308    0.0000
  band No.  band energies     occupation 
      1      -1.0474      2.00000
      2       2.7073      2.00000
      3       4.1680      2.00000
      4       7.6490      2.00000
      5       7.7701      2.00000
      6       9.7634      0.00000
      7      11.2590      0.00000
      8      12.4295      0.00000
      9      12.6600      0.00000
     10      13.8641      0.00000
     11      14.0732      0.00000
     12      15.3350      0.00000
     13      16.1797      0.00000
     14      16.6189      0.00000
     15      17.9457      0.00000
     16      19.8473      0.00000

 k-point  21 :       0.3846    0.2308    0.0000
  band No.  band energies     occupation 
      1      -0.5198      2.00000
      2       1.7386      2.00000
      3       4.6698      2.00000
      4       6.7896      2.00000
      5       8.2519      2.00000
      6      10.1885      0.00000
      7      10.3450      0.00000
      8      12.0242      0.00000
      9      13.1486      0.00000
     10      14.0786      0.00000
     11      14.8480      0.00000
     12      15.2618      0.00000
     13      15.8490      0.00000
     14      16.6846      0.00000
     15      17.0908      0.00000
     16      21.5925      0.00000

 k-point  22 :       0.4615    0.2308    0.0000
  band No.  band energies     occupation 
      1       0.1219      2.00000
      2       0.8756      2.00000
      3       5.2781      2.00000
      4       5.9883      2.00000
      5       8.8415      2.00000
      6       9.5392      2.00000
      7      10.7475      0.00000
      8      11.3866      0.00000
      9      13.7454      0.00000
     10      14.4500      0.00000
     11      14.5005      0.00000
     12      15.1177      0.00000
     13      15.5756      0.00000
     14      16.3033      0.00000
     15      18.4758      0.00000
     16      20.4350      0.00000

 k-point  23 :       0.3077    0.3077    0.0000
  band No.  band energies     occupation 
      1      -0.6368      2.00000
      2       3.1042      2.00000
      3       3.1042      2.00000
      4       6.6845      2.00000
      5       8.1449      2.00000
      6      10.1004      0.00000
      7      11.6378      0.00000
      8      11.6378      0.00000
      9      13.3430      0.00000
     10      13.3430      0.00000
     11      15.1545      0.00000
     12      15.2964      0.00000
     13      15.2964      0.00000
     14      17.0290      0.00000
     15      17.7027      0.00000
     16      19.5428      0.00000

 k-point  24 :       0.3846    0.3077    0.0000
  band No.  band energies     occupation 
      1      -0.1110      2.00000
      2       2.1393      2.00000
      3       3.6122      2.00000
      4       5.7740      2.00000
      5       8.6273      2.00000
      6      10.5790      0.00000
      7      10.7229      0.00000
      8      12.1249      0.00000
      9      12.5990      0.00000
     10      14.0061      0.00000
     11      14.2356      0.00000
     12      15.6358      0.00000
     13      16.1666      0.00000
     14      16.9680      0.00000
     15      17.4369      0.00000
     16      20.7790      0.00000

 k-point  25 :       0.4615    0.3077    0.0000
  band No.  band energies     occupation 
      1       0.5284      2.00000
      2       1.2794      2.00000
      3       4.2291      2.00000
      4       4.9516      2.00000
      5       9.2176      2.00000
      6       9.9161      0.00000
      7      11.1686      0.00000
      8      11.8510      0.00000
      9      12.7204      0.00000
     10      13.4240      0.00000
     11      14.6607      0.00000
     12      15.3761      0.00000
     13      16.1537      0.00000
     14      16.7794      0.00000
     15      18.8275      0.00000
     16      20.7739      0.00000

 k-point  26 :       0.3846    0.3846    0.0000
  band No.  band energies     occupation 
      1       0.4125      2.00000
      2       2.6523      2.00000
      3       2.6523      2.00000
      4       4.8419      2.00000
      5       9.1105      2.00000
      6      11.0793      0.00000
      7      11.2088      0.00000
      8      11.2088      0.00000
      9      13.1646      0.00000
     10      13.1646      0.00000
     11      13.3166      0.00000
     12      15.2983      0.00000
     13      17.3954      0.00000
     14      17.3954      0.00000
     15      18.5955      0.00000
     16      20.5897      0.00000

 k-point  27 :       0.4615    0.3846    0.0000
  band No.  band energies     occupation 
      1       1.0490      2.00000
      2       1.7966      2.00000
      3       3.2757      2.00000
      4       4.0069      2.00000
      5       9.7016      1.51887
      6      10.4010      0.00000
      7      11.6830      0.00000
      8      11.8031      0.00000
      9      12.3824      0.00000
     10      12.5057      0.00000
     11      13.7940      0.00000
     12      14.5048      0.00000
     13      17.9171      0.00000
     14      18.4586      0.00000
     15      19.2518      0.00000
     16      21.0962      0.00000

 k-point  28 :       0.4615    0.4615    0.0000
  band No.  band energies     occupation 
      1       1.6820      2.00000
      2       2.4252      2.00000
      3       2.4252      2.00000
      4       3.1631      2.00000
      5      10.2937      0.00000
      6      10.9942      0.00000
      7      10.9942      0.00000
      8      11.6957      0.00000
      9      12.2947      0.00000
     10      13.0008      0.00000
     11      13.0008      0.00000
     12      13.7096      0.00000
     13      19.6798      0.00000
     14      19.6798      0.00000
     15      19.6904      0.00000
     16      20.9877      0.00000

 k-point  29 :       0.0769    0.0769    0.0769
  band No.  band energies     occupation 
      1      -2.3472      2.00000
      2       5.7419      2.00000
      3       5.7419      2.00000
      4       5.7419      2.00000
      5       9.0661      2.00000
      6       9.0661      2.00000
      7       9.0661      2.00000
      8      13.4425      0.00000
      9      13.4425      0.00000
     10      13.4425      0.00000
     11      16.2707      0.00000
     12      16.2707      0.00000
     13      16.2707      0.00000
     14      17.1766      0.00000
     15      17.1766      0.00000
     16      17.1766      0.00000

 k-point  30 :       0.1538    0.0769    0.0769
  band No.  band energies     occupation 
      1      -2.1691      2.00000
      2       4.5423      2.00000
      3       5.9051      2.00000
      4       5.9051      2.00000
      5       9.2137      2.00000
      6       9.2137      2.00000
      7      10.5560      0.00000
      8      12.3241      0.00000
      9      12.3241      0.00000
     10      13.6123      0.00000
     11      15.6988      0.00000
     12      15.6988      0.00000
     13      16.4164      0.00000
     14      17.3432      0.00000
     15      18.3493      0.00000
     16      18.3493      0.00000

 k-point  31 :       0.2308    0.0769    0.0769
  band No.  band energies     occupation 
      1      -1.8729      2.00000
      2       3.3817      2.00000
      3       6.1764      2.00000
      4       6.1764      2.00000
      5       9.4378      2.00000
      6       9.4378      2.00000
      7      11.2617      0.00000
      8      11.2617      0.00000
      9      12.1912      0.00000
     10      13.9032      0.00000
     11      14.7793      0.00000
     12      14.7793      0.00000
     13      16.6593      0.00000
     14      17.6211      0.00000
     15      18.7253      0.00000
     16      19.9502      0.00000

 k-point  32 :       0.3077    0.0769    0.0769
  band No.  band energies     occupation 
      1      -1.4594      2.00000
      2       2.3088      2.00000
      3       6.5540      2.00000
      4       6.5540      2.00000
      5       9.5973      2.00000
      6       9.5973      2.00000
      7      10.4404      0.00000
      8      10.4404      0.00000
      9      13.8271      0.00000
     10      13.8760      0.00000
     11      13.8760      0.00000
     12      14.4077      0.00000
     13      16.9997      0.00000
     14      17.7283      0.00000
     15      18.0112      0.00000
     16      20.1499      0.00000

 k-point  33 :       0.3846    0.0769    0.0769
  band No.  band energies     occupation 
      1      -0.9300      2.00000
      2       1.3364      2.00000
      3       7.0330      2.00000
      4       7.0330      2.00000
      5       9.1104      2.00000
      6       9.1104      2.00000
      7      10.4258      0.00000
      8      10.4258      0.00000
      9      13.0864      0.00000
     10      13.0864      0.00000
     11      14.6744      0.00000
     12      15.8938      0.00000
     13      16.8222      0.00000
     14      17.4376      0.00000
     15      18.5184      0.00000
     16      19.3321      0.00000

 k-point  34 :       0.4615    0.0769    0.0769
  band No.  band energies     occupation 
      1      -0.2860      2.00000
      2       0.4703      2.00000
      3       7.5835      2.00000
      4       7.5835      2.00000
      5       8.4029      2.00000
      6       8.4029      2.00000
      7      10.7113      0.00000
      8      10.7113      0.00000
      9      12.5475      0.00000
     10      12.5475      0.00000
     11      15.3018      0.00000
     12      16.0131      0.00000
     13      17.7533      0.00000
     14      17.9729      0.00000
     15      18.6050      0.00000
     16      19.1696      0.00000

 k-point  35 :       0.1538    0.1538    0.0769
  band No.  band energies     occupation 
      1      -1.9913      2.00000
      2       4.7088      2.00000
      3       4.7088      2.00000
      4       6.0675      2.00000
      5       9.3299      2.00000
      6      10.6796      0.00000
      7      10.6796      0.00000
      8      11.2793      0.00000
      9      12.5107      0.00000
     10      12.5107      0.00000
     11      15.8576      0.00000
     12      15.8576      0.00000
     13      16.5660      0.00000
     14      17.9889      0.00000
     15      18.5117      0.00000
     16      18.5117      0.00000

 k-point  36 :       0.2308    0.1538    0.0769
  band No.  band energies     occupation 
      1      -1.6956      2.00000
      2       3.5507      2.00000
      3       4.9856      2.00000
      4       6.3366      2.00000
      5       9.3761      2.00000
      6      10.4170      0.00000
      7      10.7658      0.00000
      8      11.5688      0.00000
      9      12.1834      0.00000
     10      12.9212      0.00000
     11      14.9558      0.00000
     12      16.0654      0.00000
     13      16.1246      0.00000
     14      17.5833      0.00000
     15      18.7824      0.00000
     16      19.1186      0.00000

 k-point  37 :       0.3077    0.1538    0.0769
  band No.  band energies     occupation 
      1      -1.2827      2.00000
      2       2.4797      2.00000
      3       5.3713      2.00000
      4       6.7075      2.00000
      5       8.8463      2.00000
      6      10.1972      0.00000
      7      10.3138      0.00000
      8      11.4339      0.00000
      9      13.0033      0.00000
     10      14.0899      0.00000
     11      14.2164      0.00000
     12      15.2013      0.00000
     13      16.5095      0.00000
     14      16.5800      0.00000
     15      19.1609      0.00000
     16      19.6196      0.00000

 k-point  38 :       0.3846    0.1538    0.0769
  band No.  band energies     occupation 
      1      -0.7540      2.00000
      2       1.5089      2.00000
      3       5.8629      2.00000
      4       7.1479      2.00000
      5       8.0661      2.00000
      6       9.3452      2.00000
      7      10.6821      0.00000
      8      11.6537      0.00000
      9      13.4204      0.00000
     10      13.5423      0.00000
     11      14.3780      0.00000
     12      15.6710      0.00000
     13      15.9172      0.00000
     14      17.0698      0.00000
     15      18.7771      0.00000
     16      19.6475      0.00000

 k-point  39 :       0.4615    0.1538    0.0769
  band No.  band energies     occupation 
      1      -0.1110      2.00000
      2       0.6441      2.00000
      3       6.4528      2.00000
      4       7.0959      2.00000
      5       7.9223      2.00000
      6       8.5619      2.00000
      7      11.1678      0.00000
      8      11.5964      0.00000
      9      13.2608      0.00000
     10      13.6837      0.00000
     11      14.1530      0.00000
     12      14.8615      0.00000
     13      17.2161      0.00000
     14      18.0000      0.00000
     15      18.2412      0.00000
     16      20.0464      0.00000

 k-point  40 :       0.2308    0.2308    0.0769
  band No.  band energies     occupation 
      1      -1.4005      2.00000
      2       3.8317      2.00000
      3       3.8317      2.00000
      4       6.5987      2.00000
      5       8.7484      2.00000
      6      10.2434      0.00000
      7      11.4979      0.00000
      8      11.4979      0.00000
      9      12.7146      0.00000
     10      12.7146      0.00000
     11      15.2654      0.00000
     12      15.2654      0.00000
     13      16.4885      0.00000
     14      17.0592      0.00000
     15      18.7299      0.00000
     16      19.6214      0.00000

 k-point  41 :       0.3077    0.2308    0.0769
  band No.  band energies     occupation 
      1      -0.9887      2.00000
      2       2.7640      2.00000
      3       4.2236      2.00000
      4       6.9299      2.00000
      5       7.8720      2.00000
      6      10.5337      0.00000
      7      10.5352      0.00000
      8      11.9386      0.00000
      9      12.8491      0.00000
     10      14.2730      0.00000
     11      14.5234      0.00000
     12      15.4795      0.00000
     13      15.7769      0.00000
     14      16.6715      0.00000
     15      18.7126      0.00000
     16      19.9020      0.00000

 k-point  42 :       0.3846    0.2308    0.0769
  band No.  band energies     occupation 
[...]
     16      21.2748      0.00000

 k-point  64 :       0.4615    0.4615    0.1538
  band No.  band energies     occupation 
      1       1.9112      2.00000
      2       2.6524      2.00000
      3       2.6524      2.00000
      4       3.3876      2.00000
      5       8.4696      2.00000
      6       9.1797      2.00000
      7       9.1797      2.00000
      8       9.8904      0.00000
      9      14.5086      0.00000
     10      15.1971      0.00000
     11      15.1971      0.00000
     12      15.8929      0.00000
     13      19.8757      0.00000
     14      19.8757      0.00000
     15      19.8832      0.00000
     16      21.1756      0.00000

 k-point  65 :       0.2308    0.2308    0.2308
  band No.  band energies     occupation 
      1      -0.9300      2.00000
      2       4.2779      2.00000
      3       4.2779      2.00000
      4       4.2779      2.00000
      5       9.3309      2.00000
      6       9.3309      2.00000
      7       9.3309      2.00000
      8      13.2062      0.00000
      9      13.2062      0.00000
     10      13.2062      0.00000
     11      14.2843      0.00000
     12      17.4489      0.00000
     13      17.4489      0.00000
     14      17.4489      0.00000
     15      19.1950      0.00000
     16      19.1950      0.00000

 k-point  66 :       0.3077    0.2308    0.2308
  band No.  band energies     occupation 
      1      -0.5198      2.00000
      2       3.2167      2.00000
      3       4.6643      2.00000
      4       4.6643      2.00000
      5       8.3220      2.00000
      6       8.3220      2.00000
      7       9.7275      0.00309
      8      13.2738      0.00000
      9      13.5657      0.00000
     10      13.5657      0.00000
     11      14.9341      0.00000
     12      17.0951      0.00000
     13      17.0951      0.00000
     14      17.7903      0.00000
     15      19.5994      0.00000
     16      20.3362      0.00000

 k-point  67 :       0.3846    0.2308    0.2308
  band No.  band energies     occupation 
      1       0.0055      2.00000
      2       2.2533      2.00000
      3       5.1506      2.00000
      4       5.1506      2.00000
      5       7.4145      2.00000
      6       7.4145      2.00000
      7      10.2272      0.00000
      8      12.3581      0.00000
      9      13.9921      0.00000
     10      13.9921      0.00000
     11      16.3829      0.00000
     12      16.3829      0.00000
     13      16.7481      0.00000
     14      18.2297      0.00000
     15      20.1180      0.00000
     16      20.1345      0.00000

 k-point  68 :       0.4615    0.2308    0.2308
  band No.  band energies     occupation 
      1       0.6443      2.00000
      2       1.3945      2.00000
      3       5.6861      2.00000
      4       5.6861      2.00000
      5       6.6671      2.00000
      6       6.6671      2.00000
      7      10.8325      0.00000
      8      11.5434      0.00000
      9      14.3868      0.00000
     10      14.3868      0.00000
     11      15.8187      0.00000
     12      15.8187      0.00000
     13      18.6051      0.00000
     14      18.7673      0.00000
     15      19.4026      0.00000
     16      20.3590      0.00000

 k-point  69 :       0.3077    0.3077    0.2308
  band No.  band energies     occupation 
      1      -0.1110      2.00000
      2       3.6103      2.00000
      3       3.6103      2.00000
      4       5.0396      2.00000
      5       7.3118      2.00000
      6       8.7097      2.00000
      7       8.7097      2.00000
      8      12.2601      0.00000
      9      13.9594      0.00000
     10      15.2762      0.00000
     11      15.2762      0.00000
     12      17.4776      0.00000
     13      17.4776      0.00000
     14      18.1413      0.00000
     15      20.0506      0.00000
     16      20.5239      0.00000

 k-point  70 :       0.3846    0.3077    0.2308
  band No.  band energies     occupation 
      1       0.4125      2.00000
      2       2.6517      2.00000
      3       4.1120      2.00000
      4       5.4664      2.00000
      5       6.4544      2.00000
      6       7.7894      2.00000
      7       9.2067      2.00000
      8      11.3415      0.00000
      9      14.4317      0.00000
     10      15.5832      0.00000
     11      16.8923      0.00000
     12      16.9972      0.00000
     13      17.9065      0.00000
     14      18.0375      0.00000
     15      19.7376      0.00000
     16      21.1843      0.00000

 k-point  71 :       0.4615    0.3077    0.2308
  band No.  band energies     occupation 
      1       1.0490      2.00000
      2       1.7964      2.00000
      3       4.7131      2.00000
      4       5.3617      2.00000
      5       6.3391      2.00000
      6       6.9812      2.00000
      7       9.8120      0.00000
      8      10.5243      0.00000
      9      14.9685      0.00000
     10      15.4779      0.00000
     11      16.8192      0.00000
     12      17.2981      0.00000
     13      18.2283      0.00000
     14      18.9806      0.00000
     15      19.2456      0.00000
     16      21.0165      0.00000

 k-point  72 :       0.3846    0.3846    0.2308
  band No.  band energies     occupation 
      1       0.9336      2.00000
      2       3.1610      2.00000
      3       3.1610      2.00000
      4       5.2532      2.00000
      5       6.2286      2.00000
      6       8.2827      2.00000
      7       8.2827      2.00000
      8      10.4201      0.00000
      9      14.9311      0.00000
     10      16.7718      0.00000
     11      16.7718      0.00000
     12      17.9899      0.00000
     13      17.9899      0.00000
     14      18.9656      0.00000
     15      19.0332      0.00000
     16      21.0673      0.00000

 k-point  73 :       0.4615    0.3846    0.2308
  band No.  band energies     occupation 
      1       1.5671      2.00000
      2       2.3107      2.00000
      3       3.7777      2.00000
      4       4.4927      2.00000
      5       6.7620      2.00000
      6       7.4641      2.00000
      7       8.8875      2.00000
      8       9.6009      2.00000
      9      15.5074      0.00000
     10      16.1476      0.00000
     11      17.5070      0.00000
     12      18.2114      0.00000
     13      18.4095      0.00000
     14      18.9174      0.00000
     15      19.6909      0.00000
     16      21.4787      0.00000

 k-point  74 :       0.4615    0.4615    0.2308
  band No.  band energies     occupation 
      1       2.1968      2.00000
      2       2.9352      2.00000
      3       2.9352      2.00000
      4       3.6658      2.00000
      5       7.3550      2.00000
      6       8.0666      2.00000
      7       8.0666      2.00000
      8       8.7803      2.00000
      9      16.1053      0.00000
     10      16.7768      0.00000
     11      16.7768      0.00000
     12      17.4626      0.00000
     13      20.1182      0.00000
     14      20.1182      0.00000
     15      20.1237      0.00000
     16      21.4057      0.00000

 k-point  75 :       0.3077    0.3077    0.3077
  band No.  band energies     occupation 
      1       0.2964      2.00000
      2       3.9999      2.00000
      3       3.9999      2.00000
      4       3.9999      2.00000
      5       7.6871      2.00000
      6       7.6871      2.00000
      7       7.6871      2.00000
      8      11.2430      0.00000
      9      15.6873      0.00000
     10      15.6873      0.00000
     11      15.6873      0.00000
     12      18.4830      0.00000
     13      18.4830      0.00000
     14      18.4830      0.00000
     15      20.4382      0.00000
     16      20.4382      0.00000

 k-point  76 :       0.3846    0.3077    0.3077
  band No.  band energies     occupation 
      1       0.8180      2.00000
      2       3.0478      2.00000
      3       4.4904      2.00000
      4       4.4904      2.00000
      5       6.7698      2.00000
      6       6.7698      2.00000
      7       8.1810      2.00000
      8      10.3209      0.00000
      9      16.1367      0.00000
     10      16.1367      0.00000
     11      17.4926      0.00000
     12      18.2819      0.00000
     13      18.2819      0.00000
     14      18.9227      0.00000
     15      20.8290      0.00000
     16      20.9263      0.00000

 k-point  77 :       0.4615    0.3077    0.3077
  band No.  band energies     occupation 
      1       1.4522      2.00000
      2       2.1966      2.00000
      3       5.0321      2.00000
      4       5.0321      2.00000
      5       6.0137      2.00000
      6       6.0137      2.00000
      7       8.7866      2.00000
      8       9.5009      2.00000
      9      16.5570      0.00000
     10      16.5570      0.00000
     11      17.7852      0.00000
     12      17.7852      0.00000
     13      19.3309      0.00000
     14      19.4606      0.00000
     15      20.0965      0.00000
     16      21.0366      0.00000

 k-point  78 :       0.3846    0.3846    0.3077
  band No.  band energies     occupation 
      1       1.3372      2.00000
      2       3.5526      2.00000
      3       3.5526      2.00000
      4       4.9221      2.00000
      5       5.9038      2.00000
      6       7.2541      2.00000
      7       7.2541      2.00000
      8       9.3958      2.00000
      9      16.6468      0.00000
     10      17.8493      0.00000
     11      17.8493      0.00000
     12      18.8257      0.00000
     13      18.8257      0.00000
     14      19.3737      0.00000
     15      20.4759      0.00000
     16      21.4224      0.00000

 k-point  79 :       0.4615    0.3846    0.3077
  band No.  band energies     occupation 
      1       1.9682      2.00000
      2       2.7083      2.00000
      3       4.1581      2.00000
      4       4.8139      2.00000
      5       5.7904      2.00000
      6       6.4398      2.00000
      7       7.8581      2.00000
      8       8.5734      2.00000
      9      17.1968      0.00000
     10      17.7288      0.00000
     11      18.8500      0.00000
     12      19.0535      0.00000
     13      19.2798      0.00000
     14      19.7752      0.00000
     15      20.0108      0.00000
     16      21.6764      0.00000

 k-point  80 :       0.4615    0.4615    0.3077
  band No.  band energies     occupation 
      1       2.5948      2.00000
      2       3.3280      2.00000
      3       3.3280      2.00000
      4       4.0470      2.00000
      5       6.3291      2.00000
      6       7.0354      2.00000
      7       7.0354      2.00000
      8       7.7497      2.00000
      9      17.7960      0.00000
     10      18.4322      0.00000
     11      18.4322      0.00000
     12      19.1012      0.00000
     13      20.4519      0.00000
     14      20.4519      0.00000
     15      20.4586      0.00000
     16      21.7104      0.00000

 k-point  81 :       0.3846    0.3846    0.3846
  band No.  band energies     occupation 
      1       1.8538      2.00000
      2       4.0463      2.00000
      3       4.0463      2.00000
      4       4.0463      2.00000
      5       6.3311      2.00000
      6       6.3311      2.00000
      7       6.3311      2.00000
      8       8.4674      2.00000
      9      18.4298      0.00000
     10      18.4298      0.00000
     11      18.4298      0.00000
     12      19.8114      0.00000
     13      19.8114      0.00000
     14      19.8114      0.00000
     15      21.6844      0.00000
     16      21.6844      0.00000

 k-point  82 :       0.4615    0.3846    0.3846
  band No.  band energies     occupation 
      1       2.4810      2.00000
      2       3.2151      2.00000
      3       4.5939      2.00000
      4       4.5939      2.00000
      5       5.5679      2.00000
      6       5.5679      2.00000
      7       6.9276      2.00000
      8       7.6428      2.00000
      9      18.8892      0.00000
     10      18.8892      0.00000
     11      19.7886      0.00000
     12      19.7886      0.00000
     13      20.2197      0.00000
     14      20.3453      0.00000
     15      20.9728      0.00000
     16      21.7254      0.00000

 k-point  83 :       0.4615    0.4615    0.3846
  band No.  band energies     occupation 
      1       3.1023      2.00000
      2       3.8233      2.00000
      3       3.8233      2.00000
      4       4.4843      2.00000
      5       5.4552      2.00000
      6       6.1097      2.00000
      7       6.1097      2.00000
      8       6.8181      2.00000
      9      19.5284      0.00000
     10      20.0625      0.00000
     11      20.0625      0.00000
     12      20.7034      0.00000
     13      20.8651      0.00000
     14      20.8651      0.00000
     15      20.8840      0.00000
     16      22.0081      0.00000

 k-point  84 :       0.4615    0.4615    0.4615
  band No.  band energies     occupation 
      1       3.7115      2.00000
      2       4.3743      2.00000
      3       4.3743      2.00000
      4       4.3743      2.00000
      5       5.3426      2.00000
      6       5.3426      2.00000
      7       5.3426      2.00000
      8       5.9990      2.00000
      9      21.1796      0.00000
     10      21.1796      0.00000
     11      21.1796      0.00000
     12      21.3859      0.00000
     13      21.3859      0.00000
     14      21.3859      0.00000
     15      21.8908      0.00000
     16      21.8908      0.00000


--------------------------------------------------------------------------------------------------------


 soft charge-density along one line, spin component           1
         0         1         2         3         4         5         6         7         8         9
 total charge-density along one line
 
 pseudopotential strength for first ion, spin component:           1
  8.391  -0.009  -0.000  -0.000  -0.000  -0.000  -0.000  -0.000
 -0.009   0.000  -0.000  -0.000  -0.000   0.000   0.000   0.000
 -0.000  -0.000   1.997   0.000   0.000  -0.032  -0.000  -0.000
 -0.000  -0.000   0.000   1.997   0.000  -0.000  -0.032  -0.000
 -0.000  -0.000   0.000   0.000   1.997  -0.000  -0.000  -0.032
 -0.000   0.000  -0.032  -0.000  -0.000  -0.011  -0.000  -0.000
 -0.000   0.000  -0.000  -0.032  -0.000  -0.000  -0.011  -0.000
 -0.000   0.000  -0.000  -0.000  -0.032  -0.000  -0.000  -0.011
 total augmentation occupancy for first ion, spin component:           1
  1.294  -0.663  -0.000  -0.000   0.000   0.000  -0.000  -0.000
 -0.663   0.682  -0.000   0.000   0.000   0.000   0.000  -0.000
 -0.000  -0.000   0.850  -0.053   0.039  -0.198   0.016   0.004
 -0.000   0.000  -0.053   0.964   0.009   0.016  -0.163   0.007
  0.000   0.000   0.039   0.009   0.783   0.004   0.007  -0.209
  0.000   0.000  -0.198   0.016   0.004   0.051  -0.003  -0.003
 -0.000   0.000   0.016  -0.163   0.007  -0.003   0.031  -0.002
 -0.000  -0.000   0.004   0.007  -0.209  -0.003  -0.002   0.063


------------------------ aborting loop because EDIFF is reached ----------------------------------------




--------------------------------------------------------------------------------------------------------


    CHARGE:  VPU time    0.03: CPU time    0.03
    FORLOC:  VPU time    0.00: CPU time    0.00
    FORNL :  VPU time    0.06: CPU time    0.06
    STRESS:  VPU time    0.40: CPU time    0.40
    FORCOR:  VPU time    0.01: CPU time    0.01
    FORHAR:  VPU time    0.00: CPU time    0.00
    MIXING:  VPU time    0.00: CPU time    0.00


--------------------------------------------------------------------------------------------------------



  FREE ENERGIE OF THE ION-ELECTRON SYSTEM (eV)
  ---------------------------------------------------
  free  energy   TOTEN  =       -14.543104 eV

  energy  without entropy=      -14.542892  energy(sigma->0) =      -14.542998
 

  FORCE on cell =-STRESS in cart. coord.  units (eV/reduce length):
  Direction    X        Y        Z        XY       YZ       ZX
  --------------------------------------------------------------------------------------
  Alpha Z     -0.95     -0.95     -0.95
  Ewald     -103.28   -103.28   -103.28      0.00     -0.00     -0.00
  Hartree      0.19      0.19      0.19     -0.00     -0.00     -0.00
  E(xc)      -36.11    -36.11    -36.11     -0.00     -0.00     -0.00
  Local        3.86      3.86      3.86      0.00      0.00     -0.00
  n-local     77.86     78.86     81.89      0.68      1.69      0.68
  augment     -3.81     -3.81     -3.81      0.00      0.00      0.00
  Kinetic     63.53     66.05     70.33      2.13     -8.93     -1.05
  -------------------------------------------------------------------------------------
  Total        6.06      6.06      6.06     -0.00     -0.00      0.00
  in kB      172.21    172.21    172.21     -0.00     -0.00      0.00
  external pressure =      172.21 kB  Pullay stress =        0.00 kB


 VOLUME and BASIS-vectors are now :
 -----------------------------------------------------------------------------
  energy-cutoff  :      500.00
  volume of cell :       56.42
      direct lattice vectors                 reciprocal lattice vectors
     3.835441051  0.000000000  0.000000000     0.260726208  0.000000000  0.000000000
     0.000000000  3.835441051  0.000000000     0.000000000  0.260726208  0.000000000
     0.000000000  0.000000000  3.835441051     0.000000000  0.000000000  0.260726208

  length of vectors
     3.835441051  3.835441051  3.835441051     0.260726208  0.260726208  0.260726208


 FORCES acting on ions
    electron-ion (+dipol)            ewald-force                    non-local-force                 convergence-correction
 -----------------------------------------------------------------------------------------------
   -.567E-14 -.196E-13 0.124E-13   0.327E-15 0.112E-15 -.746E-15   0.162E-26 -.404E-27 -.162E-26   -.471E-15 0.492E-16 -.734E-16
   -.611E-14 0.822E-16 -.709E-13   0.382E-15 0.260E-15 0.313E-15   -.162E-26 0.404E-26 0.404E-27   -.462E-15 -.484E-16 0.509E-16
   0.901E-15 -.392E-14 -.507E-14   -.446E-15 -.390E-15 0.292E-15   -.323E-26 -.242E-26 -.136E-26   0.474E-15 0.431E-16 0.509E-16
   0.126E-14 -.589E-15 0.128E-15   -.392E-15 -.243E-15 -.137E-15   0.000E+00 -.404E-27 -.404E-26   0.462E-15 -.574E-16 -.724E-16
 -----------------------------------------------------------------------------------------------
   -.962E-14 -.241E-13 -.635E-13   -.129E-15 -.260E-15 -.277E-15   -.323E-26 0.808E-27 -.661E-26   0.227E-17 -.136E-16 -.439E-16
 
 
 POSITION                                       TOTAL-FORCE (eV/Angst)
 -----------------------------------------------------------------------------------
      1.91772      1.91772      0.00000        -0.000000     -0.000000      0.000000
      1.91772      0.00000      1.91772        -0.000000      0.000000     -0.000000
      0.00000      1.91772      1.91772         0.000000      0.000000     -0.000000
      0.00000      0.00000      0.00000        -0.000000      0.000000      0.000000
 -----------------------------------------------------------------------------------
    total drift:                               -0.000000     -0.000000     -0.000000


--------------------------------------------------------------------------------------------------------



 mean value of Nose-termostat <S>:     1.000 mean value of <T> :     0.000
 mean temperature <T/S>/<1/S>  :     0.000

     LOOP+:  VPU time   10.22: CPU time   10.24
  
  
 General timing and accounting informations for this job:
 ========================================================
  
                  Total CPU time used (sec):       10.772
                            User time (sec):        7.230
                          System time (sec):        3.542
                         Elapsed time (sec):       10.791
  
                   Maximum memory used (kb):      154080.
                   Average memory used (kb):           0.
  
                          Minor page faults:        35399
                          Major page faults:            0
                 Voluntary context switches:          835
