32   
1    

1    
  0.0100000000000000   0.0000000000000000   0.0000000000000000
  -0.0332572900    0.0000000000    0.0000000000
   0.0039672800    0.0000000000   -0.0000000000
  -0.0006398700   -0.0000000000    0.0000000000
  -0.0021045700    0.0000000000    0.0000000000
  -0.0006398700    0.0000000000   -0.0000000000
  -0.0021045700    0.0000000000   -0.0000000000
   0.0001070800   -0.0000000000   -0.0000000000
  -0.0000132300    0.0000000000   -0.0000000000
   0.0051015700    0.0065198700   -0.0000000000
   0.0048996700   -0.0062405700    0.0000000000
   0.0051015700   -0.0065198700   -0.0000000000
   0.0048996700    0.0062405700    0.0000000000
   0.0002512500   -0.0000351200    0.0000000000
   0.0002510500    0.0000375600   -0.0000000000
   0.0002512500    0.0000351200    0.0000000000
   0.0002510500   -0.0000375600   -0.0000000000
   0.0051015700   -0.0000000000    0.0065198700
   0.0048996700   -0.0000000000   -0.0062405700
   0.0002512500   -0.0000000000   -0.0000351200
   0.0002510500   -0.0000000000    0.0000375600
   0.0051015700    0.0000000000   -0.0065198700
   0.0048996700   -0.0000000000    0.0062405700
   0.0002512500    0.0000000000    0.0000351200
   0.0002510500    0.0000000000   -0.0000375600
  -0.0026256700   -0.0000009600   -0.0000009600
   0.0007933900    0.0000035200    0.0000035200
  -0.0026256700    0.0000009600   -0.0000009600
   0.0007933900   -0.0000035200    0.0000035200
  -0.0026256700   -0.0000009600    0.0000009600
   0.0007933900    0.0000035200   -0.0000035200
  -0.0026256700    0.0000009600    0.0000009600
   0.0007933900   -0.0000035200   -0.0000035200
