mesh: [    48,    48,    48 ]
nqpoint: 2600   
reciprocal_lattice:
- [   0.23494535,   0.00000000,   0.00000000 ] # a*
- [   0.00000000,   0.23494535,   0.00000000 ] # b*
- [   0.00000000,   0.00000000,   0.23494535 ] # c*
natom:   4      
lattice:
- [     4.256308940361166,     0.000000000000000,     0.000000000000000 ] # a
- [     0.000000000000000,     4.256308940361166,     0.000000000000000 ] # b
- [     0.000000000000000,     0.000000000000000,     4.256308940361166 ] # c
points:
- symbol: Au # 1
  coordinates: [  0.000000000000000,  0.000000000000000,  0.000000000000000 ]
  mass: 196.966569
- symbol: Au # 2
  coordinates: [  0.500000000000000,  0.500000000000000,  0.000000000000000 ]
  mass: 196.966569
- symbol: Au # 3
  coordinates: [  0.500000000000000,  0.000000000000000,  0.500000000000000 ]
  mass: 196.966569
- symbol: Au # 4
  coordinates: [  0.000000000000000,  0.500000000000000,  0.500000000000000 ]
  mass: 196.966569
phonon:
- q-position: [    0.0104167,    0.0104167,    0.0104167 ]
  weight: 8    
  band:
  - # 1
    frequency:     0.0337377635
  - # 2
    frequency:     0.0337377635
  - # 3
    frequency:     0.1060688501
  - # 4
    frequency:     1.8411043419
  - # 5
    frequency:     1.8411043419
  - # 6
    frequency:     1.8411043419
  - # 7
    frequency:     1.8429334057
  - # 8
    frequency:     1.8429334057
  - # 9
    frequency:     1.8429334057
  - # 10
    frequency:     3.2277994826
  - # 11
    frequency:     3.2277994826
  - # 12
    frequency:     3.2277994826

- q-position: [    0.0312500,    0.0104167,    0.0104167 ]
  weight: 24   
  band:
  - # 1
    frequency:     0.0670806278
  - # 2
    frequency:     0.0700915264
  - # 3
    frequency:     0.2003913991
  - # 4
    frequency:     1.8381864950
  - # 5
    frequency:     1.8386461415
  - # 6
    frequency:     1.8386461415
  - # 7
    frequency:     1.8400116202
  - # 8
    frequency:     1.8454021605
  - # 9
    frequency:     1.8454021605
  - # 10
    frequency:     3.2242716716
  - # 11
    frequency:     3.2242716716
  - # 12
    frequency:     3.2253081501

- q-position: [    0.0520833,    0.0104167,    0.0104167 ]
  weight: 24   
  band:
  - # 1
    frequency:     0.1095143199
  - # 2
    frequency:     0.1117608067
  - # 3
    frequency:     0.3114891729
  - # 4
    frequency:     1.8323615898
  - # 5
    frequency:     1.8341788746
  - # 6
    frequency:     1.8345854905
  - # 7
    frequency:     1.8345854905
  - # 8
    frequency:     1.8495233647
  - # 9
    frequency:     1.8495233647
  - # 10
    frequency:     3.2172350086
  - # 11
    frequency:     3.2172350086
  - # 12
    frequency:     3.2203180201

- q-position: [    0.0729167,    0.0104167,    0.0104167 ]
  weight: 24   
  band:
  - # 1
    frequency:     0.1530545280
  - # 2
    frequency:     0.1546844803
  - # 3
    frequency:     0.4262693758
  - # 4
    frequency:     1.8236511459
  - # 5
    frequency:     1.8254567605
  - # 6
    frequency:     1.8287343107
  - # 7
    frequency:     1.8287343107
  - # 8
    frequency:     1.8555631158
  - # 9
    frequency:     1.8555631158
  - # 10
    frequency:     3.2067273277
  - # 11
    frequency:     3.2067273277
  - # 12
    frequency:     3.2128142960

- q-position: [    0.0937500,    0.0104167,    0.0104167 ]
  weight: 24   
  band:
  - # 1
    frequency:     0.1970506186
  - # 2
    frequency:     0.1982553456
  - # 3
    frequency:     0.5418957749
  - # 4
    frequency:     1.8120872987
  - # 5
    frequency:     1.8138775189
  - # 6
    frequency:     1.8211113719
  - # 7
    frequency:     1.8211113719
  - # 8
    frequency:     1.8636175195
  - # 9
    frequency:     1.8636175195
  - # 10
    frequency:     3.1928051695
  - # 11
    frequency:     3.1928051695
  - # 12
    frequency:     3.2027751134

- q-position: [    0.1145833,    0.0104167,    0.0104167 ]
  weight: 24   
  band:
  - # 1
    frequency:     0.2414457441
  - # 2
    frequency:     0.2423413721
  - # 3
    frequency:     0.6573357008
  - # 4
    frequency:     1.7977126279
  - # 5
    frequency:     1.7994838644
  - # 6
    frequency:     1.8118061694
  - # 7
    frequency:     1.8118061694
  - # 8
    frequency:     1.8737462852
  - # 9
    frequency:     1.8737462852
  - # 10
    frequency:     3.1755435268
  - # 11
    frequency:     3.1755435268
  - # 12
    frequency:     3.1901719297

- q-position: [    0.1354167,    0.0104167,    0.0104167 ]
  weight: 24   
  band:
  - # 1
    frequency:     0.2862655848
  - # 2
    frequency:     0.2869230260
  - # 3
    frequency:     0.7720515192
  - # 4
    frequency:     1.7805799281
  - # 5
    frequency:     1.7823287521
  - # 6
    frequency:     1.8009460370
  - # 7
    frequency:     1.8009460370
  - # 8
    frequency:     1.8860023368
  - # 9
    frequency:     1.8860023368
  - # 10
    frequency:     3.1550355058
  - # 11
    frequency:     3.1550355058
  - # 12
    frequency:     3.1749700334

- q-position: [    0.1562500,    0.0104167,    0.0104167 ]
  weight: 24   
  band:
  - # 1
    frequency:     0.3315478015
  - # 2
    frequency:     0.3320127493
  - # 3
    frequency:     0.8856860050
  - # 4
    frequency:     1.7607519243
  - # 5
    frequency:     1.7624750878
  - # 6
    frequency:     1.7886872154
  - # 7
    frequency:     1.7886872154
  - # 8
    frequency:     1.9004367925
  - # 9
    frequency:     1.9004367925
  - # 10
    frequency:     3.1313918995
  - # 11
    frequency:     3.1313918995
  - # 12
    frequency:     3.1571291647

- q-position: [    0.1770833,    0.0104167,    0.0104167 ]
  weight: 24   
  band:
  - # 1
    frequency:     0.3773261402
  - # 2
    frequency:     0.3776296368
  - # 3
    frequency:     0.9979626449
  - # 4
    frequency:     1.7383009316
  - # 5
    frequency:     1.7399953827
  - # 6
    frequency:     1.7752112915
  - # 7
    frequency:     1.7752112915
  - # 8
    frequency:     1.9170979853
  - # 9
    frequency:     1.9170979853
  - # 10
    frequency:     3.1047406724
  - # 11
    frequency:     3.1047406724
  - # 12
    frequency:     3.1366042352

- q-position: [    0.1979167,    0.0104167,    0.0104167 ]
  weight: 24   
  band:
  - # 1
    frequency:     0.4236252956
  - # 2
    frequency:     0.4237894169
  - # 3
    frequency:     1.1086477813
  - # 4
    frequency:     1.7133084605
  - # 5
    frequency:     1.7149713528
  - # 6
    frequency:     1.7607228746
  - # 7
    frequency:     1.7607228746
  - # 8
    frequency:     1.9360287503
  - # 9
    frequency:     1.9360287503
  - # 10
    frequency:     3.0752263555
  - # 11
    frequency:     3.0752263555
  - # 12
    frequency:     3.1133461372

- q-position: [    0.2187500,    0.0104167,    0.0104167 ]
  weight: 24   
  band:
  - # 1
    frequency:     0.4704587387
  - # 2
    frequency:     0.4704998016
  - # 3
    frequency:     1.2175343693
  - # 4
    frequency:     1.6858647688
  - # 5
    frequency:     1.6874934651
  - # 6
    frequency:     1.7454473944
  - # 7
    frequency:     1.7454473944
  - # 8
    frequency:     1.9572631865
  - # 9
    frequency:     1.9572631865
  - # 10
    frequency:     3.0430093476
  - # 11
    frequency:     3.0430093476
  - # 12
    frequency:     3.0873026283

- q-position: [    0.2395833,    0.0104167,    0.0104167 ]
  weight: 24   
  band:
  - # 1
    frequency:     0.5177581051
  - # 2
    frequency:     0.5178276426
  - # 3
    frequency:     1.3244344180
  - # 4
    frequency:     1.6560683609
  - # 5
    frequency:     1.6576604320
  - # 6
    frequency:     1.7296286377
  - # 7
    frequency:     1.7296286377
  - # 8
    frequency:     1.9808233674
  - # 9
    frequency:     1.9808233674
  - # 10
    frequency:     3.0082651215
  - # 11
    frequency:     3.0082651215
  - # 12
    frequency:     3.0584192775

- q-position: [    0.2604167,    0.0104167,    0.0104167 ]
  weight: 24   
  band:
  - # 1
    frequency:     0.5655499921
  - # 2
    frequency:     0.5657203556
  - # 3
    frequency:     1.4291752966
  - # 4
    frequency:     1.6240254363
  - # 5
    frequency:     1.6255786544
  - # 6
    frequency:     1.7135258470
  - # 7
    frequency:     1.7135258470
  - # 8
    frequency:     2.0067162542
  - # 9
    frequency:     2.0067162542
  - # 10
    frequency:     2.9711833300
  - # 11
    frequency:     2.9711833300
  - # 12
    frequency:     3.0266404602

- q-position: [    0.2812500,    0.0104167,    0.0104167 ]
  weight: 24   
  band:
  - # 1
    frequency:     0.6138488750
  - # 2
    frequency:     0.6141122187
  - # 3
    frequency:     1.5315978973
  - # 4
    frequency:     1.5898492883
  - # 5
    frequency:     1.5913616161
  - # 6
    frequency:     1.6974102807
  - # 7
    frequency:     1.6974102807
  - # 8
    frequency:     2.0349309815
  - # 9
    frequency:     2.0349309815
  - # 10
    frequency:     2.9319668098
  - # 11
    frequency:     2.9319668098
  - # 12
    frequency:     2.9919103860

- q-position: [    0.3020833,    0.0104167,    0.0104167 ]
  weight: 24   
  band:
  - # 1
    frequency:     0.6626157333
  - # 2
    frequency:     0.6629656386
  - # 3
    frequency:     1.5536596545
  - # 4
    frequency:     1.5551292302
  - # 5
    frequency:     1.6315557351
  - # 6
    frequency:     1.6815611693
  - # 7
    frequency:     1.6815611693
  - # 8
    frequency:     2.0654366373
  - # 9
    frequency:     2.0654366373
  - # 10
    frequency:     2.8908304764
  - # 11
    frequency:     2.8908304764
  - # 12
    frequency:     2.9541741458

- q-position: [    0.3229167,    0.0104167,    0.0104167 ]
  weight: 24   
  band:
  - # 1
    frequency:     0.7117992332
  - # 2
    frequency:     0.7122303652
  - # 3
    frequency:     1.5155820213
  - # 4
    frequency:     1.5170071397
  - # 5
    frequency:     1.6662610402
  - # 6
    frequency:     1.6662610402
  - # 7
    frequency:     1.7289145347
  - # 8
    frequency:     2.0981806144
  - # 9
    frequency:     2.0981806144
  - # 10
    frequency:     2.8480001071
  - # 11
    frequency:     2.8480001071
  - # 12
    frequency:     2.9133787646

- q-position: [    0.3437500,    0.0104167,    0.0104167 ]
  weight: 24   
  band:
  - # 1
    frequency:     0.7613360730
  - # 2
    frequency:     0.7618439391
  - # 3
    frequency:     1.4757468829
  - # 4
    frequency:     1.4771259747
  - # 5
    frequency:     1.6517904222
  - # 6
    frequency:     1.6517904222
  - # 7
    frequency:     1.8235520661
  - # 8
    frequency:     2.1330875779
  - # 9
    frequency:     2.1330875779
  - # 10
    frequency:     2.8037110076
  - # 11
    frequency:     2.8037110076
  - # 12
    frequency:     2.8694742469

- q-position: [    0.3645833,    0.0104167,    0.0104167 ]
  weight: 24   
  band:
  - # 1
    frequency:     0.8111515035
  - # 2
    frequency:     0.8117322790
  - # 3
    frequency:     1.4342889591
  - # 4
    frequency:     1.4356205668
  - # 5
    frequency:     1.6384219929
  - # 6
    frequency:     1.6384219929
  - # 7
    frequency:     1.9153581001
  - # 8
    frequency:     2.1700590533
  - # 9
    frequency:     2.1700590533
  - # 10
    frequency:     2.7582065559
  - # 11
    frequency:     2.7582065559
  - # 12
    frequency:     2.8224146016

- q-position: [    0.3854167,    0.0104167,    0.0104167 ]
  weight: 24   
  band:
  - # 1
    frequency:     0.8611599880
  - # 2
    frequency:     0.8618103863
  - # 3
    frequency:     1.3913463713
  - # 4
    frequency:     1.3926291241
  - # 5
    frequency:     1.6264142926
  - # 6
    frequency:     1.6264142926
  - # 7
    frequency:     2.0042344055
  - # 8
    frequency:     2.2089736096
  - # 9
    frequency:     2.2089736096
  - # 10
    frequency:     2.7117366254
  - # 11
    frequency:     2.7117366254
  - # 12
    frequency:     2.7721588347

- q-position: [    0.4062500,    0.0104167,    0.0104167 ]
  weight: 24   
  band:
  - # 1
    frequency:     0.9112659693
  - # 2
    frequency:     0.9119831431
  - # 3
    frequency:     1.3470597819
  - # 4
    frequency:     1.3482923684
  - # 5
    frequency:     1.6160051942
  - # 6
    frequency:     1.6160051942
  - # 7
    frequency:     2.0900947435
  - # 8
    frequency:     2.2496875794
  - # 9
    frequency:     2.2496875794
  - # 10
    frequency:     2.6645558883
  - # 11
    frequency:     2.6645558883
  - # 12
    frequency:     2.7186719014

- q-position: [    0.4270833,    0.0104167,    0.0104167 ]
  weight: 24   
  band:
  - # 1
    frequency:     0.9613647219
  - # 2
    frequency:     0.9621461857
  - # 3
    frequency:     1.3015714979
  - # 4
    frequency:     1.3027526382
  - # 5
    frequency:     1.6074053855
  - # 6
    frequency:     1.6074053855
  - # 7
    frequency:     2.1728648292
  - # 8
    frequency:     2.2920362207
  - # 9
    frequency:     2.2920362207
  - # 10
    frequency:     2.6169220262
  - # 11
    frequency:     2.6169220262
  - # 12
    frequency:     2.6619256050

- q-position: [    0.4479167,    0.0104167,    0.0104167 ]
  weight: 24   
  band:
  - # 1
    frequency:     1.0113432683
  - # 2
    frequency:     1.0121868351
  - # 3
    frequency:     1.2550245427
  - # 4
    frequency:     1.2561529596
  - # 5
    frequency:     1.6007921741
  - # 6
    frequency:     1.6007921741
  - # 7
    frequency:     2.2524822421
  - # 8
    frequency:     2.3358351305
  - # 9
    frequency:     2.3358351305
  - # 10
    frequency:     2.5690939594
  - # 11
    frequency:     2.5690939594
  - # 12
    frequency:     2.6018994374

- q-position: [    0.4687500,    0.0104167,    0.0104167 ]
  weight: 24   
  band:
  - # 1
    frequency:     1.0610813409
  - # 2
    frequency:     1.0619850702
  - # 3
    frequency:     1.2075616996
  - # 4
    frequency:     1.2086360884
  - # 5
    frequency:     1.5963039554
  - # 6
    frequency:     1.5963039554
  - # 7
    frequency:     2.3288962724
  - # 8
    frequency:     2.3808811264
  - # 9
    frequency:     2.3808811264
  - # 10
    frequency:     2.5213307947
  - # 11
    frequency:     2.5213307947
  - # 12
    frequency:     2.5385813530

- q-position: [    0.4895833,    0.0104167,    0.0104167 ]
  weight: 24   
  band:
  - # 1
    frequency:     1.1104523766
  - # 2
    frequency:     1.1114145292
  - # 3
    frequency:     1.1593245308
  - # 4
    frequency:     1.1603435283
  - # 5
    frequency:     1.5940356893
  - # 6
    frequency:     1.5940356893
  - # 7
    frequency:     2.4020676956
  - # 8
    frequency:     2.4269406993
  - # 9
    frequency:     2.4269406993
  - # 10
    frequency:     2.4719684699
  - # 11
    frequency:     2.4739033206
  - # 12
    frequency:     2.4739033206

- q-position: [    0.0312500,    0.0312500,    0.0104167 ]
  weight: 24   
  band:
  - # 1
    frequency:     0.0807268838
  - # 2
    frequency:     0.0925439357
  - # 3
    frequency:     0.2655324332
  - # 4
    frequency:     1.8338280021
  - # 5
    frequency:     1.8357369912
  - # 6
    frequency:     1.8357369912
  - # 7
    frequency:     1.8424773193
  - # 8
    frequency:     1.8424773193
  - # 9
    frequency:     1.8502423867
  - # 10
    frequency:     3.2207449180
  - # 11
    frequency:     3.2218098956
  - # 12
    frequency:     3.2218098956

- q-position: [    0.0520833,    0.0312500,    0.0104167 ]
  weight: 48   
  band:
  - # 1
    frequency:     0.1137031374
  - # 2
    frequency:     0.1269925947
  - # 3
    frequency:     0.3583658675
  - # 4
    frequency:     1.8278786496
  - # 5
    frequency:     1.8299294877
  - # 6
    frequency:     1.8316922466
  - # 7
    frequency:     1.8366385244
  - # 8
    frequency:     1.8465936037
  - # 9
    frequency:     1.8562750172
  - # 10
    frequency:     3.2137103662
  - # 11
    frequency:     3.2148322510
  - # 12
    frequency:     3.2168786403

- q-position: [    0.0729167,    0.0312500,    0.0104167 ]
  weight: 48   
  band:
  - # 1
    frequency:     0.1543961974
  - # 2
    frequency:     0.1659831222
  - # 3
    frequency:     0.4621347917
  - # 4
    frequency:     1.8207794679
  - # 5
    frequency:     1.8212451652
  - # 6
    frequency:     1.8258639499
  - # 7
    frequency:     1.8279074905
  - # 8
    frequency:     1.8526262140
  - # 9
    frequency:     1.8635960187
  - # 10
    frequency:     3.2032058430
  - # 11
    frequency:     3.2044128604
  - # 12
    frequency:     3.2094626383

- q-position: [    0.0937500,    0.0312500,    0.0104167 ]
  weight: 48   
  band:
  - # 1
    frequency:     0.1975342638
  - # 2
    frequency:     0.2071545635
  - # 3
    frequency:     0.5706550371
  - # 4
    frequency:     1.8097161743
  - # 5
    frequency:     1.8123802940
  - # 6
    frequency:     1.8163166385
  - # 7
    frequency:     1.8182699471
  - # 8
    frequency:     1.8606712947
  - # 9
    frequency:     1.8724694567
  - # 10
    frequency:     3.1892878780
  - # 11
    frequency:     3.1906079789
  - # 12
    frequency:     3.1995393355

- q-position: [    0.1145833,    0.0312500,    0.0104167 ]
  weight: 48   
  band:
  - # 1
    frequency:     0.2417068908
  - # 2
    frequency:     0.2496408975
  - # 3
    frequency:     0.6811968239
  - # 4
    frequency:     1.7953851029
  - # 5
    frequency:     1.8019089156
  - # 6
    frequency:     1.8026220801
  - # 7
    frequency:     1.8089984294
  - # 8
    frequency:     1.8707886792
  - # 9
    frequency:     1.8831023388
  - # 10
    frequency:     3.1720314506
  - # 11
    frequency:     3.1734922191
  - # 12
    frequency:     3.1870792996

- q-position: [    0.1354167,    0.0312500,    0.0104167 ]
  weight: 48   
  band:
  - # 1
    frequency:     0.2865254350
  - # 2
    frequency:     0.2930862042
  - # 3
    frequency:     0.7923493591
  - # 4
    frequency:     1.7783047378
  - # 5
    frequency:     1.7847375560
  - # 6
    frequency:     1.7915309117
  - # 7
    frequency:     1.7981750995
  - # 8
    frequency:     1.8830314505
  - # 9
    frequency:     1.8956473596
  - # 10
    frequency:     3.1515296507
  - # 11
    frequency:     3.1531582105
  - # 12
    frequency:     3.1720467534

- q-position: [    0.1562500,    0.0312500,    0.0104167 ]
  weight: 48   
  band:
  - # 1
    frequency:     0.3318822943
  - # 2
    frequency:     0.3373319056
  - # 3
    frequency:     0.9032770691
  - # 4
    frequency:     1.7585377691
  - # 5
    frequency:     1.7648657848
  - # 6
    frequency:     1.7791976276
  - # 7
    frequency:     1.7859542573
  - # 8
    frequency:     1.8974509080
  - # 9
    frequency:     1.9102193732
  - # 10
    frequency:     3.1278932534
  - # 11
    frequency:     3.1297161732
  - # 12
    frequency:     3.1544002229

- q-position: [    0.1770833,    0.0312500,    0.0104167 ]
  weight: 48   
  band:
  - # 1
    frequency:     0.3777532519
  - # 2
    frequency:     0.3823027272
  - # 3
    frequency:     1.0134241619
  - # 4
    frequency:     1.7361564394
  - # 5
    frequency:     1.7423664650
  - # 6
    frequency:     1.7657616012
  - # 7
    frequency:     1.7725152563
  - # 8
    frequency:     1.9140955794
  - # 9
    frequency:     1.9269071136
  - # 10
    frequency:     3.1012502046
  - # 11
    frequency:     3.1032934018
  - # 12
    frequency:     3.1340932885

- q-position: [    0.1979167,    0.0312500,    0.0104167 ]
  weight: 48   
  band:
  - # 1
    frequency:     0.4241367041
  - # 2
    frequency:     0.4279592313
  - # 3
    frequency:     1.1223845431
  - # 4
    frequency:     1.7112421374
  - # 5
    frequency:     1.7173216899
  - # 6
    frequency:     1.7513995661
  - # 7
    frequency:     1.7580602022
  - # 8
    frequency:     1.9330085005
  - # 9
    frequency:     1.9457793718
  - # 10
    frequency:     3.0717450172
  - # 11
    frequency:     3.0740336595
  - # 12
    frequency:     3.1110754270

- q-position: [    0.2187500,    0.0312500,    0.0104167 ]
  weight: 48   
  band:
  - # 1
    frequency:     0.4710322632
  - # 2
    frequency:     0.4742757556
  - # 3
    frequency:     1.2298395203
  - # 4
    frequency:     1.6838849397
  - # 5
    frequency:     1.6898223219
  - # 6
    frequency:     1.7363178498
  - # 7
    frequency:     1.7428117804
  - # 8
    frequency:     1.9542239699
  - # 9
    frequency:     1.9668873552
  - # 10
    frequency:     3.0395380739
  - # 11
    frequency:     3.0420964790
  - # 12
    frequency:     3.0852929308

- q-position: [    0.2395833,    0.0312500,    0.0104167 ]
  weight: 48   
  band:
  - # 1
    frequency:     0.5184325008
  - # 2
    frequency:     0.5212290825
  - # 3
    frequency:     1.3355258603
  - # 4
    frequency:     1.6541831011
  - # 5
    frequency:     1.6599674799
  - # 6
    frequency:     1.7207465115
  - # 7
    frequency:     1.7270108321
  - # 8
    frequency:     1.9777642512
  - # 9
    frequency:     1.9902648183
  - # 10
    frequency:     3.0048048360
  - # 11
    frequency:     3.0076563674
  - # 12
    frequency:     3.0566898880

- q-position: [    0.2604167,    0.0312500,    0.0104167 ]
  weight: 48   
  band:
  - # 1
    frequency:     0.5663199755
  - # 2
    frequency:     0.5687918385
  - # 3
    frequency:     1.4392184816
  - # 4
    frequency:     1.6222424962
  - # 5
    frequency:     1.6278639752
  - # 6
    frequency:     1.7049343680
  - # 7
    frequency:     1.7109135048
  - # 8
    frequency:     2.0036364784
  - # 9
    frequency:     2.0159270621
  - # 10
    frequency:     2.9677349524
  - # 11
    frequency:     2.9709019128
  - # 12
    frequency:     3.0252092115

- q-position: [    0.2812500,    0.0312500,    0.0104167 ]
  weight: 48   
  band:
  - # 1
    frequency:     0.6146669387
  - # 2
    frequency:     0.6169279391
  - # 3
    frequency:     1.5407206519
  - # 4
    frequency:     1.5881760135
  - # 5
    frequency:     1.5936256993
  - # 6
    frequency:     1.6891442743
  - # 7
    frequency:     1.6947878764
  - # 8
    frequency:     2.0318299335
  - # 9
    frequency:     2.0438694990
  - # 10
    frequency:     2.9285312681
  - # 11
    frequency:     2.9320347879
  - # 12
    frequency:     2.9907936993

- q-position: [    0.3020833,    0.0312500,    0.0104167 ]
  weight: 48   
  band:
  - # 1
    frequency:     0.6634362784
  - # 2
    frequency:     0.6655892776
  - # 3
    frequency:     1.5521029044
  - # 4
    frequency:     1.5573729644
  - # 5
    frequency:     1.6398582353
  - # 6
    frequency:     1.6736482826
  - # 7
    frequency:     1.6789099900
  - # 8
    frequency:     2.0623138161
  - # 9
    frequency:     2.0740662218
  - # 10
    frequency:     2.8874087266
  - # 11
    frequency:     2.8912686481
  - # 12
    frequency:     2.9533871137

- q-position: [    0.3229167,    0.0312500,    0.0104167 ]
  weight: 48   
  band:
  - # 1
    frequency:     0.7125821152
  - # 2
    frequency:     0.7147141980
  - # 3
    frequency:     1.5141480893
  - # 4
    frequency:     1.5192317980
  - # 5
    frequency:     1.6587224671
  - # 6
    frequency:     1.6635592717
  - # 7
    frequency:     1.7364762153
  - # 8
    frequency:     2.0950355825
  - # 9
    frequency:     2.1064688384
  - # 10
    frequency:     2.8445931654
  - # 11
    frequency:     2.8488279209
  - # 12
    frequency:     2.9129352642

- q-position: [    0.3437500,    0.0312500,    0.0104167 ]
  weight: 48   
  band:
  - # 1
    frequency:     0.7620490192
  - # 2
    frequency:     0.7642282504
  - # 3
    frequency:     1.4744414221
  - # 4
    frequency:     1.4793331933
  - # 5
    frequency:     1.6446413194
  - # 6
    frequency:     1.6490133407
  - # 7
    frequency:     1.8304365363
  - # 8
    frequency:     2.1299198937
  - # 9
    frequency:     2.1410057247
  - # 10
    frequency:     2.8003200029
  - # 11
    frequency:     2.8049464857
  - # 12
    frequency:     2.8693870820

- q-position: [    0.3645833,    0.0312500,    0.0104167 ]
  weight: 48   
  band:
  - # 1
    frequency:     0.8117704675
  - # 2
    frequency:     0.8140463158
  - # 3
    frequency:     1.4331169158
  - # 4
    frequency:     1.4378123189
  - # 5
    frequency:     1.6316717161
  - # 6
    frequency:     1.6355422725
  - # 7
    frequency:     1.9216167243
  - # 8
    frequency:     2.1668681680
  - # 9
    frequency:     2.1775817574
  - # 10
    frequency:     2.7548328239
  - # 11
    frequency:     2.7598662500
  - # 12
    frequency:     2.8226956726

- q-position: [    0.3854167,    0.0312500,    0.0104167 ]
  weight: 48   
  band:
  - # 1
    frequency:     0.8616679177
  - # 2
    frequency:     0.8640745407
  - # 3
    frequency:     1.3903119301
  - # 4
    frequency:     1.3948076889
  - # 5
    frequency:     1.6200665456
  - # 6
    frequency:     1.6234024333
  - # 7
    frequency:     2.0099089703
  - # 8
    frequency:     2.2057586927
  - # 9
    frequency:     2.2160785199
  - # 10
    frequency:     2.7083818866
  - # 11
    frequency:     2.7138356391
  - # 12
    frequency:     2.7728193379

- q-position: [    0.4062500,    0.0312500,    0.0104167 ]
  weight: 48   
  band:
  - # 1
    frequency:     0.9116510361
  - # 2
    frequency:     0.9142114304
  - # 3
    frequency:     1.3461663244
  - # 4
    frequency:     1.3504602962
  - # 5
    frequency:     1.6100581598
  - # 6
    frequency:     1.6128300692
  - # 7
    frequency:     2.0952194850
  - # 8
    frequency:     2.2464471790
  - # 9
    frequency:     2.2563548794
  - # 10
    frequency:     2.6612226262
  - # 11
    frequency:     2.6671080642
  - # 12
    frequency:     2.7197225552

- q-position: [    0.4270833,    0.0312500,    0.0104167 ]
  weight: 48   
  band:
  - # 1
    frequency:     0.9616187299
  - # 2
    frequency:     0.9643483659
  - # 3
    frequency:     1.3008215758
  - # 4
    frequency:     1.3049127145
  - # 5
    frequency:     1.6018518926
  - # 6
    frequency:     1.6040348977
  - # 7
    frequency:     2.1774680041
  - # 8
    frequency:     2.2887674798
  - # 9
    frequency:     2.2982476238
  - # 10
    frequency:     2.6136144148
  - # 11
    frequency:     2.6199405752
  - # 12
    frequency:     2.6633769070

- q-position: [    0.4479167,    0.0312500,    0.0104167 ]
  weight: 48   
  band:
  - # 1
    frequency:     1.0114604890
  - # 2
    frequency:     1.0143699768
  - # 3
    frequency:     1.2544198655
  - # 4
    frequency:     1.2583081724
  - # 5
    frequency:     1.5956199406
  - # 6
    frequency:     1.5971940019
  - # 7
    frequency:     2.2565873681
  - # 8
    frequency:     2.3325315312
  - # 9
    frequency:     2.3415709609
  - # 10
    frequency:     2.5658207096
  - # 11
    frequency:     2.5725935632
  - # 12
    frequency:     2.6037619545

- q-position: [    0.4687500,    0.0312500,    0.0104167 ]
  weight: 48   
  band:
  - # 1
    frequency:     1.0610577574
  - # 2
    frequency:     1.0641546068
  - # 3
    frequency:     1.2071031320
  - # 4
    frequency:     1.2107896063
  - # 5
    frequency:     1.5914959355
  - # 6
    frequency:     1.5924463611
  - # 7
    frequency:     2.3325231252
  - # 8
    frequency:     2.3775232368
  - # 9
    frequency:     2.3861073142
  - # 10
    frequency:     2.5181180809
  - # 11
    frequency:     2.5253367089
  - # 12
    frequency:     2.5408660477

- q-position: [    0.4895833,    0.0312500,    0.0104167 ]
  weight: 48   
  band:
  - # 1
    frequency:     1.1102852342
  - # 2
    frequency:     1.1135749298
  - # 3
    frequency:     1.1590120933
  - # 4
    frequency:     1.1624987011
  - # 5
    frequency:     1.5895705397
  - # 6
    frequency:     1.5898883546
  - # 7
    frequency:     2.4052331237
  - # 8
    frequency:     2.4234108065
  - # 9
    frequency:     2.4314403612
  - # 10
    frequency:     2.4709631085
  - # 11
    frequency:     2.4746870716
  - # 12
    frequency:     2.4785365950

- q-position: [    0.0520833,    0.0520833,    0.0104167 ]
  weight: 24   
  band:
  - # 1
    frequency:     0.1322979120
  - # 2
    frequency:     0.1538511642
  - # 3
    frequency:     0.4337107906
  - # 4
    frequency:     1.8194746412
  - # 5
    frequency:     1.8259166235
  - # 6
    frequency:     1.8259166235
  - # 7
    frequency:     1.8407450524
  - # 8
    frequency:     1.8407450524
  - # 9
    frequency:     1.8648070827
  - # 10
    frequency:     3.2066800294
  - # 11
    frequency:     3.2100185482
  - # 12
    frequency:     3.2100185482

- q-position: [    0.0729167,    0.0520833,    0.0104167 ]
  weight: 48   
  band:
  - # 1
    frequency:     0.1640603007
  - # 2
    frequency:     0.1872588541
  - # 3
    frequency:     0.5240429375
  - # 4
    frequency:     1.8101448162
  - # 5
    frequency:     1.8172802822
  - # 6
    frequency:     1.8201342303
  - # 7
    frequency:     1.8319995907
  - # 8
    frequency:     1.8467634927
  - # 9
    frequency:     1.8744242440
  - # 10
    frequency:     3.1961818102
  - # 11
    frequency:     3.1997749940
  - # 12
    frequency:     3.2027776781

- q-position: [    0.0937500,    0.0520833,    0.0104167 ]
  weight: 48   
  band:
  - # 1
    frequency:     0.2028060332
  - # 2
    frequency:     0.2244851945
  - # 3
    frequency:     0.6224865466
  - # 4
    frequency:     1.7999136135
  - # 5
    frequency:     1.8058155430
  - # 6
    frequency:     1.8125983305
  - # 7
    frequency:     1.8203898856
  - # 8
    frequency:     1.8547900710
  - # 9
    frequency:     1.8852140465
  - # 10
    frequency:     3.1822722169
  - # 11
    frequency:     3.1862036410
  - # 12
    frequency:     3.1930856880

- q-position: [    0.1145833,    0.0520833,    0.0104167 ]
  weight: 48   
  band:
  - # 1
    frequency:     0.2449079285
  - # 2
    frequency:     0.2641216660
  - # 3
    frequency:     0.7253845561
  - # 4
    frequency:     1.7887416604
  - # 5
    frequency:     1.7915651829
  - # 6
    frequency:     1.8033945463
  - # 7
    frequency:     1.8059592084
  - # 8
    frequency:     1.8648848697
  - # 9
    frequency:     1.8973613662
  - # 10
    frequency:     3.1650262014
  - # 11
    frequency:     3.1693783107
  - # 12
    frequency:     3.1809113423

- q-position: [    0.1354167,    0.0520833,    0.0104167 ]
  weight: 48   
  band:
  - # 1
    frequency:     0.2887671513