 running on    8 nodes
 distr:  one band on    1 nodes,    8 groups
 vasp.4.6.28 25Jul05 complex 
 POSCAR found :  1 types and   32 ions

 ----------------------------------------------------------------------------- 
|                                                                             |
|  ADVICE TO THIS USER RUNNING 'VASP/VAMP'   (HEAR YOUR MASTER'S VOICE ...):  |
|                                                                             |
|      You have a (more or less) 'large supercell' and for larger cells       |
|      it might be more efficient to use real space projection operators      |
|      So try LREAL= Auto  in the INCAR   file.                               |
|      Mind: If you want to do an extremely accurate calculations keep the    |
|      reciprocal projection scheme          (i.e. LREAL=.FALSE.)             |
|                                                                             |
 ----------------------------------------------------------------------------- 

 LDA part: xc-table for Pade appr. of Perdew
 POSCAR, INCAR and KPOINTS ok, starting setup
 FFT: planning ...           1
 reading WAVECAR
 WARNING: random wavefunctions but no delay for mixing, default for NELMDL
 entering main loop
       N       E                     dE             d eps       ncg     rms          rms(c)
DAV:   1     0.116378843524E+03    0.11638E+03   -0.32503E+04 28224   0.104E+03
DAV:   2    -0.107425447794E+03   -0.22380E+03   -0.20795E+03 33160   0.137E+02
DAV:   3    -0.120217296921E+03   -0.12792E+02   -0.12188E+02 35128   0.261E+01
DAV:   4    -0.120459285003E+03   -0.24199E+00   -0.23988E+00 33224   0.383E+00
DAV:   5    -0.120462189552E+03   -0.29045E-02   -0.29026E-02 33064   0.493E-01    0.523E+00
DAV:   6    -0.120051705796E+03    0.41048E+00   -0.53915E-02 32392   0.721E-01    0.325E+00
DAV:   7    -0.119752374640E+03    0.29933E+00   -0.16055E-01 31568   0.116E+00    0.136E-01
DAV:   8    -0.119752441215E+03   -0.66576E-04   -0.12776E-03 33360   0.131E-01    0.453E-02
DAV:   9    -0.119752467139E+03   -0.25923E-04   -0.49927E-05 32944   0.202E-02    0.390E-03
DAV:  10    -0.119752468087E+03   -0.94884E-06   -0.30231E-06 33648   0.521E-03    0.197E-03
DAV:  11    -0.119752464983E+03    0.31045E-05   -0.20824E-07 33080   0.132E-03    0.755E-04
DAV:  12    -0.119752463821E+03    0.11618E-05   -0.23133E-08 22616   0.455E-04    0.115E-04
DAV:  13    -0.119752463678E+03    0.14308E-06   -0.30675E-09 18448   0.194E-04    0.337E-05
DAV:  14    -0.119752463673E+03    0.48963E-08   -0.52829E-10 18320   0.754E-05
   1 F= -.11975246E+03 E0= -.11975185E+03  d E =-.184826E-02
