<?xml version="1.0" encoding="ISO-8859-1"?>
<modeling>
 <generator>
  <i name="program" type="string">vasp</i>
  <i name="version" type="string">4.6.28 </i>
  <i name="subversion" type="string">25Jul05 complex  parallel</i>
  <i name="platform" type="string">LinuxIFC</i>
  <i name="date" type="string">2016 10 19</i>
  <i name="time" type="string">17:41:55</i>
 </generator>
 <incar>
  <i type="string" name="PREC">accurate</i>
  <i type="int" name="IALGO">    38</i>
  <i name="EDIFF">      0.00000001</i>
  <i type="int" name="IBRION">    -1</i>
  <i name="ENCUT">    500.00000000</i>
  <i type="logical" name="LREAL"> F  </i>
  <i type="int" name="ISMEAR">     0</i>
  <i name="SIGMA">      0.01000000</i>
  <i type="logical" name="LWAVE"> F  </i>
  <i type="logical" name="LCHARG"> F  </i>
 </incar>
 <kpoints>
  <generation param="Auto">
   <i name="subdivisionlength">     50.00000000</i>
   <v type="int" name="divisions">      12      12      12</v>
   <v name="usershift">      0.00000000      0.00000000      0.00000000</v>
   <v name="genvec1">      0.08333333      0.00000000      0.00000000</v>
   <v name="genvec2">      0.00000000      0.08333333      0.00000000</v>
   <v name="genvec3">      0.00000000      0.00000000      0.08333333</v>
   <v name="shift">      0.00000000      0.00000000      0.00000000</v>
  </generation>
  <varray name="kpointlist" >
   <v>       0.00000000      0.00000000      0.00000000</v>
   <v>       0.08333333      0.00000000      0.00000000</v>
   <v>       0.16666667      0.00000000      0.00000000</v>
   <v>       0.25000000      0.00000000      0.00000000</v>
   <v>       0.33333333      0.00000000      0.00000000</v>
   <v>       0.41666667      0.00000000      0.00000000</v>
   <v>       0.50000000      0.00000000      0.00000000</v>
   <v>       0.08333333      0.08333333      0.00000000</v>
   <v>       0.16666667      0.08333333      0.00000000</v>
   <v>       0.25000000      0.08333333      0.00000000</v>
   <v>       0.33333333      0.08333333      0.00000000</v>
   <v>       0.41666667      0.08333333      0.00000000</v>
   <v>       0.50000000      0.08333333      0.00000000</v>
   <v>       0.16666667      0.16666667      0.00000000</v>
   <v>       0.25000000      0.16666667      0.00000000</v>
   <v>       0.33333333      0.16666667      0.00000000</v>
   <v>       0.41666667      0.16666667      0.00000000</v>
   <v>       0.50000000      0.16666667      0.00000000</v>
   <v>       0.25000000      0.25000000      0.00000000</v>
   <v>       0.33333333      0.25000000      0.00000000</v>
   <v>       0.41666667      0.25000000      0.00000000</v>
   <v>       0.50000000      0.25000000      0.00000000</v>
   <v>       0.33333333      0.33333333      0.00000000</v>
   <v>       0.41666667      0.33333333      0.00000000</v>
   <v>       0.50000000      0.33333333      0.00000000</v>
   <v>       0.41666667      0.41666667      0.00000000</v>
   <v>       0.50000000      0.41666667      0.00000000</v>
   <v>       0.50000000      0.50000000      0.00000000</v>
   <v>       0.08333333      0.08333333      0.08333333</v>
   <v>       0.16666667      0.08333333      0.08333333</v>
   <v>       0.25000000      0.08333333      0.08333333</v>
   <v>       0.33333333      0.08333333      0.08333333</v>
   <v>       0.41666667      0.08333333      0.08333333</v>
   <v>       0.50000000      0.08333333      0.08333333</v>
   <v>       0.16666667      0.16666667      0.08333333</v>
   <v>       0.25000000      0.16666667      0.08333333</v>
   <v>       0.33333333      0.16666667      0.08333333</v>
   <v>       0.41666667      0.16666667      0.08333333</v>
   <v>       0.50000000      0.16666667      0.08333333</v>
   <v>       0.25000000      0.25000000      0.08333333</v>
   <v>       0.33333333      0.25000000      0.08333333</v>
   <v>       0.41666667      0.25000000      0.08333333</v>
   <v>       0.50000000      0.25000000      0.08333333</v>
   <v>       0.33333333      0.33333333      0.08333333</v>
   <v>       0.41666667      0.33333333      0.08333333</v>
   <v>       0.50000000      0.33333333      0.08333333</v>
   <v>       0.41666667      0.41666667      0.08333333</v>
   <v>       0.50000000      0.41666667      0.08333333</v>
   <v>       0.50000000      0.50000000      0.08333333</v>
   <v>       0.16666667      0.16666667      0.16666667</v>
   <v>       0.25000000      0.16666667      0.16666667</v>
   <v>       0.33333333      0.16666667      0.16666667</v>
   <v>       0.41666667      0.16666667      0.16666667</v>
   <v>       0.50000000      0.16666667      0.16666667</v>
   <v>       0.25000000      0.25000000      0.16666667</v>
   <v>       0.33333333      0.25000000      0.16666667</v>
   <v>       0.41666667      0.25000000      0.16666667</v>
   <v>       0.50000000      0.25000000      0.16666667</v>
   <v>       0.33333333      0.33333333      0.16666667</v>
   <v>       0.41666667      0.33333333      0.16666667</v>
   <v>       0.50000000      0.33333333      0.16666667</v>
   <v>       0.41666667      0.41666667      0.16666667</v>
   <v>       0.50000000      0.41666667      0.16666667</v>
   <v>       0.50000000      0.50000000      0.16666667</v>
   <v>       0.25000000      0.25000000      0.25000000</v>
   <v>       0.33333333      0.25000000      0.25000000</v>
   <v>       0.41666667      0.25000000      0.25000000</v>
   <v>       0.50000000      0.25000000      0.25000000</v>
   <v>       0.33333333      0.33333333      0.25000000</v>
   <v>       0.41666667      0.33333333      0.25000000</v>
   <v>       0.50000000      0.33333333      0.25000000</v>
   <v>       0.41666667      0.41666667      0.25000000</v>
   <v>       0.50000000      0.41666667      0.25000000</v>
   <v>       0.50000000      0.50000000      0.25000000</v>
   <v>       0.33333333      0.33333333      0.33333333</v>
   <v>       0.41666667      0.33333333      0.33333333</v>
   <v>       0.50000000      0.33333333      0.33333333</v>
   <v>       0.41666667      0.41666667      0.33333333</v>
   <v>       0.50000000      0.41666667      0.33333333</v>
   <v>       0.50000000      0.50000000      0.33333333</v>
   <v>       0.41666667      0.41666667      0.41666667</v>
   <v>       0.50000000      0.41666667      0.41666667</v>
   <v>       0.50000000      0.50000000      0.41666667</v>
   <v>       0.50000000      0.50000000      0.50000000</v>
  </varray>
  <varray name="weights" >
   <v>       0.00057870</v>
   <v>       0.00347222</v>
   <v>       0.00347222</v>
   <v>       0.00347222</v>
   <v>       0.00347222</v>
   <v>       0.00347222</v>
   <v>       0.00173611</v>
   <v>       0.00694444</v>
   <v>       0.01388889</v>
   <v>       0.01388889</v>
   <v>       0.01388889</v>
   <v>       0.01388889</v>
   <v>       0.00694444</v>
   <v>       0.00694444</v>
   <v>       0.01388889</v>
   <v>       0.01388889</v>
   <v>       0.01388889</v>
   <v>       0.00694444</v>
   <v>       0.00694444</v>
   <v>       0.01388889</v>
   <v>       0.01388889</v>
   <v>       0.00694444</v>
   <v>       0.00694444</v>
   <v>       0.01388889</v>
   <v>       0.00694444</v>
   <v>       0.00694444</v>
   <v>       0.00694444</v>
   <v>       0.00173611</v>
   <v>       0.00462963</v>
   <v>       0.01388889</v>
   <v>       0.01388889</v>
   <v>       0.01388889</v>
   <v>       0.01388889</v>
   <v>       0.00694444</v>
   <v>       0.01388889</v>
   <v>       0.02777778</v>
   <v>       0.02777778</v>
   <v>       0.02777778</v>
   <v>       0.01388889</v>
   <v>       0.01388889</v>
   <v>       0.02777778</v>
   <v>       0.02777778</v>
   <v>       0.01388889</v>
   <v>       0.01388889</v>
   <v>       0.02777778</v>
   <v>       0.01388889</v>
   <v>       0.01388889</v>
   <v>       0.01388889</v>
   <v>       0.00347222</v>
   <v>       0.00462963</v>
   <v>       0.01388889</v>
   <v>       0.01388889</v>
   <v>       0.01388889</v>
   <v>       0.00694444</v>
   <v>       0.01388889</v>
   <v>       0.02777778</v>
   <v>       0.02777778</v>
   <v>       0.01388889</v>
   <v>       0.01388889</v>
   <v>       0.02777778</v>
   <v>       0.01388889</v>
   <v>       0.01388889</v>
   <v>       0.01388889</v>
   <v>       0.00347222</v>
   <v>       0.00462963</v>
   <v>       0.01388889</v>
   <v>       0.01388889</v>
   <v>       0.00694444</v>
   <v>       0.01388889</v>
   <v>       0.02777778</v>
   <v>       0.01388889</v>
   <v>       0.01388889</v>
   <v>       0.01388889</v>
   <v>       0.00347222</v>
   <v>       0.00462963</v>
   <v>       0.01388889</v>
   <v>       0.00694444</v>
   <v>       0.01388889</v>
   <v>       0.01388889</v>
   <v>       0.00347222</v>
   <v>       0.00462963</v>
   <v>       0.00694444</v>
   <v>       0.00347222</v>
   <v>       0.00057870</v>
  </varray>
 </kpoints>
 <parameters>
  <separator name="general" >
   <i type="string" name="SYSTEM">unknown system</i>
   <i type="logical" name="LCOMPAT"> F  </i>
  </separator>
  <separator name="electronic" >
   <i type="string" name="PREC">accura</i>
   <i name="ENMAX">    500.00000000</i>
   <i name="ENAUG">    291.05200000</i>
   <i name="EDIFF">      0.00000001</i>
   <i type="int" name="IALGO">    38</i>
   <i type="int" name="IWAVPR">    10</i>
   <i type="int" name="NBANDS">    10</i>
   <i name="NELECT">     12.00000000</i>
   <separator name="electronic smearing" >
    <i type="int" name="ISMEAR">     0</i>
    <i name="SIGMA">      0.01000000</i>
   </separator>
   <separator name="electronic projectors" >
    <i type="logical" name="LREAL"> F  </i>
    <v name="ROPT">      0.00000000</v>
    <i type="int" name="LMAXPAW">  -100</i>
    <i type="int" name="LMAXMIX">     2</i>
   </separator>
   <separator name="electronic startup" >
    <i type="int" name="ISTART">     0</i>
    <i type="int" name="ICHARG">     2</i>
    <i type="int" name="INIWAV">     1</i>
   </separator>
   <separator name="electronic spin" >
    <i type="int" name="ISPIN">     1</i>
    <i type="logical" name="LNONCOLLINEAR"> F  </i>
    <v name="MAGMOM">      1.00000000      1.00000000      1.00000000      1.00000000</v>
    <i name="NUPDOWN">     -1.00000000</i>
    <i type="logical" name="LSORBIT"> F  </i>
    <v name="SAXIS">      0.00000000      0.00000000      1.00000000</v>
    <i type="logical" name="LSPIRAL"> F  </i>
    <v name="QSPIRAL">      0.00000000      0.00000000      0.00000000</v>
    <i type="logical" name="LZEROZ"> F  </i>
   </separator>
   <separator name="electronic exchange-correlation" >
    <i type="string" name="GGA">--</i>
    <i type="int" name="VOSKOWN">     0</i>
    <i type="logical" name="LASPH"> F  </i>
    <i type="logical" name="LMETAGGA"> F  </i>
    <i type="string" name="GGA2">--</i>
   </separator>
   <separator name="electronic convergence" >
    <i type="int" name="NELM">    60</i>
    <i type="int" name="NELMDL">     0</i>
    <i type="int" name="NELMIN">     2</i>
    <i name="ENINI">    500.00000000</i>
    <separator name="electronic convergence detail" >
     <i type="logical" name="LDIAG"> T  </i>
     <i name="WEIMIN">      0.00000000</i>
     <i name="EBREAK">      0.00000000</i>
     <i name="DEPER">      0.30000000</i>
     <i type="int" name="NRMM">     4</i>
     <i name="TIME">      0.10000000</i>
    </separator>
   </separator>
   <separator name="electronic mixer" >
    <i name="AMIX">      0.40000000</i>
    <i name="BMIX">      1.00000000</i>
    <i name="AMIN">      0.10000000</i>
    <i name="AMIX_MAG">      1.60000000</i>
    <i name="BMIX_MAG">      1.00000000</i>
    <separator name="electronic mixer details" >
     <i type="int" name="IMIX">     4</i>
     <i type="int" name="MAXMIX">   -45</i>
     <i name="WC">    100.00000000</i>
     <i type="int" name="INIMIX">     1</i>
     <i type="int" name="MIXPRE">     1</i>
     <i type="int" name="MREMOVE">     5</i>
    </separator>
   </separator>
   <separator name="electronic dipolcorrection" >
    <i type="int" name="IDIPOL">     0</i>
    <i type="logical" name="LDIPOL"> F  </i>
    <v name="DIPOL">   -100.00000000</v>
    <i name="EFIELD">      0.00000000</i>
   </separator>
  </separator>
  <separator name="grids" >
   <i type="int" name="NGX">    30</i>
   <i type="int" name="NGY">    30</i>
   <i type="int" name="NGZ">    30</i>
   <i type="int" name="NGXF">    60</i>
   <i type="int" name="NGYF">    60</i>
   <i type="int" name="NGZF">    60</i>
   <i type="logical" name="ADDGRID"> F  </i>
  </separator>
  <separator name="ionic" >
   <i type="int" name="NSW">     0</i>
   <i type="int" name="IBRION">    -1</i>
   <i type="int" name="ISIF">     2</i>
   <i name="PSTRESS">      0.00000000</i>
   <i name="EDIFFG">      0.00000010</i>
   <i type="int" name="NFREE">     0</i>
   <i name="POTIM">      0.50000000</i>
   <i name="SMASS">     -3.00000000</i>
  </separator>
  <separator name="ionic md" >
   <i name="TEBEG">      0.00010000</i>
   <i name="TEEND">      0.00010000</i>
   <i type="int" name="NBLOCK">     1</i>
   <i type="int" name="KBLOCK">     1</i>
   <i type="int" name="NPACO">   256</i>
   <i name="APACO">     16.00000000</i>
  </separator>
  <separator name="symmetry" >
   <i type="int" name="ISYM">     2</i>
   <i name="SYMPREC">      0.00001000</i>
  </separator>
  <separator name="dos" >
   <i type="logical" name="LORBIT"> F  </i>
   <v name="RWIGS">     -1.00000000</v>
   <i type="int" name="NEDOS">   301</i>
   <i name="EMIN">     10.00000000</i>
   <i name="EMAX">    -10.00000000</i>
  </separator>
  <separator name="writing" >
   <i type="int" name="NWRITE">     2</i>
   <i type="logical" name="LWAVE"> F  </i>
   <i type="logical" name="LCHARG"> F  </i>
   <i type="logical" name="LPARD"> F  </i>
   <i type="logical" name="LVTOT"> F  </i>
   <i type="logical" name="LELF"> F  </i>
   <i type="logical" name="LOPTICS"> F  </i>
   <i name="STM">      0.00000000</i>
  </separator>
  <separator name="performance" >
   <i type="int" name="NPAR">     8</i>
   <i type="int" name="NSIM">     4</i>
   <i type="int" name="NBLK">   192</i>
   <i type="logical" name="LPLANE"> T  </i>
   <i type="logical" name="LCRITICAL_MEM"> F  </i>
   <i type="logical" name="LSCALAPACK"> F  </i>
   <i type="logical" name="LSCALU"> F  </i>
   <i type="logical" name="LASYNC"> F  </i>
  </separator>
  <separator name="miscellaneous" >
   <i type="int" name="IDIOT">     3</i>
   <i type="logical" name="LMUSIC"> F  </i>
   <v name="POMASS">     26.98200000</v>
   <i type="logical" name="LCORR"> T  </i>
  </separator>
  <i type="logical" name="LREAL_COMPAT"> F  </i>
  <i type="logical" name="GGA_COMPAT"> T  </i>
  <i type="logical" name="LBERRY"> F  </i>
  <i type="int" name="ICORELEVEL">     0</i>
  <i type="logical" name="LDAU"> F  </i>
  <i type="int" name="I_CONSTRAINED_M">     0</i>
 </parameters>
 <atominfo>
  <atoms>       4</atoms>
  <types>       1</types>
  <array name="atoms" >
   <dimension dim="1">ion</dimension>
   <field type="string">element</field>
   <field type="int">atomtype</field>
   <set>
    <rc><c>Al</c><c>   1</c></rc>
    <rc><c>Al</c><c>   1</c></rc>
    <rc><c>Al</c><c>   1</c></rc>
    <rc><c>Al</c><c>   1</c></rc>
   </set>
  </array>
  <array name="atomtypes" >
   <dimension dim="1">type</dimension>
   <field type="int">atomspertype</field>
   <field type="string">element</field>
   <field>mass</field>
   <field>valence</field>
   <field type="string">pseudopotential</field>
   <set>
    <rc><c>   4</c><c>Al</c><c>     26.98200000</c><c>      3.00000000</c><c> PAW_PBE Al 04Jan2001                   </c></rc>
   </set>
  </array>
 </atominfo>
 <structure name="initialpos" >
  <crystal>
   <varray name="basis" >
    <v>       4.15842556      0.00000000      0.00000000</v>
    <v>       0.00000000      4.15842556      0.00000000</v>
    <v>       0.00000000      0.00000000      4.15842556</v>
   </varray>
   <i name="volume">     71.90958709</i>
   <varray name="rec_basis" >
    <v>       0.24047563      0.00000000      0.00000000</v>
    <v>       0.00000000      0.24047563      0.00000000</v>
    <v>       0.00000000      0.00000000      0.24047563</v>
   </varray>
  </crystal>
  <varray name="positions" >
   <v>       0.50000000      0.50000000      0.00000000</v>
   <v>       0.50000000      0.00000000      0.50000000</v>
   <v>       0.00000000      0.50000000      0.50000000</v>
   <v>       0.00000000      0.00000000      0.00000000</v>
  </varray>
 </structure>
 <calculation>
  <scstep>
   <time name="dav">    0.79    0.79</time>
   <time name="total">    0.81    0.81</time>
   <energy>
    <i name="alphaZ">     -0.74734113</i>
    <i name="ewald">   -285.77611412</i>
    <i name="hartreedc">     -0.56593525</i>
    <i name="XCdc">   -105.56599727</i>
    <i name="pawpsdc">    142.21701965</i>
    <i name="pawaedc">    -14.39593217</i>
    <i name="eentropy">     -0.00014620</i>
    <i name="bandstr">     55.35921030</i>
    <i name="atom">    214.15364153</i>
    <i name="e_fr_energy">      4.67840533</i>
    <i name="e_wo_entrp">      4.67855153</i>
    <i name="e_0_energy">      4.67847843</i>
   </energy>
  </scstep>
  <scstep>
   <time name="dav">    0.95    0.95</time>
   <time name="total">    0.95    0.95</time>
   <energy>
    <i name="e_fr_energy">    -14.31602880</i>
    <i name="e_wo_entrp">    -14.31592635</i>
    <i name="e_0_energy">    -14.31597758</i>
   </energy>
  </scstep>
  <scstep>
   <time name="dav">    0.96    0.96</time>
   <time name="total">    0.96    0.96</time>
   <energy>
    <i name="e_fr_energy">    -14.94157442</i>
    <i name="e_wo_entrp">    -14.94132287</i>
    <i name="e_0_energy">    -14.94144865</i>
   </energy>
  </scstep>
  <scstep>
   <time name="dav">    0.88    0.88</time>
   <time name="total">    0.88    0.88</time>
   <energy>
    <i name="e_fr_energy">    -14.94578007</i>
    <i name="e_wo_entrp">    -14.94553136</i>
    <i name="e_0_energy">    -14.94565571</i>
   </energy>
  </scstep>
  <scstep>
   <time name="dav">    0.96    0.96</time>
   <time name="total">    0.99    0.99</time>
   <energy>
    <i name="e_fr_energy">    -14.94583494</i>
    <i name="e_wo_entrp">    -14.94558626</i>
    <i name="e_0_energy">    -14.94571060</i>
   </energy>
  </scstep>
  <scstep>
   <time name="dav">    0.88    0.88</time>
   <time name="total">    0.93    0.94</time>
   <energy>
    <i name="e_fr_energy">    -14.89592321</i>
    <i name="e_wo_entrp">    -14.89573260</i>
    <i name="e_0_energy">    -14.89582791</i>
   </energy>
  </scstep>
  <scstep>
   <time name="dav">    0.85    0.85</time>
   <time name="total">    0.90    0.91</time>
   <energy>
    <i name="e_fr_energy">    -14.85986735</i>
    <i name="e_wo_entrp">    -14.85974182</i>
    <i name="e_0_energy">    -14.85980458</i>
   </energy>
  </scstep>
  <scstep>
   <time name="dav">    0.94    0.93</time>
   <time name="total">    0.99    0.99</time>
   <energy>
    <i name="e_fr_energy">    -14.85986370</i>
    <i name="e_wo_entrp">    -14.85973747</i>
    <i name="e_0_energy">    -14.85980059</i>
   </energy>
  </scstep>
  <scstep>
   <time name="dav">    0.93    0.93</time>
   <time name="total">    0.98    0.98</time>
   <energy>
    <i name="e_fr_energy">    -14.85986723</i>
    <i name="e_wo_entrp">    -14.85974107</i>
    <i name="e_0_energy">    -14.85980415</i>
   </energy>
  </scstep>
  <scstep>
   <time name="dav">    0.96    0.96</time>
   <time name="total">    1.01    1.01</time>
   <energy>
    <i name="e_fr_energy">    -14.85986598</i>
    <i name="e_wo_entrp">    -14.85973983</i>
    <i name="e_0_energy">    -14.85980290</i>
   </energy>
  </scstep>
  <scstep>
   <time name="dav">    0.72    0.73</time>
   <time name="total">    0.78    0.78</time>
   <energy>
    <i name="e_fr_energy">    -14.85986582</i>
    <i name="e_wo_entrp">    -14.85973967</i>
    <i name="e_0_energy">    -14.85980275</i>
   </energy>
  </scstep>
  <scstep>
   <time name="dav">    0.66    0.66</time>
   <time name="total">    0.71    0.71</time>
   <energy>
    <i name="e_fr_energy">    -14.85986586</i>
    <i name="e_wo_entrp">    -14.85973971</i>
    <i name="e_0_energy">    -14.85980278</i>
   </energy>
  </scstep>
  <scstep>
   <time name="dav">    0.58    0.58</time>
   <time name="total">    0.60    0.60</time>
   <energy>
    <i name="alphaZ">     -0.74734113</i>
    <i name="ewald">   -285.77611412</i>
    <i name="hartreedc">     -0.39184628</i>
    <i name="XCdc">   -105.20584720</i>
    <i name="pawpsdc">    141.76458034</i>
    <i name="pawaedc">    -13.94589344</i>
    <i name="eentropy">     -0.00012615</i>
    <i name="bandstr">     35.28908060</i>
    <i name="atom">    214.15364153</i>
    <i name="e_fr_energy">    -14.85986586</i>
    <i name="e_wo_entrp">    -14.85973971</i>
    <i name="e_0_energy">    -14.85980278</i>
   </energy>
  </scstep>
  <structure>
   <crystal>
    <varray name="basis" >
     <v>       4.15842556      0.00000000      0.00000000</v>
     <v>       0.00000000      4.15842556      0.00000000</v>
     <v>       0.00000000      0.00000000      4.15842556</v>
    </varray>
    <i name="volume">     71.90958709</i>
    <varray name="rec_basis" >
     <v>       0.24047563      0.00000000      0.00000000</v>
     <v>       0.00000000      0.24047563      0.00000000</v>
     <v>       0.00000000      0.00000000      0.24047563</v>
    </varray>
   </crystal>
   <varray name="positions" >
    <v>       0.50000000      0.50000000      0.00000000</v>
    <v>       0.50000000      0.00000000      0.50000000</v>
    <v>       0.00000000      0.50000000      0.50000000</v>
    <v>       0.00000000      0.00000000      0.00000000</v>
   </varray>
  </structure>
  <varray name="forces" >
   <v>       0.00000000      0.00000000      0.00000000</v>
   <v>      -0.00000000      0.00000000      0.00000000</v>
   <v>      -0.00000000      0.00000000     -0.00000000</v>
   <v>       0.00000000      0.00000000      0.00000000</v>
  </varray>
  <varray name="stress" >
   <v>     -54.23784830      0.00000000      0.00000000</v>
   <v>       0.00000000    -54.23784830      0.00000000</v>
   <v>      -0.00000000      0.00000000    -54.23784830</v>
  </varray>
  <energy>
   <i name="e_fr_energy">    -14.85986586</i>
   <i name="e_wo_entrp">    -14.85980278</i>
   <i name="e_0_energy">     -0.00012615</i>
  </energy>
  <eigenvalues>
   <array>
    <dimension dim="1">band</dimension>
    <dimension dim="2">kpoint</dimension>
    <dimension dim="3">spin</dimension>
    <field>eigene</field>
    <field>occ</field>
    <set>
     <set comment="spin 1">
      <set comment="kpoint 1">
       <r>  -3.4214  1.0000</r>
       <r>   4.4170  1.0000</r>
       <r>   4.4170  1.0000</r>
       <r>   4.4170  1.0000</r>
       <r>   5.5341  1.0000</r>
       <r>   5.5341  1.0000</r>
       <r>   5.5341  1.0000</r>
       <r>  12.3438  0.0000</r>
       <r>  12.3438  0.0000</r>
       <r>  12.3438  0.0000</r>
       <r>  12.3438  0.0000</r>
       <r>  12.3438  0.0000</r>
       <r>  12.3438  0.0000</r>
       <r>  12.3688  0.0000</r>
       <r>  12.3688  0.0000</r>
       <r>  12.3688  0.0000</r>
      </set>
      <set comment="kpoint 2">
       <r>  -3.3619  1.0000</r>
       <r>   3.5516  1.0000</r>
       <r>   4.4720  1.0000</r>
       <r>   4.4720  1.0000</r>
       <r>   5.5925  1.0000</r>
       <r>   5.5925  1.0000</r>
       <r>   6.5037  1.0000</r>
       <r>  11.0860  0.0000</r>
       <r>  11.0860  0.0000</r>
       <r>  11.9067  0.0000</r>
       <r>  11.9067  0.0000</r>
       <r>  12.3950  0.0000</r>
       <r>  12.3950  0.0000</r>
       <r>  12.4274  0.0000</r>
       <r>  13.7363  0.0000</r>
       <r>  13.7363  0.0000</r>
      </set>
      <set comment="kpoint 3">
       <r>  -3.1837  1.0000</r>
       <r>   2.3970  1.0000</r>
       <r>   4.6367  1.0000</r>
       <r>   4.6367  1.0000</r>
       <r>   5.7673  1.0000</r>
       <r>   5.7673  1.0000</r>
       <r>   7.9707  0.0000</r>
       <r>   9.9263  0.0000</r>
       <r>   9.9263  0.0000</r>
       <r>  11.0268  0.0000</r>
       <r>  11.0268  0.0000</r>
       <r>  12.5489  0.0000</r>
       <r>  12.5489  0.0000</r>
       <r>  12.6030  0.0000</r>
       <r>  15.2249  0.0000</r>
       <r>  15.2249  0.0000</r>
      </set>
      <set comment="kpoint 4">
       <r>  -2.8872  1.0000</r>
       <r>   1.3161  1.0000</r>
       <r>   4.9114  1.0000</r>
       <r>   4.9114  1.0000</r>
       <r>   6.0575  1.0000</r>
       <r>   6.0575  1.0000</r>
       <r>   8.8774  0.0000</r>
       <r>   8.8774  0.0000</r>
       <r>   9.5712  0.0000</r>
       <r>  10.0807  0.0000</r>
       <r>  10.0807  0.0000</r>
       <r>  12.8053  0.0000</r>
       <r>  12.8053  0.0000</r>
       <r>  12.8953  0.0000</r>
       <r>  15.9275  0.0000</r>
       <r>  16.4909  0.0000</r>
      </set>
      <set comment="kpoint 5">
       <r>  -2.4730  1.0000</r>
       <r>   0.3362  1.0000</r>
       <r>   5.2961  1.0000</r>
       <r>   5.2961  1.0000</r>
       <r>   6.4602  1.0000</r>
       <r>   6.4602  1.0000</r>
       <r>   7.9395  0.0000</r>
       <r>   7.9395  0.0000</r>
       <r>   9.1797  0.0000</r>
       <r>   9.1797  0.0000</r>
       <r>  11.2760  0.0000</r>
       <r>  13.1644  0.0000</r>
       <r>  13.1644  0.0000</r>
       <r>  13.3036  0.0000</r>
       <r>  15.6244  0.0000</r>
       <r>  15.6244  0.0000</r>
      </set>
      <set comment="kpoint 6">
       <r>  -1.9420  1.0000</r>
       <r>  -0.5355  1.0000</r>
       <r>   5.7911  1.0000</r>
       <r>   5.7911  1.0000</r>
       <r>   6.9684  1.0000</r>
       <r>   6.9684  1.0000</r>
       <r>   7.1126  1.0000</r>
       <r>   7.1126  1.0000</r>
       <r>   8.3648  0.0000</r>
       <r>   8.3648  0.0000</r>
       <r>  13.0738  0.0000</r>
       <r>  13.6262  0.0000</r>
       <r>  13.6262  0.0000</r>
       <r>  13.8265  0.0000</r>
       <r>  14.8569  0.0000</r>
       <r>  14.8569  0.0000</r>
      </set>
      <set comment="kpoint 7">
       <r>  -1.2957  1.0000</r>
       <r>  -1.2957  1.0000</r>
       <r>   6.3965  1.0000</r>
       <r>   6.3965  1.0000</r>
       <r>   6.3965  1.0000</r>
       <r>   6.3965  1.0000</r>
       <r>   7.4487  0.0000</r>
       <r>   7.4487  0.0000</r>
       <r>   7.7811  0.0000</r>
       <r>   7.7811  0.0000</r>
       <r>  14.1905  0.0000</r>
       <r>  14.1905  0.0000</r>
       <r>  14.1905  0.0000</r>
       <r>  14.1905  0.0000</r>
       <r>  14.4620  0.0000</r>
       <r>  14.4620  0.0000</r>
      </set>
      <set comment="kpoint 8">
       <r>  -3.3025  1.0000</r>
       <r>   3.6080  1.0000</r>
       <r>   3.6080  1.0000</r>
       <r>   4.5269  1.0000</r>
       <r>   5.6508  1.0000</r>
       <r>   6.5605  1.0000</r>
       <r>   6.5605  1.0000</r>
       <r>  10.2246  0.0000</r>
       <r>  11.1410  0.0000</r>
       <r>  11.1410  0.0000</r>
       <r>  11.9590  0.0000</r>
       <r>  11.9590  0.0000</r>
       <r>  12.4468  0.0000</r>
       <r>  13.6513  0.0000</r>
       <r>  13.7912  0.0000</r>
       <r>  13.7912  0.0000</r>
      </set>
      <set comment="kpoint 9">
       <r>  -3.1244  1.0000</r>
       <r>   2.4541  1.0000</r>
       <r>   3.7772  1.0000</r>
       <r>   4.6916  1.0000</r>
       <r>   5.8254  1.0000</r>
       <r>   6.7307  1.0000</r>
       <r>   8.0265  0.0000</r>
       <r>   9.1140  0.0000</r>
       <r>   9.9813  0.0000</r>
       <r>  11.0805  0.0000</r>
       <r>  11.3058  0.0000</r>
       <r>  11.8810  0.0000</r>
       <r>  12.1157  0.0000</r>
       <r>  13.9556  0.0000</r>
       <r>  14.7028  0.0000</r>
       <r>  15.2795  0.0000</r>
      </set>
      <set comment="kpoint 10">
       <r>  -2.8279  1.0000</r>
       <r>   1.3737  1.0000</r>
       <r>   4.0588  1.0000</r>
       <r>   4.9663  1.0000</r>
       <r>   6.1147  1.0000</r>
       <r>   7.0132  1.0000</r>
       <r>   8.0778  0.0000</r>
       <r>   8.9325  0.0000</r>
       <r>   9.6259  0.0000</r>
       <r>  10.1359  0.0000</r>
       <r>  10.9656  0.0000</r>
       <r>  11.5803  0.0000</r>
       <r>  12.3767  0.0000</r>
       <r>  14.2294  0.0000</r>
       <r>  15.4802  0.0000</r>
       <r>  16.0662  0.0000</r>
      </set>
      <set comment="kpoint 11">
       <r>  -2.4139  1.0000</r>
       <r>   0.3942  1.0000</r>
       <r>   4.4524  1.0000</r>
       <r>   5.3511  1.0000</r>
       <r>   6.5118  1.0000</r>
       <r>   7.1458  0.9869</r>
       <r>   7.4050  0.0000</r>
       <r>   7.9946  0.0000</r>
       <r>   9.2375  0.0000</r>
       <r>  10.0750  0.0000</r>
       <r>  11.3290  0.0000</r>
       <r>  11.9640  0.0000</r>
       <r>  12.7416  0.0000</r>
       <r>  14.5708  0.0000</r>
       <r>  14.6125  0.0000</r>
       <r>  15.2111  0.0000</r>
      </set>
      <set comment="kpoint 12">
       <r>  -1.8832  1.0000</r>
       <r>  -0.4772  1.0000</r>
       <r>   4.9573  1.0000</r>
       <r>   5.8461  1.0000</r>
       <r>   6.2926  1.0000</r>
       <r>   7.0451  1.0000</r>
       <r>   7.1677  0.1914</r>
       <r>   7.8835  0.0000</r>
       <r>   8.4423  0.0000</r>
       <r>   9.2649  0.0000</r>
       <r>  12.4561  0.0000</r>
       <r>  13.1117  0.0000</r>
       <r>  13.2225  0.0000</r>
       <r>  13.7613  0.0000</r>
       <r>  14.4456  0.0000</r>
       <r>  15.1040  0.0000</r>
      </set>
      <set comment="kpoint 13">
       <r>  -1.2371  1.0000</r>
       <r>  -1.2371  1.0000</r>
       <r>   5.5723  1.0000</r>
       <r>   5.5723  1.0000</r>
       <r>   6.4515  1.0000</r>
       <r>   6.4515  1.0000</r>
       <r>   7.6515  0.0000</r>
       <r>   7.6515  0.0000</r>
       <r>   8.5609  0.0000</r>
       <r>   8.5609  0.0000</r>
       <r>  13.0557  0.0000</r>
       <r>  13.0557  0.0000</r>
       <r>  13.7761  0.0000</r>
       <r>  13.7761  0.0000</r>
       <r>  15.0028  0.0000</r>
       <r>  15.0028  0.0000</r>
      </set>
      <set comment="kpoint 14">
       <r>  -2.9465  1.0000</r>
       <r>   2.6254  1.0000</r>
       <r>   2.6254  1.0000</r>
       <r>   4.8564  1.0000</r>
       <r>   5.9988  1.0000</r>
       <r>   8.0087  0.0000</r>
       <r>   8.1935  0.0000</r>
       <r>   8.1935  0.0000</r>
       <r>  10.1465  0.0000</r>
       <r>  10.1465  0.0000</r>
       <r>  11.2417  0.0000</r>
       <r>  11.2417  0.0000</r>
       <r>  12.7558  0.0000</r>
       <r>  14.2604  0.0000</r>
       <r>  15.3750  0.0000</r>
       <r>  15.4430  0.0000</r>
      </set>
      <set comment="kpoint 15">
       <r>  -2.6504  1.0000</r>
       <r>   1.5464  1.0000</r>
       <r>   2.9105  1.0000</r>
       <r>   5.1312  1.0000</r>
       <r>   6.2816  1.0000</r>
       <r>   6.9748  1.0000</r>
       <r>   8.4695  0.0000</r>
       <r>   9.0977  0.0000</r>
       <r>   9.7889  0.0000</r>
       <r>  10.3022  0.0000</r>
       <r>  10.4215  0.0000</r>
       <r>  11.5103  0.0000</r>
       <r>  12.2896  0.0000</r>
       <r>  14.3538  0.0000</r>
       <r>  15.2252  0.0000</r>
       <r>  15.3045  0.0000</r>
      </set>
      <set comment="kpoint 16">
       <r>  -2.2368  1.0000</r>
       <r>   0.5681  1.0000</r>
       <r>   3.3089  1.0000</r>
       <r>   5.5160  1.0000</r>
       <r>   6.0068  1.0000</r>
       <r>   6.7082  1.0000</r>
       <r>   8.1598  0.0000</r>
       <r>   8.8373  0.0000</r>
       <r>   9.4241  0.0000</r>
       <r>  10.8063  0.0000</r>
       <r>  11.4675  0.0000</r>
       <r>  11.4769  0.0000</r>
       <r>  11.8949  0.0000</r>
       <r>  13.4320  0.0000</r>
       <r>  14.3763  0.0000</r>
       <r>  16.0950  0.0000</r>
      </set>
      <set comment="kpoint 17">
       <r>  -1.7067  1.0000</r>
       <r>  -0.3023  1.0000</r>
       <r>   3.8198  1.0000</r>
       <r>   5.1733  1.0000</r>
       <r>   6.0111  1.0000</r>
       <r>   7.2156  0.0000</r>
       <r>   7.3328  0.0000</r>
       <r>   8.5484  0.0000</r>
       <r>   9.3902  0.0000</r>
       <r>  10.6806  0.0000</r>
       <r>  11.3004  0.0000</r>
       <r>  12.3485  0.0000</r>
       <r>  12.6144  0.0000</r>
       <r>  13.2909  0.0000</r>
       <r>  13.6077  0.0000</r>
       <r>  16.5810  0.0000</r>
      </set>
      <set comment="kpoint 18">
       <r>  -1.0613  1.0000</r>
       <r>  -1.0613  1.0000</r>
       <r>   4.4419  1.0000</r>
       <r>   4.4419  1.0000</r>
       <r>   6.6166  1.0000</r>
       <r>   6.6166  1.0000</r>
       <r>   7.8352  0.0000</r>
       <r>   7.8352  0.0000</r>
       <r>   9.9806  0.0000</r>
       <r>   9.9806  0.0000</r>
       <r>  11.9034  0.0000</r>
       <r>  11.9034  0.0000</r>
       <r>  12.9305  0.0000</r>
       <r>  12.9305  0.0000</r>
       <r>  15.1549  0.0000</r>
       <r>  15.1549  0.0000</r>
      </set>
      <set comment="kpoint 19">
       <r>  -2.3549  1.0000</r>
       <r>   1.8339  1.0000</r>
       <r>   1.8339  1.0000</r>
       <r>   5.4060  1.0000</r>
       <r>   5.9042  1.0000</r>
       <r>   6.5940  1.0000</r>
       <r>   9.3730  0.0000</r>
       <r>   9.3730  0.0000</r>
       <r>  10.0453  0.0000</r>
       <r>  10.0453  0.0000</r>
       <r>  10.5912  0.0000</r>
       <r>  10.5912  0.0000</r>
       <r>  13.2710  0.0000</r>
       <r>  13.3217  0.0000</r>
       <r>  14.3286  0.0000</r>
       <r>  14.9038  0.0000</r>
      </set>
      <set comment="kpoint 20">
       <r>  -1.9421  1.0000</r>
       <r>   0.8575  1.0000</r>
       <r>   2.2356  1.0000</r>
       <r>   4.9605  1.0000</r>
       <r>   5.7909  1.0000</r>
       <r>   6.9890  1.0000</r>
       <r>   8.4351  0.0000</r>
       <r>   9.6491  0.0000</r>
       <r>   9.7582  0.0000</r>
       <r>  10.4749  0.0000</r>
       <r>  10.9316  0.0000</r>
       <r>  11.7788  0.0000</r>
       <r>  12.3932  0.0000</r>
       <r>  12.9239  0.0000</r>
       <r>  13.4760  0.0000</r>
       <r>  16.0169  0.0000</r>
      </set>
      <set comment="kpoint 21">
       <r>  -1.4130  1.0000</r>
       <r>  -0.0113  1.0000</r>
       <r>   2.7505  1.0000</r>
       <r>   4.1153  1.0000</r>
       <r>   6.2862  1.0000</r>
       <r>   7.5009  0.0000</r>
       <r>   7.6081  0.0000</r>
       <r>   8.8420  0.0000</r>
       <r>  10.2533  0.0000</r>
       <r>  10.9534  0.0000</r>
       <r>  11.4251  0.0000</r>
       <r>  11.5714  0.0000</r>
       <r>  12.2147  0.0000</r>
       <r>  12.6999  0.0000</r>
       <r>  13.5523  0.0000</r>
       <r>  17.2844  0.0000</r>
      </set>
      <set comment="kpoint 22">
       <r>  -0.7689  1.0000</r>
       <r>  -0.7689  1.0000</r>
       <r>   3.3777  1.0000</r>
       <r>   3.3777  1.0000</r>
       <r>   6.8918  1.0000</r>
       <r>   6.8918  1.0000</r>
       <r>   8.1208  0.0000</r>
       <r>   8.1208  0.0000</r>
       <r>  10.8578  0.0000</r>
       <r>  10.8578  0.0000</r>
       <r>  11.5402  0.0000</r>
       <r>  11.5402  0.0000</r>
       <r>  12.0141  0.0000</r>
       <r>  12.0141  0.0000</r>
       <r>  15.4027  0.0000</r>
       <r>  15.4027  0.0000</r>
      </set>
      <set comment="kpoint 23">
       <r>  -1.5304  1.0000</r>
       <r>   1.2618  1.0000</r>
       <r>   1.2618  1.0000</r>
       <r>   4.0049  1.0000</r>
       <r>   6.1760  1.0000</r>
       <r>   7.3881  0.0000</r>
       <r>   8.8206  0.0000</r>
       <r>   8.8206  0.0000</r>
       <r>  10.0467  0.0000</r>
       <r>  10.0467  0.0000</r>
       <r>  11.4608  0.0000</r>
       <r>  12.1481  0.0000</r>
       <r>  12.1481  0.0000</r>
       <r>  12.6160  0.0000</r>
       <r>  13.9921  0.0000</r>
       <r>  15.7269  0.0000</r>
      </set>
      <set comment="kpoint 24">
       <r>  -1.0028  1.0000</r>
       <r>   0.3953  1.0000</r>
       <r>   1.7801  1.0000</r>
       <r>   3.1537  1.0000</r>
       <r>   6.6714  1.0000</r>
       <r>   7.8984  0.0000</r>
       <r>   7.9935  0.0000</r>
       <r>   9.2349  0.0000</r>
       <r>   9.3160  0.0000</r>
       <r>  10.5411  0.0000</r>
       <r>  10.6365  0.0000</r>
       <r>  11.8314  0.0000</r>
       <r>  12.6213  0.0000</r>
       <r>  13.7706  0.0000</r>
       <r>  13.9124  0.0000</r>
       <r>  16.9139  0.0000</r>
      </set>
      <set comment="kpoint 25">
       <r>  -0.3603  1.0000</r>
       <r>  -0.3603  1.0000</r>
       <r>   2.4113  1.0000</r>
       <r>   2.4113  1.0000</r>
       <r>   7.2772  0.0000</r>
       <r>   7.2772  0.0000</r>
       <r>   8.5158  0.0000</r>
       <r>   8.5158  0.0000</r>
       <r>   9.9214  0.0000</r>
       <r>   9.9214  0.0000</r>
       <r>  11.1372  0.0000</r>
       <r>  11.1372  0.0000</r>
       <r>  13.1807  0.0000</r>
       <r>  13.1807  0.0000</r>
       <r>  15.7307  0.0000</r>
       <r>  15.7307  0.0000</r>
      </set>
      <set comment="kpoint 26">
       <r>  -0.4769  1.0000</r>
       <r>   0.9165  1.0000</r>
       <r>   0.9165  1.0000</r>
       <r>   2.2977  1.0000</r>
       <r>   7.1669  0.2218</r>
       <r>   8.4057  0.0000</r>
       <r>   8.4892  0.0000</r>
       <r>   8.4892  0.0000</r>
       <r>   9.7338  0.0000</r>
       <r>   9.7338  0.0000</r>
       <r>   9.8108  0.0000</r>
       <r>  11.0384  0.0000</r>
       <r>  14.3560  0.0000</r>
       <r>  14.3560  0.0000</r>
       <r>  14.9180  0.0000</r>
       <r>  16.7472  0.0000</r>
      </set>
      <set comment="kpoint 27">
       <r>   0.1634  1.0000</r>
       <r>   0.1634  1.0000</r>
       <r>   1.5512  1.0000</r>
       <r>   1.5512  1.0000</r>
       <r>   7.7728  0.0000</r>
       <r>   7.7728  0.0000</r>
       <r>   9.0192  0.0000</r>
       <r>   9.0192  0.0000</r>
       <r>   9.0950  0.0000</r>
       <r>   9.0950  0.0000</r>
       <r>  10.3365  0.0000</r>
       <r>  10.3365  0.0000</r>
       <r>  14.8240  0.0000</r>
       <r>  14.8240  0.0000</r>
       <r>  16.0765  0.0000</r>
       <r>  16.0765  0.0000</r>
      </set>
      <set comment="kpoint 28">
       <r>   0.8012  1.0000</r>
       <r>   0.8012  1.0000</r>
       <r>   0.8012  1.0000</r>
       <r>   0.8012  1.0000</r>
       <r>   8.3787  0.0000</r>
       <r>   8.3787  0.0000</r>
       <r>   8.3787  0.0000</r>
       <r>   8.3787  0.0000</r>
       <r>   9.6277  0.0000</r>
       <r>   9.6277  0.0000</r>
       <r>   9.6277  0.0000</r>
       <r>   9.6277  0.0000</r>
       <r>  16.0449  0.0000</r>
       <r>  16.0449  0.0000</r>
       <r>  16.0449  0.0000</r>
       <r>  16.0449  0.0000</r>
      </set>
      <set comment="kpoint 29">
       <r>  -3.2431  1.0000</r>
       <r>   3.6644  1.0000</r>
       <r>   3.6644  1.0000</r>
       <r>   3.6644  1.0000</r>
       <r>   6.6173  1.0000</r>
       <r>   6.6173  1.0000</r>
       <r>   6.6173  1.0000</r>
       <r>  10.2795  0.0000</r>
       <r>  10.2795  0.0000</r>
       <r>  10.2795  0.0000</r>
       <r>  12.4981  0.0000</r>
       <r>  12.4981  0.0000</r>
       <r>  12.4981  0.0000</r>
       <r>  13.7077  0.0000</r>
       <r>  13.7077  0.0000</r>
       <r>  13.7077  0.0000</r>
      </set>
      <set comment="kpoint 30">
       <r>  -3.0651  1.0000</r>
       <r>   2.5112  1.0000</r>
       <r>   3.8335  1.0000</r>
       <r>   3.8335  1.0000</r>
       <r>   6.7871  1.0000</r>
       <r>   6.7871  1.0000</r>
       <r>   8.0821  0.0000</r>
       <r>   9.1695  0.0000</r>
       <r>   9.1695  0.0000</r>
       <r>  10.4444  0.0000</r>
       <r>  11.9341  0.0000</r>
       <r>  11.9341  0.0000</r>
       <r>  12.6519  0.0000</r>
       <r>  13.8766  0.0000</r>
       <r>  14.7578  0.0000</r>
       <r>  14.7578  0.0000</r>
      </set>
      <set comment="kpoint 31">
       <r>  -2.7687  1.0000</r>
       <r>   1.4313  1.0000</r>
       <r>   4.1150  1.0000</r>
       <r>   4.1150  1.0000</r>
       <r>   7.0677  1.0000</r>
       <r>   7.0677  1.0000</r>
       <r>   8.1350  0.0000</r>
       <r>   8.1350  0.0000</r>
       <r>   9.6795  0.0000</r>
       <r>  10.7197  0.0000</r>
       <r>  11.0199  0.0000</r>
       <r>  11.0199  0.0000</r>
       <r>  12.9085  0.0000</r>
       <r>  14.1573  0.0000</r>
       <r>  14.6026  0.0000</r>
       <r>  16.2663  0.0000</r>
      </set>
      <set comment="kpoint 32">
       <r>  -2.3548  1.0000</r>
       <r>   0.4522  1.0000</r>
       <r>   4.5085  1.0000</r>
       <r>   4.5085  1.0000</r>
       <r>   7.1738  0.0413</r>
       <r>   7.1738  0.0413</r>
       <r>   7.4846  0.0000</r>
       <r>   7.4846  0.0000</r>
       <r>  10.1305  0.0000</r>
       <r>  10.1305  0.0000</r>
       <r>  11.0916  0.0000</r>
       <r>  11.3932  0.0000</r>
       <r>  13.2677  0.0000</r>
       <r>  13.6986  0.0000</r>
       <r>  14.5480  0.0000</r>
       <r>  15.7285  0.0000</r>
      </set>
      <set comment="kpoint 33">
       <r>  -1.8243  1.0000</r>
       <r>  -0.4189  1.0000</r>
       <r>   5.0131  1.0000</r>
       <r>   5.0131  1.0000</r>
       <r>   6.3548  1.0000</r>
       <r>   6.3548  1.0000</r>
       <r>   7.9712  0.0000</r>
       <r>   7.9712  0.0000</r>
       <r>   9.3233  0.0000</r>
       <r>   9.3233  0.0000</r>
       <r>  11.5897  0.0000</r>
       <r>  12.8923  0.0000</r>
       <r>  13.1810  0.0000</r>
       <r>  13.7297  0.0000</r>
       <r>  14.9608  0.0000</r>
       <r>  15.0463  0.0000</r>
      </set>
      <set comment="kpoint 34">
       <r>  -1.1785  1.0000</r>
       <r>  -1.1785  1.0000</r>
       <r>   5.5942  1.0000</r>
       <r>   5.5942  1.0000</r>
       <r>   5.6649  1.0000</r>
       <r>   5.6649  1.0000</r>
       <r>   8.4725  0.0000</r>
       <r>   8.4725  0.0000</r>
       <r>   8.7178  0.0000</r>
       <r>   8.7178  0.0000</r>
       <r>  12.1885  0.0000</r>
       <r>  12.1885  0.0000</r>
       <r>  14.2942  0.0000</r>
       <r>  14.2942  0.0000</r>
       <r>  15.0539  0.0000</r>
       <r>  15.0539  0.0000</r>
      </set>
      <set comment="kpoint 35">
       <r>  -2.8872  1.0000</r>
       <r>   2.6825  1.0000</r>
       <r>   2.6825  1.0000</r>
       <r>   4.0025  1.0000</r>
       <r>   6.9546  1.0000</r>
       <r>   8.0662  0.0000</r>
       <r>   8.2475  0.0000</r>
       <r>   8.2475  0.0000</r>
       <r>   9.3370  0.0000</r>
       <r>   9.3370  0.0000</r>
       <r>  12.0931  0.0000</r>
       <r>  12.0931  0.0000</r>
       <r>  12.8072  0.0000</r>
       <r>  14.3169  0.0000</r>
       <r>  14.5241  0.0000</r>
       <r>  14.9226  0.0000</r>
      </set>
      <set comment="kpoint 36">
       <r>  -2.5912  1.0000</r>
       <r>   1.6040  1.0000</r>
       <r>   2.9675  1.0000</r>
       <r>   4.2837  1.0000</r>
       <r>   6.9942  1.0000</r>
       <r>   7.2690  0.0000</r>
       <r>   8.2769  0.0000</r>
       <r>   8.5494  0.0000</r>
       <r>   9.5919  0.0000</r>
       <r>   9.8639  0.0000</r>
       <r>  11.1827  0.0000</r>
       <r>  12.3427  0.0000</r>
       <r>  12.3577  0.0000</r>
       <r>  13.5210  0.0000</r>
       <r>  15.1961  0.0000</r>
       <r>  15.3590  0.0000</r>
      </set>
      <set comment="kpoint 37">
       <r>  -2.1778  1.0000</r>
       <r>   0.6260  1.0000</r>
       <r>   3.3658  1.0000</r>
       <r>   4.6767  1.0000</r>
       <r>   6.0709  1.0000</r>
       <r>   7.3547  0.0000</r>
       <r>   7.6424  0.0000</r>
       <r>   8.9190  0.0000</r>
       <r>   9.9907  0.0000</r>
       <r>  10.2980  0.0000</r>
       <r>  11.5216  0.0000</r>
       <r>  11.5489  0.0000</r>
       <r>  12.6090  0.0000</r>
       <r>  12.7277  0.0000</r>
       <r>  15.2199  0.0000</r>
       <r>  15.5766  0.0000</r>
      </set>
      <set comment="kpoint 38">
       <r>  -1.6479  1.0000</r>
       <r>  -0.2441  1.0000</r>
       <r>   3.8765  1.0000</r>
       <r>   5.1638  1.0000</r>
       <r>   5.2498  1.0000</r>
       <r>   6.5230  1.0000</r>
       <r>   8.1446  0.0000</r>
       <r>   9.3357  0.0000</r>
       <r>   9.5673  0.0000</r>
       <r>  10.4859  0.0000</r>
       <r>  10.7357  0.0000</r>
       <r>  11.7967  0.0000</r>
       <r>  13.1888  0.0000</r>
       <r>  13.3499  0.0000</r>
       <r>  14.4495  0.0000</r>
       <r>  16.0611  0.0000</r>
      </set>
      <set comment="kpoint 39">
       <r>  -1.0028  1.0000</r>
       <r>  -1.0028  1.0000</r>
       <r>   4.4982  1.0000</r>
       <r>   4.4982  1.0000</r>
       <r>   5.7988  1.0000</r>
       <r>   5.7988  1.0000</r>
       <r>   8.7520  0.0000</r>
       <r>   8.7520  0.0000</r>
       <r>  10.0383  0.0000</r>
       <r>  10.0383  0.0000</r>
       <r>  11.0882  0.0000</r>
       <r>  11.0882  0.0000</r>
       <r>  13.7738  0.0000</r>
       <r>  13.7738  0.0000</r>
       <r>  15.2059  0.0000</r>
       <r>  15.2059  0.0000</r>
      </set>
      <set comment="kpoint 40">
       <r>  -2.2959  1.0000</r>
       <r>   1.8914  1.0000</r>
       <r>   1.8914  1.0000</r>
       <r>   4.5645  1.0000</r>
       <r>   5.9685  1.0000</r>
       <r>   7.5307  0.0000</r>
       <r>   8.5697  0.0000</r>
       <r>   8.5697  0.0000</r>
       <r>  10.1231  0.0000</r>
       <r>  10.1231  0.0000</r>
       <r>  11.4545  0.0000</r>
       <r>  11.4545  0.0000</r>
       <r>  12.5090  0.0000</r>
       <r>  13.3224  0.0000</r>
       <r>  14.9593  0.0000</r>
       <r>  15.2006  0.0000</r>
      </set>
      <set comment="kpoint 41">
       <r>  -1.8832  1.0000</r>
       <r>   0.9153  1.0000</r>
       <r>   2.2929  1.0000</r>
       <r>   4.9433  1.0000</r>
       <r>   5.0334  1.0000</r>
       <r>   7.6337  0.0000</r>
       <r>   7.9229  0.0000</r>
       <r>   8.9580  0.0000</r>
       <r>  10.4345  0.0000</r>
       <r>  10.6401  0.0000</r>
       <r>  11.5902  0.0000</r>
       <r>  11.7472  0.0000</r>
       <r>  11.8991  0.0000</r>
       <r>  12.9768  0.0000</r>
       <r>  14.3491  0.0000</r>
       <r>  16.0701  0.0000</r>
      </set>
      <set comment="kpoint 42">
       <r>  -1.3544  1.0000</r>
       <r>   0.0468  1.0000</r>
       <r>   2.8077  1.0000</r>
       <r>   4.1718  1.0000</r>
       <r>   5.4634  1.0000</r>
       <r>   6.8019  1.0000</r>
       <r>   8.4258  0.0000</r>
       <r>   9.4549  0.0000</r>
       <r>   9.7450  0.0000</r>
       <r>  10.7727  0.0000</r>
       <r>  11.0100  0.0000</r>
       <r>  12.2685  0.0000</r>
       <r>  12.3034  0.0000</r>
       <r>  13.5736  0.0000</r>
       <r>  13.6053  0.0000</r>
       <r>  17.3288  0.0000</r>
      </set>
      <set comment="kpoint 43">
       <r>  -0.7105  1.0000</r>
       <r>  -0.7105  1.0000</r>
       <r>   3.4346  1.0000</r>
       <r>   3.4346  1.0000</r>
       <r>   6.0778  1.0000</r>
       <r>   6.0778  1.0000</r>
       <r>   9.0354  0.0000</r>
       <r>   9.0354  0.0000</r>
       <r>  10.0602  0.0000</r>
       <r>  10.0602  0.0000</r>
       <r>  11.5947  0.0000</r>
       <r>  11.5947  0.0000</r>
       <r>  12.8897  0.0000</r>
       <r>  12.8897  0.0000</r>
       <r>  15.4536  0.0000</r>
       <r>  15.4536  0.0000</r>
      </set>
      <set comment="kpoint 44">
       <r>  -1.4717  1.0000</r>
       <r>   1.3195  1.0000</r>
       <r>   1.3195  1.0000</r>
       <r>   4.0615  1.0000</r>
       <r>   5.3515  1.0000</r>
       <r>   8.0225  0.0000</r>
       <r>   8.0225  0.0000</r>
       <r>   8.3152  0.0000</r>
       <r>  10.6662  0.0000</r>
       <r>  10.9372  0.0000</r>
       <r>  10.9372  0.0000</r>
       <r>  12.2030  0.0000</r>
       <r>  12.2030  0.0000</r>
       <r>  13.4934  0.0000</r>
       <r>  14.0436  0.0000</r>
       <r>  15.7805  0.0000</r>
      </set>
      <set comment="kpoint 45">
       <r>  -0.9443  1.0000</r>
       <r>   0.4533  1.0000</r>
       <r>   1.8376  1.0000</r>
       <r>   3.2108  1.0000</r>
       <r>   5.8546  1.0000</r>
       <r>   7.1917  0.0000</r>
       <r>   8.5212  0.0000</r>
       <r>   8.8169  0.0000</r>
       <r>   9.8446  0.0000</r>
       <r>  10.1348  0.0000</r>
       <r>  11.4284  0.0000</r>
       <r>  12.6751  0.0000</r>
       <r>  12.7113  0.0000</r>
       <r>  13.8231  0.0000</r>
       <r>  13.9651  0.0000</r>
       <r>  16.9649  0.0000</r>
      </set>
      <set comment="kpoint 46">
       <r>  -0.3020  1.0000</r>
       <r>  -0.3020  1.0000</r>
       <r>   2.4686  1.0000</r>
       <r>   2.4686  1.0000</r>
       <r>   6.4684  1.0000</r>
       <r>   6.4684  1.0000</r>
       <r>   9.1289  0.0000</r>
       <r>   9.1289  0.0000</r>
       <r>   9.4250  0.0000</r>
       <r>   9.4250  0.0000</r>
       <r>  12.0205  0.0000</r>
       <r>  12.0205  0.0000</r>
       <r>  13.2339  0.0000</r>
       <r>  13.2339  0.0000</r>
       <r>  15.7816  0.0000</r>
       <r>  15.7816  0.0000</r>
      </set>
      <set comment="kpoint 47">
       <r>  -0.4186  1.0000</r>
       <r>   0.9743  1.0000</r>
       <r>   0.9743  1.0000</r>
       <r>   2.3551  1.0000</r>
       <r>   6.3571  1.0000</r>
       <r>   7.6918  0.0000</r>
       <r>   7.6918  0.0000</r>
       <r>   9.0197  0.0000</r>
       <r>   9.3164  0.0000</r>
       <r>  10.6284  0.0000</r>
       <r>  10.6284  0.0000</r>
       <r>  11.9226  0.0000</r>
       <r>  14.4083  0.0000</r>
       <r>  14.4083  0.0000</r>
       <r>  14.9696  0.0000</r>
       <r>  16.7976  0.0000</r>
      </set>
      <set comment="kpoint 48">
       <r>   0.2215  1.0000</r>
       <r>   0.2215  1.0000</r>
       <r>   1.6088  1.0000</r>
       <r>   1.6088  1.0000</r>
       <r>   6.9699  1.0000</r>
       <r>   6.9699  1.0000</r>
       <r>   8.3015  0.0000</r>
       <r>   8.3015  0.0000</r>
       <r>   9.9217  0.0000</r>
       <r>   9.9217  0.0000</r>
       <r>  11.2257  0.0000</r>
       <r>  11.2257  0.0000</r>
       <r>  14.8760  0.0000</r>
       <r>  14.8760  0.0000</r>
       <r>  16.1275  0.0000</r>
       <r>  16.1275  0.0000</r>
      </set>
      <set comment="kpoint 49">
       <r>   0.8590  1.0000</r>
       <r>   0.8590  1.0000</r>
       <r>   0.8590  1.0000</r>
       <r>   0.8590  1.0000</r>
       <r>   7.5813  0.0000</r>
       <r>   7.5813  0.0000</r>
       <r>   7.5813  0.0000</r>
       <r>   7.5813  0.0000</r>
       <r>  10.5234  0.0000</r>
       <r>  10.5234  0.0000</r>
       <r>  10.5234  0.0000</r>
       <r>  10.5234  0.0000</r>
       <r>  16.0964  0.0000</r>
       <r>  16.0964  0.0000</r>
       <r>  16.0964  0.0000</r>
       <r>  16.0964  0.0000</r>
      </set>
      <set comment="kpoint 50">
       <r>  -2.7096  1.0000</r>
       <r>   2.8536  1.0000</r>
       <r>   2.8536  1.0000</r>
       <r>   2.8536  1.0000</r>
       <r>   8.2000  0.0000</r>
       <r>   8.2000  0.0000</r>
       <r>   8.2000  0.0000</r>
       <r>   8.4471  0.0000</r>
       <r>   8.4471  0.0000</r>
       <r>   8.4471  0.0000</r>
       <r>  12.9612  0.0000</r>
       <r>  12.9612  0.0000</r>
       <r>  12.9612  0.0000</r>
       <r>  13.4471  0.0000</r>
       <r>  14.4857  0.0000</r>
       <r>  14.4857  0.0000</r>
      </set>
      <set comment="kpoint 51">
       <r>  -2.4140  1.0000</r>
       <r>   1.7765  1.0000</r>
       <r>   3.1383  1.0000</r>
       <r>   3.1383  1.0000</r>
       <r>   7.1824  0.0015</r>
       <r>   7.1824  0.0015</r>
       <r>   8.5000  0.0000</r>
       <r>   8.7035  0.0000</r>
       <r>   8.7035  0.0000</r>
       <r>  10.0182  0.0000</r>
       <r>  12.4379  0.0000</r>
       <r>  12.5015  0.0000</r>
       <r>  12.5015  0.0000</r>
       <r>  13.2181  0.0000</r>
       <r>  14.7651  0.0000</r>
       <r>  15.5218  0.0000</r>
      </set>
      <set comment="kpoint 52">
       <r>  -2.0010  1.0000</r>
       <r>   0.7996  1.0000</r>
       <r>   3.5362  1.0000</r>
       <r>   3.5362  1.0000</r>
       <r>   6.2402  1.0000</r>
       <r>   6.2402  1.0000</r>
       <r>   8.8890  0.0000</r>
       <r>   9.0899  0.0000</r>
       <r>   9.0899  0.0000</r>
       <r>  11.5209  0.0000</r>
       <r>  11.6839  0.0000</r>
       <r>  11.6839  0.0000</r>
       <r>  11.7132  0.0000</r>
       <r>  13.5777  0.0000</r>
       <r>  15.1519  0.0000</r>
       <r>  16.0403  0.0000</r>
      </set>
      <set comment="kpoint 53">
       <r>  -1.4717  1.0000</r>
       <r>  -0.0695  1.0000</r>
       <r>   4.0463  1.0000</r>
       <r>   4.0463  1.0000</r>
       <r>   5.4013  1.0000</r>
       <r>   5.4013  1.0000</r>
       <r>   9.3864  0.0000</r>
       <r>   9.5830  0.0000</r>
       <r>   9.5830  0.0000</r>
       <r>  10.7042  0.0000</r>
       <r>  10.9020  0.0000</r>
       <r>  10.9020  0.0000</r>
       <r>  13.4989  0.0000</r>
       <r>  14.0401  0.0000</r>
       <r>  15.2722  0.0000</r>
       <r>  15.6407  0.0000</r>
      </set>
      <set comment="kpoint 54">
       <r>  -0.8273  1.0000</r>
       <r>  -0.8273  1.0000</r>
       <r>   4.6367  1.0000</r>
       <r>   4.6367  1.0000</r>
       <r>   4.7010  1.0000</r>
       <r>   4.7010  1.0000</r>
       <r>   9.9919  0.0000</r>
       <r>   9.9919  0.0000</r>
       <r>  10.0919  0.0000</r>
       <r>  10.0919  0.0000</r>
       <r>  10.2941  0.0000</r>
       <r>  10.2941  0.0000</r>
       <r>  14.6051  0.0000</r>
       <r>  14.6051  0.0000</r>
       <r>  15.3575  0.0000</r>
       <r>  15.3575  0.0000</r>
      </set>
      <set comment="kpoint 55">
       <r>  -2.1189  1.0000</r>
       <r>   2.0636  1.0000</r>
       <r>   2.0636  1.0000</r>
       <r>   3.4226  1.0000</r>
       <r>   6.1380  1.0000</r>
       <r>   7.4627  0.0000</r>
       <r>   7.4627  0.0000</r>
       <r>   8.9807  0.0000</r>
       <r>  10.2915  0.0000</r>
       <r>  10.2915  0.0000</r>
       <r>  11.4220  0.0000</r>
       <r>  12.7659  0.0000</r>
       <r>  12.7659  0.0000</r>
       <r>  13.4767  0.0000</r>
       <r>  15.1249  0.0000</r>
       <r>  15.7912  0.0000</r>
      </set>
      <set comment="kpoint 56">
       <r>  -1.7068  1.0000</r>
       <r>   1.0886  1.0000</r>
       <r>   2.4647  1.0000</r>
       <r>   3.8198  1.0000</r>
       <r>   5.1887  1.0000</r>
       <r>   6.5204  1.0000</r>
       <r>   7.8527  0.0000</r>
       <r>   9.3681  0.0000</r>
       <r>  10.4991  0.0000</r>
       <r>  10.6713  0.0000</r>
       <r>  11.9546  0.0000</r>
       <r>  11.9816  0.0000</r>
       <r>  13.1350  0.0000</r>
       <r>  13.1354  0.0000</r>
       <r>  15.6109  0.0000</r>
       <r>  16.1641  0.0000</r>
      </set>
      <set comment="kpoint 57">
       <r>  -1.1785  1.0000</r>
       <r>   0.2211  1.0000</r>
       <r>   2.9790  1.0000</r>
       <r>   4.3085  1.0000</r>
       <r>   4.3644  1.0000</r>
       <r>   5.6821  1.0000</r>
       <r>   8.3525  0.0000</r>
       <r>   9.6776  0.0000</r>
       <r>   9.8631  0.0000</r>
       <r>  11.0782  0.0000</r>
       <r>  11.2529  0.0000</r>
       <r>  12.4296  0.0000</r>
       <r>  13.6002  0.0000</r>
       <r>  13.7669  0.0000</r>
       <r>  14.8516  0.0000</r>
       <r>  16.6337  0.0000</r>
      </set>
      <set comment="kpoint 58">
       <r>  -0.5353  1.0000</r>
       <r>  -0.5353  1.0000</r>
       <r>   3.6052  1.0000</r>
       <r>   3.6052  1.0000</r>
       <r>   4.9516  1.0000</r>
       <r>   4.9516  1.0000</r>
       <r>   8.9613  0.0000</r>
       <r>   8.9613  0.0000</r>
       <r>  10.4608  0.0000</r>
       <r>  10.4608  0.0000</r>
       <r>  11.7590  0.0000</r>
       <r>  11.7590  0.0000</r>
       <r>  14.1800  0.0000</r>
       <r>  14.1800  0.0000</r>
       <r>  15.6050  0.0000</r>
       <r>  15.6050  0.0000</r>
      </set>
      <set comment="kpoint 59">
       <r>  -1.2958  1.0000</r>
       <r>   1.4924  1.0000</r>
       <r>   1.4924  1.0000</r>
       <r>   4.1983  1.0000</r>
       <r>   4.2513  1.0000</r>
       <r>   6.9119  1.0000</r>
       <r>   6.9119  1.0000</r>
       <r>   9.5712  0.0000</r>
       <r>   9.7551  0.0000</r>
       <r>  12.2748  0.0000</r>
       <r>  12.2748  0.0000</r>
       <r>  12.4085  0.0000</r>
       <r>  12.4085  0.0000</r>
       <r>  14.1982  0.0000</r>
       <r>  14.8221  0.0000</r>
       <r>  15.9400  0.0000</r>
      </set>
      <set comment="kpoint 60">
       <r>  -0.7689  1.0000</r>
       <r>   0.6271  1.0000</r>
       <r>   2.0100  1.0000</r>
       <r>   3.3818  1.0000</r>
       <r>   4.7261  1.0000</r>
       <r>   6.0750  1.0000</r>
       <r>   7.4140  0.0000</r>
       <r>   8.7455  0.0000</r>
       <r>  10.2491  0.0000</r>
       <r>  11.5414  0.0000</r>
       <r>  12.8030  0.0000</r>
       <r>  12.8364  0.0000</r>
       <r>  13.9804  0.0000</r>
       <r>  14.0632  0.0000</r>
       <r>  14.1225  0.0000</r>
       <r>  17.1163  0.0000</r>
      </set>
      <set comment="kpoint 61">
       <r>  -0.1274  1.0000</r>
       <r>  -0.1274  1.0000</r>
       <r>   2.6404  1.0000</r>
       <r>   2.6404  1.0000</r>
       <r>   5.3457  1.0000</r>
       <r>   5.3457  1.0000</r>
       <r>   8.0257  0.0000</r>
       <r>   8.0257  0.0000</r>
       <r>  10.8469  0.0000</r>
       <r>  10.8469  0.0000</r>
       <r>  13.3858  0.0000</r>
       <r>  13.3858  0.0000</r>
       <r>  13.3933  0.0000</r>
       <r>  13.3933  0.0000</r>
       <r>  15.9330  0.0000</r>
       <r>  15.9330  0.0000</r>
      </set>
      <set comment="kpoint 62">
       <r>  -0.2438  1.0000</r>
       <r>   1.1476  1.0000</r>
       <r>   1.1476  1.0000</r>
       <r>   2.5270  1.0000</r>
       <r>   5.2333  1.0000</r>
       <r>   6.5791  1.0000</r>
       <r>   6.5791  1.0000</r>
       <r>   7.9161  0.0000</r>
       <r>  10.7413  0.0000</r>
       <r>  12.0290  0.0000</r>
       <r>  12.0290  0.0000</r>
       <r>  13.2997  0.0000</r>
       <r>  14.5649  0.0000</r>
       <r>  14.5649  0.0000</r>
       <r>  15.1244  0.0000</r>
       <r>  16.9464  0.0000</r>
      </set>
      <set comment="kpoint 63">
       <r>   0.3956  1.0000</r>
       <r>   0.3956  1.0000</r>
       <r>   1.7815  1.0000</r>
       <r>   1.7815  1.0000</r>
       <r>   5.8515  1.0000</r>
       <r>   5.8515  1.0000</r>
       <r>   7.1933  0.0000</r>
       <r>   7.1933  0.0000</r>
       <r>  11.3367  0.0000</r>
       <r>  11.3367  0.0000</r>
       <r>  12.6167  0.0000</r>
       <r>  12.6167  0.0000</r>
       <r>  15.0316  0.0000</r>
       <r>  15.0316  0.0000</r>
       <r>  16.2798  0.0000</r>
       <r>  16.2798  0.0000</r>
      </set>
      <set comment="kpoint 64">
       <r>   1.0324  1.0000</r>
       <r>   1.0324  1.0000</r>
       <r>   1.0324  1.0000</r>
       <r>   1.0324  1.0000</r>
       <r>   6.4678  1.0000</r>
       <r>   6.4678  1.0000</r>
       <r>   6.4678  1.0000</r>
       <r>   6.4678  1.0000</r>
       <r>  11.9286  0.0000</r>
       <r>  11.9286  0.0000</r>
       <r>  11.9286  0.0000</r>
       <r>  11.9286  0.0000</r>
       <r>  16.2506  0.0000</r>
       <r>  16.2506  0.0000</r>
       <r>  16.2506  0.0000</r>
       <r>  16.2506  0.0000</r>
      </set>
      <set comment="kpoint 65">
       <r>  -1.8244  1.0000</r>
       <r>   2.3502  1.0000</r>
       <r>   2.3502  1.0000</r>
       <r>   2.3502  1.0000</r>
       <r>   6.4186  1.0000</r>
       <r>   6.4186  1.0000</r>
       <r>   6.4186  1.0000</r>
       <r>  10.4001  0.0000</r>
       <r>  10.5661  0.0000</r>
       <r>  10.5661  0.0000</r>
       <r>  10.5661  0.0000</r>
       <r>  13.7340  0.0000</r>
       <r>  13.7340  0.0000</r>
       <r>  13.7340  0.0000</r>
       <r>  15.3980  0.0000</r>
       <r>  15.3980  0.0000</r>
      </set>
      <set comment="kpoint 66">
       <r>  -1.4131  1.0000</r>
       <r>   1.3771  1.0000</r>
       <r>   2.7507  1.0000</r>
       <r>   2.7507  1.0000</r>
       <r>   5.4702  1.0000</r>
       <r>   5.4702  1.0000</r>
       <r>   6.8105  1.0000</r>
       <r>   9.4719  0.0000</r>
       <r>  10.9477  0.0000</r>
       <r>  10.9477  0.0000</r>
       <r>  12.2523  0.0000</r>
       <r>  13.3983  0.0000</r>
       <r>  13.3983  0.0000</r>
       <r>  14.0942  0.0000</r>
       <r>  15.7735  0.0000</r>
       <r>  16.4904  0.0000</r>
      </set>
      <set comment="kpoint 67">
       <r>  -0.8858  1.0000</r>
       <r>   0.5112  1.0000</r>
       <r>   3.2641  1.0000</r>
       <r>   3.2641  1.0000</r>
       <r>   4.6262  1.0000</r>
       <r>   4.6262  1.0000</r>
       <r>   7.3131  0.0000</r>
       <r>   8.6457  0.0000</r>
       <r>  11.4325  0.0000</r>
       <r>  11.4325  0.0000</r>
       <r>  12.6979  0.0000</r>
       <r>  12.6979  0.0000</r>
       <r>  14.0226  0.0000</r>
       <r>  14.5572  0.0000</r>
       <r>  15.7903  0.0000</r>
       <r>  16.2420  0.0000</r>
      </set>
      <set comment="kpoint 68">
       <r>  -0.2438  1.0000</r>
       <r>  -0.2438  1.0000</r>
       <r>   3.8709  1.0000</r>
       <r>   3.8709  1.0000</r>
       <r>   3.9089  1.0000</r>
       <r>   3.9089  1.0000</r>
       <r>   7.9253  0.0000</r>
       <r>   7.9253  0.0000</r>
       <r>  11.9502  0.0000</r>
       <r>  11.9502  0.0000</r>
       <r>  12.0952  0.0000</r>
       <r>  12.0952  0.0000</r>
       <r>  15.1229  0.0000</r>
       <r>  15.1229  0.0000</r>
       <r>  15.8506  0.0000</r>
       <r>  15.8506  0.0000</r>
      </set>
      <set comment="kpoint 69">
       <r>  -1.0029  1.0000</r>
       <r>   1.7802  1.0000</r>
       <r>   1.7802  1.0000</r>
       <r>   3.1502  1.0000</r>
       <r>   4.5162  1.0000</r>
       <r>   5.8640  1.0000</r>
       <r>   5.8640  1.0000</r>
       <r>   8.5389  0.0000</r>
       <r>  11.3288  0.0000</r>
       <r>  12.6250  0.0000</r>
       <r>  12.6250  0.0000</r>
       <r>  13.7658  0.0000</r>
       <r>  13.7658  0.0000</r>
       <r>  14.4559  0.0000</r>
       <r>  16.1718  0.0000</r>
       <r>  16.2013  0.0000</r>
      </set>
      <set comment="kpoint 70">
       <r>  -0.4770  1.0000</r>
       <r>   0.9165  1.0000</r>
       <r>   2.2969  1.0000</r>
       <r>   3.6507  1.0000</r>
       <r>   3.6791  1.0000</r>
       <r>   5.0215  1.0000</r>
       <r>   6.3690  1.0000</r>
       <r>   7.7084  0.0000</r>
       <r>  11.8136  0.0000</r>
       <r>  13.0303  0.0000</r>
       <r>  13.1351  0.0000</r>
       <r>  14.2322  0.0000</r>
       <r>  14.2418  0.0000</r>
       <r>  14.3837  0.0000</r>
       <r>  15.4613  0.0000</r>
       <r>  17.2901  0.0000</r>
      </set>
      <set comment="kpoint 71">
       <r>   0.1634  1.0000</r>
       <r>   0.1634  1.0000</r>
       <r>   2.9263  1.0000</r>
       <r>   2.9263  1.0000</r>
       <r>   4.2872  1.0000</r>
       <r>   4.2872  1.0000</r>
       <r>   6.9843  1.0000</r>
       <r>   6.9843  1.0000</r>
       <r>  12.3963  0.0000</r>
       <r>  12.3963  0.0000</r>
       <r>  13.6579  0.0000</r>
       <r>  13.6579  0.0000</r>
       <r>  14.8031  0.0000</r>
       <r>  14.8031  0.0000</r>
       <r>  16.1797  0.0000</r>
       <r>  16.1797  0.0000</r>
      </set>
      <set comment="kpoint 72">
       <r>   0.0472  1.0000</r>
       <r>   1.4361  1.0000</r>
       <r>   1.4361  1.0000</r>
       <r>   2.8131  1.0000</r>
       <r>   4.1740  1.0000</r>
       <r>   5.5289  1.0000</r>
       <r>   5.5289  1.0000</r>
       <r>   6.8742  1.0000</r>
       <r>  12.2966  0.0000</r>
       <r>  13.5413  0.0000</r>
       <r>  13.5413  0.0000</r>
       <r>  14.7715  0.0000</r>
       <r>  14.8238  0.0000</r>
       <r>  14.8238  0.0000</r>
       <r>  15.3823  0.0000</r>
       <r>  17.1857  0.0000</r>
      </set>
      <set comment="kpoint 73">
       <r>   0.6854  1.0000</r>
       <r>   0.6854  1.0000</r>
       <r>   2.0689  1.0000</r>
       <r>   2.0689  1.0000</r>
       <r>   4.7964  1.0000</r>
       <r>   4.7964  1.0000</r>
       <r>   6.1469  1.0000</r>
       <r>   6.1469  1.0000</r>
       <r>  12.8773  0.0000</r>
       <r>  12.8773  0.0000</r>
       <r>  14.1146  0.0000</r>
       <r>  14.1146  0.0000</r>
       <r>  15.2897  0.0000</r>
       <r>  15.2897  0.0000</r>
       <r>  16.5298  0.0000</r>
       <r>  16.5298  0.0000</r>
      </set>
      <set comment="kpoint 74">
       <r>   1.3211  1.0000</r>
       <r>   1.3211  1.0000</r>
       <r>   1.3211  1.0000</r>
       <r>   1.3211  1.0000</r>
       <r>   5.4168  1.0000</r>
       <r>   5.4168  1.0000</r>
       <r>   5.4168  1.0000</r>
       <r>   5.4168  1.0000</r>
       <r>  13.4545  0.0000</r>
       <r>  13.4545  0.0000</r>
       <r>  13.4545  0.0000</r>
       <r>  13.4545  0.0000</r>
       <r>  16.5069  0.0000</r>
       <r>  16.5069  0.0000</r>
       <r>  16.5069  0.0000</r>
       <r>  16.5069  0.0000</r>
      </set>
      <set comment="kpoint 75">
       <r>  -0.5937  1.0000</r>
       <r>   2.1823  1.0000</r>
       <r>   2.1823  1.0000</r>
       <r>   2.1823  1.0000</r>
       <r>   4.9120  1.0000</r>
       <r>   4.9120  1.0000</r>
       <r>   4.9120  1.0000</r>
       <r>   7.6010  0.0000</r>
       <r>  12.9981  0.0000</r>
       <r>  12.9981  0.0000</r>
       <r>  12.9981  0.0000</r>
       <r>  14.8167  0.0000</r>
       <r>  14.8167  0.0000</r>
       <r>  14.8167  0.0000</r>
       <r>  16.5551  0.0000</r>
       <r>  16.5551  0.0000</r>
      </set>
      <set comment="kpoint 76">
       <r>  -0.0691  1.0000</r>
       <r>   1.3208  1.0000</r>
       <r>   2.6979  1.0000</r>
       <r>   2.6979  1.0000</r>
       <r>   4.0647  1.0000</r>
       <r>   4.0647  1.0000</r>
       <r>   5.4197  1.0000</r>
       <r>   6.7661  1.0000</r>
       <r>  13.4682  0.0000</r>
       <r>  13.4682  0.0000</r>
       <r>  14.6058  0.0000</r>
       <r>  14.6058  0.0000</r>
       <r>  14.7396  0.0000</r>
       <r>  15.2802  0.0000</r>
       <r>  16.5115  0.0000</r>
       <r>  16.9822  0.0000</r>
      </set>
      <set comment="kpoint 77">
       <r>   0.5696  1.0000</r>
       <r>   0.5696  1.0000</r>
       <r>   3.3200  1.0000</r>
       <r>   3.3200  1.0000</r>
       <r>   3.3317  1.0000</r>
       <r>   3.3317  1.0000</r>
       <r>   6.0383  1.0000</r>
       <r>   6.0383  1.0000</r>
       <r>  13.9952  0.0000</r>
       <r>  13.9952  0.0000</r>
       <r>  14.0511  0.0000</r>
       <r>  14.0511  0.0000</r>
       <r>  15.8458  0.0000</r>
       <r>  15.8458  0.0000</r>
       <r>  16.5031  0.0000</r>
       <r>  16.5031  0.0000</r>
      </set>
      <set comment="kpoint 78">
       <r>   0.4537  1.0000</r>
       <r>   1.8392  1.0000</r>
       <r>   1.8392  1.0000</r>
       <r>   3.2096  1.0000</r>
       <r>   3.2154  1.0000</r>
       <r>   4.5748  1.0000</r>
       <r>   4.5748  1.0000</r>
       <r>   5.9275  1.0000</r>
       <r>  13.9369  0.0000</r>
       <r>  15.0692  0.0000</r>
       <r>  15.0692  0.0000</r>
       <r>  15.1804  0.0000</r>
       <r>  15.1804  0.0000</r>
       <r>  15.7429  0.0000</r>
       <r>  16.2298  0.0000</r>
       <r>  17.4954  0.0000</r>
      </set>
      <set comment="kpoint 79">
       <r>   1.0903  1.0000</r>
       <r>   1.0903  1.0000</r>
       <r>   2.4704  1.0000</r>
       <r>   2.4704  1.0000</r>
       <r>   3.8382  1.0000</r>
       <r>   3.8382  1.0000</r>
       <r>   5.1963  1.0000</r>
       <r>   5.1963  1.0000</r>
       <r>  14.4888  0.0000</r>
       <r>  14.4888  0.0000</r>
       <r>  15.6230  0.0000</r>
       <r>  15.6230  0.0000</r>
       <r>  15.6471  0.0000</r>
       <r>  15.6471  0.0000</r>
       <r>  16.8654  0.0000</r>
       <r>  16.8654  0.0000</r>
      </set>
      <set comment="kpoint 80">
       <r>   1.7245  1.0000</r>
       <r>   1.7245  1.0000</r>
       <r>   1.7245  1.0000</r>
       <r>   1.7245  1.0000</r>
       <r>   4.4621  1.0000</r>
       <r>   4.4621  1.0000</r>
       <r>   4.4621  1.0000</r>
       <r>   4.4621  1.0000</r>
       <r>  15.0393  0.0000</r>
       <r>  15.0393  0.0000</r>
       <r>  15.0393  0.0000</r>
       <r>  15.0393  0.0000</r>
       <r>  16.8626  0.0000</r>
       <r>  16.8626  0.0000</r>
       <r>  16.8626  0.0000</r>
       <r>  16.8626  0.0000</r>
      </set>
      <set comment="kpoint 81">
       <r>   0.9748  1.0000</r>
       <r>   2.3559  1.0000</r>
       <r>   2.3559  1.0000</r>
       <r>   2.3559  1.0000</r>
       <r>   3.7257  1.0000</r>
       <r>   3.7257  1.0000</r>
       <r>   3.7257  1.0000</r>
       <r>   5.0848  1.0000</r>
       <r>  15.6213  0.0000</r>
       <r>  15.6213  0.0000</r>
       <r>  15.6213  0.0000</r>
       <r>  16.2053  0.0000</r>
       <r>  16.2053  0.0000</r>
       <r>  16.2053  0.0000</r>
       <r>  17.4085  0.0000</r>
       <r>  17.4085  0.0000</r>
      </set>
      <set comment="kpoint 82">
       <r>   1.6094  1.0000</r>
       <r>   1.6094  1.0000</r>
       <r>   2.9819  1.0000</r>
       <r>   2.9819  1.0000</r>
       <r>   2.9886  1.0000</r>
       <r>   2.9886  1.0000</r>
       <r>   4.3501  1.0000</r>
       <r>   4.3501  1.0000</r>
       <r>  16.0716  0.0000</r>
       <r>  16.0716  0.0000</r>
       <r>  16.1181  0.0000</r>
       <r>  16.1181  0.0000</r>
       <r>  16.7659  0.0000</r>
       <r>  16.7659  0.0000</r>
       <r>  17.2261  0.0000</r>
       <r>  17.2261  0.0000</r>
      </set>
      <set comment="kpoint 83">
       <r>   2.2416  1.0000</r>
       <r>   2.2416  1.0000</r>
       <r>   2.2416  1.0000</r>
       <r>   2.2416  1.0000</r>
       <r>   3.6124  1.0000</r>
       <r>   3.6124  1.0000</r>
       <r>   3.6124  1.0000</r>
       <r>   3.6124  1.0000</r>
       <r>  16.5914  0.0000</r>
       <r>  16.5914  0.0000</r>
       <r>  16.5914  0.0000</r>
       <r>  16.5914  0.0000</r>
       <r>  17.3047  0.0000</r>
       <r>  17.3047  0.0000</r>
       <r>  17.3047  0.0000</r>
       <r>  17.3047  0.0000</r>
      </set>
      <set comment="kpoint 84">
       <r>   2.8648  1.0000</r>
       <r>   2.8648  1.0000</r>
       <r>   2.8648  1.0000</r>
       <r>   2.8648  1.0000</r>
       <r>   2.8780  1.0000</r>
       <r>   2.8780  1.0000</r>
       <r>   2.8780  1.0000</r>
       <r>   2.8780  1.0000</r>
       <r>  17.6631  0.0000</r>
       <r>  17.6631  0.0000</r>
       <r>  17.6631  0.0000</r>
       <r>  17.6631  0.0000</r>
       <r>  17.6631  0.0000</r>
       <r>  17.6631  0.0000</r>
       <r>  17.6631  0.0000</r>
       <r>  17.6631  0.0000</r>
      </set>
     </set>
    </set>
   </array>
  </eigenvalues>
 </calculation>
 <structure name="finalpos" >
  <crystal>
   <varray name="basis" >
    <v>       4.15842556      0.00000000      0.00000000</v>
    <v>       0.00000000      4.15842556      0.00000000</v>
    <v>       0.00000000      0.00000000      4.15842556</v>
   </varray>
   <i name="volume">     71.90958709</i>
   <varray name="rec_basis" >
    <v>       0.24047563      0.00000000      0.00000000</v>
    <v>       0.00000000      0.24047563      0.00000000</v>
    <v>       0.00000000      0.00000000      0.24047563</v>
   </varray>
  </crystal>
  <varray name="positions" >
   <v>       0.50000000      0.50000000      0.00000000</v>
   <v>       0.50000000      0.00000000      0.50000000</v>
   <v>       0.00000000      0.50000000      0.50000000</v>
   <v>       0.00000000      0.00000000      0.00000000</v>
  </varray>
 </structure>
</modeling>
