  32  32   0   0
  0.2102843E+02  0.8762989E-09  0.8762989E-09  0.8762989E-09  0.5000000E-15
  1.000000000000000E-004
  CAR 
 unknown system                          
     11.95676039     -5.28206686  301      3.33595164      1.00000000
     -5.282  0.0000E+00  0.0000E+00
     -5.225  0.0000E+00  0.0000E+00
     -5.167  0.0000E+00  0.0000E+00
     -5.110  0.0000E+00  0.0000E+00
     -5.052  0.0000E+00  0.0000E+00
     -4.995  0.0000E+00  0.0000E+00
     -4.937  0.0000E+00  0.0000E+00
     -4.880  0.0000E+00  0.0000E+00
     -4.822  0.0000E+00  0.0000E+00
     -4.765  0.0000E+00  0.0000E+00
     -4.707  0.0000E+00  0.0000E+00
     -4.650  0.0000E+00  0.0000E+00
     -4.593  0.0000E+00  0.0000E+00
     -4.535  0.9891E-09  0.5684E-10
     -4.478  0.1289E+00  0.7405E-02
     -4.420  0.6703E+00  0.4592E-01
     -4.363  0.1206E+01  0.1152E+00
     -4.305  0.1364E+01  0.1936E+00
     -4.248  0.1606E+01  0.2859E+00
     -4.190  0.1640E+01  0.3801E+00
     -4.133  0.2059E+01  0.4985E+00
     -4.075  0.2416E+01  0.6373E+00
     -4.018  0.2158E+01  0.7614E+00
     -3.960  0.2608E+01  0.9112E+00
     -3.903  0.2434E+01  0.1051E+01
     -3.845  0.3135E+01  0.1231E+01
     -3.788  0.3324E+01  0.1422E+01
     -3.731  0.2774E+01  0.1582E+01
     -3.673  0.3902E+01  0.1806E+01
     -3.616  0.2812E+01  0.1967E+01
     -3.558  0.3889E+01  0.2191E+01
     -3.501  0.3961E+01  0.2419E+01
     -3.443  0.4095E+01  0.2654E+01
     -3.386  0.3827E+01  0.2874E+01
     -3.328  0.5148E+01  0.3170E+01
     -3.271  0.4428E+01  0.3424E+01
     -3.213  0.3920E+01  0.3649E+01
     -3.156  0.5632E+01  0.3973E+01
     -3.098  0.5088E+01  0.4265E+01
     -3.041  0.5237E+01  0.4566E+01
     -2.984  0.6066E+01  0.4915E+01
     -2.926  0.6082E+01  0.5264E+01
     -2.869  0.5915E+01  0.5604E+01
     -2.811  0.6392E+01  0.5972E+01
     -2.754  0.7780E+01  0.6419E+01
     -2.696  0.7100E+01  0.6827E+01
     -2.639  0.7659E+01  0.7267E+01
     -2.581  0.8146E+01  0.7735E+01
     -2.524  0.8836E+01  0.8243E+01
     -2.466  0.1086E+02  0.8867E+01
     -2.409  0.9946E+01  0.9438E+01
     -2.351  0.1521E+02  0.1031E+02
     -2.294  0.1995E+02  0.1146E+02
     -2.237  0.2449E+02  0.1287E+02
     -2.179  0.2674E+02  0.1440E+02
     -2.122  0.2731E+02  0.1597E+02
     -2.064  0.2610E+02  0.1747E+02
     -2.007  0.3408E+02  0.1943E+02
     -1.949  0.4027E+02  0.2174E+02
     -1.892  0.4843E+02  0.2453E+02
     -1.834  0.5285E+02  0.2756E+02
     -1.777  0.6317E+02  0.3119E+02
     -1.719  0.7479E+02  0.3549E+02
     -1.662  0.8182E+02  0.4019E+02
     -1.604  0.8416E+02  0.4503E+02
     -1.547  0.8010E+02  0.4963E+02
     -1.490  0.7547E+02  0.5397E+02
     -1.432  0.7117E+02  0.5806E+02
     -1.375  0.7116E+02  0.6215E+02
     -1.317  0.7052E+02  0.6620E+02
     -1.260  0.6756E+02  0.7008E+02
     -1.202  0.6199E+02  0.7364E+02
     -1.145  0.6083E+02  0.7714E+02
     -1.087  0.5146E+02  0.8010E+02
     -1.030  0.4916E+02  0.8292E+02
     -0.972  0.5925E+02  0.8633E+02
     -0.915  0.7722E+02  0.9076E+02
     -0.857  0.7724E+02  0.9520E+02
     -0.800  0.9027E+02  0.1004E+03
     -0.743  0.9562E+02  0.1059E+03
     -0.685  0.9693E+02  0.1115E+03
     -0.628  0.8987E+02  0.1166E+03
     -0.570  0.8764E+02  0.1217E+03
     -0.513  0.9498E+02  0.1271E+03
     -0.455  0.8782E+02  0.1322E+03
     -0.398  0.1009E+03  0.1380E+03
     -0.340  0.1059E+03  0.1440E+03
     -0.283  0.1167E+03  0.1507E+03
     -0.225  0.1360E+03  0.1586E+03
     -0.168  0.1745E+03  0.1686E+03
     -0.110  0.1339E+03  0.1763E+03
     -0.053  0.1084E+03  0.1825E+03
      0.005  0.8790E+02  0.1876E+03
      0.062  0.7702E+02  0.1920E+03
      0.119  0.7366E+02  0.1962E+03
      0.177  0.8208E+02  0.2009E+03
      0.234  0.7224E+02  0.2051E+03
      0.292  0.7728E+02  0.2095E+03
      0.349  0.8182E+02  0.2142E+03
      0.407  0.9176E+02  0.2195E+03
      0.464  0.9785E+02  0.2251E+03
      0.522  0.9291E+02  0.2305E+03
      0.579  0.1034E+03  0.2364E+03
      0.637  0.1055E+03  0.2425E+03
      0.694  0.9461E+02  0.2479E+03
      0.752  0.8910E+02  0.2530E+03
      0.809  0.8204E+02  0.2577E+03
      0.866  0.8125E+02  0.2624E+03
      0.924  0.7613E+02  0.2668E+03
      0.981  0.7941E+02  0.2713E+03
      1.039  0.7627E+02  0.2757E+03
      1.096  0.8129E+02  0.2804E+03
      1.154  0.7940E+02  0.2850E+03
      1.211  0.8586E+02  0.2899E+03
      1.269  0.9483E+02  0.2953E+03
      1.326  0.1008E+03  0.3011E+03
      1.384  0.1366E+03  0.3090E+03
      1.441  0.1533E+03  0.3178E+03
      1.499  0.1182E+03  0.3246E+03
      1.556  0.8153E+02  0.3293E+03
      1.613  0.5841E+02  0.3326E+03
      1.671  0.4066E+02  0.3350E+03
      1.728  0.1798E+02  0.3360E+03
      1.786  0.6160E+01  0.3364E+03
      1.843  0.9621E+01  0.3369E+03
      1.901  0.1391E+02  0.3377E+03
      1.958  0.7323E+01  0.3381E+03
      2.016  0.1226E+02  0.3388E+03
      2.073  0.1008E+02  0.3394E+03
      2.131  0.8963E+01  0.3399E+03
      2.188  0.1183E+02  0.3406E+03
      2.246  0.8070E+01  0.3411E+03
      2.303  0.9384E+01  0.3416E+03
      2.360  0.1283E+02  0.3423E+03
      2.418  0.8621E+01  0.3428E+03
      2.475  0.6887E+01  0.3432E+03
      2.533  0.1337E+02  0.3440E+03
      2.590  0.1084E+02  0.3446E+03
      2.648  0.7734E+01  0.3451E+03
      2.705  0.9957E+01  0.3456E+03
      2.763  0.1160E+02  0.3463E+03
      2.820  0.8843E+01  0.3468E+03
      2.878  0.8257E+01  0.3473E+03
      2.935  0.1145E+02  0.3479E+03
      2.993  0.1124E+02  0.3486E+03
      3.050  0.8035E+01  0.3491E+03
      3.107  0.1015E+02  0.3496E+03
      3.165  0.1116E+02  0.3503E+03
      3.222  0.9106E+01  0.3508E+03
      3.280  0.9395E+01  0.3513E+03
      3.337  0.1165E+02  0.3520E+03
      3.395  0.1092E+02  0.3526E+03
      3.452  0.9764E+01  0.3532E+03
      3.510  0.9341E+01  0.3537E+03
      3.567  0.1117E+02  0.3544E+03
      3.625  0.1015E+02  0.3550E+03
      3.682  0.1023E+02  0.3556E+03
      3.740  0.9254E+01  0.3561E+03
      3.797  0.1160E+02  0.3568E+03
      3.855  0.9832E+01  0.3573E+03
      3.912  0.1051E+02  0.3579E+03
      3.969  0.9602E+01  0.3585E+03
      4.027  0.1014E+02  0.3591E+03
      4.084  0.1070E+02  0.3597E+03
      4.142  0.9015E+01  0.3602E+03
      4.199  0.1180E+02  0.3609E+03
      4.257  0.9010E+01  0.3614E+03
      4.314  0.9599E+01  0.3619E+03
      4.372  0.1135E+02  0.3626E+03
      4.429  0.9037E+01  0.3631E+03
      4.487  0.9930E+01  0.3637E+03
      4.544  0.1073E+02  0.3643E+03
      4.602  0.1089E+02  0.3649E+03
      4.659  0.9324E+01  0.3655E+03
      4.716  0.8250E+01  0.3659E+03
      4.774  0.1153E+02  0.3666E+03
      4.831  0.1082E+02  0.3672E+03
      4.889  0.8261E+01  0.3677E+03
      4.946  0.1008E+02  0.3683E+03
      5.004  0.1093E+02  0.3689E+03
      5.061  0.1085E+02  0.3695E+03
      5.119  0.8868E+01  0.3700E+03
      5.176  0.1107E+02  0.3707E+03
      5.234  0.9541E+01  0.3712E+03
      5.291  0.9226E+01  0.3717E+03
      5.349  0.9618E+01  0.3723E+03
      5.406  0.1093E+02  0.3729E+03
      5.463  0.1181E+02  0.3736E+03
      5.521  0.1737E+02  0.3746E+03
      5.578  0.1501E+02  0.3755E+03
      5.636  0.1393E+02  0.3763E+03
      5.693  0.1582E+02  0.3772E+03
      5.751  0.1381E+02  0.3780E+03
      5.808  0.1264E+02  0.3787E+03
      5.866  0.1389E+02  0.3795E+03
      5.923  0.1229E+02  0.3802E+03
      5.981  0.1280E+02  0.3809E+03
      6.038  0.1280E+02  0.3817E+03
      6.096  0.9849E+01  0.3822E+03
      6.153  0.1327E+02  0.3830E+03
      6.210  0.9299E+01  0.3835E+03
      6.268  0.1123E+02  0.3842E+03
      6.325  0.1084E+02  0.3848E+03
      6.383  0.1058E+02  0.3854E+03
      6.440  0.1153E+02  0.3861E+03
      6.498  0.8498E+01  0.3866E+03
      6.555  0.1007E+02  0.3871E+03
      6.613  0.9232E+01  0.3877E+03
      6.670  0.9652E+01  0.3882E+03
      6.728  0.1061E+02  0.3888E+03
      6.785  0.7734E+01  0.3893E+03
      6.843  0.9032E+01  0.3898E+03
      6.900  0.7638E+01  0.3902E+03
      6.958  0.7582E+01  0.3907E+03
      7.015  0.1010E+02  0.3912E+03
      7.072  0.7744E+01  0.3917E+03
      7.130  0.7589E+01  0.3921E+03
      7.187  0.1008E+02  0.3927E+03
      7.245  0.6209E+01  0.3931E+03
      7.302  0.8146E+01  0.3935E+03
      7.360  0.1036E+02  0.3941E+03
      7.417  0.1295E+02  0.3949E+03
      7.475  0.9710E+01  0.3954E+03
      7.532  0.1375E+02  0.3962E+03
      7.590  0.1504E+02  0.3971E+03
      7.647  0.1402E+02  0.3979E+03
      7.705  0.1473E+02  0.3987E+03
      7.762  0.1281E+02  0.3995E+03
      7.819  0.1105E+02  0.4001E+03
      7.877  0.1275E+02  0.4008E+03
      7.934  0.1336E+02  0.4016E+03
      7.992  0.1531E+02  0.4025E+03
      8.049  0.1359E+02  0.4033E+03
      8.107  0.1277E+02  0.4040E+03
      8.164  0.1331E+02  0.4048E+03
      8.222  0.1258E+02  0.4055E+03
      8.279  0.9780E+01  0.4061E+03
      8.337  0.9844E+01  0.4066E+03
      8.394  0.1396E+02  0.4074E+03
      8.452  0.1617E+02  0.4083E+03
      8.509  0.1258E+02  0.4091E+03
      8.566  0.1038E+02  0.4097E+03
      8.624  0.1331E+02  0.4104E+03
      8.681  0.8899E+01  0.4109E+03
      8.739  0.1243E+02  0.4117E+03
      8.796  0.1011E+02  0.4122E+03
      8.854  0.1197E+02  0.4129E+03
      8.911  0.1009E+02  0.4135E+03
      8.969  0.1038E+02  0.4141E+03
      9.026  0.1153E+02  0.4148E+03
      9.084  0.9655E+01  0.4153E+03
      9.141  0.1183E+02  0.4160E+03
      9.199  0.8982E+01  0.4165E+03
      9.256  0.8072E+01  0.4170E+03
      9.313  0.9551E+01  0.4175E+03
      9.371  0.9688E+01  0.4181E+03
      9.428  0.1228E+02  0.4188E+03
      9.486  0.1116E+02  0.4194E+03
      9.543  0.1094E+02  0.4201E+03
      9.601  0.1089E+02  0.4207E+03
      9.658  0.1124E+02  0.4213E+03
      9.716  0.1423E+02  0.4222E+03
      9.773  0.1261E+02  0.4229E+03
      9.831  0.1229E+02  0.4236E+03
      9.888  0.1175E+02  0.4243E+03
      9.946  0.9484E+01  0.4248E+03
     10.003  0.1170E+02  0.4255E+03
     10.060  0.8192E+01  0.4259E+03
     10.118  0.1402E+02  0.4268E+03
     10.175  0.1285E+02  0.4275E+03
     10.233  0.1295E+02  0.4282E+03
     10.290  0.9576E+01  0.4288E+03
     10.348  0.1098E+02  0.4294E+03
     10.405  0.5114E+01  0.4297E+03
     10.463  0.4909E+01  0.4300E+03
     10.520  0.7829E+01  0.4304E+03
     10.578  0.5610E+01  0.4308E+03
     10.635  0.5284E+01  0.4311E+03
     10.693  0.4715E+01  0.4313E+03
     10.750  0.2961E+01  0.4315E+03
     10.808  0.3403E+01  0.4317E+03
     10.865  0.8396E+00  0.4318E+03
     10.922  0.1519E+01  0.4318E+03
     10.980  0.3671E+00  0.4319E+03
     11.037  0.9570E+00  0.4319E+03
     11.095  0.7821E+00  0.4320E+03
     11.152  0.5448E+00  0.4320E+03
     11.210  0.1359E+00  0.4320E+03
     11.267  0.0000E+00  0.4320E+03
     11.325  0.0000E+00  0.4320E+03
     11.382  0.0000E+00  0.4320E+03
     11.440  0.0000E+00  0.4320E+03
     11.497  0.0000E+00  0.4320E+03
     11.555  0.0000E+00  0.4320E+03
     11.612  0.0000E+00  0.4320E+03
     11.669  0.0000E+00  0.4320E+03
     11.727  0.0000E+00  0.4320E+03
     11.784  0.0000E+00  0.4320E+03
     11.842  0.0000E+00  0.4320E+03
     11.899  0.0000E+00  0.4320E+03
     11.957  0.0000E+00  0.4320E+03
