   32   32    1    1
  0.2102843E+02  0.8762989E-09  0.8762989E-09  0.8762989E-09  0.5000000E-15
  1.000000000000000E-004
  CAR 
 unknown system                          
  352  405  216
 
  0.0000000E+00  0.0000000E+00  0.0000000E+00  0.2441406E-03
   1       -4.4985
   2       -2.4498
   3       -2.4469
   4       -2.4469
   5       -2.4469
   6       -2.4469
   7       -2.4440
   8       -2.3173
   9       -2.3173
  10       -2.3173
  11       -2.3173
  12       -2.0680
  13       -2.0680
  14       -2.0680
  15       -1.8607
  16       -1.8607
  17       -1.8607
  18       -1.3835
  19       -1.3822
  20       -1.3822
  21       -1.3808
  22       -1.3806
  23       -1.3805
  24       -1.3805
  25       -1.3805
  26       -1.3804
  27       -1.3789
  28       -1.3789
  29       -1.3777
  30       -1.2460
  31       -1.2443
  32       -1.2443
  33       -1.2443
  34       -1.2443
  35       -1.2426
  36       -1.1915
  37       -1.1899
  38       -1.1899
  39       -1.1899
  40       -1.1899
  41       -1.1882
  42       -0.7521
  43       -0.7500
  44       -0.7500
  45       -0.7491
  46       -0.7490
  47       -0.7490
  48       -0.7490
  49       -0.7490
  50       -0.7490
  51       -0.7481
  52       -0.7481
  53       -0.7462
  54       -0.6962
  55       -0.6962
  56       -0.6943
  57       -0.6943
  58       -0.6943
  59       -0.6943
  60       -0.6943
  61       -0.6942
  62       -0.6942
  63       -0.6941
  64       -0.6923
  65       -0.6923
  66       -0.4718
  67       -0.4689
  68       -0.4688
  69       -0.4688
  70       -0.4686
  71       -0.4686
  72       -0.4686
  73       -0.4686
  74       -0.4684
  75       -0.4684
  76       -0.4683
  77       -0.4656
  78       -0.4388
  79       -0.4388
  80       -0.4388
  81       -0.4388
  82       -0.4387
  83       -0.4387
  84       -0.4387
  85       -0.4386
  86       -0.4230
  87       -0.4230
  88       -0.4230
  89        0.1288
  90        0.1305
  91        0.1305
  92        0.1305
  93        0.1305
  94        0.1321
  95        0.2374
  96        0.2380
  97        0.2389
  98        0.2389
  99        0.2394
 100        0.2394
 101        0.2394
 102        0.2394
 103        0.2399
 104        0.2399
 105        0.2408
 106        0.2413
 107        0.4491
 108        0.4491
 109        0.4511
 110        0.4511
 111        0.4513
 112        0.4513
 113        0.4513
 114        0.4513
 115        0.4514
 116        0.4514
 117        0.4534
 118        0.4534
 119        0.5636
 120        0.5650
 121        0.5650
 122        0.5650
 123        0.5650
 124        0.5663
 125        0.6187
 126        0.6188
 127        0.6315
 128        0.6315
 129        0.6334
 130        0.6337
 131        0.6338
 132        0.6338
 133        0.6338
 134        0.6339
 135        0.6340
 136        0.6342
 137        0.6362
 138        0.6362
 139        1.0013
 140        1.0023
 141        1.0023
 142        1.0023
 143        1.0023
 144        1.0033
 145        1.4113
 146        1.4113
 147        1.4113
 148        1.4460
 149        1.4460
 150        1.4460
 151        1.4460
 152        1.4460
 153        1.4461
 154        1.4461
 155        1.4461
 156        1.6642
 157        1.6645
 158        1.6645
 159        1.6645
 160        1.6645
 161        1.6645
 162        1.6656
 163        1.6656
 164        1.6656
 165        1.6656
 166        1.6656
 167        1.6659
 168        2.8708
 169        2.8717
 170        2.8717
 171        2.8723
 172        2.8727
 173        2.8727
 174        2.8727
 175        2.8727
 176        2.8731
 177        2.8737
 178        2.8737
 179        2.8746
 180        3.2756
 181        3.2756
 182        3.2756
 183        3.2756
 184        4.9135
 185        4.9135
 186        4.9135
 187        5.4432
 188        5.4432
 189        5.4432
 190        5.4432
 191        7.0736
 192        7.0737
 193        7.0737
 194        7.0737
 195        7.0737
 196        7.0738
 197        7.6459
 198        7.6460
 199        7.6460
 200        9.0307
 201        9.0307
 202        9.0335
 203        9.0335
 204        9.0339
 205        9.0339
 206        9.0339
 207        9.0339
 208        9.0342
 209        9.0342
 210        9.0370
 211        9.0370
 212       10.8122
 213       10.8130
 214       10.8134
 215       10.8135
 216       10.8140
 
  0.6250000E-01  0.0000000E+00  0.0000000E+00  0.4882812E-03
   1       -4.4890
   2       -2.6306
   3       -2.4401
   4       -2.4401
   5       -2.4401
   6       -2.4401
   7       -2.3124
   8       -2.3124
   9       -2.3124
  10       -2.3124
  11       -2.2828
  12       -2.0651
  13       -2.0622
  14       -2.0622
  15       -1.8576
  16       -1.8561
  17       -1.8561
  18       -1.4418
  19       -1.4418
  20       -1.4418
  21       -1.4418
  22       -1.4068
  23       -1.4068
  24       -1.4068
  25       -1.4068
  26       -1.3264
  27       -1.3264
  28       -1.3264
  29       -1.3263
  30       -1.2594
  31       -1.2564
  32       -1.2563
  33       -1.2404
  34       -1.2404
  35       -1.2404
  36       -1.2403
  37       -1.1873
  38       -1.1873
  39       -1.1873
  40       -1.1873
  41       -1.1195
  42       -0.8329
  43       -0.8329
  44       -0.7769
  45       -0.7767
  46       -0.7767
  47       -0.7767
  48       -0.7301
  49       -0.7294
  50       -0.7294
  51       -0.7294
  52       -0.7259
  53       -0.7259
  54       -0.7259
  55       -0.7253
  56       -0.6989
  57       -0.6989
  58       -0.6989
  59       -0.6989
  60       -0.6938
  61       -0.6938
  62       -0.6938
  63       -0.6936
  64       -0.5478
  65       -0.5478
  66       -0.4973
  67       -0.4972
  68       -0.4972
  69       -0.4972
  70       -0.4568
  71       -0.4558
  72       -0.4558
  73       -0.4558
  74       -0.4525
  75       -0.4525
  76       -0.4525
  77       -0.4515
  78       -0.4405
  79       -0.4404
  80       -0.4404
  81       -0.4403
  82       -0.4350
  83       -0.4350
  84       -0.4350
  85       -0.4350
  86       -0.4270
  87       -0.4193
  88       -0.4193
  89        0.1034
  90        0.1036
  91        0.1037
  92        0.1037
  93        0.1057
  94        0.1937
  95        0.2205
  96        0.2206
  97        0.2206
  98        0.2207
  99        0.2362
 100        0.2362
 101        0.2362
 102        0.2362
 103        0.2651
 104        0.2651
 105        0.2651
 106        0.2652
 107        0.3544
 108        0.3544
 109        0.4510
 110        0.4510
 111        0.4510
 112        0.4510
 113        0.4749
 114        0.4749
 115        0.4749
 116        0.4749
 117        0.5510
 118        0.5510
 119        0.5666
 120        0.5668
 121        0.5668
 122        0.5668
 123        0.5774
 124        0.5776
 125        0.5865
 126        0.5865
 127        0.5865
 128        0.5865
 129        0.6147
 130        0.6206
 131        0.6538
 132        0.6538
 133        0.6538
 134        0.6539
 135        0.6897
 136        0.6897
 137        0.6898
 138        0.6898
 139        0.9636
 140        1.0077
 141        1.0077
 142        1.0077
 143        1.0077
 144        1.0412
 145        1.4055
 146        1.4055
 147        1.4092
 148        1.4264
 149        1.4265
 150        1.4265
 151        1.4265
 152        1.4410
 153        1.4410
 154        1.4410
 155        1.4410
 156        1.6408
 157        1.6408
 158        1.6573
 159        1.6573
 160        1.6577
 161        1.6577
 162        1.6577
 163        1.6577
 164        1.6642
 165        1.6645
 166        1.6656
 167        1.6659
 168        2.6817
 169        2.6817
 170        2.6817
 171        2.6817
 172        2.8739
 173        2.8740
 174        2.8740
 175        2.8740
 176        3.0766
 177        3.0766
 178        3.0766
 179        3.0766
 180        3.2617
 181        3.2617
 182        3.2617
 183        3.2617
 184        4.8002
 185        4.9447
 186        4.9447
 187        5.4900
 188        5.4900
 189        5.4900
 190        5.4900
 191        7.0138
 192        7.0138
 193        7.0138
 194        7.0138
 195        7.0789
 196        7.0789
 197        7.6403
 198        7.6403
 199        7.7762
 200        8.6912
 201        8.6912
 202        9.0462
 203        9.0462
 204        9.0463
 205        9.0464
 206        9.0502
 207        9.0502
 208        9.0504
 209        9.0504
 210        9.3757
 211        9.3757
 212       10.5858
 213       10.5862
 214       10.5896
 215       10.5974
 216       10.6344
 
  0.1250000E+00  0.0000000E+00  0.0000000E+00  0.4882812E-03
   1       -4.4605
   2       -2.8252
   3       -2.4198
   4       -2.4197
   5       -2.4197
   6       -2.4197
   7       -2.2977
   8       -2.2976
   9       -2.2976
  10       -2.2976
  11       -2.1468
  12       -2.0567
  13       -2.0449
  14       -2.0449
  15       -1.8485
  16       -1.8422
  17       -1.8422
  18       -1.5113
  19       -1.5113
  20       -1.5113
  21       -1.5113
  22       -1.4740
  23       -1.4740
  24       -1.4740
  25       -1.4740
  26       -1.3274
  27       -1.2909
  28       -1.2908
  29       -1.2777
  30       -1.2777
  31       -1.2777
  32       -1.2776
  33       -1.2289
  34       -1.2289
  35       -1.2289
  36       -1.2289
  37       -1.1794
  38       -1.1794
  39       -1.1794
  40       -1.1794
  41       -1.0488
  42       -0.9634
  43       -0.9634
  44       -0.8085
  45       -0.8085
  46       -0.8085
  47       -0.8085
  48       -0.7124
  49       -0.7124
  50       -0.7124
  51       -0.7123
  52       -0.7078
  53       -0.7075
  54       -0.7074
  55       -0.7074
  56       -0.6925
  57       -0.6925
  58       -0.6925
  59       -0.6925
  60       -0.6868
  61       -0.6868
  62       -0.6868
  63       -0.6864
  64       -0.5404
  65       -0.5404
  66       -0.5404
  67       -0.5404
  68       -0.4550
  69       -0.4548
  70       -0.4548
  71       -0.4548
  72       -0.4455
  73       -0.4455
  74       -0.4455
  75       -0.4453
  76       -0.4389
  77       -0.4238
  78       -0.4238
  79       -0.4238
  80       -0.4237
  81       -0.4083
  82       -0.4083
  83       -0.3995
  84       -0.3995
  85       -0.3995
  86       -0.3994
  87       -0.3939
  88       -0.3939
  89        0.0411
  90        0.0411
  91        0.0411
  92        0.0411
  93        0.1093
  94        0.1732
  95        0.1733
  96        0.1733
  97        0.1733
  98        0.2549
  99        0.2550
 100        0.2550
 101        0.2550
 102        0.2613
 103        0.2613
 104        0.3039
 105        0.3081
 106        0.3082
 107        0.3082
 108        0.3085
 109        0.4503
 110        0.4503
 111        0.4503
 112        0.4503
 113        0.5255
 114        0.5255
 115        0.5256
 116        0.5256
 117        0.5475
 118        0.5475
 119        0.5475
 120        0.5475
 121        0.5719
 122        0.5719
 123        0.5719
 124        0.5719
 125        0.6023
 126        0.6133
 127        0.6133
 128        0.6260
 129        0.6533
 130        0.6533
 131        0.7049
 132        0.7049
 133        0.7049
 134        0.7050
 135        0.7538
 136        0.7538
 137        0.7538
 138        0.7538
 139        0.9256
 140        1.0262
 141        1.0262
 142        1.0262
 143        1.0262
 144        1.0799
 145        1.3688
 146        1.3688
 147        1.3688
 148        1.3688
 149        1.3882
 150        1.3882
 151        1.4031
 152        1.4258
 153        1.4258
 154        1.4258
 155        1.4258
 156        1.5723
 157        1.5723
 158        1.6343
 159        1.6343
 160        1.6343
 161        1.6343
 162        1.6358
 163        1.6358
 164        1.6642
 165        1.6645
 166        1.6655
 167        1.6659
 168        2.5015
 169        2.5015
 170        2.5015
 171        2.5015
 172        2.8777
 173        2.8778
 174        2.8778
 175        2.8778
 176        3.2245
 177        3.2245
 178        3.2245
 179        3.2245
 180        3.2954
 181        3.2954
 182        3.2954
 183        3.2954
 184        4.5095
 185        5.0355
 186        5.0355
 187        5.6245
 188        5.6245
 189        5.6245
 190        5.6245
 191        6.8466
 192        6.8466
 193        6.8466
 194        6.8466
 195        7.0944
 196        7.0944
 197        7.6235
 198        7.6235
 199        8.1179
 200        8.3493
 201        8.3493
 202        9.0795
 203        9.0795
 204        9.0795
 205        9.0795
 206        9.0990
 207        9.0990
 208        9.0990
 209        9.0990
 210        9.7151
 211        9.7151
 212       10.2472
 213       10.2472
 214       10.2475
 215       10.2483
 216       10.3775
 
  0.1875000E+00  0.0000000E+00  0.0000000E+00  0.4882812E-03
   1       -4.4132
   2       -3.0234
   3       -2.3862
   4       -2.3862
   5       -2.3862
   6       -2.3862
   7       -2.2731
   8       -2.2731
   9       -2.2731
  10       -2.2731
  11       -2.0441
  12       -2.0429
  13       -2.0163
  14       -2.0163
  15       -1.8334
  16       -1.8191
  17       -1.8191
  18       -1.5894
  19       -1.5894
  20       -1.5894
  21       -1.5894
  22       -1.5621
  23       -1.5621
  24       -1.5620
  25       -1.5620
  26       -1.3932
  27       -1.3442
  28       -1.3442
  29       -1.2330
  30       -1.2330
  31       -1.2330
  32       -1.2330
  33       -1.2102
  34       -1.2102
  35       -1.2102
  36       -1.2102
  37       -1.1664
  38       -1.1664
  39       -1.1664
  40       -1.1663
  41       -1.0855
  42       -1.0855
  43       -0.9786
  44       -0.8436
  45       -0.8436
  46       -0.8436
  47       -0.8436
  48       -0.7333
  49       -0.7333
  50       -0.7333
  51       -0.7333
  52       -0.6945
  53       -0.6937
  54       -0.6937
  55       -0.6936
  56       -0.6903
  57       -0.6902
  58       -0.6902
  59       -0.6895
  60       -0.6467
  61       -0.6466
  62       -0.6466
  63       -0.6466
  64       -0.5939
  65       -0.5939
  66       -0.5939
  67       -0.5939
  68       -0.4586
  69       -0.4585
  70       -0.4583
  71       -0.4583
  72       -0.4583
  73       -0.4538
  74       -0.4538
  75       -0.4538
  76       -0.4535
  77       -0.4051
  78       -0.4051
  79       -0.4051
  80       -0.4051
  81       -0.3898
  82       -0.3898
  83       -0.3048
  84       -0.3048
  85       -0.3048
  86       -0.3048
  87       -0.2332
  88       -0.2332
  89       -0.0343
  90       -0.0342
  91       -0.0342
  92       -0.0342
  93        0.1115
  94        0.1116
  95        0.1116
  96        0.1116
  97        0.1338
  98        0.1725
  99        0.1725
 100        0.2909
 101        0.2909
 102        0.2910
 103        0.2910
 104        0.3609
 105        0.3609
 106        0.3609
 107        0.3609
 108        0.4492
 109        0.4492
 110        0.4492
 111        0.4492
 112        0.4672
 113        0.5164
 114        0.5164
 115        0.5165
 116        0.5165
 117        0.5743
 118        0.5745
 119        0.5745
 120        0.5747
 121        0.5789
 122        0.5791
 123        0.5791
 124        0.5792
 125        0.5819
 126        0.6348
 127        0.6688
 128        0.6688
 129        0.7567
 130        0.7567
 131        0.7728
 132        0.7728
 133        0.7728
 134        0.7728
 135        0.8253
 136        0.8253
 137        0.8253
 138        0.8253
 139        0.8885
 140        1.0637
 141        1.0637
 142        1.0637
 143        1.0637
 144        1.1182
 145        1.2764
 146        1.2764
 147        1.2764
 148        1.2764
 149        1.3596
 150        1.3596
 151        1.3931
 152        1.4009
 153        1.4009
 154        1.4009
 155        1.4009
 156        1.4661
 157        1.4661
 158        1.5963
 159        1.5963
 160        1.5963
 161        1.5963
 162        1.6007
 163        1.6007
 164        1.6643
 165        1.6646
 166        1.6655
 167        1.6658
 168        2.3303
 169        2.3303
 170        2.3303
 171        2.3303
 172        2.8842
 173        2.8842
 174        2.8842
 175        2.8842
 176        3.1747
 177        3.1747
 178        3.1747
 179        3.1747
 180        3.5306
 181        3.5306
 182        3.5306
 183        3.5307
 184        4.1237
 185        5.1789
 186        5.1789
 187        5.8329
 188        5.8329
 189        5.8329
 190        5.8329
 191        6.6004
 192        6.6004
 193        6.6004
 194        6.6004
 195        7.1197
 196        7.1197
 197        7.5962
 198        7.5962
 199        8.0095
 200        8.0095
 201        8.5890
 202        9.1260
 203        9.1260
 204        9.1261
 205        9.1261
 206        9.1792
 207        9.1792
 208        9.1792
 209        9.1792
 210        9.7966
 211        9.7966
 212        9.7966
 213        9.7966
 214       10.0503
 215       10.0507
 216       10.1877
 
  0.2500000E+00  0.0000000E+00  0.0000000E+00  0.4882812E-03
   1       -4.3473
   2       -3.2192
   3       -2.3400
   4       -2.3399
   5       -2.3399
   6       -2.3399
   7       -2.2389
   8       -2.2389
   9       -2.2389
  10       -2.2389
  11       -2.0252
  12       -1.9771
  13       -1.9768
  14       -1.9745
  15       -1.8124
  16       -1.7867
  17       -1.7867
  18       -1.6754
  19       -1.6754
  20       -1.6754
  21       -1.6753
  22       -1.6575
  23       -1.6575
  24       -1.6574
  25       -1.6574
  26       -1.4563
  27       -1.4114
  28       -1.4114
  29       -1.1992
  30       -1.1992
  31       -1.1916
  32       -1.1915
  33       -1.1915
  34       -1.1915
  35       -1.1853
  36       -1.1853
  37       -1.1853
  38       -1.1852
  39       -1.1484
  40       -1.1484
  41       -1.1484
  42       -1.1484
  43       -0.9096
  44       -0.8811
  45       -0.8811
  46       -0.8811
  47       -0.8811
  48       -0.7597
  49       -0.7596
  50       -0.7596
  51       -0.7596
  52       -0.6884
  53       -0.6876
  54       -0.6876
  55       -0.6876
  56       -0.6839
  57       -0.6839
  58       -0.6839
  59       -0.6831
  60       -0.6527
  61       -0.6527
  62       -0.6527
  63       -0.6527
  64       -0.6162
  65       -0.6162
  66       -0.6161
  67       -0.6161
  68       -0.4856
  69       -0.4652
  70       -0.4650
  71       -0.4650
  72       -0.4650
  73       -0.4588
  74       -0.4587
  75       -0.4587
  76       -0.4585
  77       -0.3792
  78       -0.3792
  79       -0.3792
  80       -0.3791
  81       -0.3641
  82       -0.3641
  83       -0.1753
  84       -0.1753
  85       -0.1753
  86       -0.1753
  87       -0.1113
  88       -0.1113
  89       -0.1113
  90       -0.1113
  91       -0.0660
  92       -0.0660
  93        0.0445
  94        0.0446
  95        0.0446
  96        0.0446
  97        0.0886
  98        0.0886
  99        0.1724
 100        0.3376
 101        0.3376
 102        0.3376
 103        0.3376
 104        0.4158
 105        0.4158
 106        0.4158
 107        0.4158
 108        0.4480
 109        0.4480
 110        0.4480
 111        0.4480
 112        0.4926
 113        0.4926
 114        0.4926
 115        0.4926
 116        0.5538
 117        0.5859
 118        0.5860
 119        0.5860
 120        0.5860
 121        0.6057
 122        0.6058
 123        0.6058
 124        0.6058
 125        0.6472
 126        0.6843
 127        0.7387
 128        0.7387
 129        0.8477
 130        0.8480
 131        0.8480
 132        0.8480
 133        0.8531
 134        0.8605
 135        0.8605
 136        0.9032
 137        0.9032
 138        0.9032
 139        0.9032
 140        1.1259
 141        1.1259
 142        1.1259
 143        1.1260
 144        1.1543
 145        1.1543
 146        1.1543
 147        1.1543
 148        1.1555
 149        1.3200
 150        1.3200
 151        1.3308
 152        1.3308
 153        1.3665
 154        1.3665
 155        1.3665
 156        1.3665
 157        1.3792
 158        1.5451
 159        1.5451
 160        1.5451
 161        1.5451
 162        1.5526
 163        1.5526
 164        1.6643
 165        1.6646
 166        1.6654
 167        1.6658
 168        2.1667
 169        2.1667
 170        2.1667
 171        2.1667
 172        2.8934
 173        2.8934
 174        2.8934
 175        2.8934
 176        3.1223
 177        3.1223
 178        3.1223
 179        3.1223
 180        3.6971
 181        3.7838
 182        3.7838
 183        3.7838
 184        3.7838
 185        5.3661
 186        5.3661
 187        6.0999
 188        6.0999
 189        6.0999
 190        6.0999
 191        6.3040
 192        6.3040
 193        6.3040
 194        6.3040
 195        7.1539
 196        7.1539
 197        7.5595
 198        7.5595
 199        7.6735
 200        7.6735
 201        9.1356
 202        9.1814
 203        9.1814
 204        9.1815
 205        9.1816
 206        9.2895
 207        9.2895
 208        9.2895
 209        9.2895
 210        9.3309
 211        9.3309
 212        9.3309
 213        9.3309
 214       10.0160
 215       10.0160
 216       10.0160
 
  0.3125000E+00  0.0000000E+00  0.0000000E+00  0.4882812E-03
   1       -4.2630
   2       -3.4081
   3       -2.2818
   4       -2.2818
   5       -2.2818
   6       -2.2818
   7       -2.1952
   8       -2.1952
   9       -2.1952
  10       -2.1952
  11       -2.0038
  12       -1.9360
  13       -1.9272
  14       -1.9272
  15       -1.7856
  16       -1.7671
  17       -1.7671
  18       -1.7671
  19       -1.7671
  20       -1.7531
  21       -1.7531
  22       -1.7530
  23       -1.7530
  24       -1.7450
  25       -1.7450
  26       -1.5163
  27       -1.4874
  28       -1.4874
  29       -1.3041
  30       -1.3041
  31       -1.1565
  32       -1.1560
  33       -1.1560
  34       -1.1560
  35       -1.1533
  36       -1.1533
  37       -1.1533
  38       -1.1529
  39       -1.1258
  40       -1.1258
  41       -1.1258
  42       -1.1257
  43       -0.9200
  44       -0.9199
  45       -0.9199
  46       -0.9199
  47       -0.8424
  48       -0.7884
  49       -0.7884
  50       -0.7884
  51       -0.7884
  52       -0.7118
  53       -0.7118
  54       -0.7118
  55       -0.7118
  56       -0.6849
  57       -0.6844
  58       -0.6844
  59       -0.6843
  60       -0.6779
  61       -0.6779
  62       -0.6779
  63       -0.6774
  64       -0.5919
  65       -0.5919
  66       -0.5919
  67       -0.5919
  68       -0.5197
  69       -0.4787
  70       -0.4787
  71       -0.4787
  72       -0.4787
  73       -0.4512
  74       -0.4512
  75       -0.4512
  76       -0.4512
  77       -0.3462
  78       -0.3462
  79       -0.3462
  80       -0.3462
  81       -0.3311
  82       -0.3311
  83       -0.1850
  84       -0.1850
  85       -0.1850
  86       -0.1850
  87       -0.0235
  88       -0.0235
  89       -0.0231
  90       -0.0230
  91       -0.0230
  92       -0.0230
  93       -0.0225
  94       -0.0225
  95        0.0100
  96        0.0100
  97        0.1067
  98        0.1067
  99        0.2199
 100        0.3895
 101        0.3895
 102        0.3895
 103        0.3895
 104        0.4470
 105        0.4470
 106        0.4470
 107        0.4470
 108        0.4671
 109        0.4671
 110        0.4671
 111        0.4671
 112        0.4750
 113        0.4750
 114        0.4750
 115        0.4750
 116        0.5187
 117        0.5908
 118        0.5908
 119        0.5908
 120        0.5908
 121        0.6140
 122        0.6140
 123        0.6140
 124        0.6140
 125        0.6629
 126        0.8171
 127        0.8177
 128        0.8191
 129        0.9256
 130        0.9256
 131        0.9256
 132        0.9257
 133        0.9519
 134        0.9636
 135        0.9636
 136        0.9861
 137        0.9861
 138        0.9861
 139        0.9861
 140        1.0089
 141        1.0089
 142        1.0089
 143        1.0089
 144        1.1749
 145        1.1749
 146        1.1916
 147        1.2131
 148        1.2131
 149        1.2131
 150        1.2131
 151        1.2699
 152        1.2699
 153        1.3232
 154        1.3233
 155        1.3233
 156        1.3233
 157        1.3615
 158        1.4825
 159        1.4825
 160        1.4825
 161        1.4825
 162        1.4927
 163        1.4927
 164        1.6643
 165        1.6647
 166        1.6653
 167        1.6657
 168        2.0096
 169        2.0096
 170        2.0096
 171        2.0096
 172        2.9057
 173        2.9057
 174        2.9057
 175        2.9057
 176        3.0734
 177        3.0734
 178        3.0734
 179        3.0734
 180        3.2582
 181        4.0553
 182        4.0553
 183        4.0553
 184        4.0553
 185        5.5884
 186        5.5884
 187        5.9796
 188        5.9796
 189        5.9796
 190        5.9796
 191        6.4129
 192        6.4129
 193        6.4129
 194        6.4129
 195        7.1960
 196        7.1960
 197        7.3427
 198        7.3427
 199        7.5150
 200        7.5150
 201        8.8666
 202        8.8666
 203        8.8667
 204        8.8667
 205        9.2448
 206        9.2448
 207        9.2448
 208        9.2448
 209        9.4281
 210        9.4281
 211        9.4281
 212        9.4281
 213        9.7303
 214        9.8617
 215        9.8617
 216        9.8617
 
  0.3750000E+00  0.0000000E+00  0.0000000E+00  0.4882812E-03
   1       -4.1608
   2       -3.5869
   3       -2.2128
   4       -2.2128
   5       -2.2128
   6       -2.2128
   7       -2.1422
   8       -2.1422
   9       -2.1422
  10       -2.1422
  11       -1.9806
  12       -1.9211
  13       -1.8686
  14       -1.8684
  15       -1.8618
  16       -1.8618
  17       -1.8617
  18       -1.8615
  19       -1.8448
  20       -1.8448
  21       -1.8448
  22       -1.8448
  23       -1.7532
  24       -1.6944
  25       -1.6944
  26       -1.5726
  27       -1.5678
  28       -1.5678
  29       -1.4001
  30       -1.4001
  31       -1.1259
  32       -1.1256
  33       -1.1256
  34       -1.1256
  35       -1.1202
  36       -1.1202
  37       -1.1202
  38       -1.1199
  39       -1.0988
  40       -1.0988
  41       -1.0988
  42       -1.0988
  43       -0.9590
  44       -0.9590
  45       -0.9590
  46       -0.9590
  47       -0.8153
  48       -0.8153
  49       -0.8153
  50       -0.8153
  51       -0.7779
  52       -0.7663
  53       -0.7663
  54       -0.7663
  55       -0.7662
  56       -0.6816
  57       -0.6811
  58       -0.6811
  59       -0.6810
  60       -0.6750
  61       -0.6749
  62       -0.6749
  63       -0.6744
  64       -0.5704
  65       -0.5704
  66       -0.5704
  67       -0.5704
  68       -0.5605
  69       -0.4945
  70       -0.4945
  71       -0.4945
  72       -0.4945
  73       -0.4332
  74       -0.4331
  75       -0.4331
  76       -0.4331
  77       -0.3065
  78       -0.3065
  79       -0.3065
  80       -0.3064
  81       -0.2910
  82       -0.2910
  83       -0.2527
  84       -0.2527
  85       -0.2527
  86       -0.2527
  87       -0.0887
  88       -0.0887
  89       -0.0887
  90       -0.0886
  91       -0.0629
  92       -0.0629
  93        0.1433
  94        0.1433
  95        0.1433
  96        0.1433
  97        0.2722
  98        0.2840
  99        0.2840
 100        0.4423
 101        0.4423
 102        0.4423
 103        0.4423
 104        0.4466
 105        0.4466
 106        0.4466
 107        0.4466
 108        0.4626
 109        0.4626
 110        0.4626
 111        0.4626
 112        0.4773
 113        0.5111
 114        0.5111
 115        0.5111
 116        0.5111
 117        0.5911
 118        0.5911
 119        0.5912
 120        0.5912
 121        0.6023
 122        0.6023
 123        0.6024
 124        0.6024
 125        0.6818
 126        0.7863
 127        0.8467
 128        0.8468
 129        0.8468
 130        0.8468
 131        0.9011
 132        0.9011
 133        1.0025
 134        1.0025
 135        1.0027
 136        1.0027
 137        1.0057
 138        1.0057
 139        1.0648
 140        1.0648
 141        1.0723
 142        1.0723
 143        1.0723
 144        1.0723
 145        1.2101
 146        1.2101
 147        1.2261
 148        1.2638
 149        1.2718
 150        1.2718
 151        1.2718
 152        1.2718
 153        1.3203
 154        1.3203
 155        1.3203
 156        1.3203
 157        1.3404
 158        1.4104
 159        1.4104
 160        1.4104
 161        1.4104
 162        1.4224
 163        1.4224
 164        1.6644
 165        1.6648
 166        1.6653
 167        1.6657
 168        1.8583
 169        1.8583
 170        1.8583
 171        1.8583
 172        2.8220
 173        2.9214
 174        2.9214
 175        2.9214
 176        2.9214
 177        3.0308
 178        3.0308
 179        3.0308
 180        3.0308
 181        4.3449
 182        4.3449
 183        4.3450
 184        4.3450
 185        5.6430
 186        5.6430
 187        5.6430
 188        5.6431
 189        5.8385
 190        5.8385
 191        6.7624
 192        6.7624
 193        6.7624
 194        6.7624
 195        7.0189
 196        7.0189
 197        7.2445
 198        7.2445
 199        7.4644
 200        7.4644
 201        8.4115
 202        8.4115
 203        8.4115
 204        8.4115
 205        9.3171
 206        9.3171
 207        9.3171
 208        9.3171
 209        9.5929
 210        9.5929
 211        9.5929
 212        9.5929
 213        9.7240
 214        9.7240
 215        9.7240
 216        9.7240
 
  0.4375000E+00  0.0000000E+00  0.0000000E+00  0.4882812E-03
   1       -4.0412
   2       -3.7531
   3       -2.1344
   4       -2.1344
   5       -2.1344
   6       -2.1344
   7       -2.0801
   8       -2.0801
   9       -2.0801
  10       -2.0801
  11       -1.9578
  12       -1.9565
  13       -1.9565
  14       -1.9565
  15       -1.9561
  16       -1.9308
  17       -1.9307
  18       -1.9307
  19       -1.9307
  20       -1.9233
  21       -1.8012
  22       -1.8012
  23       -1.7154
  24       -1.6488
  25       -1.6488
  26       -1.6345
  27       -1.6345
  28       -1.6248
  29       -1.4872
  30       -1.4872