       N       E                     dE             d eps       ncg     rms          rms(c)
DAV:   1     0.460190883922E+04    0.46019E+04   -0.21179E+05174960   0.225E+03
DAV:   2     0.172637471427E+03   -0.44293E+04   -0.42255E+04174992   0.548E+02
DAV:   3    -0.971416368187E+02   -0.26978E+03   -0.24426E+03194784   0.142E+02
DAV:   4    -0.107207336703E+03   -0.10066E+02   -0.98982E+01186776   0.264E+01
DAV:   5    -0.107387067138E+03   -0.17973E+00   -0.17926E+00188880   0.311E+00    0.148E+01
DAV:   6    -0.100620196290E+03    0.67669E+01   -0.20957E+01184376   0.154E+01    0.354E+00
DAV:   7    -0.100402942222E+03    0.21725E+00   -0.87125E-01191696   0.244E+00    0.180E+00
DAV:   8    -0.100357847083E+03    0.45095E-01   -0.52104E-02182608   0.839E-01    0.139E-01
DAV:   9    -0.100358304814E+03   -0.45773E-03   -0.43222E-03194280   0.198E-01    0.809E-02
DAV:  10    -0.100358381148E+03   -0.76334E-04   -0.48234E-04181720   0.633E-02    0.138E-02
DAV:  11    -0.100358390024E+03   -0.88753E-05   -0.16000E-05191632   0.136E-02    0.329E-03
DAV:  12    -0.100358392543E+03   -0.25194E-05   -0.94845E-07183568   0.323E-03    0.138E-03
DAV:  13    -0.100358391119E+03    0.14234E-05   -0.79932E-08181856   0.990E-04    0.388E-04
DAV:  14    -0.100358390746E+03    0.37366E-06   -0.61217E-09 98648   0.277E-04    0.682E-05
DAV:  15    -0.100358390776E+03   -0.30217E-07   -0.58878E-10 97000   0.106E-04    0.336E-05
DAV:  16    -0.100358390782E+03   -0.54606E-08    0.54915E-11 95600   0.432E-05
   1 F= -.10035839E+03 E0= -.10035813E+03  d E =-.529893E-03
