 vasp.4.6.28 25Jul05 complex 
 executed on             LinuxIFC date 2017.01.16  01:07:22
 running on    8 nodes
 distr:  one band on    1 nodes,    8 groups


--------------------------------------------------------------------------------------------------------


 INCAR:
 POTCAR:   PAW_PBE Au 06Sep2000                   
 POTCAR:   PAW_PBE Au 06Sep2000                   
   VRHFIN =Au: s1d10                                                            
   LEXCH  = PE                                                                  
   EATOM  =   926.0567 eV,   68.0632 Ry                                         
                                                                                
   TITEL  = PAW_PBE Au 06Sep2000                                                
   LULTRA =        F    use ultrasoft PP ?                                      
   IUNSCR =        1    unscreen: 0-lin 1-nonlin 2-no                           
   RPACOR =    2.330    partial core radius                                     
   POMASS =  196.966; ZVAL   =   11.000    mass and valenz                      
   RCORE  =    2.500    outmost cutoff radius                                   
   RWIGS  =    2.840; RWIGS  =    1.503    wigner-seitz radius (au A)           
   ENMAX  =  229.948; ENMIN  =  172.461 eV                                      
   RCLOC  =    1.964    cutoff for local pot                                    
   LCOR   =        T    correct aug charges                                     
   LPAW   =        T    paw PP                                                  
   EAUG   =  356.670                                                            
   DEXC   =    -.025                                                            
   RMAX   =    3.041    core radius for proj-oper                               
   RAUG   =    1.300    factor for augmentation sphere                          
   RDEP   =    2.598    radius for radial grids                                 
   QCUT   =   -4.111; QGAM   =    8.222    optimization parameters              
                                                                                
   Description                                                                  
     l     E      TYP  RCUT    TYP  RCUT                                        
     2   .000     23  2.500                                                     
     2   .000     23  2.500                                                     
     0   .000     23  2.500                                                     
     0   .000     23  2.500                                                     
     1  -.200     23  2.500                                                     
     1   .000     23  2.500                                                     
     3   .000      7   .000                                                     
  local pseudopotential read in
  partial core-charges read in
  atomic valenz-charges read in
  non local Contribution for L=           2  read in
    real space projection operators read in
  non local Contribution for L=           2  read in
    real space projection operators read in
  non local Contribution for L=           0  read in
    real space projection operators read in
  non local Contribution for L=           0  read in
    real space projection operators read in
  non local Contribution for L=           1  read in
    real space projection operators read in
  non local Contribution for L=           1  read in
    real space projection operators read in
    PAW grid and wavefunctions read in
 
   number of l-projection  operators is LMAX  =           6
   number of lm-projection operators is LMMAX =          18
 

 ----------------------------------------------------------------------------- 
|                                                                             |
|  ADVICE TO THIS USER RUNNING 'VASP/VAMP'   (HEAR YOUR MASTER'S VOICE ...):  |
|                                                                             |
|      You have a (more or less) 'large supercell' and for larger cells       |
|      it might be more efficient to use real space projection operators      |
|      So try LREAL= Auto  in the INCAR   file.                               |
|      Mind: If you want to do an extremely accurate calculations keep the    |
|      reciprocal projection scheme          (i.e. LREAL=.FALSE.)             |
|                                                                             |
 ----------------------------------------------------------------------------- 

 PAW_PBE Au 06Sep2000                   :
 energy of atom  1       EATOM= -926.0567
 kinetic energy error for atom=    0.0005 (will be added to EATOM!!)
 
 EXHCAR: internal setup
 exchange correlation table for  LEXCH =        8
   RHO(1)=    0.500       N(1)  =     2000
   RHO(2)=  100.500       N(2)  =     4000
 
 POSCAR: Au                                      
  positions in direct lattice
  No initial velocities read in
 


--------------------------------------------------------------------------------------------------------


 ion  position               nearest neighbor table
   1  0.001  0.000  0.000-   9 3.09  11 3.09  17 3.09  21 3.09  25 3.10  27 3.10  29 3.10  31 3.10
                            10 3.11  12 3.11  18 3.11  22 3.11
   2  0.500  0.000  0.000-   9 3.10  10 3.10  11 3.10  12 3.10  17 3.10  18 3.10  21 3.10  22 3.10
                            26 3.10  28 3.10  30 3.10  32 3.10
   3  0.000  0.500  0.000-   9 3.10  10 3.10  11 3.10  12 3.10  19 3.10  20 3.10  23 3.10  24 3.10
                            25 3.10  27 3.10  29 3.10  31 3.10
   4  0.500  0.500  0.000-   9 3.10  10 3.10  11 3.10  12 3.10  19 3.10  20 3.10  23 3.10  24 3.10
                            26 3.10  28 3.10  30 3.10  32 3.10
   5  0.000  0.000  0.500-  13 3.10  14 3.10  15 3.10  16 3.10  17 3.10  18 3.10  21 3.10  22 3.10
                            25 3.10  27 3.10  29 3.10  31 3.10
   6  0.500  0.000  0.500-  13 3.10  14 3.10  15 3.10  16 3.10  17 3.10  18 3.10  21 3.10  22 3.10
                            26 3.10  28 3.10  30 3.10  32 3.10
   7  0.000  0.500  0.500-  13 3.10  14 3.10  15 3.10  16 3.10  19 3.10  20 3.10  23 3.10  24 3.10
                            25 3.10  27 3.10  29 3.10  31 3.10
   8  0.500  0.500  0.500-  13 3.10  14 3.10  15 3.10  16 3.10  19 3.10  20 3.10  23 3.10  24 3.10
                            26 3.10  28 3.10  30 3.10  32 3.10
   9  0.250  0.250  0.000-   1 3.09   2 3.10   3 3.10   4 3.10  17 3.10  19 3.10  21 3.10  23 3.10
                            25 3.10  26 3.10  29 3.10  30 3.10
  10  0.750  0.250  0.000-   2 3.10   3 3.10   4 3.10  18 3.10  20 3.10  22 3.10  24 3.10  25 3.10
                            26 3.10  29 3.10  30 3.10   1 3.11
  11  0.250  0.750  0.000-   1 3.09   2 3.10   3 3.10   4 3.10  17 3.10  19 3.10  21 3.10  23 3.10
                            27 3.10  28 3.10  31 3.10  32 3.10
  12  0.750  0.750  0.000-   2 3.10   3 3.10   4 3.10  18 3.10  20 3.10  22 3.10  24 3.10  27 3.10
                            28 3.10  31 3.10  32 3.10   1 3.11
  13  0.250  0.250  0.500-   5 3.10   6 3.10   7 3.10   8 3.10  17 3.10  19 3.10  21 3.10  23 3.10
                            25 3.10  26 3.10  29 3.10  30 3.10
  14  0.750  0.250  0.500-   5 3.10   6 3.10   7 3.10   8 3.10  18 3.10  20 3.10  22 3.10  24 3.10
                            25 3.10  26 3.10  29 3.10  30 3.10
  15  0.250  0.750  0.500-   5 3.10   6 3.10   7 3.10   8 3.10  17 3.10  19 3.10  21 3.10  23 3.10
                            27 3.10  28 3.10  31 3.10  32 3.10
  16  0.750  0.750  0.500-   5 3.10   6 3.10   7 3.10   8 3.10  18 3.10  20 3.10  22 3.10  24 3.10
                            27 3.10  28 3.10  31 3.10  32 3.10
  17  0.250  0.000  0.250-   1 3.09   2 3.10   5 3.10   6 3.10   9 3.10  11 3.10  13 3.10  15 3.10
                            25 3.10  26 3.10  27 3.10  28 3.10
  18  0.750  0.000  0.250-   2 3.10   5 3.10   6 3.10  10 3.10  12 3.10  14 3.10  16 3.10  25 3.10
                            26 3.10  27 3.10  28 3.10   1 3.11
  19  0.250  0.500  0.250-   3 3.10   4 3.10   7 3.10   8 3.10   9 3.10  11 3.10  13 3.10  15 3.10
                            25 3.10  26 3.10  27 3.10  28 3.10
  20  0.750  0.500  0.250-   3 3.10   4 3.10   7 3.10   8 3.10  10 3.10  12 3.10  14 3.10  16 3.10
                            25 3.10  26 3.10  27 3.10  28 3.10
  21  0.250  0.000  0.750-   1 3.09   2 3.10   5 3.10   6 3.10   9 3.10  11 3.10  13 3.10  15 3.10
                            29 3.10  30 3.10  31 3.10  32 3.10
  22  0.750  0.000  0.750-   2 3.10   5 3.10   6 3.10  10 3.10  12 3.10  14 3.10  16 3.10  29 3.10
                            30 3.10  31 3.10  32 3.10   1 3.11
  23  0.250  0.500  0.750-   3 3.10   4 3.10   7 3.10   8 3.10   9 3.10  11 3.10  13 3.10  15 3.10
                            29 3.10  30 3.10  31 3.10  32 3.10
  24  0.750  0.500  0.750-   3 3.10   4 3.10   7 3.10   8 3.10  10 3.10  12 3.10  14 3.10  16 3.10
                            29 3.10  30 3.10  31 3.10  32 3.10
  25  0.000  0.250  0.250-   3 3.10   5 3.10   7 3.10   9 3.10  10 3.10  13 3.10  14 3.10  17 3.10
                            18 3.10  19 3.10  20 3.10   1 3.10
  26  0.500  0.250  0.250-   2 3.10   4 3.10   6 3.10   8 3.10   9 3.10  10 3.10  13 3.10  14 3.10
                            17 3.10  18 3.10  19 3.10  20 3.10
  27  0.000  0.750  0.250-   3 3.10   5 3.10   7 3.10  11 3.10  12 3.10  15 3.10  16 3.10  17 3.10
                            18 3.10  19 3.10  20 3.10   1 3.10
  28  0.500  0.750  0.250-   2 3.10   4 3.10   6 3.10   8 3.10  11 3.10  12 3.10  15 3.10  16 3.10
                            17 3.10  18 3.10  19 3.10  20 3.10
  29  0.000  0.250  0.750-   3 3.10   5 3.10   7 3.10   9 3.10  10 3.10  13 3.10  14 3.10  21 3.10
                            22 3.10  23 3.10  24 3.10   1 3.10
  30  0.500  0.250  0.750-   2 3.10   4 3.10   6 3.10   8 3.10   9 3.10  10 3.10  13 3.10  14 3.10
                            21 3.10  22 3.10  23 3.10  24 3.10
  31  0.000  0.750  0.750-   3 3.10   5 3.10   7 3.10  11 3.10  12 3.10  15 3.10  16 3.10  21 3.10
                            22 3.10  23 3.10  24 3.10   1 3.10
  32  0.500  0.750  0.750-   2 3.10   4 3.10   6 3.10   8 3.10  11 3.10  12 3.10  15 3.10  16 3.10
                            21 3.10  22 3.10  23 3.10  24 3.10
 
  LATTYP: Found a simple cubic cell.
 ALAT       =     8.7629889949
  
  Lattice vectors:
  
 A1 = (   8.7629889949,   0.0000000000,   0.0000000000)
 A2 = (   0.0000000000,   8.7629889949,   0.0000000000)
 A3 = (   0.0000000000,   0.0000000000,   8.7629889949)
 Subroutine PRICEL returns:
 Original cell was already a primitive cell.
 

Analysis of symmetry for initial positions (statically):

 Routine SETGRP: Setting up the symmetry group for a 
 simple cubic supercell.


 Subroutine GETGRP returns: Found  8 space group operations
 (whereof  8 operations were pure point group operations)
 out of a pool of 48 trial point group operations.


The static configuration has the point symmetry C_4v.

Analysis of symmetry for dynamics (positions and initial velocities):

 Subroutine DYNSYM returns: Found  8 space group operations
 (whereof  8 operations were pure point group operations)
 out of a pool of  8 trial space group operations
 (whereof  8 operations were pure point group operations)
 and found also     1 'primitive' translations


The dynamic configuration has the point symmetry C_4v.
 
 
 KPOINTS: Automatic mesh                          

Automatic generation of k-mesh.
 
 Subroutine IBZKPT returns following result:
 ===========================================
 
 Found    405 irreducible k-points:
 
 Following reciprocal coordinates:
            Coordinates               Weight
  0.000000  0.000000  0.000000      1.000000
  0.062500  0.000000  0.000000      2.000000
  0.125000  0.000000  0.000000      2.000000
  0.187500  0.000000  0.000000      2.000000
  0.250000  0.000000  0.000000      2.000000
  0.312500  0.000000  0.000000      2.000000
  0.375000  0.000000  0.000000      2.000000
  0.437500  0.000000  0.000000      2.000000
  0.500000  0.000000  0.000000      1.000000
  0.000000  0.062500  0.000000      4.000000
  0.062500  0.062500  0.000000      8.000000
  0.125000  0.062500  0.000000      8.000000
  0.187500  0.062500  0.000000      8.000000
  0.250000  0.062500  0.000000      8.000000
  0.312500  0.062500  0.000000      8.000000
  0.375000  0.062500  0.000000      8.000000
  0.437500  0.062500  0.000000      8.000000
  0.500000  0.062500  0.000000      4.000000
  0.000000  0.125000  0.000000      4.000000
  0.062500  0.125000  0.000000      8.000000
  0.125000  0.125000  0.000000      8.000000
  0.187500  0.125000  0.000000      8.000000
  0.250000  0.125000  0.000000      8.000000
  0.312500  0.125000  0.000000      8.000000
  0.375000  0.125000  0.000000      8.000000
  0.437500  0.125000  0.000000      8.000000
  0.500000  0.125000  0.000000      4.000000
  0.000000  0.187500  0.000000      4.000000
  0.062500  0.187500  0.000000      8.000000
  0.125000  0.187500  0.000000      8.000000
  0.187500  0.187500  0.000000      8.000000
  0.250000  0.187500  0.000000      8.000000
  0.312500  0.187500  0.000000      8.000000
  0.375000  0.187500  0.000000      8.000000
  0.437500  0.187500  0.000000      8.000000
  0.500000  0.187500  0.000000      4.000000
  0.000000  0.250000  0.000000      4.000000
  0.062500  0.250000  0.000000      8.000000
  0.125000  0.250000  0.000000      8.000000
  0.187500  0.250000  0.000000      8.000000
  0.250000  0.250000  0.000000      8.000000
  0.312500  0.250000  0.000000      8.000000
  0.375000  0.250000  0.000000      8.000000
  0.437500  0.250000  0.000000      8.000000
  0.500000  0.250000  0.000000      4.000000
  0.000000  0.312500  0.000000      4.000000
  0.062500  0.312500  0.000000      8.000000
  0.125000  0.312500  0.000000      8.000000
  0.187500  0.312500  0.000000      8.000000
  0.250000  0.312500  0.000000      8.000000
  0.312500  0.312500  0.000000      8.000000
  0.375000  0.312500  0.000000      8.000000
  0.437500  0.312500  0.000000      8.000000
  0.500000  0.312500  0.000000      4.000000
  0.000000  0.375000  0.000000      4.000000
  0.062500  0.375000  0.000000      8.000000
  0.125000  0.375000  0.000000      8.000000
  0.187500  0.375000  0.000000      8.000000
  0.250000  0.375000  0.000000      8.000000
  0.312500  0.375000  0.000000      8.000000
  0.375000  0.375000  0.000000      8.000000
  0.437500  0.375000  0.000000      8.000000
  0.500000  0.375000  0.000000      4.000000
  0.000000  0.437500  0.000000      4.000000
  0.062500  0.437500  0.000000      8.000000
  0.125000  0.437500  0.000000      8.000000
  0.187500  0.437500  0.000000      8.000000
  0.250000  0.437500  0.000000      8.000000
  0.312500  0.437500  0.000000      8.000000
  0.375000  0.437500  0.000000      8.000000
  0.437500  0.437500  0.000000      8.000000
  0.500000  0.437500  0.000000      4.000000
  0.000000  0.500000  0.000000      2.000000
  0.062500  0.500000  0.000000      4.000000
  0.125000  0.500000  0.000000      4.000000
  0.187500  0.500000  0.000000      4.000000
  0.250000  0.500000  0.000000      4.000000
  0.312500  0.500000  0.000000      4.000000
  0.375000  0.500000  0.000000      4.000000
  0.437500  0.500000  0.000000      4.000000
  0.500000  0.500000  0.000000      2.000000
  0.000000  0.062500  0.062500      4.000000
  0.062500  0.062500  0.062500      8.000000
  0.125000  0.062500  0.062500      8.000000
  0.187500  0.062500  0.062500      8.000000
  0.250000  0.062500  0.062500      8.000000
  0.312500  0.062500  0.062500      8.000000
  0.375000  0.062500  0.062500      8.000000
  0.437500  0.062500  0.062500      8.000000
  0.500000  0.062500  0.062500      4.000000
  0.000000  0.125000  0.062500      8.000000
  0.062500  0.125000  0.062500     16.000000
  0.125000  0.125000  0.062500     16.000000
  0.187500  0.125000  0.062500     16.000000
  0.250000  0.125000  0.062500     16.000000
  0.312500  0.125000  0.062500     16.000000
  0.375000  0.125000  0.062500     16.000000
  0.437500  0.125000  0.062500     16.000000
  0.500000  0.125000  0.062500      8.000000
  0.000000  0.187500  0.062500      8.000000
  0.062500  0.187500  0.062500     16.000000
  0.125000  0.187500  0.062500     16.000000
  0.187500  0.187500  0.062500     16.000000
  0.250000  0.187500  0.062500     16.000000
  0.312500  0.187500  0.062500     16.000000
  0.375000  0.187500  0.062500     16.000000
  0.437500  0.187500  0.062500     16.000000
  0.500000  0.187500  0.062500      8.000000
  0.000000  0.250000  0.062500      8.000000
  0.062500  0.250000  0.062500     16.000000
  0.125000  0.250000  0.062500     16.000000
  0.187500  0.250000  0.062500     16.000000
  0.250000  0.250000  0.062500     16.000000
  0.312500  0.250000  0.062500     16.000000
  0.375000  0.250000  0.062500     16.000000
  0.437500  0.250000  0.062500     16.000000
  0.500000  0.250000  0.062500      8.000000
  0.000000  0.312500  0.062500      8.000000
  0.062500  0.312500  0.062500     16.000000
  0.125000  0.312500  0.062500     16.000000
  0.187500  0.312500  0.062500     16.000000
  0.250000  0.312500  0.062500     16.000000
  0.312500  0.312500  0.062500     16.000000
  0.375000  0.312500  0.062500     16.000000
  0.437500  0.312500  0.062500     16.000000
  0.500000  0.312500  0.062500      8.000000
  0.000000  0.375000  0.062500      8.000000
  0.062500  0.375000  0.062500     16.000000
  0.125000  0.375000  0.062500     16.000000
  0.187500  0.375000  0.062500     16.000000
  0.250000  0.375000  0.062500     16.000000
  0.312500  0.375000  0.062500     16.000000
  0.375000  0.375000  0.062500     16.000000
  0.437500  0.375000  0.062500     16.000000
  0.500000  0.375000  0.062500      8.000000
  0.000000  0.437500  0.062500      8.000000
  0.062500  0.437500  0.062500     16.000000
  0.125000  0.437500  0.062500     16.000000
  0.187500  0.437500  0.062500     16.000000
  0.250000  0.437500  0.062500     16.000000
  0.312500  0.437500  0.062500     16.000000
  0.375000  0.437500  0.062500     16.000000
  0.437500  0.437500  0.062500     16.000000
  0.500000  0.437500  0.062500      8.000000
  0.000000  0.500000  0.062500      4.000000
  0.062500  0.500000  0.062500      8.000000
  0.125000  0.500000  0.062500      8.000000
  0.187500  0.500000  0.062500      8.000000
  0.250000  0.500000  0.062500      8.000000
  0.312500  0.500000  0.062500      8.000000
  0.375000  0.500000  0.062500      8.000000
  0.437500  0.500000  0.062500      8.000000
  0.500000  0.500000  0.062500      4.000000
  0.000000  0.125000  0.125000      4.000000
  0.062500  0.125000  0.125000      8.000000
  0.125000  0.125000  0.125000      8.000000
  0.187500  0.125000  0.125000      8.000000
  0.250000  0.125000  0.125000      8.000000
  0.312500  0.125000  0.125000      8.000000
  0.375000  0.125000  0.125000      8.000000
  0.437500  0.125000  0.125000      8.000000
  0.500000  0.125000  0.125000      4.000000
  0.000000  0.187500  0.125000      8.000000
  0.062500  0.187500  0.125000     16.000000
  0.125000  0.187500  0.125000     16.000000
  0.187500  0.187500  0.125000     16.000000
  0.250000  0.187500  0.125000     16.000000
  0.312500  0.187500  0.125000     16.000000
  0.375000  0.187500  0.125000     16.000000
  0.437500  0.187500  0.125000     16.000000
  0.500000  0.187500  0.125000      8.000000
  0.000000  0.250000  0.125000      8.000000
  0.062500  0.250000  0.125000     16.000000
  0.125000  0.250000  0.125000     16.000000
  0.187500  0.250000  0.125000     16.000000
  0.250000  0.250000  0.125000     16.000000
  0.312500  0.250000  0.125000     16.000000
  0.375000  0.250000  0.125000     16.000000
  0.437500  0.250000  0.125000     16.000000
  0.500000  0.250000  0.125000      8.000000
  0.000000  0.312500  0.125000      8.000000
  0.062500  0.312500  0.125000     16.000000
  0.125000  0.312500  0.125000     16.000000
  0.187500  0.312500  0.125000     16.000000
  0.250000  0.312500  0.125000     16.000000
  0.312500  0.312500  0.125000     16.000000
  0.375000  0.312500  0.125000     16.000000
  0.437500  0.312500  0.125000     16.000000
  0.500000  0.312500  0.125000      8.000000
  0.000000  0.375000  0.125000      8.000000
  0.062500  0.375000  0.125000     16.000000
  0.125000  0.375000  0.125000     16.000000
  0.187500  0.375000  0.125000     16.000000
  0.250000  0.375000  0.125000     16.000000
  0.312500  0.375000  0.125000     16.000000
  0.375000  0.375000  0.125000     16.000000
  0.437500  0.375000  0.125000     16.000000
  0.500000  0.375000  0.125000      8.000000
  0.000000  0.437500  0.125000      8.000000
  0.062500  0.437500  0.125000     16.000000
  0.125000  0.437500  0.125000     16.000000
  0.187500  0.437500  0.125000     16.000000
  0.250000  0.437500  0.125000     16.000000
  0.312500  0.437500  0.125000     16.000000
  0.375000  0.437500  0.125000     16.000000
  0.437500  0.437500  0.125000     16.000000
  0.500000  0.437500  0.125000      8.000000
  0.000000  0.500000  0.125000      4.000000
  0.062500  0.500000  0.125000      8.000000
  0.125000  0.500000  0.125000      8.000000
  0.187500  0.500000  0.125000      8.000000
  0.250000  0.500000  0.125000      8.000000
  0.312500  0.500000  0.125000      8.000000
  0.375000  0.500000  0.125000      8.000000
  0.437500  0.500000  0.125000      8.000000
  0.500000  0.500000  0.125000      4.000000
  0.000000  0.187500  0.187500      4.000000
  0.062500  0.187500  0.187500      8.000000
  0.125000  0.187500  0.187500      8.000000
  0.187500  0.187500  0.187500      8.000000
  0.250000  0.187500  0.187500      8.000000
  0.312500  0.187500  0.187500      8.000000
  0.375000  0.187500  0.187500      8.000000
  0.437500  0.187500  0.187500      8.000000
  0.500000  0.187500  0.187500      4.000000
  0.000000  0.250000  0.187500      8.000000
  0.062500  0.250000  0.187500     16.000000
  0.125000  0.250000  0.187500     16.000000
  0.187500  0.250000  0.187500     16.000000
  0.250000  0.250000  0.187500     16.000000
  0.312500  0.250000  0.187500     16.000000
  0.375000  0.250000  0.187500     16.000000
  0.437500  0.250000  0.187500     16.000000
  0.500000  0.250000  0.187500      8.000000
  0.000000  0.312500  0.187500      8.000000
  0.062500  0.312500  0.187500     16.000000
  0.125000  0.312500  0.187500     16.000000
  0.187500  0.312500  0.187500     16.000000
  0.250000  0.312500  0.187500     16.000000
  0.312500  0.312500  0.187500     16.000000
  0.375000  0.312500  0.187500     16.000000
  0.437500  0.312500  0.187500     16.000000
  0.500000  0.312500  0.187500      8.000000
  0.000000  0.375000  0.187500      8.000000
  0.062500  0.375000  0.187500     16.000000
  0.125000  0.375000  0.187500     16.000000
  0.187500  0.375000  0.187500     16.000000
  0.250000  0.375000  0.187500     16.000000
  0.312500  0.375000  0.187500     16.000000
  0.375000  0.375000  0.187500     16.000000
  0.437500  0.375000  0.187500     16.000000
  0.500000  0.375000  0.187500      8.000000
  0.000000  0.437500  0.187500      8.000000
  0.062500  0.437500  0.187500     16.000000
  0.125000  0.437500  0.187500     16.000000
  0.187500  0.437500  0.187500     16.000000
  0.250000  0.437500  0.187500     16.000000
  0.312500  0.437500  0.187500     16.000000
  0.375000  0.437500  0.187500     16.000000
  0.437500  0.437500  0.187500     16.000000
  0.500000  0.437500  0.187500      8.000000
  0.000000  0.500000  0.187500      4.000000
  0.062500  0.500000  0.187500      8.000000
  0.125000  0.500000  0.187500      8.000000
  0.187500  0.500000  0.187500      8.000000
  0.250000  0.500000  0.187500      8.000000
  0.312500  0.500000  0.187500      8.000000
  0.375000  0.500000  0.187500      8.000000
  0.437500  0.500000  0.187500      8.000000
  0.500000  0.500000  0.187500      4.000000
  0.000000  0.250000  0.250000      4.000000
  0.062500  0.250000  0.250000      8.000000
  0.125000  0.250000  0.250000      8.000000
  0.187500  0.250000  0.250000      8.000000
  0.250000  0.250000  0.250000      8.000000
  0.312500  0.250000  0.250000      8.000000
  0.375000  0.250000  0.250000      8.000000
  0.437500  0.250000  0.250000      8.000000
  0.500000  0.250000  0.250000      4.000000
  0.000000  0.312500  0.250000      8.000000
  0.062500  0.312500  0.250000     16.000000
  0.125000  0.312500  0.250000     16.000000
  0.187500  0.312500  0.250000     16.000000
  0.250000  0.312500  0.250000     16.000000
  0.312500  0.312500  0.250000     16.000000
  0.375000  0.312500  0.250000     16.000000
  0.437500  0.312500  0.250000     16.000000
  0.500000  0.312500  0.250000      8.000000
  0.000000  0.375000  0.250000      8.000000
  0.062500  0.375000  0.250000     16.000000
  0.125000  0.375000  0.250000     16.000000
  0.187500  0.375000  0.250000     16.000000
  0.250000  0.375000  0.250000     16.000000
  0.312500  0.375000  0.250000     16.000000
  0.375000  0.375000  0.250000     16.000000
  0.437500  0.375000  0.250000     16.000000
  0.500000  0.375000  0.250000      8.000000
  0.000000  0.437500  0.250000      8.000000
  0.062500  0.437500  0.250000     16.000000
  0.125000  0.437500  0.250000     16.000000
  0.187500  0.437500  0.250000     16.000000
  0.250000  0.437500  0.250000     16.000000
  0.312500  0.437500  0.250000     16.000000
  0.375000  0.437500  0.250000     16.000000
  0.437500  0.437500  0.250000     16.000000
  0.500000  0.437500  0.250000      8.000000
  0.000000  0.500000  0.250000      4.000000
  0.062500  0.500000  0.250000      8.000000
  0.125000  0.500000  0.250000      8.000000
  0.187500  0.500000  0.250000      8.000000
  0.250000  0.500000  0.250000      8.000000
  0.312500  0.500000  0.250000      8.000000
  0.375000  0.500000  0.250000      8.000000
  0.437500  0.500000  0.250000      8.000000
  0.500000  0.500000  0.250000      4.000000
  0.000000  0.312500  0.312500      4.000000
  0.062500  0.312500  0.312500      8.000000
  0.125000  0.312500  0.312500      8.000000
  0.187500  0.312500  0.312500      8.000000
  0.250000  0.312500  0.312500      8.000000
  0.312500  0.312500  0.312500      8.000000
  0.375000  0.312500  0.312500      8.000000
  0.437500  0.312500  0.312500      8.000000
  0.500000  0.312500  0.312500      4.000000
  0.000000  0.375000  0.312500      8.000000
  0.062500  0.375000  0.312500     16.000000
  0.125000  0.375000  0.312500     16.000000
  0.187500  0.375000  0.312500     16.000000
  0.250000  0.375000  0.312500     16.000000
  0.312500  0.375000  0.312500     16.000000
  0.375000  0.375000  0.312500     16.000000
  0.437500  0.375000  0.312500     16.000000
  0.500000  0.375000  0.312500      8.000000
  0.000000  0.437500  0.312500      8.000000
  0.062500  0.437500  0.312500     16.000000
  0.125000  0.437500  0.312500     16.000000
  0.187500  0.437500  0.312500     16.000000
  0.250000  0.437500  0.312500     16.000000
  0.312500  0.437500  0.312500     16.000000
  0.375000  0.437500  0.312500     16.000000
  0.437500  0.437500  0.312500     16.000000
  0.500000  0.437500  0.312500      8.000000
  0.000000  0.500000  0.312500      4.000000
  0.062500  0.500000  0.312500      8.000000
  0.125000  0.500000  0.312500      8.000000
  0.187500  0.500000  0.312500      8.000000
  0.250000  0.500000  0.312500      8.000000
  0.312500  0.500000  0.312500      8.000000
  0.375000  0.500000  0.312500      8.000000
  0.437500  0.500000  0.312500      8.000000
  0.500000  0.500000  0.312500      4.000000
  0.000000  0.375000  0.375000      4.000000
  0.062500  0.375000  0.375000      8.000000
  0.125000  0.375000  0.375000      8.000000
  0.187500  0.375000  0.375000      8.000000
  0.250000  0.375000  0.375000      8.000000
  0.312500  0.375000  0.375000      8.000000
  0.375000  0.375000  0.375000      8.000000
  0.437500  0.375000  0.375000      8.000000
  0.500000  0.375000  0.375000      4.000000
  0.000000  0.437500  0.375000      8.000000
  0.062500  0.437500  0.375000     16.000000
  0.125000  0.437500  0.375000     16.000000
  0.187500  0.437500  0.375000     16.000000
  0.250000  0.437500  0.375000     16.000000
  0.312500  0.437500  0.375000     16.000000
  0.375000  0.437500  0.375000     16.000000
  0.437500  0.437500  0.375000     16.000000
  0.500000  0.437500  0.375000      8.000000
  0.000000  0.500000  0.375000      4.000000
  0.062500  0.500000  0.375000      8.000000
  0.125000  0.500000  0.375000      8.000000
  0.187500  0.500000  0.375000      8.000000
  0.250000  0.500000  0.375000      8.000000
  0.312500  0.500000  0.375000      8.000000
  0.375000  0.500000  0.375000      8.000000
  0.437500  0.500000  0.375000      8.000000
  0.500000  0.500000  0.375000      4.000000
  0.000000  0.437500  0.437500      4.000000
  0.062500  0.437500  0.437500      8.000000
  0.125000  0.437500  0.437500      8.000000
  0.187500  0.437500  0.437500      8.000000
  0.250000  0.437500  0.437500      8.000000
  0.312500  0.437500  0.437500      8.000000
  0.375000  0.437500  0.437500      8.000000
  0.437500  0.437500  0.437500      8.000000
  0.500000  0.437500  0.437500      4.000000
  0.000000  0.500000  0.437500      4.000000
  0.062500  0.500000  0.437500      8.000000
  0.125000  0.500000  0.437500      8.000000
  0.187500  0.500000  0.437500      8.000000
  0.250000  0.500000  0.437500      8.000000
  0.312500  0.500000  0.437500      8.000000
  0.375000  0.500000  0.437500      8.000000
  0.437500  0.500000  0.437500      8.000000
  0.500000  0.500000  0.437500      4.000000
  0.000000  0.500000  0.500000      1.000000
  0.062500  0.500000  0.500000      2.000000
  0.125000  0.500000  0.500000      2.000000
  0.187500  0.500000  0.500000      2.000000
  0.250000  0.500000  0.500000      2.000000
  0.312500  0.500000  0.500000      2.000000
  0.375000  0.500000  0.500000      2.000000
  0.437500  0.500000  0.500000      2.000000
  0.500000  0.500000  0.500000      1.000000
 
 Following cartesian coordinates:
            Coordinates               Weight
  0.000000  0.000000  0.000000      1.000000
  0.007132  0.000000  0.000000      2.000000
  0.014265  0.000000  0.000000      2.000000
  0.021397  0.000000  0.000000      2.000000
  0.028529  0.000000  0.000000      2.000000
  0.035661  0.000000  0.000000      2.000000
  0.042794  0.000000  0.000000      2.000000
  0.049926  0.000000  0.000000      2.000000
  0.057058  0.000000  0.000000      1.000000
  0.000000  0.007132  0.000000      4.000000
  0.007132  0.007132  0.000000      8.000000
  0.014265  0.007132  0.000000      8.000000
  0.021397  0.007132  0.000000      8.000000
  0.028529  0.007132  0.000000      8.000000
  0.035661  0.007132  0.000000      8.000000
  0.042794  0.007132  0.000000      8.000000
  0.049926  0.007132  0.000000      8.000000
  0.057058  0.007132  0.000000      4.000000
  0.000000  0.014265  0.000000      4.000000
  0.007132  0.014265  0.000000      8.000000
  0.014265  0.014265  0.000000      8.000000
  0.021397  0.014265  0.000000      8.000000
  0.028529  0.014265  0.000000      8.000000
  0.035661  0.014265  0.000000      8.000000
  0.042794  0.014265  0.000000      8.000000
  0.049926  0.014265  0.000000      8.000000
  0.057058  0.014265  0.000000      4.000000
  0.000000  0.021397  0.000000      4.000000
  0.007132  0.021397  0.000000      8.000000
  0.014265  0.021397  0.000000      8.000000
  0.021397  0.021397  0.000000      8.000000
  0.028529  0.021397  0.000000      8.000000
  0.035661  0.021397  0.000000      8.000000
  0.042794  0.021397  0.000000      8.000000
  0.049926  0.021397  0.000000      8.000000
  0.057058  0.021397  0.000000      4.000000
  0.000000  0.028529  0.000000      4.000000
  0.007132  0.028529  0.000000      8.000000
  0.014265  0.028529  0.000000      8.000000
  0.021397  0.028529  0.000000      8.000000
  0.028529  0.028529  0.000000      8.000000
  0.035661  0.028529  0.000000      8.000000
  0.042794  0.028529  0.000000      8.000000
  0.049926  0.028529  0.000000      8.000000
  0.057058  0.028529  0.000000      4.000000
  0.000000  0.035661  0.000000      4.000000
  0.007132  0.035661  0.000000      8.000000
  0.014265  0.035661  0.000000      8.000000
  0.021397  0.035661  0.000000      8.000000
  0.028529  0.035661  0.000000      8.000000
  0.035661  0.035661  0.000000      8.000000
  0.042794  0.035661  0.000000      8.000000
  0.049926  0.035661  0.000000      8.000000
  0.057058  0.035661  0.000000      4.000000
  0.000000  0.042794  0.000000      4.000000
  0.007132  0.042794  0.000000      8.000000
  0.014265  0.042794  0.000000      8.000000
  0.021397  0.042794  0.000000      8.000000
  0.028529  0.042794  0.000000      8.000000
  0.035661  0.042794  0.000000      8.000000
  0.042794  0.042794  0.000000      8.000000
  0.049926  0.042794  0.000000      8.000000
  0.057058  0.042794  0.000000      4.000000
  0.000000  0.049926  0.000000      4.000000
  0.007132  0.049926  0.000000      8.000000
  0.014265  0.049926  0.000000      8.000000
  0.021397  0.049926  0.000000      8.000000
  0.028529  0.049926  0.000000      8.000000
  0.035661  0.049926  0.000000      8.000000
  0.042794  0.049926  0.000000      8.000000
  0.049926  0.049926  0.000000      8.000000
  0.057058  0.049926  0.000000      4.000000
  0.000000  0.057058  0.000000      2.000000
  0.007132  0.057058  0.000000      4.000000
  0.014265  0.057058  0.000000      4.000000
  0.021397  0.057058  0.000000      4.000000
  0.028529  0.057058  0.000000      4.000000
  0.035661  0.057058  0.000000      4.000000
  0.042794  0.057058  0.000000      4.000000
  0.049926  0.057058  0.000000      4.000000
  0.057058  0.057058  0.000000      2.000000
  0.000000  0.007132  0.007132      4.000000
  0.007132  0.007132  0.007132      8.000000
  0.014265  0.007132  0.007132      8.000000
  0.021397  0.007132  0.007132      8.000000
  0.028529  0.007132  0.007132      8.000000
  0.035661  0.007132  0.007132      8.000000
  0.042794  0.007132  0.007132      8.000000
  0.049926  0.007132  0.007132      8.000000
  0.057058  0.007132  0.007132      4.000000
  0.000000  0.014265  0.007132      8.000000
  0.007132  0.014265  0.007132     16.000000
  0.014265  0.014265  0.007132     16.000000
  0.021397  0.014265  0.007132     16.000000
  0.028529  0.014265  0.007132     16.000000
  0.035661  0.014265  0.007132     16.000000
  0.042794  0.014265  0.007132     16.000000
  0.049926  0.014265  0.007132     16.000000
  0.057058  0.014265  0.007132      8.000000
  0.000000  0.021397  0.007132      8.000000
  0.007132  0.021397  0.007132     16.000000
  0.014265  0.021397  0.007132     16.000000
  0.021397  0.021397  0.007132     16.000000
  0.028529  0.021397  0.007132     16.000000
  0.035661  0.021397  0.007132     16.000000
  0.042794  0.021397  0.007132     16.000000
  0.049926  0.021397  0.007132     16.000000
  0.057058  0.021397  0.007132      8.000000
  0.000000  0.028529  0.007132      8.000000
  0.007132  0.028529  0.007132     16.000000
  0.014265  0.028529  0.007132     16.000000
  0.021397  0.028529  0.007132     16.000000
  0.028529  0.028529  0.007132     16.000000
  0.035661  0.028529  0.007132     16.000000
  0.042794  0.028529  0.007132     16.000000
  0.049926  0.028529  0.007132     16.000000
  0.057058  0.028529  0.007132      8.000000
  0.000000  0.035661  0.007132      8.000000
  0.007132  0.035661  0.007132     16.000000
  0.014265  0.035661  0.007132     16.000000
  0.021397  0.035661  0.007132     16.000000
  0.028529  0.035661  0.007132     16.000000
  0.035661  0.035661  0.007132     16.000000
  0.042794  0.035661  0.007132     16.000000
  0.049926  0.035661  0.007132     16.000000
  0.057058  0.035661  0.007132      8.000000
  0.000000  0.042794  0.007132      8.000000
  0.007132  0.042794  0.007132     16.000000
  0.014265  0.042794  0.007132     16.000000
  0.021397  0.042794  0.007132     16.000000
  0.028529  0.042794  0.007132     16.000000
  0.035661  0.042794  0.007132     16.000000
  0.042794  0.042794  0.007132     16.000000
  0.049926  0.042794  0.007132     16.000000
  0.057058  0.042794  0.007132      8.000000
  0.000000  0.049926  0.007132      8.000000
  0.007132  0.049926  0.007132     16.000000
  0.014265  0.049926  0.007132     16.000000
  0.021397  0.049926  0.007132     16.000000
  0.028529  0.049926  0.007132     16.000000
  0.035661  0.049926  0.007132     16.000000
  0.042794  0.049926  0.007132     16.000000
  0.049926  0.049926  0.007132     16.000000
  0.057058  0.049926  0.007132      8.000000
  0.000000  0.057058  0.007132      4.000000
  0.007132  0.057058  0.007132      8.000000
  0.014265  0.057058  0.007132      8.000000
  0.021397  0.057058  0.007132      8.000000
  0.028529  0.057058  0.007132      8.000000
  0.035661  0.057058  0.007132      8.000000
  0.042794  0.057058  0.007132      8.000000
  0.049926  0.057058  0.007132      8.000000
  0.057058  0.057058  0.007132      4.000000
  0.000000  0.014265  0.014265      4.000000
  0.007132  0.014265  0.014265      8.000000
  0.014265  0.014265  0.014265      8.000000
  0.021397  0.014265  0.014265      8.000000
  0.028529  0.014265  0.014265      8.000000
  0.035661  0.014265  0.014265      8.000000
  0.042794  0.014265  0.014265      8.000000
  0.049926  0.014265  0.014265      8.000000
  0.057058  0.014265  0.014265      4.000000
  0.000000  0.021397  0.014265      8.000000
  0.007132  0.021397  0.014265     16.000000
  0.014265  0.021397  0.014265     16.000000
  0.021397  0.021397  0.014265     16.000000
  0.028529  0.021397  0.014265     16.000000
  0.035661  0.021397  0.014265     16.000000
  0.042794  0.021397  0.014265     16.000000
  0.049926  0.021397  0.014265     16.000000
  0.057058  0.021397  0.014265      8.000000
  0.000000  0.028529  0.014265      8.000000
  0.007132  0.028529  0.014265     16.000000
  0.014265  0.028529  0.014265     16.000000
  0.021397  0.028529  0.014265     16.000000
  0.028529  0.028529  0.014265     16.000000
  0.035661  0.028529  0.014265     16.000000
  0.042794  0.028529  0.014265     16.000000
  0.049926  0.028529  0.014265     16.000000
  0.057058  0.028529  0.014265      8.000000
  0.000000  0.035661  0.014265      8.000000
  0.007132  0.035661  0.014265     16.000000
  0.014265  0.035661  0.014265     16.000000
  0.021397  0.035661  0.014265     16.000000
  0.028529  0.035661  0.014265     16.000000
  0.035661  0.035661  0.014265     16.000000
  0.042794  0.035661  0.014265     16.000000
  0.049926  0.035661  0.014265     16.000000
  0.057058  0.035661  0.014265      8.000000
  0.000000  0.042794  0.014265      8.000000
  0.007132  0.042794  0.014265     16.000000
  0.014265  0.042794  0.014265     16.000000
  0.021397  0.042794  0.014265     16.000000
  0.028529  0.042794  0.014265     16.000000
  0.035661  0.042794  0.014265     16.000000
  0.042794  0.042794  0.014265     16.000000
  0.049926  0.042794  0.014265     16.000000
  0.057058  0.042794  0.014265      8.000000
  0.000000  0.049926  0.014265      8.000000
  0.007132  0.049926  0.014265     16.000000
  0.014265  0.049926  0.014265     16.000000
  0.021397  0.049926  0.014265     16.000000
  0.028529  0.049926  0.014265     16.000000
  0.035661  0.049926  0.014265     16.000000
  0.042794  0.049926  0.014265     16.000000
  0.049926  0.049926  0.014265     16.000000
  0.057058  0.049926  0.014265      8.000000
  0.000000  0.057058  0.014265      4.000000
  0.007132  0.057058  0.014265      8.000000
  0.014265  0.057058  0.014265      8.000000
  0.021397  0.057058  0.014265      8.000000
  0.028529  0.057058  0.014265      8.000000
  0.035661  0.057058  0.014265      8.000000
  0.042794  0.057058  0.014265      8.000000
  0.049926  0.057058  0.014265      8.000000
  0.057058  0.057058  0.014265      4.000000
  0.000000  0.021397  0.021397      4.000000
  0.007132  0.021397  0.021397      8.000000
  0.014265  0.021397  0.021397      8.000000
  0.021397  0.021397  0.021397      8.000000
  0.028529  0.021397  0.021397      8.000000
  0.035661  0.021397  0.021397      8.000000
  0.042794  0.021397  0.021397      8.000000
  0.049926  0.021397  0.021397      8.000000
  0.057058  0.021397  0.021397      4.000000
  0.000000  0.028529  0.021397      8.000000
  0.007132  0.028529  0.021397     16.000000
  0.014265  0.028529  0.021397     16.000000
  0.021397  0.028529  0.021397     16.000000
  0.028529  0.028529  0.021397     16.000000
  0.035661  0.028529  0.021397     16.000000
  0.042794  0.028529  0.021397     16.000000
  0.049926  0.028529  0.021397     16.000000
  0.057058  0.028529  0.021397      8.000000
  0.000000  0.035661  0.021397      8.000000
  0.007132  0.035661  0.021397     16.000000
  0.014265  0.035661  0.021397     16.000000
  0.021397  0.035661  0.021397     16.000000
  0.028529  0.035661  0.021397     16.000000
  0.035661  0.035661  0.021397     16.000000
  0.042794  0.035661  0.021397     16.000000
  0.049926  0.035661  0.021397     16.000000
  0.057058  0.035661  0.021397      8.000000
  0.000000  0.042794  0.021397      8.000000
  0.007132  0.042794  0.021397     16.000000
  0.014265  0.042794  0.021397     16.000000
  0.021397  0.042794  0.021397     16.000000
  0.028529  0.042794  0.021397     16.000000
  0.035661  0.042794  0.021397     16.000000
  0.042794  0.042794  0.021397     16.000000
  0.049926  0.042794  0.021397     16.000000
  0.057058  0.042794  0.021397      8.000000
  0.000000  0.049926  0.021397      8.000000
  0.007132  0.049926  0.021397     16.000000
  0.014265  0.049926  0.021397     16.000000
  0.021397  0.049926  0.021397     16.000000
  0.028529  0.049926  0.021397     16.000000
  0.035661  0.049926  0.021397     16.000000
  0.042794  0.049926  0.021397     16.000000
  0.049926  0.049926  0.021397     16.000000
  0.057058  0.049926  0.021397      8.000000
  0.000000  0.057058  0.021397      4.000000
  0.007132  0.057058  0.021397      8.000000
  0.014265  0.057058  0.021397      8.000000
  0.021397  0.057058  0.021397      8.000000
  0.028529  0.057058  0.021397      8.000000
  0.035661  0.057058  0.021397      8.000000
  0.042794  0.057058  0.021397      8.000000
  0.049926  0.057058  0.021397      8.000000
  0.057058  0.057058  0.021397      4.000000
  0.000000  0.028529  0.028529      4.000000
  0.007132  0.028529  0.028529      8.000000
  0.014265  0.028529  0.028529      8.000000
  0.021397  0.028529  0.028529      8.000000
  0.028529  0.028529  0.028529      8.000000
  0.035661  0.028529  0.028529      8.000000
  0.042794  0.028529  0.028529      8.000000
  0.049926  0.028529  0.028529      8.000000
  0.057058  0.028529  0.028529      4.000000
  0.000000  0.035661  0.028529      8.000000
  0.007132  0.035661  0.028529     16.000000
  0.014265  0.035661  0.028529     16.000000
  0.021397  0.035661  0.028529     16.000000
  0.028529  0.035661  0.028529     16.000000
  0.035661  0.035661  0.028529     16.000000
  0.042794  0.035661  0.028529     16.000000
  0.049926  0.035661  0.028529     16.000000
  0.057058  0.035661  0.028529      8.000000
  0.000000  0.042794  0.028529      8.000000
  0.007132  0.042794  0.028529     16.000000
  0.014265  0.042794  0.028529     16.000000
  0.021397  0.042794  0.028529     16.000000
  0.028529  0.042794  0.028529     16.000000
  0.035661  0.042794  0.028529     16.000000
  0.042794  0.042794  0.028529     16.000000
  0.049926  0.042794  0.028529     16.000000
  0.057058  0.042794  0.028529      8.000000
  0.000000  0.049926  0.028529      8.000000
  0.007132  0.049926  0.028529     16.000000
  0.014265  0.049926  0.028529     16.000000
  0.021397  0.049926  0.028529     16.000000
  0.028529  0.049926  0.028529     16.000000
  0.035661  0.049926  0.028529     16.000000
  0.042794  0.049926  0.028529     16.000000
  0.049926  0.049926  0.028529     16.000000
  0.057058  0.049926  0.028529      8.000000
  0.000000  0.057058  0.028529      4.000000
  0.007132  0.057058  0.028529      8.000000
  0.014265  0.057058  0.028529      8.000000
  0.021397  0.057058  0.028529      8.000000
  0.028529  0.057058  0.028529      8.000000
  0.035661  0.057058  0.028529      8.000000
  0.042794  0.057058  0.028529      8.000000
  0.049926  0.057058  0.028529      8.000000
  0.057058  0.057058  0.028529      4.000000
  0.000000  0.035661  0.035661      4.000000
  0.007132  0.035661  0.035661      8.000000
  0.014265  0.035661  0.035661      8.000000
  0.021397  0.035661  0.035661      8.000000
  0.028529  0.035661  0.035661      8.000000
  0.035661  0.035661  0.035661      8.000000
  0.042794  0.035661  0.035661      8.000000
  0.049926  0.035661  0.035661      8.000000
  0.057058  0.035661  0.035661      4.000000
  0.000000  0.042794  0.035661      8.000000
  0.007132  0.042794  0.035661     16.000000
  0.014265  0.042794  0.035661     16.000000
  0.021397  0.042794  0.035661     16.000000
  0.028529  0.042794  0.035661     16.000000
  0.035661  0.042794  0.035661     16.000000
  0.042794  0.042794  0.035661     16.000000
  0.049926  0.042794  0.035661     16.000000
  0.057058  0.042794  0.035661      8.000000
  0.000000  0.049926  0.035661      8.000000
  0.007132  0.049926  0.035661     16.000000
  0.014265  0.049926  0.035661     16.000000
  0.021397  0.049926  0.035661     16.000000
  0.028529  0.049926  0.035661     16.000000
  0.035661  0.049926  0.035661     16.000000
  0.042794  0.049926  0.035661     16.000000
  0.049926  0.049926  0.035661     16.000000
  0.057058  0.049926  0.035661      8.000000
  0.000000  0.057058  0.035661      4.000000
  0.007132  0.057058  0.035661      8.000000
  0.014265  0.057058  0.035661      8.000000
  0.021397  0.057058  0.035661      8.000000
  0.028529  0.057058  0.035661      8.000000
  0.035661  0.057058  0.035661      8.000000
  0.042794  0.057058  0.035661      8.000000
  0.049926  0.057058  0.035661      8.000000
  0.057058  0.057058  0.035661      4.000000
  0.000000  0.042794  0.042794      4.000000
  0.007132  0.042794  0.042794      8.000000
  0.014265  0.042794  0.042794      8.000000
  0.021397  0.042794  0.042794      8.000000
  0.028529  0.042794  0.042794      8.000000
  0.035661  0.042794  0.042794      8.000000
  0.042794  0.042794  0.042794      8.000000
  0.049926  0.042794  0.042794      8.000000
  0.057058  0.042794  0.042794      4.000000
  0.000000  0.049926  0.042794      8.000000
  0.007132  0.049926  0.042794     16.000000
  0.014265  0.049926  0.042794     16.000000
  0.021397  0.049926  0.042794     16.000000
  0.028529  0.049926  0.042794     16.000000
  0.035661  0.049926  0.042794     16.000000
  0.042794  0.049926  0.042794     16.000000
  0.049926  0.049926  0.042794     16.000000
  0.057058  0.049926  0.042794      8.000000
  0.000000  0.057058  0.042794      4.000000
  0.007132  0.057058  0.042794      8.000000
  0.014265  0.057058  0.042794      8.000000
  0.021397  0.057058  0.042794      8.000000
  0.028529  0.057058  0.042794      8.000000
  0.035661  0.057058  0.042794      8.000000
  0.042794  0.057058  0.042794      8.000000
  0.049926  0.057058  0.042794      8.000000
  0.057058  0.057058  0.042794      4.000000
  0.000000  0.049926  0.049926      4.000000
  0.007132  0.049926  0.049926      8.000000
  0.014265  0.049926  0.049926      8.000000
  0.021397  0.049926  0.049926      8.000000
  0.028529  0.049926  0.049926      8.000000
  0.035661  0.049926  0.049926      8.000000
  0.042794  0.049926  0.049926      8.000000
  0.049926  0.049926  0.049926      8.000000
  0.057058  0.049926  0.049926      4.000000
  0.000000  0.057058  0.049926      4.000000
  0.007132  0.057058  0.049926      8.000000
  0.014265  0.057058  0.049926      8.000000
  0.021397  0.057058  0.049926      8.000000
  0.028529  0.057058  0.049926      8.000000
  0.035661  0.057058  0.049926      8.000000
  0.042794  0.057058  0.049926      8.000000
  0.049926  0.057058  0.049926      8.000000
  0.057058  0.057058  0.049926      4.000000
  0.000000  0.057058  0.057058      1.000000
  0.007132  0.057058  0.057058      2.000000
  0.014265  0.057058  0.057058      2.000000
  0.021397  0.057058  0.057058      2.000000
  0.028529  0.057058  0.057058      2.000000
  0.035661  0.057058  0.057058      2.000000
  0.042794  0.057058  0.057058      2.000000
  0.049926  0.057058  0.057058      2.000000
  0.057058  0.057058  0.057058      1.000000
 


--------------------------------------------------------------------------------------------------------




 Dimension of arrays:
   k-Points           NKPTS =    405   number of bands    NBANDS=    216
   number of dos      NEDOS =    301   number of ions     NIONS =     32
   non local maximal  LDIM  =      6   non local SUM 2l+1 LMDIM =     18
   total plane-waves  NPLWV = 592704
   max r-space proj   IRMAX =      1   max aug-charges    IRDMAX= 431062
   dimension x,y,z NGX =    84 NGY =   84 NGZ =   84
   dimension x,y,z NGXF=   168 NGYF=  168 NGZF=  168
   support grid    NGXF=   336 NGYF=  336 NGZF=  336
   ions per type =              32
 NGX,Y,Z   is equivalent  to a cutoff of  15.94, 15.94, 15.94 a.u.
 NGXF,Y,Z  is equivalent  to a cutoff of  31.87, 31.87, 31.87 a.u.


 I would recommend the setting:
   dimension x,y,z NGX =    81 NGY =   81 NGZ =   81
 SYSTEM =  unknown system                          
 POSCAR =  Au                                      

 Startparameter for this run:
   NWRITE =      2    write-flag & timer
   PREC   = accura    medium, high low
   ISTART =      0    job   : 0-new  1-cont  2-samecut
   ICHARG =      2    charge: 1-file 2-atom 10-const
   ISPIN  =      1    spin polarized calculation?
   LNONCOLLINEAR =      F non collinear calculations
   LSORBIT =      F    spin-orbit coupling
   INIWAV =      1    electr: 0-lowe 1-rand  2-diag
   LASPH  =      F    aspherical Exc in radial PAW
   METAGGA=      F    non-selfconsistent MetaGGA calc.

 Electronic Relaxation 1
   ENCUT  =  800.0 eV  58.80 Ry    7.67 a.u.  20.21 20.21 20.21*2*pi/ulx,y,z
   ENINI  =  800.0     initial cutoff
   ENAUG  =  356.7 eV  augmentation charge cutoff
   NELM   =     60;   NELMIN=  2; NELMDL= -5     # of ELM steps 
   EDIFF  = 0.1E-07   stopping-criterion for ELM
   LREAL  =      F    real-space projection
   LCOMPAT=      F    compatible to vasp.4.4
   LREAL_COMPAT= F    compatible to vasp.4.5.1-3
   GGA_COMPAT  = T    GGA compatible to vasp.4.4-vasp.4.6
   LMAXPAW     = -100 max onsite density
   LMAXMIX     =    2 max onsite mixed and CHGCAR
   VOSKOWN=      0    Vosko Wilk Nusair interpolation
   ROPT   =    0.00000
 Ionic relaxation
   EDIFFG = 0.1E-06   stopping-criterion for IOM
   NSW    =      0    number of steps for IOM
   NBLOCK =      1;   KBLOCK =      1    inner block; outer block 
   IBRION =     -1    ionic relax: 0-MD 1-quasi-New 2-CG
   NFREE  =      0    steps in history (QN), initial steepest desc. (CG)
   ISIF   =      2    stress and relaxation
   IWAVPR =     10    prediction:  0-non 1-charg 2-wave 3-comb
   ISYM   =      2    0-nonsym 1-usesym 2-fastsym
   LCORR  =      T    Harris-Foulkes like correction to forces

   POTIM  =   0.50    time-step for ionic-motion
   TEIN   =    0.0    initial temperature
   TEBEG  =    0.0;   TEEND  =   0.0 temperature during run
   SMASS  =  -3.00    Nose mass-parameter (am)
   estimated Nose-frequenzy (Omega)   =  0.10E-29 period in steps =****** mass=  -0.175E-26a.u.
   NPACO  =    256;   APACO  = 16.0  distance and # of slots for P.C.
   PSTRESS=    0.0 pullay stress

  Mass of Ions in am
   POMASS = 196.97
  Ionic Valenz
   ZVAL   =  11.00
  Atomic Wigner-Seitz radii
   RWIGS  =  -1.00
   NELECT =     352.0000    total number of electrons
   NUPDOWN=      -1.0000    fix difference up-down

 DOS related values:
   EMIN   =  10.00;   EMAX   =-10.00  energy-range for DOS
   ISMEAR =     0;   SIGMA  =   0.01  broadening in eV -4-tet -1-fermi 0-gaus

 Electronic relaxation 2 (details)
   IALGO  =     38    algorithm
   LDIAG  =      T    sub-space diagonalisation
   IMIX   =      4    mixing-type and parameters
     AMIX     =   0.40;   BMIX     =  1.00
     AMIX_MAG =   1.60;   BMIX_MAG =  1.00
     AMIN     =   0.10
     WC   =   100.;   INIMIX=   1;  MIXPRE=   1

 Intra band minimization:
   WEIMIN = 0.0000     energy-eigenvalue tresh-hold
   EBREAK =  0.12E-10  absolut break condition
   DEPER  =   0.30     relativ break condition  

   TIME   =   0.10     timestep for ELM

  volume/ion in A,a.u.               =      21.03       141.91
  Fermi-wavevector in a.u.,eV,Ry     =   1.319077 23.673646  1.739964

 Second variation
   LSECVAR=     F    do a second variation
 
 Write flags
   LWAVE  =      F    write WAVECAR
   LCHARG =      F    write CHGCAR
   LVTOT  =      F    write LOCPOT, local potential
   LELF   =      F    write electronic localiz. function (ELF)
   LORBIT =      0    0 simple, 1 ext, 2 COOP (PROOUT)


 Dipole corrections
   IDIPOL =      0    1-x, 2-y, 3-z
   LDIPOL =      F    correct potential



--------------------------------------------------------------------------------------------------------


 Static calculation
 charge density will be updated during run
 non-spin polarized calculation
 Variant of blocked Davidson
 Davidson routine will perform the subspace rotation
 performe sub-space diagonalisation
    after iterative eigenvector-optimisation
 modified Broyden-mixing scheme, WC =      100.0
 initial mixing is a Kerker type mixing with AMIX =  0.4000 and BMIX =      1.0000
 Hartree-type preconditioning will be used
 using additional bands           40
 reciprocal scheme for non local part
 use partial core corrections
 calculate Harris-corrections to forces 
   (improved forces if not selfconsistent)
 use gradient corrections 
 use of overlap-Matrix (Vanderbilt PP)
 Gauss-broadening in eV      SIGMA  =   0.01


--------------------------------------------------------------------------------------------------------


  energy-cutoff  :      800.00
  volume of cell :      672.91
      direct lattice vectors                 reciprocal lattice vectors
     8.762988995  0.000000000  0.000000000     0.114116314  0.000000000  0.000000000
     0.000000000  8.762988995  0.000000000     0.000000000  0.114116314  0.000000000
     0.000000000  0.000000000  8.762988995     0.000000000  0.000000000  0.114116314

  length of vectors
     8.762988995  8.762988995  8.762988995     0.114116314  0.114116314  0.114116314


 
 k-points in units of 2pi/SCALE and weight: Automatic mesh                          
   0.00000000  0.00000000  0.00000000       0.000
   0.00713227  0.00000000  0.00000000       0.000
   0.01426454  0.00000000  0.00000000       0.000
   0.02139681  0.00000000  0.00000000       0.000
   0.02852908  0.00000000  0.00000000       0.000
   0.03566135  0.00000000  0.00000000       0.000
   0.04279362  0.00000000  0.00000000       0.000
   0.04992589  0.00000000  0.00000000       0.000
   0.05705816  0.00000000  0.00000000       0.000
   0.00000000  0.00713227  0.00000000       0.001
   0.00713227  0.00713227  0.00000000       0.002
   0.01426454  0.00713227  0.00000000       0.002
   0.02139681  0.00713227  0.00000000       0.002
   0.02852908  0.00713227  0.00000000       0.002
   0.03566135  0.00713227  0.00000000       0.002
   0.04279362  0.00713227  0.00000000       0.002
   0.04992589  0.00713227  0.00000000       0.002
   0.05705816  0.00713227  0.00000000       0.001
   0.00000000  0.01426454  0.00000000       0.001
   0.00713227  0.01426454  0.00000000       0.002
   0.01426454  0.01426454  0.00000000       0.002
   0.02139681  0.01426454  0.00000000       0.002
   0.02852908  0.01426454  0.00000000       0.002
   0.03566135  0.01426454  0.00000000       0.002
   0.04279362  0.01426454  0.00000000       0.002
   0.04992589  0.01426454  0.00000000       0.002
   0.05705816  0.01426454  0.00000000       0.001
   0.00000000  0.02139681  0.00000000       0.001
   0.00713227  0.02139681  0.00000000       0.002
   0.01426454  0.02139681  0.00000000       0.002
   0.02139681  0.02139681  0.00000000       0.002
   0.02852908  0.02139681  0.00000000       0.002
   0.03566135  0.02139681  0.00000000       0.002
   0.04279362  0.02139681  0.00000000       0.002
   0.04992589  0.02139681  0.00000000       0.002
   0.05705816  0.02139681  0.00000000       0.001
   0.00000000  0.02852908  0.00000000       0.001
   0.00713227  0.02852908  0.00000000       0.002
   0.01426454  0.02852908  0.00000000       0.002
   0.02139681  0.02852908  0.00000000       0.002
   0.02852908  0.02852908  0.00000000       0.002
   0.03566135  0.02852908  0.00000000       0.002
   0.04279362  0.02852908  0.00000000       0.002
   0.04992589  0.02852908  0.00000000       0.002
   0.05705816  0.02852908  0.00000000       0.001
   0.00000000  0.03566135  0.00000000       0.001
   0.00713227  0.03566135  0.00000000       0.002
   0.01426454  0.03566135  0.00000000       0.002
   0.02139681  0.03566135  0.00000000       0.002
   0.02852908  0.03566135  0.00000000       0.002
   0.03566135  0.03566135  0.00000000       0.002
   0.04279362  0.03566135  0.00000000       0.002
   0.04992589  0.03566135  0.00000000       0.002
   0.05705816  0.03566135  0.00000000       0.001
   0.00000000  0.04279362  0.00000000       0.001
   0.00713227  0.04279362  0.00000000       0.002
   0.01426454  0.04279362  0.00000000       0.002
   0.02139681  0.04279362  0.00000000       0.002
   0.02852908  0.04279362  0.00000000       0.002
   0.03566135  0.04279362  0.00000000       0.002
   0.04279362  0.04279362  0.00000000       0.002
   0.04992589  0.04279362  0.00000000       0.002
   0.05705816  0.04279362  0.00000000       0.001
   0.00000000  0.04992589  0.00000000       0.001
   0.00713227  0.04992589  0.00000000       0.002
   0.01426454  0.04992589  0.00000000       0.002
   0.02139681  0.04992589  0.00000000       0.002
   0.02852908  0.04992589  0.00000000       0.002
   0.03566135  0.04992589  0.00000000       0.002
   0.04279362  0.04992589  0.00000000       0.002
   0.04992589  0.04992589  0.00000000       0.002
   0.05705816  0.04992589  0.00000000       0.001
   0.00000000  0.05705816  0.00000000       0.000
   0.00713227  0.05705816  0.00000000       0.001
   0.01426454  0.05705816  0.00000000       0.001
   0.02139681  0.05705816  0.00000000       0.001
   0.02852908  0.05705816  0.00000000       0.001
   0.03566135  0.05705816  0.00000000       0.001
   0.04279362  0.05705816  0.00000000       0.001
   0.04992589  0.05705816  0.00000000       0.001
   0.05705816  0.05705816  0.00000000       0.000
   0.00000000  0.00713227  0.00713227       0.001
   0.00713227  0.00713227  0.00713227       0.002
   0.01426454  0.00713227  0.00713227       0.002
   0.02139681  0.00713227  0.00713227       0.002
   0.02852908  0.00713227  0.00713227       0.002
   0.03566135  0.00713227  0.00713227       0.002
   0.04279362  0.00713227  0.00713227       0.002
   0.04992589  0.00713227  0.00713227       0.002
   0.05705816  0.00713227  0.00713227       0.001
   0.00000000  0.01426454  0.00713227       0.002
   0.00713227  0.01426454  0.00713227       0.004
   0.01426454  0.01426454  0.00713227       0.004
   0.02139681  0.01426454  0.00713227       0.004
   0.02852908  0.01426454  0.00713227       0.004
   0.03566135  0.01426454  0.00713227       0.004
   0.04279362  0.01426454  0.00713227       0.004
   0.04992589  0.01426454  0.00713227       0.004
   0.05705816  0.01426454  0.00713227       0.002
   0.00000000  0.02139681  0.00713227       0.002
   0.00713227  0.02139681  0.00713227       0.004
   0.01426454  0.02139681  0.00713227       0.004
   0.02139681  0.02139681  0.00713227       0.004
   0.02852908  0.02139681  0.00713227       0.004
   0.03566135  0.02139681  0.00713227       0.004
   0.04279362  0.02139681  0.00713227       0.004
   0.04992589  0.02139681  0.00713227       0.004
   0.05705816  0.02139681  0.00713227       0.002
   0.00000000  0.02852908  0.00713227       0.002
   0.00713227  0.02852908  0.00713227       0.004
   0.01426454  0.02852908  0.00713227       0.004
   0.02139681  0.02852908  0.00713227       0.004
   0.02852908  0.02852908  0.00713227       0.004
   0.03566135  0.02852908  0.00713227       0.004
   0.04279362  0.02852908  0.00713227       0.004
   0.04992589  0.02852908  0.00713227       0.004
   0.05705816  0.02852908  0.00713227       0.002
   0.00000000  0.03566135  0.00713227       0.002
   0.00713227  0.03566135  0.00713227       0.004
   0.01426454  0.03566135  0.00713227       0.004
   0.02139681  0.03566135  0.00713227       0.004
   0.02852908  0.03566135  0.00713227       0.004
   0.03566135  0.03566135  0.00713227       0.004
   0.04279362  0.03566135  0.00713227       0.004
   0.04992589  0.03566135  0.00713227       0.004
   0.05705816  0.03566135  0.00713227       0.002
   0.00000000  0.04279362  0.00713227       0.002
   0.00713227  0.04279362  0.00713227       0.004
   0.01426454  0.04279362  0.00713227       0.004
   0.02139681  0.04279362  0.00713227       0.004
   0.02852908  0.04279362  0.00713227       0.004
   0.03566135  0.04279362  0.00713227       0.004
   0.04279362  0.04279362  0.00713227       0.004
   0.04992589  0.04279362  0.00713227       0.004
   0.05705816  0.04279362  0.00713227       0.002
   0.00000000  0.04992589  0.00713227       0.002
   0.00713227  0.04992589  0.00713227       0.004
   0.01426454  0.04992589  0.00713227       0.004
   0.02139681  0.04992589  0.00713227       0.004
   0.02852908  0.04992589  0.00713227       0.004
   0.03566135  0.04992589  0.00713227       0.004
   0.04279362  0.04992589  0.00713227       0.004
   0.04992589  0.04992589  0.00713227       0.004
   0.05705816  0.04992589  0.00713227       0.002
   0.00000000  0.05705816  0.00713227       0.001
   0.00713227  0.05705816  0.00713227       0.002
   0.01426454  0.05705816  0.00713227       0.002
   0.02139681  0.05705816  0.00713227       0.002
   0.02852908  0.05705816  0.00713227       0.002
   0.03566135  0.05705816  0.00713227       0.002
   0.04279362  0.05705816  0.00713227       0.002
   0.04992589  0.05705816  0.00713227       0.002
   0.05705816  0.05705816  0.00713227       0.001
   0.00000000  0.01426454  0.01426454       0.001
   0.00713227  0.01426454  0.01426454       0.002
   0.01426454  0.01426454  0.01426454       0.002
   0.02139681  0.01426454  0.01426454       0.002
   0.02852908  0.01426454  0.01426454       0.002
   0.03566135  0.01426454  0.01426454       0.002
   0.04279362  0.01426454  0.01426454       0.002
   0.04992589  0.01426454  0.01426454       0.002
   0.05705816  0.01426454  0.01426454       0.001
   0.00000000  0.02139681  0.01426454       0.002
   0.00713227  0.02139681  0.01426454       0.004
   0.01426454  0.02139681  0.01426454       0.004
   0.02139681  0.02139681  0.01426454       0.004
   0.02852908  0.02139681  0.01426454       0.004
   0.03566135  0.02139681  0.01426454       0.004
   0.04279362  0.02139681  0.01426454       0.004
   0.04992589  0.02139681  0.01426454       0.004
   0.05705816  0.02139681  0.01426454       0.002
   0.00000000  0.02852908  0.01426454       0.002
   0.00713227  0.02852908  0.01426454       0.004
   0.01426454  0.02852908  0.01426454       0.004
   0.02139681  0.02852908  0.01426454       0.004
   0.02852908  0.02852908  0.01426454       0.004
   0.03566135  0.02852908  0.01426454       0.004
   0.04279362  0.02852908  0.01426454       0.004
   0.04992589  0.02852908  0.01426454       0.004
   0.05705816  0.02852908  0.01426454       0.002
   0.00000000  0.03566135  0.01426454       0.002
   0.00713227  0.03566135  0.01426454       0.004
   0.01426454  0.03566135  0.01426454       0.004
   0.02139681  0.03566135  0.01426454       0.004
   0.02852908  0.03566135  0.01426454       0.004
   0.03566135  0.03566135  0.01426454       0.004
   0.04279362  0.03566135  0.01426454       0.004
   0.04992589  0.03566135  0.01426454       0.004
   0.05705816  0.03566135  0.01426454       0.002
   0.00000000  0.04279362  0.01426454       0.002
   0.00713227  0.04279362  0.01426454       0.004
   0.01426454  0.04279362  0.01426454       0.004
   0.02139681  0.04279362  0.01426454       0.004
   0.02852908  0.04279362  0.01426454       0.004
   0.03566135  0.04279362  0.01426454       0.004
   0.04279362  0.04279362  0.01426454       0.004
   0.04992589  0.04279362  0.01426454       0.004
   0.05705816  0.04279362  0.01426454       0.002
   0.00000000  0.04992589  0.01426454       0.002
   0.00713227  0.04992589  0.01426454       0.004
   0.01426454  0.04992589  0.01426454       0.004
   0.02139681  0.04992589  0.01426454       0.004
   0.02852908  0.04992589  0.01426454       0.004
   0.03566135  0.04992589  0.01426454       0.004
   0.04279362  0.04992589  0.01426454       0.004
   0.04992589  0.04992589  0.01426454       0.004
   0.05705816  0.04992589  0.01426454       0.002
   0.00000000  0.05705816  0.01426454       0.001
   0.00713227  0.05705816  0.01426454       0.002
   0.01426454  0.05705816  0.01426454       0.002
   0.02139681  0.05705816  0.01426454       0.002
   0.02852908  0.05705816  0.01426454       0.002
   0.03566135  0.05705816  0.01426454       0.002
   0.04279362  0.05705816  0.01426454       0.002
   0.04992589  0.05705816  0.01426454       0.002
   0.05705816  0.05705816  0.01426454       0.001
   0.00000000  0.02139681  0.02139681       0.001
   0.00713227  0.02139681  0.02139681       0.002
   0.01426454  0.02139681  0.02139681       0.002
   0.02139681  0.02139681  0.02139681       0.002
   0.02852908  0.02139681  0.02139681       0.002
   0.03566135  0.02139681  0.02139681       0.002
   0.04279362  0.02139681  0.02139681       0.002
   0.04992589  0.02139681  0.02139681       0.002
   0.05705816  0.02139681  0.02139681       0.001
   0.00000000  0.02852908  0.02139681       0.002
   0.00713227  0.02852908  0.02139681       0.004
   0.01426454  0.02852908  0.02139681       0.004
   0.02139681  0.02852908  0.02139681       0.004
   0.02852908  0.02852908  0.02139681       0.004
   0.03566135  0.02852908  0.02139681       0.004
   0.04279362  0.02852908  0.02139681       0.004
   0.04992589  0.02852908  0.02139681       0.004
   0.05705816  0.02852908  0.02139681       0.002
   0.00000000  0.03566135  0.02139681       0.002
   0.00713227  0.03566135  0.02139681       0.004
   0.01426454  0.03566135  0.02139681       0.004
   0.02139681  0.03566135  0.02139681       0.004
   0.02852908  0.03566135  0.02139681       0.004
   0.03566135  0.03566135  0.02139681       0.004
   0.04279362  0.03566135  0.02139681       0.004
   0.04992589  0.03566135  0.02139681       0.004
   0.05705816  0.03566135  0.02139681       0.002
   0.00000000  0.04279362  0.02139681       0.002
   0.00713227  0.04279362  0.02139681       0.004
   0.01426454  0.04279362  0.02139681       0.004
   0.02139681  0.04279362  0.02139681       0.004
   0.02852908  0.04279362  0.02139681       0.004
   0.03566135  0.04279362  0.02139681       0.004
   0.04279362  0.04279362  0.02139681       0.004
   0.04992589  0.04279362  0.02139681       0.004
   0.05705816  0.04279362  0.02139681       0.002
   0.00000000  0.04992589  0.02139681       0.002
   0.00713227  0.04992589  0.02139681       0.004
   0.01426454  0.04992589  0.02139681       0.004
   0.02139681  0.04992589  0.02139681       0.004
   0.02852908  0.04992589  0.02139681       0.004
   0.03566135  0.04992589  0.02139681       0.004
   0.04279362  0.04992589  0.02139681       0.004
   0.04992589  0.04992589  0.02139681       0.004
   0.05705816  0.04992589  0.02139681       0.002
   0.00000000  0.05705816  0.02139681       0.001
   0.00713227  0.05705816  0.02139681       0.002
   0.01426454  0.05705816  0.02139681       0.002
   0.02139681  0.05705816  0.02139681       0.002
   0.02852908  0.05705816  0.02139681       0.002
   0.03566135  0.05705816  0.02139681       0.002
   0.04279362  0.05705816  0.02139681       0.002
   0.04992589  0.05705816  0.02139681       0.002
   0.05705816  0.05705816  0.02139681       0.001
   0.00000000  0.02852908  0.02852908       0.001
   0.00713227  0.02852908  0.02852908       0.002
   0.01426454  0.02852908  0.02852908       0.002
   0.02139681  0.02852908  0.02852908       0.002
   0.02852908  0.02852908  0.02852908       0.002
   0.03566135  0.02852908  0.02852908       0.002
   0.04279362  0.02852908  0.02852908       0.002
   0.04992589  0.02852908  0.02852908       0.002
   0.05705816  0.02852908  0.02852908       0.001
   0.00000000  0.03566135  0.02852908       0.002
   0.00713227  0.03566135  0.02852908       0.004
   0.01426454  0.03566135  0.02852908       0.004
   0.02139681  0.03566135  0.02852908       0.004
   0.02852908  0.03566135  0.02852908       0.004
   0.03566135  0.03566135  0.02852908       0.004
   0.04279362  0.03566135  0.02852908       0.004
   0.04992589  0.03566135  0.02852908       0.004
   0.05705816  0.03566135  0.02852908       0.002
   0.00000000  0.04279362  0.02852908       0.002
   0.00713227  0.04279362  0.02852908       0.004
   0.01426454  0.04279362  0.02852908       0.004
   0.02139681  0.04279362  0.02852908       0.004
   0.02852908  0.04279362  0.02852908       0.004
   0.03566135  0.04279362  0.02852908       0.004
   0.04279362  0.04279362  0.02852908       0.004
   0.04992589  0.04279362  0.02852908       0.004
   0.05705816  0.04279362  0.02852908       0.002
   0.00000000  0.04992589  0.02852908       0.002
   0.00713227  0.04992589  0.02852908       0.004
   0.01426454  0.04992589  0.02852908       0.004
   0.02139681  0.04992589  0.02852908       0.004
   0.02852908  0.04992589  0.02852908       0.004
   0.03566135  0.04992589  0.02852908       0.004
   0.04279362  0.04992589  0.02852908       0.004
   0.04992589  0.04992589  0.02852908       0.004
   0.05705816  0.04992589  0.02852908       0.002
   0.00000000  0.05705816  0.02852908       0.001
   0.00713227  0.05705816  0.02852908       0.002
   0.01426454  0.05705816  0.02852908       0.002
   0.02139681  0.05705816  0.02852908       0.002
   0.02852908  0.05705816  0.02852908       0.002
   0.03566135  0.05705816  0.02852908       0.002
   0.04279362  0.05705816  0.02852908       0.002
   0.04992589  0.05705816  0.02852908       0.002
   0.05705816  0.05705816  0.02852908       0.001
   0.00000000  0.03566135  0.03566135       0.001
   0.00713227  0.03566135  0.03566135       0.002
   0.01426454  0.03566135  0.03566135       0.002
   0.02139681  0.03566135  0.03566135       0.002
   0.02852908  0.03566135  0.03566135       0.002
   0.03566135  0.03566135  0.03566135       0.002
   0.04279362  0.03566135  0.03566135       0.002
   0.04992589  0.03566135  0.03566135       0.002
   0.05705816  0.03566135  0.03566135       0.001
   0.00000000  0.04279362  0.03566135       0.002
   0.00713227  0.04279362  0.03566135       0.004
   0.01426454  0.04279362  0.03566135       0.004
   0.02139681  0.04279362  0.03566135       0.004
   0.02852908  0.04279362  0.03566135       0.004
   0.03566135  0.04279362  0.03566135       0.004
   0.04279362  0.04279362  0.03566135       0.004
   0.04992589  0.04279362  0.03566135       0.004
   0.05705816  0.04279362  0.03566135       0.002
   0.00000000  0.04992589  0.03566135       0.002
   0.00713227  0.04992589  0.03566135       0.004
   0.01426454  0.04992589  0.03566135       0.004
   0.02139681  0.04992589  0.03566135       0.004
   0.02852908  0.04992589  0.03566135       0.004
   0.03566135  0.04992589  0.03566135       0.004
   0.04279362  0.04992589  0.03566135       0.004
   0.04992589  0.04992589  0.03566135       0.004
   0.05705816  0.04992589  0.03566135       0.002
   0.00000000  0.05705816  0.03566135       0.001
   0.00713227  0.05705816  0.03566135       0.002
   0.01426454  0.05705816  0.03566135       0.002
   0.02139681  0.05705816  0.03566135       0.002
   0.02852908  0.05705816  0.03566135       0.002
   0.03566135  0.05705816  0.03566135       0.002
   0.04279362  0.05705816  0.03566135       0.002
   0.04992589  0.05705816  0.03566135       0.002
   0.05705816  0.05705816  0.03566135       0.001
   0.00000000  0.04279362  0.04279362       0.001
   0.00713227  0.04279362  0.04279362       0.002
   0.01426454  0.04279362  0.04279362       0.002
   0.02139681  0.04279362  0.04279362       0.002
   0.02852908  0.04279362  0.04279362       0.002
   0.03566135  0.04279362  0.04279362       0.002
   0.04279362  0.04279362  0.04279362       0.002
   0.04992589  0.04279362  0.04279362       0.002
   0.05705816  0.04279362  0.04279362       0.001
   0.00000000  0.04992589  0.04279362       0.002
   0.00713227  0.04992589  0.04279362       0.004
   0.01426454  0.04992589  0.04279362       0.004
   0.02139681  0.04992589  0.04279362       0.004
   0.02852908  0.04992589  0.04279362       0.004
   0.03566135  0.04992589  0.04279362       0.004
   0.04279362  0.04992589  0.04279362       0.004
   0.04992589  0.04992589  0.04279362       0.004
   0.05705816  0.04992589  0.04279362       0.002
   0.00000000  0.05705816  0.04279362       0.001
   0.00713227  0.05705816  0.04279362       0.002
   0.01426454  0.05705816  0.04279362       0.002
   0.02139681  0.05705816  0.04279362       0.002
   0.02852908  0.05705816  0.04279362       0.002
   0.03566135  0.05705816  0.04279362       0.002
   0.04279362  0.05705816  0.04279362       0.002
   0.04992589  0.05705816  0.04279362       0.002
   0.05705816  0.05705816  0.04279362       0.001
   0.00000000  0.04992589  0.04992589       0.001
   0.00713227  0.04992589  0.04992589       0.002
   0.01426454  0.04992589  0.04992589       0.002
   0.02139681  0.04992589  0.04992589       0.002
   0.02852908  0.04992589  0.04992589       0.002
   0.03566135  0.04992589  0.04992589       0.002
   0.04279362  0.04992589  0.04992589       0.002
   0.04992589  0.04992589  0.04992589       0.002
   0.05705816  0.04992589  0.04992589       0.001
   0.00000000  0.05705816  0.04992589       0.001
   0.00713227  0.05705816  0.04992589       0.002
   0.01426454  0.05705816  0.04992589       0.002
   0.02139681  0.05705816  0.04992589       0.002
   0.02852908  0.05705816  0.04992589       0.002
   0.03566135  0.05705816  0.04992589       0.002
   0.04279362  0.05705816  0.04992589       0.002
   0.04992589  0.05705816  0.04992589       0.002
   0.05705816  0.05705816  0.04992589       0.001
   0.00000000  0.05705816  0.05705816       0.000
   0.00713227  0.05705816  0.05705816       0.000
   0.01426454  0.05705816  0.05705816       0.000
   0.02139681  0.05705816  0.05705816       0.000
   0.02852908  0.05705816  0.05705816       0.000
   0.03566135  0.05705816  0.05705816       0.000
   0.04279362  0.05705816  0.05705816       0.000
   0.04992589  0.05705816  0.05705816       0.000
   0.05705816  0.05705816  0.05705816       0.000
 
 k-points in reciprocal lattice and weights: Automatic mesh                          
   0.00000000  0.00000000  0.00000000       0.000
   0.06250000  0.00000000  0.00000000       0.000
   0.12500000  0.00000000  0.00000000       0.000
   0.18750000  0.00000000  0.00000000       0.000
   0.25000000  0.00000000  0.00000000       0.000
   0.31250000  0.00000000  0.00000000       0.000
   0.37500000  0.00000000  0.00000000       0.000
   0.43750000  0.00000000  0.00000000       0.000
   0.50000000  0.00000000  0.00000000       0.000
   0.00000000  0.06250000  0.00000000       0.001
   0.06250000  0.06250000  0.00000000       0.002
   0.12500000  0.06250000  0.00000000       0.002
   0.18750000  0.06250000  0.00000000       0.002
   0.25000000  0.06250000  0.00000000       0.002
   0.31250000  0.06250000  0.00000000       0.002
   0.37500000  0.06250000  0.00000000       0.002
   0.43750000  0.06250000  0.00000000       0.002
   0.50000000  0.06250000  0.00000000       0.001
   0.00000000  0.12500000  0.00000000       0.001
   0.06250000  0.12500000  0.00000000       0.002
   0.12500000  0.12500000  0.00000000       0.002
   0.18750000  0.12500000  0.00000000       0.002
   0.25000000  0.12500000  0.00000000       0.002
   0.31250000  0.12500000  0.00000000       0.002
   0.37500000  0.12500000  0.00000000       0.002
   0.43750000  0.12500000  0.00000000       0.002
   0.50000000  0.12500000  0.00000000       0.001
   0.00000000  0.18750000  0.00000000       0.001
   0.06250000  0.18750000  0.00000000       0.002
   0.12500000  0.18750000  0.00000000       0.002
   0.18750000  0.18750000  0.00000000       0.002
   0.25000000  0.18750000  0.00000000       0.002
   0.31250000  0.18750000  0.00000000       0.002
   0.37500000  0.18750000  0.00000000       0.002
   0.43750000  0.18750000  0.00000000       0.002
   0.50000000  0.18750000  0.00000000       0.001
   0.00000000  0.25000000  0.00000000       0.001
   0.06250000  0.25000000  0.00000000       0.002
   0.12500000  0.25000000  0.00000000       0.002
   0.18750000  0.25000000  0.00000000       0.002
   0.25000000  0.25000000  0.00000000       0.002
   0.31250000  0.25000000  0.00000000       0.002
   0.37500000  0.25000000  0.00000000       0.002
   0.43750000  0.25000000  0.00000000       0.002
   0.50000000  0.25000000  0.00000000       0.001
   0.00000000  0.31250000  0.00000000       0.001
   0.06250000  0.31250000  0.00000000       0.002
   0.12500000  0.31250000  0.00000000       0.002
   0.18750000  0.31250000  0.00000000       0.002
   0.25000000  0.31250000  0.00000000       0.002
   0.31250000  0.31250000  0.00000000       0.002
   0.37500000  0.31250000  0.00000000       0.002
   0.43750000  0.31250000  0.00000000       0.002
   0.50000000  0.31250000  0.00000000       0.001
   0.00000000  0.37500000  0.00000000       0.001
   0.06250000  0.37500000  0.00000000       0.002
   0.12500000  0.37500000  0.00000000       0.002
   0.18750000  0.37500000  0.00000000       0.002
   0.25000000  0.37500000  0.00000000       0.002
   0.31250000  0.37500000  0.00000000       0.002
   0.37500000  0.37500000  0.00000000       0.002
   0.43750000  0.37500000  0.00000000       0.002
   0.50000000  0.37500000  0.00000000       0.001
   0.00000000  0.43750000  0.00000000       0.001
   0.06250000  0.43750000  0.00000000       0.002
   0.12500000  0.43750000  0.00000000       0.002
   0.18750000  0.43750000  0.00000000       0.002
   0.25000000  0.43750000  0.00000000       0.002
   0.31250000  0.43750000  0.00000000       0.002
   0.37500000  0.43750000  0.00000000       0.002
   0.43750000  0.43750000  0.00000000       0.002
   0.50000000  0.43750000  0.00000000       0.001
   0.00000000  0.50000000  0.00000000       0.000
   0.06250000  0.50000000  0.00000000       0.001
   0.12500000  0.50000000  0.00000000       0.001
   0.18750000  0.50000000  0.00000000       0.001
   0.25000000  0.50000000  0.00000000       0.001
   0.31250000  0.50000000  0.00000000       0.001
   0.37500000  0.50000000  0.00000000       0.001
   0.43750000  0.50000000  0.00000000       0.001
   0.50000000  0.50000000  0.00000000       0.000
   0.00000000  0.06250000  0.06250000       0.001
   0.06250000  0.06250000  0.06250000       0.002
   0.12500000  0.06250000  0.06250000       0.002
   0.18750000  0.06250000  0.06250000       0.002
   0.25000000  0.06250000  0.06250000       0.002
   0.31250000  0.06250000  0.06250000       0.002
   0.37500000  0.06250000  0.06250000       0.002
   0.43750000  0.06250000  0.06250000       0.002
   0.50000000  0.06250000  0.06250000       0.001
   0.00000000  0.12500000  0.06250000       0.002
   0.06250000  0.12500000  0.06250000       0.004
   0.12500000  0.12500000  0.06250000       0.004
   0.18750000  0.12500000  0.06250000       0.004
   0.25000000  0.12500000  0.06250000       0.004
   0.31250000  0.12500000  0.06250000       0.004
   0.37500000  0.12500000  0.06250000       0.004
   0.43750000  0.12500000  0.06250000       0.004
   0.50000000  0.12500000  0.06250000       0.002
   0.00000000  0.18750000  0.06250000       0.002
   0.06250000  0.18750000  0.06250000       0.004
   0.12500000  0.18750000  0.06250000       0.004
   0.18750000  0.18750000  0.06250000       0.004
   0.25000000  0.18750000  0.06250000       0.004
[...]
     72      -0.2212      2.00000
     73      -0.2209      2.00000
     74      -0.2209      2.00000
     75      -0.2208      2.00000
     76      -0.2207      2.00000
     77      -0.2203      2.00000
     78      -0.2201      2.00000
     79      -0.2198      2.00000
     80      -0.2198      2.00000
     81      -0.0975      2.00000
     82      -0.0975      2.00000
     83      -0.0967      2.00000
     84      -0.0962      2.00000
     85      -0.0949      2.00000
     86      -0.0943      2.00000
     87      -0.0942      2.00000
     88      -0.0942      2.00000
     89      -0.0942      2.00000
     90      -0.0942      2.00000
     91      -0.0942      2.00000
     92      -0.0942      2.00000
     93      -0.0941      2.00000
     94      -0.0941      2.00000
     95      -0.0941      2.00000
     96      -0.0941      2.00000
     97      -0.0940      2.00000
     98      -0.0940      2.00000
     99      -0.0939      2.00000
    100      -0.0934      2.00000
    101      -0.0920      2.00000
    102      -0.0915      2.00000
    103      -0.0907      2.00000
    104      -0.0907      2.00000
    105       0.4151      2.00000
    106       0.4163      2.00000
    107       0.4163      2.00000
    108       0.4181      2.00000
    109       0.4182      2.00000
    110       0.4183      2.00000
    111       0.4183      2.00000
    112       0.4185      2.00000
    113       0.4187      2.00000
    114       0.4187      2.00000
    115       0.4187      2.00000
    116       0.4187      2.00000
    117       0.4188      2.00000
    118       0.4188      2.00000
    119       0.4188      2.00000
    120       0.4188      2.00000
    121       0.4189      2.00000
    122       0.4191      2.00000
    123       0.4191      2.00000
    124       0.4192      2.00000
    125       0.4194      2.00000
    126       0.4212      2.00000
    127       0.4212      2.00000
    128       0.4223      2.00000
    129       0.7473      2.00000
    130       0.7486      2.00000
    131       0.7486      2.00000
    132       0.7486      2.00000
    133       0.7495      2.00000
    134       0.7495      2.00000
    135       0.7496      2.00000
    136       0.7497      2.00000
    137       0.7498      2.00000
    138       0.7499      2.00000
    139       0.7501      2.00000
    140       0.7501      2.00000
    141       0.7510      2.00000
    142       0.7510      2.00000
    143       0.7510      2.00000
    144       0.7523      2.00000
    145       1.5050      2.00000
    146       1.5050      2.00000
    147       1.5053      2.00000
    148       1.5054      2.00000
    149       1.5054      2.00000
    150       1.5054      2.00000
    151       1.5054      2.00000
    152       1.5055      2.00000
    153       1.5056      2.00000
    154       1.5056      2.00000
    155       1.5056      2.00000
    156       1.5057      2.00000
    157       1.5058      2.00000
    158       1.5059      2.00000
    159       1.5059      2.00000
    160       1.5059      2.00000
    161       1.5060      2.00000
    162       1.5061      2.00000
    163       1.5061      2.00000
    164       1.5061      2.00000
    165       1.5061      2.00000
    166       1.5063      2.00000
    167       1.5065      2.00000
    168       1.5065      2.00000
    169       4.1103      0.00000
    170       4.1139      0.00000
    171       4.1139      0.00000
    172       4.1154      0.00000
    173       4.1158      0.00000
    174       4.1161      0.00000
    175       4.1161      0.00000
    176       4.1161      0.00000
    177       4.1161      0.00000
    178       4.1161      0.00000
    179       4.1161      0.00000
    180       4.1163      0.00000
    181       4.1163      0.00000
    182       4.1164      0.00000
    183       4.1164      0.00000
    184       4.1164      0.00000
    185       4.1165      0.00000
    186       4.1165      0.00000
    187       4.1165      0.00000
    188       4.1167      0.00000
    189       4.1171      0.00000
    190       4.1187      0.00000
    191       4.1187      0.00000
    192       4.1222      0.00000
    193       8.1262      0.00000
    194       8.1262      0.00000
    195       8.1281      0.00000
    196       8.1291      0.00000
    197       8.1297      0.00000
    198       8.1300      0.00000
    199       8.1300      0.00000
    200       8.1304      0.00000
    201       8.1305      0.00000
    202       8.1305      0.00000
    203       8.1306      0.00000
    204       8.1306      0.00000
    205       8.1306      0.00000
    206       8.1307      0.00000
    207       8.1307      0.00000
    208       8.1307      0.00000
    209       8.1308      0.00000
    210       8.1312      0.00000
    211       8.1312      0.00000
    212       8.1316      0.00000
    213       8.1321      0.00000
    214       8.1332      0.00000
    215       8.1351      0.00000
    216       8.1351      0.00000


--------------------------------------------------------------------------------------------------------


 soft charge-density along one line, spin component           1
         0         1         2         3         4         5         6         7         8         9
 total charge-density along one line
 
 pseudopotential strength for first ion, spin component:           1
-10.567  -0.000   0.000  -0.000   0.000   0.006   0.000  -0.000
 -0.000 -10.567   0.000  -0.000   0.000   0.000   0.006  -0.000
  0.000   0.000 -10.555   0.000  -0.000  -0.000  -0.000   0.005
 -0.000  -0.000   0.000 -10.567  -0.000   0.000   0.000  -0.000
  0.000   0.000  -0.000  -0.000 -10.555  -0.000  -0.000   0.000
  0.006   0.000  -0.000   0.000  -0.000   0.269  -0.000   0.000
  0.000   0.006  -0.000   0.000  -0.000  -0.000   0.269   0.000
 -0.000  -0.000   0.005  -0.000   0.000   0.000   0.000   0.270
  0.000   0.000  -0.000   0.006   0.000  -0.000  -0.000   0.000
 -0.000  -0.000   0.000   0.000   0.005   0.000   0.000  -0.000
  0.000   0.000   0.000   0.000  -0.000   0.000   0.000  -0.000
 -0.000  -0.000  -0.000  -0.000   0.000   0.000   0.000   0.000
 -0.000  -0.000   0.000  -0.000  -0.000   0.000   0.000  -0.000
 -0.000  -0.000   0.000  -0.000  -0.000   0.000   0.000   0.000
 -0.000  -0.000   0.000  -0.000  -0.000   0.000   0.000  -0.000
  0.000   0.000  -0.000   0.000   0.000  -0.000  -0.000   0.000
  0.000   0.000  -0.000   0.000   0.000  -0.000  -0.000   0.000
  0.000   0.000  -0.000   0.000   0.000  -0.000  -0.000   0.000
 total augmentation occupancy for first ion, spin component:           1
  1.909  -0.000  -0.002  -0.001  -0.001  -0.070   0.000   0.000   0.000   0.001   0.005   0.000   0.000   0.000  -0.000  -0.000
 -0.000   1.915  -0.001  -0.001  -0.002   0.000  -0.075   0.002   0.001   0.000   0.004  -0.000   0.000   0.000  -0.000  -0.000
 -0.002  -0.001   1.962  -0.000  -0.003   0.000   0.002  -0.109   0.001   0.002   0.013   0.003   0.000  -0.000   0.000  -0.000
 -0.001  -0.001  -0.000   1.921   0.001   0.000   0.001   0.001  -0.080   0.001   0.003  -0.001   0.000   0.000  -0.000  -0.000
 -0.001  -0.002  -0.003   0.001   1.950   0.001   0.001   0.002   0.001  -0.101   0.007   0.002   0.000   0.000  -0.000  -0.000
 -0.070   0.000   0.000   0.000   0.001   0.111  -0.000   0.002  -0.000  -0.000  -0.001   0.001   0.001  -0.000   0.000  -0.000
  0.000  -0.075   0.002   0.001   0.001  -0.000   0.114  -0.002  -0.001   0.001  -0.000   0.001  -0.000  -0.000   0.000   0.000
  0.000   0.002  -0.109   0.001   0.002   0.002  -0.002   0.092  -0.002  -0.001  -0.008  -0.001   0.000   0.000  -0.000   0.000
  0.000   0.001   0.001  -0.080   0.001  -0.000  -0.001  -0.002   0.118  -0.002   0.001   0.002  -0.000   0.001   0.000   0.000
  0.001   0.000   0.002   0.001  -0.101  -0.000   0.001  -0.001  -0.002   0.088  -0.005  -0.001  -0.000  -0.000   0.000   0.000
  0.005   0.004   0.013   0.003   0.007  -0.001  -0.000  -0.008   0.001  -0.005   0.990  -0.267   0.000  -0.000   0.002  -0.000
  0.000  -0.000   0.003  -0.001   0.002   0.001   0.001  -0.001   0.002  -0.001  -0.267   0.146   0.000   0.000  -0.001  -0.000
  0.000   0.000   0.000   0.000   0.000   0.001  -0.000   0.000  -0.000  -0.000   0.000   0.000   0.100   0.001   0.002  -0.007
  0.000   0.000  -0.000   0.000   0.000  -0.000  -0.000   0.000   0.001  -0.000  -0.000   0.000   0.001   0.101  -0.000  -0.000
 -0.000  -0.000   0.000  -0.000  -0.000   0.000   0.000  -0.000   0.000   0.000   0.002  -0.001   0.002  -0.000   0.100  -0.000
 -0.000  -0.000  -0.000  -0.000  -0.000  -0.000   0.000   0.000   0.000   0.000  -0.000  -0.000  -0.007  -0.000  -0.000   0.001
 -0.000  -0.000   0.000  -0.000   0.000   0.000   0.000  -0.000  -0.000   0.000   0.000   0.000  -0.000  -0.007  -0.000   0.000
  0.000   0.000   0.000   0.000  -0.000  -0.000  -0.000   0.000  -0.000  -0.000  -0.000   0.000  -0.000  -0.000  -0.007   0.000


------------------------ aborting loop because EDIFF is reached ----------------------------------------




--------------------------------------------------------------------------------------------------------


    CHARGE:  VPU time  933.76: CPU time 6299.04
    FORLOC:  VPU time    2.46: CPU time    3.49
    FORNL :  VPU time 1163.30: CPU time14669.15
    STRESS:  VPU time 7672.91: CPU time35113.35
    FORCOR:  VPU time    5.70: CPU time   29.38
    FORHAR:  VPU time    4.88: CPU time   24.77
    MIXING:  VPU time    0.51: CPU time    9.29


--------------------------------------------------------------------------------------------------------



  FREE ENERGIE OF THE ION-ELECTRON SYSTEM (eV)
  ---------------------------------------------------
  free  energy   TOTEN  =      -100.358391 eV

  energy  without entropy=     -100.357861  energy(sigma->0) =     -100.358126
 

  FORCE on cell =-STRESS in cart. coord.  units (eV/reduce length):
  Direction    X        Y        Z        XY       YZ       ZX
  --------------------------------------------------------------------------------------
  Alpha Z   2849.96   2849.96   2849.96
  Ewald    -9724.04  -9724.01  -9724.01      0.00      0.00      0.00
  Hartree   1510.99   1511.01   1511.01      0.00     -0.00     -0.00
  E(xc)    -1574.29  -1574.29  -1574.29     -0.00     -0.00     -0.00
  Local     2314.36   2314.30   2314.30      0.00     -0.00      0.00
  n-local  -1688.08  -1694.27  -1681.88      3.55      2.52      1.50
  augment   1377.10   1377.10   1377.10     -0.00     -0.00     -0.00
  Kinetic   4880.39   4874.38   4886.40      0.85     -0.30     -1.46
  -------------------------------------------------------------------------------------
  Total      -53.61    -53.61    -53.61      0.00      0.00      0.00
  in kB     -127.64   -127.64   -127.64      0.00      0.00      0.00
  external pressure =     -127.64 kB  Pullay stress =        0.00 kB


 VOLUME and BASIS-vectors are now :
 -----------------------------------------------------------------------------
  energy-cutoff  :      800.00
  volume of cell :      672.91
      direct lattice vectors                 reciprocal lattice vectors
     8.762988995  0.000000000  0.000000000     0.114116314  0.000000000  0.000000000
     0.000000000  8.762988995  0.000000000     0.000000000  0.114116314  0.000000000
     0.000000000  0.000000000  8.762988995     0.000000000  0.000000000  0.114116314

  length of vectors
     8.762988995  8.762988995  8.762988995     0.114116314  0.114116314  0.114116314


 FORCES acting on ions
    electron-ion (+dipol)            ewald-force                    non-local-force                 convergence-correction
 -----------------------------------------------------------------------------------------------
   0.338E+01 -.616E-13 0.129E-07   -.336E+01 -.462E-13 0.497E-13   -.357E-01 0.548E-19 -.452E-20   -.399E-04 -.197E-12 -.330E-12
   -.878E+00 -.412E-13 -.130E-07   0.887E+00 -.142E-13 -.142E-13   -.562E-02 -.687E-20 -.272E-20   -.129E-04 -.239E-12 -.499E-12
   0.280E+00 0.401E-12 0.421E-11   -.281E+00 -.426E-13 -.142E-13   0.744E-03 0.455E-20 0.258E-20   0.211E-05 0.208E-12 -.246E-12
   -.225E+00 -.912E-12 0.553E-11   0.221E+00 -.426E-13 0.142E-13   0.295E-02 -.102E-19 0.722E-22   -.713E-08 0.258E-12 -.338E-12
   0.280E+00 -.614E-13 0.170E-10   -.281E+00 -.178E-13 -.711E-13   0.744E-03 0.932E-20 0.373E-21   0.244E-05 -.224E-12 0.419E-12
   -.225E+00 -.687E-13 0.137E-10   0.221E+00 -.142E-13 0.142E-13   0.295E-02 0.695E-21 0.498E-20   -.866E-07 -.289E-12 0.573E-12
   0.117E+00 0.401E-12 0.492E-11   -.116E+00 -.426E-13 0.142E-13   -.986E-03 -.202E-20 -.612E-20   -.489E-06 0.236E-12 0.329E-12
   -.108E+00 -.127E-11 0.143E-10   0.108E+00 -.142E-13 -.142E-13   -.264E-03 0.591E-20 0.174E-22   0.139E-05 0.310E-12 0.418E-12
   -.428E+00 -.818E+00 -.223E-11   0.426E+00 0.819E+00 -.639E-13   0.369E-02 0.216E-02 0.127E-20   0.750E-05 0.385E-05 -.398E-12
   -.430E+00 0.812E+00 -.883E-12   0.429E+00 -.813E+00 -.711E-14   0.361E-02 -.207E-02 0.938E-20   0.742E-05 -.613E-05 -.292E-12
   -.428E+00 0.818E+00 0.113E-11   0.426E+00 -.819E+00 0.000E+00   0.369E-02 -.216E-02 0.130E-20   0.750E-05 -.385E-05 -.392E-12
   -.430E+00 -.812E+00 -.138E-11   0.429E+00 0.813E+00 0.000E+00   0.361E-02 0.207E-02 -.516E-20   0.742E-05 0.613E-05 -.328E-12
   -.124E-01 -.673E-01 -.753E-12   0.130E-01 0.673E-01 0.355E-14   -.339E-03 0.474E-05 0.187E-21   -.139E-05 -.114E-05 0.472E-12
   -.137E-01 0.672E-01 0.361E-11   0.143E-01 -.673E-01 -.107E-13   -.331E-03 -.620E-06 -.145E-20   -.232E-05 0.101E-05 0.380E-12
   -.124E-01 0.673E-01 -.878E-12   0.130E-01 -.673E-01 -.128E-12   -.339E-03 -.474E-05 -.286E-20   -.139E-05 0.114E-05 0.471E-12
   -.137E-01 -.672E-01 0.373E-11   0.143E-01 0.673E-01 -.142E-13   -.331E-03 0.620E-06 0.152E-21   -.232E-05 -.101E-05 0.410E-12
   -.428E+00 -.679E-13 -.818E+00   0.426E+00 0.711E-13 0.819E+00   0.369E-02 0.532E-20 0.216E-02   0.743E-05 -.220E-12 0.392E-05
   -.430E+00 -.869E-14 0.812E+00   0.429E+00 0.711E-13 -.813E+00   0.361E-02 -.465E-20 -.207E-02   0.735E-05 -.241E-12 -.620E-05
   -.124E-01 0.556E-12 -.673E-01   0.130E-01 0.568E-13 0.673E-01   -.339E-03 -.101E-20 0.474E-05   -.137E-05 0.239E-12 -.107E-05
   -.137E-01 -.130E-11 0.672E-01   0.143E-01 0.284E-13 -.673E-01   -.331E-03 -.742E-21 -.620E-06   -.230E-05 0.255E-12 0.945E-06
   -.428E+00 -.677E-13 0.818E+00   0.426E+00 0.426E-13 -.819E+00   0.369E-02 0.458E-20 -.216E-02   0.743E-05 -.217E-12 -.392E-05
   -.430E+00 -.655E-13 -.812E+00   0.429E+00 0.142E-13 0.813E+00   0.361E-02 -.691E-20 0.207E-02   0.735E-05 -.274E-12 0.620E-05
   -.124E-01 0.359E-12 0.673E-01   0.130E-01 0.284E-13 -.673E-01   -.339E-03 -.209E-20 -.474E-05   -.137E-05 0.236E-12 0.107E-05
   -.137E-01 -.129E-11 -.672E-01   0.143E-01 0.284E-13 0.673E-01   -.331E-03 -.175E-20 0.620E-06   -.230E-05 0.286E-12 -.945E-06
   0.526E+00 0.190E-02 0.190E-02   -.530E+00 -.190E-02 -.190E-02   0.248E-02 0.638E-05 0.638E-05   0.275E-05 -.640E-06 -.640E-06
   -.297E+00 -.562E-03 -.562E-03   0.298E+00 0.570E-03 0.570E-03   -.318E-03 -.597E-05 -.597E-05   -.199E-05 -.796E-07 -.794E-07
   0.526E+00 -.190E-02 0.190E-02   -.530E+00 0.190E-02 -.190E-02   0.248E-02 -.638E-05 0.638E-05   0.275E-05 0.640E-06 -.640E-06
   -.297E+00 0.562E-03 -.562E-03   0.298E+00 -.570E-03 0.570E-03   -.318E-03 0.597E-05 -.597E-05   -.199E-05 0.796E-07 -.794E-07
   0.526E+00 0.190E-02 -.190E-02   -.530E+00 -.190E-02 0.190E-02   0.248E-02 0.638E-05 -.638E-05   0.275E-05 -.640E-06 0.640E-06
   -.297E+00 -.562E-03 0.562E-03   0.298E+00 0.570E-03 -.570E-03   -.318E-03 -.597E-05 0.597E-05   -.199E-05 -.796E-07 0.794E-07
   0.526E+00 -.190E-02 -.190E-02   -.530E+00 0.190E-02 0.190E-02   0.248E-02 -.638E-05 -.638E-05   0.275E-05 0.640E-06 0.640E-06
   -.297E+00 0.562E-03 0.562E-03   0.298E+00 -.570E-03 -.570E-03   -.318E-03 0.597E-05 0.597E-05   -.199E-05 0.796E-07 0.794E-07
 -----------------------------------------------------------------------------------------------
   -.190E-05 -.220E-10 -.210E-10   -.483E-14 -.160E-12 0.208E-12   0.112E-05 -.458E-18 -.263E-18   0.208E-06 0.155E-12 0.762E-12
 
 
 POSITION                                       TOTAL-FORCE (eV/Angst)
 -----------------------------------------------------------------------------------
      0.01000      0.00000      0.00000        -0.013617     -0.000000     -0.000000
      4.38149      0.00000      0.00000         0.003350      0.000000      0.000000
      0.00000      4.38149      0.00000        -0.000693     -0.000000      0.000000
      4.38149      4.38149      0.00000        -0.001648     -0.000000      0.000000
      0.00000      0.00000      4.38149        -0.000693      0.000000      0.000000
      4.38149      0.00000      4.38149        -0.001648      0.000000     -0.000000
      0.00000      4.38149      4.38149         0.000251     -0.000000      0.000000
      4.38149      4.38149      4.38149        -0.000077     -0.000000      0.000000
      2.19075      2.19075      0.00000         0.002281      0.003023      0.000000
      6.57224      2.19075      0.00000         0.002146     -0.002847      0.000000
      2.19075      6.57224      0.00000         0.002281     -0.003023     -0.000000
      6.57224      6.57224      0.00000         0.002146      0.002847      0.000000
      2.19075      2.19075      4.38149         0.000240      0.000083      0.000000
      6.57224      2.19075      4.38149         0.000238     -0.000081     -0.000000
      2.19075      6.57224      4.38149         0.000240     -0.000083     -0.000000
      6.57224      6.57224      4.38149         0.000238      0.000081     -0.000000
      2.19075      0.00000      2.19075         0.002281     -0.000000      0.003023
      6.57224      0.00000      2.19075         0.002146      0.000000     -0.002847
      2.19075      4.38149      2.19075         0.000240      0.000000      0.000083
      6.57224      4.38149      2.19075         0.000238     -0.000000     -0.000081
      2.19075      0.00000      6.57224         0.002281     -0.000000     -0.003023
      6.57224      0.00000      6.57224         0.002146     -0.000000      0.002847
      2.19075      4.38149      6.57224         0.000240      0.000000     -0.000083
      6.57224      4.38149      6.57224         0.000238     -0.000000      0.000081
      0.00000      2.19075      2.19075        -0.001812      0.000002      0.000002
      4.38149      2.19075      2.19075         0.000600      0.000002      0.000002
      0.00000      6.57224      2.19075        -0.001812     -0.000002      0.000002
      4.38149      6.57224      2.19075         0.000600     -0.000002      0.000002
      0.00000      2.19075      6.57224        -0.001812      0.000002     -0.000002
      4.38149      2.19075      6.57224         0.000600      0.000002     -0.000002
      0.00000      6.57224      6.57224        -0.001812     -0.000002     -0.000002
      4.38149      6.57224      6.57224         0.000600     -0.000002     -0.000002
 -----------------------------------------------------------------------------------
    total drift:                               -0.000001     -0.000000     -0.000000


--------------------------------------------------------------------------------------------------------



 mean value of Nose-termostat <S>:     1.000 mean value of <T> :     0.000
 mean temperature <T/S>/<1/S>  :     0.000

     LOOP+:  VPU time98249.52: CPU time********
  
  
 General timing and accounting informations for this job:
 ========================================================
  
                  Total CPU time used (sec):   100552.345
                            User time (sec):    84749.847
                          System time (sec):    15802.498
                         Elapsed time (sec):   187034.020
  
                   Maximum memory used (kb):     9742012.
                   Average memory used (kb):           0.
  
                          Minor page faults:     36660906
                          Major page faults:      3975821
                 Voluntary context switches:      5759614
