32   
1    

1    
  0.0100000000000000   0.0000000000000000   0.0000000000000000
  -0.0249311400    0.0000000000    0.0000000000
   0.0012633100    0.0000000000    0.0000000000
  -0.0004018100   -0.0000000000   -0.0000000000
   0.0003378900    0.0000000000    0.0000000000
  -0.0004018100   -0.0000000000    0.0000000000
   0.0003378900    0.0000000000   -0.0000000000
   0.0000857300   -0.0000000000   -0.0000000000
  -0.0000764200    0.0000000000   -0.0000000000
  -0.0011077000    0.0000107400   -0.0000107400
  -0.0005587900    0.0000024200   -0.0000024200
  -0.0011077000   -0.0000107400   -0.0000107400
  -0.0005587900   -0.0000024200   -0.0000024200
  -0.0011077000    0.0000107400    0.0000107400
  -0.0005587900    0.0000024200    0.0000024200
  -0.0011077000   -0.0000107400    0.0000107400
  -0.0005587900   -0.0000024200    0.0000024200
   0.0039661100   -0.0000000000   -0.0040226400
   0.0040588000    0.0000000000    0.0041508400
  -0.0002047300    0.0000000000    0.0005728500
  -0.0002071000   -0.0000000000   -0.0005710500
   0.0039661100    0.0000000000    0.0040226400
   0.0040588000   -0.0000000000   -0.0041508400
  -0.0002047300    0.0000000000   -0.0005728500
  -0.0002071000   -0.0000000000    0.0005710500
   0.0039661100    0.0040226400    0.0000000000
   0.0040588000   -0.0041508400   -0.0000000000
   0.0039661100   -0.0040226400   -0.0000000000
   0.0040588000    0.0041508400   -0.0000000000
  -0.0002047300   -0.0005728500   -0.0000000000
  -0.0002071000    0.0005710500   -0.0000000000
  -0.0002047300    0.0005728500    0.0000000000
  -0.0002071000   -0.0005710500   -0.0000000000
