  32  32   0   0
  0.1904509E+02  0.8478343E-09  0.8478343E-09  0.8478343E-09  0.5000000E-15
  1.000000000000000E-004
  CAR 
 unknown system                          
     10.91725979     -4.28946187  301      6.60163860      1.00000000
     -4.289  0.0000E+00  0.0000E+00
     -4.239  0.0000E+00  0.0000E+00
     -4.188  0.0000E+00  0.0000E+00
     -4.137  0.0000E+00  0.0000E+00
     -4.087  0.0000E+00  0.0000E+00
     -4.036  0.0000E+00  0.0000E+00
     -3.985  0.0000E+00  0.0000E+00
     -3.935  0.0000E+00  0.0000E+00
     -3.884  0.0000E+00  0.0000E+00
     -3.833  0.0000E+00  0.0000E+00
     -3.783  0.0000E+00  0.0000E+00
     -3.732  0.0000E+00  0.0000E+00
     -3.681  0.0000E+00  0.0000E+00
     -3.631  0.4633E-06  0.2348E-07
     -3.580  0.1818E+00  0.9217E-02
     -3.529  0.1047E+01  0.6227E-01
     -3.478  0.1758E+01  0.1514E+00
     -3.428  0.1131E+01  0.2087E+00
     -3.377  0.9741E+00  0.2581E+00
     -3.326  0.1045E+01  0.3111E+00
     -3.276  0.4284E+01  0.5282E+00
     -3.225  0.4375E+01  0.7500E+00
     -3.174  0.3347E-05  0.7500E+00
     -3.124  0.2178E+01  0.8604E+00
     -3.073  0.5195E+01  0.1124E+01
     -3.022  0.3627E+01  0.1308E+01
     -2.972  0.2934E+01  0.1456E+01
     -2.921  0.2716E+01  0.1594E+01
     -2.870  0.1366E+01  0.1663E+01
     -2.819  0.4291E+01  0.1881E+01
     -2.769  0.8747E+01  0.2324E+01
     -2.718  0.2323E-05  0.2324E+01
     -2.667  0.1090E+01  0.2379E+01
     -2.617  0.8383E+01  0.2804E+01
     -2.566  0.5624E+01  0.3089E+01
     -2.515  0.3487E+01  0.3266E+01
     -2.465  0.3055E+01  0.3421E+01
     -2.414  0.3923E+01  0.3620E+01
     -2.363  0.8438E+01  0.4047E+01
     -2.313  0.4361E+01  0.4269E+01
     -2.262  0.4457E-04  0.4269E+01
     -2.211  0.4373E+01  0.4490E+01
     -2.161  0.5359E+01  0.4762E+01
     -2.110  0.1159E+02  0.5349E+01
     -2.059  0.5271E+01  0.5616E+01
     -2.008  0.2270E+01  0.5731E+01
     -1.958  0.1145E+01  0.5790E+01
     -1.907  0.1213E+02  0.6404E+01
     -1.856  0.8649E+01  0.6843E+01
     -1.806  0.1137E-03  0.6843E+01
     -1.755  0.2191E+01  0.6954E+01
     -1.704  0.8705E+01  0.7395E+01
     -1.654  0.8371E+01  0.7819E+01
     -1.603  0.7348E+01  0.8192E+01
     -1.552  0.4615E+01  0.8426E+01
     -1.502  0.3632E+01  0.8610E+01
     -1.451  0.4173E+01  0.8821E+01
     -1.400  0.1248E+02  0.9454E+01
     -1.349  0.2967E-02  0.9454E+01
     -1.299  0.4381E+01  0.9676E+01
     -1.248  0.1752E+02  0.1056E+02
     -1.197  0.8690E+01  0.1100E+02
     -1.147  0.4185E+01  0.1122E+02
     -1.096  0.3608E+01  0.1140E+02
     -1.045  0.7217E+01  0.1177E+02
     -0.995  0.8687E+01  0.1221E+02
     -0.944  0.7089E+01  0.1256E+02
     -0.893  0.1160E-01  0.1257E+02
     -0.843  0.1457E+01  0.1264E+02
     -0.792  0.9857E+01  0.1314E+02
     -0.741  0.1533E+02  0.1392E+02
     -0.691  0.8683E+01  0.1436E+02
     -0.640  0.4218E+01  0.1457E+02
     -0.589  0.1065E+02  0.1511E+02
     -0.538  0.1196E+02  0.1572E+02
     -0.488  0.8340E+01  0.1614E+02
     -0.437  0.6673E+00  0.1617E+02
     -0.386  0.8224E+01  0.1659E+02
     -0.336  0.8651E+01  0.1703E+02
     -0.285  0.4380E+01  0.1725E+02
     -0.234  0.1314E+02  0.1792E+02
     -0.184  0.5646E-02  0.1792E+02
     -0.133  0.1277E+02  0.1856E+02
     -0.082  0.1576E+02  0.1936E+02
     -0.032  0.2159E+01  0.1947E+02
      0.019  0.4377E+00  0.1949E+02
      0.070  0.3394E+01  0.1967E+02
      0.120  0.1555E+02  0.2045E+02
      0.171  0.1682E+02  0.2131E+02
      0.222  0.4360E+01  0.2153E+02
      0.273  0.8761E+01  0.2197E+02
      0.323  0.1752E+02  0.2286E+02
      0.374  0.8721E+01  0.2330E+02
      0.425  0.6083E-01  0.2331E+02
      0.475  0.5593E+01  0.2359E+02
      0.526  0.6513E+01  0.2392E+02
      0.577  0.1120E+02  0.2449E+02
      0.627  0.1542E+02  0.2527E+02
      0.678  0.8930E+01  0.2572E+02
      0.729  0.4366E+01  0.2594E+02
      0.779  0.1740E+02  0.2682E+02
      0.830  0.8762E+01  0.2727E+02
      0.881  0.3567E-03  0.2727E+02
      0.932  0.4364E+01  0.2749E+02
      0.982  0.1811E+02  0.2841E+02
      1.033  0.8566E+01  0.2884E+02
      1.084  0.1034E+02  0.2937E+02
      1.134  0.7541E+01  0.2975E+02
      1.185  0.6895E+01  0.3010E+02
      1.236  0.8564E+01  0.3053E+02
      1.286  0.2001E+02  0.3155E+02
      1.337  0.1355E-01  0.3155E+02
      1.388  0.4380E+01  0.3177E+02
      1.438  0.2629E+02  0.3310E+02
      1.489  0.2189E+02  0.3421E+02
      1.540  0.8751E+01  0.3466E+02
      1.590  0.4718E-01  0.3466E+02
      1.641  0.7359E+01  0.3503E+02
      1.692  0.1341E+02  0.3571E+02
      1.743  0.5531E+01  0.3599E+02
      1.793  0.8492E+00  0.3603E+02
      1.844  0.4429E+01  0.3626E+02
      1.895  0.8255E+01  0.3668E+02
      1.945  0.1943E+02  0.3766E+02
      1.996  0.1309E+02  0.3832E+02
      2.047  0.5475E+01  0.3860E+02
      2.097  0.3065E+02  0.4016E+02
      2.148  0.8742E+01  0.4060E+02
      2.199  0.5331E-01  0.4060E+02
      2.249  0.1183E+02  0.4120E+02
      2.300  0.1659E+02  0.4204E+02
      2.351  0.9782E+01  0.4254E+02
      2.401  0.1028E+02  0.4306E+02
      2.452  0.1149E+02  0.4364E+02
      2.503  0.7297E+01  0.4401E+02
      2.554  0.1412E+02  0.4473E+02
      2.604  0.1652E+02  0.4556E+02
      2.655  0.2453E+01  0.4569E+02
      2.706  0.1991E+01  0.4579E+02
      2.756  0.2184E+02  0.4690E+02
      2.807  0.8587E+01  0.4733E+02
      2.858  0.1353E+02  0.4802E+02
      2.908  0.8556E+01  0.4845E+02
      2.959  0.1726E+02  0.4933E+02
      3.010  0.1729E+02  0.5020E+02
      3.060  0.4942E+01  0.5045E+02
      3.111  0.4631E+01  0.5069E+02
      3.162  0.6556E+01  0.5102E+02
      3.213  0.2498E+02  0.5229E+02
      3.263  0.4377E+01  0.5251E+02
      3.314  0.1314E+02  0.5317E+02
      3.365  0.4297E+01  0.5339E+02
      3.415  0.3396E+02  0.5511E+02
      3.466  0.9991E+01  0.5562E+02
      3.517  0.4164E+01  0.5583E+02
      3.567  0.3735E+01  0.5602E+02
      3.618  0.1877E+02  0.5697E+02
      3.669  0.1388E+02  0.5768E+02
      3.719  0.1468E+02  0.5842E+02
      3.770  0.1272E+02  0.5906E+02
      3.821  0.2293E+01  0.5918E+02
      3.871  0.2840E+02  0.6062E+02
      3.922  0.6450E+01  0.6095E+02
      3.973  0.6868E+01  0.6130E+02
      4.024  0.1360E+02  0.6199E+02
      4.074  0.2388E+02  0.6320E+02
      4.125  0.1503E+02  0.6396E+02
      4.176  0.1298E+02  0.6462E+02
      4.226  0.9421E+01  0.6509E+02
      4.277  0.1895E+02  0.6605E+02
      4.328  0.6075E+01  0.6636E+02
      4.378  0.3470E+01  0.6654E+02
      4.429  0.1706E+01  0.6662E+02
      4.480  0.1743E+02  0.6751E+02
      4.530  0.1745E+02  0.6839E+02
      4.581  0.2917E+02  0.6987E+02
      4.632  0.1461E+01  0.6994E+02
      4.683  0.8008E+00  0.6999E+02
      4.733  0.3431E+02  0.7172E+02
      4.784  0.1311E+02  0.7239E+02
      4.835  0.1827E-01  0.7239E+02
      4.885  0.1517E+02  0.7316E+02
      4.936  0.2148E+02  0.7425E+02
      4.987  0.1840E+02  0.7518E+02
      5.037  0.1128E+02  0.7575E+02
      5.088  0.1065E+02  0.7629E+02
      5.139  0.6807E+01  0.7664E+02
      5.189  0.1224E+02  0.7726E+02
      5.240  0.3566E+01  0.7744E+02
      5.291  0.4195E+01  0.7765E+02
      5.341  0.1685E+02  0.7850E+02
      5.392  0.2823E+02  0.7994E+02
      5.443  0.9546E+01  0.8042E+02
      5.494  0.6820E+01  0.8076E+02
      5.544  0.1482E+02  0.8152E+02
      5.595  0.2871E+02  0.8297E+02
      5.646  0.1310E+02  0.8364E+02
      5.696  0.2616E+01  0.8377E+02
      5.747  0.1280E+02  0.8442E+02
      5.798  0.4090E+01  0.8462E+02
      5.848  0.2135E+02  0.8571E+02
      5.899  0.1104E+02  0.8627E+02
      5.950  0.1577E+02  0.8706E+02
      6.000  0.2593E+02  0.8838E+02
      6.051  0.1677E+02  0.8923E+02
      6.102  0.9089E+01  0.8969E+02
      6.152  0.5327E+01  0.8996E+02
      6.203  0.8585E+01  0.9040E+02
      6.254  0.1254E+02  0.9103E+02
      6.305  0.1309E+02  0.9169E+02
      6.355  0.5627E+01  0.9198E+02
      6.406  0.2277E+02  0.9313E+02
      6.457  0.3090E+02  0.9470E+02
      6.507  0.1741E+02  0.9558E+02
      6.558  0.1491E-01  0.9558E+02
      6.609  0.9560E+01  0.9607E+02
      6.659  0.4482E+02  0.9834E+02
      6.710  0.6997E+01  0.9869E+02
      6.761  0.6102E+01  0.9900E+02
      6.811  0.1233E+02  0.9963E+02
      6.862  0.2268E+02  0.1008E+03
      6.913  0.1765E+02  0.1017E+03
      6.964  0.5897E+01  0.1020E+03
      7.014  0.2565E+01  0.1021E+03
      7.065  0.1786E+02  0.1030E+03
      7.116  0.1291E+02  0.1037E+03
      7.166  0.1748E+02  0.1045E+03
      7.217  0.4347E+01  0.1048E+03
      7.268  0.9237E+01  0.1052E+03
      7.318  0.2136E+02  0.1063E+03
      7.369  0.1829E+02  0.1072E+03
      7.420  0.5600E+01  0.1075E+03
      7.470  0.3548E+02  0.1093E+03
      7.521  0.1821E+02  0.1103E+03
      7.572  0.1184E+02  0.1109E+03
      7.622  0.6800E+01  0.1112E+03
      7.673  0.1710E+02  0.1121E+03
      7.724  0.2070E+02  0.1131E+03
      7.775  0.1636E+02  0.1139E+03
      7.825  0.1371E+02  0.1146E+03
      7.876  0.1115E+02  0.1152E+03
      7.927  0.2789E+02  0.1166E+03
      7.977  0.2592E+02  0.1179E+03
      8.028  0.6846E+01  0.1183E+03
      8.079  0.1284E+02  0.1189E+03
      8.129  0.9653E+01  0.1194E+03
      8.180  0.2113E+02  0.1205E+03
      8.231  0.3718E+01  0.1207E+03
      8.281  0.1328E+02  0.1213E+03
      8.332  0.1373E+02  0.1220E+03
      8.383  0.3147E+02  0.1236E+03
      8.433  0.7887E+01  0.1240E+03
      8.484  0.8911E+01  0.1245E+03
      8.535  0.2765E+02  0.1259E+03
      8.586  0.1327E+02  0.1266E+03
      8.636  0.6224E+01  0.1269E+03
      8.687  0.1284E+02  0.1275E+03
      8.738  0.2484E+02  0.1288E+03
      8.788  0.2530E+02  0.1301E+03
      8.839  0.2032E+02  0.1311E+03
      8.890  0.4369E+01  0.1313E+03
      8.940  0.1520E+02  0.1321E+03
      8.991  0.1621E+02  0.1329E+03
      9.042  0.1535E+02  0.1337E+03
      9.092  0.1615E+02  0.1345E+03
      9.143  0.4489E+01  0.1347E+03
      9.194  0.2129E+02  0.1358E+03
      9.245  0.1159E+02  0.1364E+03
      9.295  0.3912E+01  0.1366E+03
      9.346  0.2499E+02  0.1379E+03
      9.397  0.2374E+02  0.1391E+03
      9.447  0.3003E+02  0.1406E+03
      9.498  0.6038E+01  0.1409E+03
      9.549  0.7983E+01  0.1413E+03
      9.599  0.1817E+02  0.1422E+03
      9.650  0.4603E+01  0.1425E+03
      9.701  0.1906E-05  0.1425E+03
      9.751  0.1821E+01  0.1426E+03
      9.802  0.5563E+01  0.1428E+03
      9.853  0.1563E+02  0.1436E+03
      9.903  0.1825E+01  0.1437E+03
      9.954  0.0000E+00  0.1437E+03
     10.005  0.1431E-12  0.1437E+03
     10.056  0.8492E+00  0.1438E+03
     10.106  0.3410E+01  0.1439E+03
     10.157  0.1250E+00  0.1439E+03
     10.208  0.8325E-02  0.1439E+03
     10.258  0.1088E+01  0.1440E+03
     10.309  0.0000E+00  0.1440E+03
     10.360  0.0000E+00  0.1440E+03
     10.410  0.0000E+00  0.1440E+03
     10.461  0.0000E+00  0.1440E+03
     10.512  0.0000E+00  0.1440E+03
     10.562  0.0000E+00  0.1440E+03
     10.613  0.0000E+00  0.1440E+03
     10.664  0.0000E+00  0.1440E+03
     10.715  0.0000E+00  0.1440E+03
     10.765  0.0000E+00  0.1440E+03
     10.816  0.0000E+00  0.1440E+03
     10.867  0.0000E+00  0.1440E+03
     10.917  0.0000E+00  0.1440E+03
