   32   32    1    1
  0.1904509E+02  0.8478343E-09  0.8478343E-09  0.8478343E-09  0.5000000E-15
  1.000000000000000E-004
  CAR 
 unknown system                          
   96   40   72
 
  0.0000000E+00  0.0000000E+00  0.0000000E+00  0.4629630E-02
   1       -3.5982
   2       -1.5554
   3       -1.5520
   4       -1.5520
   5       -1.5520
   6       -1.5520
   7       -1.5485
   8        0.4623
   9        0.4666
  10        0.4666
  11        0.4681
  12        0.4683
  13        0.4683
  14        0.4683
  15        0.4683
  16        0.4684
  17        0.4699
  18        0.4699
  19        0.4742
  20        2.3832
  21        2.3832
  22        2.3832
  23        2.3832
  24        2.5472
  25        2.5472
  26        2.5472
  27        2.5472
  28        4.0042
  29        4.0042
  30        4.0042
  31        4.9684
  32        4.9684
  33        4.9684
  34        5.9141
  35        5.9141
  36        5.9180
  37        5.9180
  38        5.9182
  39        5.9182
  40        5.9182
  41        5.9182
  42        5.9183
  43        5.9183
  44        5.9222
  45        5.9222
  46        6.9393
  47        6.9402
  48        6.9402
  49        6.9402
  50        6.9402
  51        6.9410
  52        6.9844
  53        6.9882
  54        6.9882
  55        6.9882
  56        6.9882
  57        6.9919
  58        7.8291
  59        7.8291
  60        7.8309
  61        7.8328
  62        7.8329
  63        7.8329
  64        7.8329
  65        7.8330
  66        7.8330
  67        7.8349
  68        7.8368
  69        7.8368
  70        8.9034
  71        8.9054
  72        8.9063
 
  0.1666667E+00  0.0000000E+00  0.0000000E+00  0.9259259E-02
   1       -3.5411
   2       -2.1745
   3       -1.4955
   4       -1.4955
   5       -1.4955
   6       -1.4955
   7       -0.8196
   8       -0.1464
   9       -0.1464
  10       -0.1464
  11       -0.1464
  12        0.5240
  13        0.5240
  14        0.5240
  15        0.5240
  16        1.1916
  17        1.1916
  18        1.1916
  19        1.1916
  20        1.8528
  21        1.8528
  22        1.8528
  23        1.8528
  24        3.1339
  25        3.1850
  26        3.1850
  27        3.1850
  28        3.1850
  29        4.0573
  30        4.0573
  31        5.0246
  32        5.0247
  33        5.0877
  34        5.0877
  35        5.0877
  36        5.0878
  37        5.3329
  38        5.3329
  39        5.9394
  40        5.9713
  41        5.9713
  42        5.9713
  43        5.9713
  44        6.3610
  45        6.3610
  46        6.6102
  47        6.6102
  48        7.0184
  49        7.0187
  50        7.0187
  51        7.0189
  52        7.0259
  53        7.0262
  54        7.0262
  55        7.0265
  56        7.2478
  57        7.2478
  58        7.2478
  59        7.2478
  60        7.6675
  61        7.6675
  62        7.8926
  63        7.8926
  64        7.8926
  65        7.8926
  66        8.3197
  67        8.3197
  68        8.3197
  69        8.3197
  70        8.5244
  71        8.5244
  72        8.5244
 
  0.3333333E+00  0.0000000E+00  0.0000000E+00  0.9259259E-02
   1       -3.3696
   2       -2.6856
   3       -1.3263
   4       -1.3263
   5       -1.3263
   6       -1.3263
   7       -0.6511
   8       -0.6511
   9       -0.6511
  10       -0.6511
  11        0.0209
  12        0.6909
  13        0.6909
  14        0.6909
  15        0.6909
  16        1.3567
  17        1.3567
  18        1.3567
  19        1.3567
  20        2.0114
  21        2.0216
  22        2.0216
  23        2.0216
  24        2.0218
  25        3.9856
  26        3.9856
  27        3.9857
  28        3.9857
  29        4.0026
  30        4.0027
  31        4.0027
  32        4.0027
  33        4.2167
  34        4.2167
  35        4.8544
  36        4.8544
  37        5.1933
  38        5.1933
  39        5.8632
  40        5.8633
  41        5.9409
  42        5.9409
  43        5.9410
  44        5.9410
  45        6.1308
  46        6.1308
  47        6.1309
  48        6.1309
  49        6.7690
  50        6.7690
  51        6.7690
  52        6.7690
  53        7.1832
  54        7.1832
  55        7.1832
  56        7.1832
  57        7.3633
  58        7.4091
  59        7.4091
  60        7.8352
  61        7.8352
  62        7.8352
  63        7.8352
  64        8.4627
  65        8.4627
  66        9.2861
  67        9.2864
  68        9.2868
  69        9.2875
  70        9.3217
  71        9.3221
  72        9.3242
 
  0.5000000E+00  0.0000000E+00  0.0000000E+00  0.4629630E-02
   1       -3.0856
   2       -3.0829
   3       -1.0484
   4       -1.0454
   5       -1.0454
   6       -1.0447
   7       -1.0446
   8       -1.0439
   9       -1.0439
  10       -1.0409
  11        0.9631
  12        0.9665
  13        0.9676
  14        0.9676
  15        0.9682
  16        0.9684
  17        0.9691
  18        0.9699
  19        0.9699
  20        0.9728
  21        2.9537
  22        2.9545
  23        2.9545
  24        2.9551
  25        2.9553
  26        2.9559
  27        2.9559
  28        2.9567
  29        4.4809
  30        4.4809
  31        4.4837
  32        4.4837
  33        4.9229
  34        4.9229
  35        4.9237
  36        4.9237
  37        4.9244
  38        4.9245
  39        4.9252
  40        4.9252
  41        5.4717
  42        5.4724
  43        5.4742
  44        5.4749
  45        6.3946
  46        6.3946
  47        6.3956
  48        6.3967
  49        6.3968
  50        6.3979
  51        6.3989
  52        6.3989
  53        7.4534
  54        7.4548
  55        7.4548
  56        7.4548
  57        7.4565
  58        7.4566
  59        7.4566
  60        7.4580
  61        8.3136
  62        8.3136
  63        8.3158
  64        8.3158
  65        8.9084
  66        8.9100
  67        9.3354
  68        9.3360
  69        9.3371
  70        9.3377
  71       10.2240
  72       10.2260
 
  0.0000000E+00  0.1666667E+00  0.0000000E+00  0.1851852E-01
   1       -3.5411
   2       -2.1745
   3       -1.4982
   4       -1.4955
   5       -1.4955
   6       -1.4929
   7       -0.8196
   8       -0.1491
   9       -0.1464
  10       -0.1464
  11       -0.1438
  12        0.5218
  13        0.5230
  14        0.5250
  15        0.5261
  16        1.1889
  17        1.1916
  18        1.1916
  19        1.1943
  20        1.8507
  21        1.8518
  22        1.8538
  23        1.8549
  24        3.1339
  25        3.1829
  26        3.1840
  27        3.1860
  28        3.1871
  29        4.0573
  30        4.0573
  31        5.0247
  32        5.0247
  33        5.0849
  34        5.0877
  35        5.0877
  36        5.0904
  37        5.3329
  38        5.3330
  39        5.9393
  40        5.9688
  41        5.9713
  42        5.9714
  43        5.9738
  44        6.3610
  45        6.3610
  46        6.6102
  47        6.6102
  48        7.0170
  49        7.0188
  50        7.0189
  51        7.0207
  52        7.0237
  53        7.0250
  54        7.0269
  55        7.0283
  56        7.2453
  57        7.2478
  58        7.2478
  59        7.2503
  60        7.6675
  61        7.6675
  62        7.8900
  63        7.8925
  64        7.8926
  65        7.8951
  66        8.3178
  67        8.3197
  68        8.3197
  69        8.3216
  70        8.5219
  71        8.5244
  72        8.5249
 
  0.1666667E+00  0.1666667E+00  0.0000000E+00  0.3703704E-01
   1       -3.4839
   2       -2.1189
   3       -2.1167
   4       -1.4391
   5       -1.4391
   6       -0.7652
   7       -0.7634
   8       -0.7616
   9       -0.0920
  10       -0.0911
  11       -0.0899
  12       -0.0890
  13        0.5791
  14        0.5802
  15        1.2441
  16        1.2451
  17        1.2465
  18        1.2467
  19        1.2479
  20        1.2491
  21        1.9117
  22        2.4964
  23        2.4964
  24        2.6539
  25        2.6539
  26        3.1879
  27        3.1890
  28        3.8945
  29        3.8945
  30        4.1104
  31        4.4915
  32        4.4937
  33        5.0809
  34        5.1222
  35        5.1223
  36        5.1616
  37        5.1616
  38        5.3849
  39        5.3873
  40        5.7879
  41        5.7888
  42        5.9937
  43        5.9947
  44        6.4162
  45        6.4182
  46        6.4342
  47        6.4350
  48        6.4364
  49        6.4374
  50        6.6609
  51        6.6631
  52        6.6652
  53        7.2997
  54        7.3005
  55        7.7194
  56        7.7209
  57        7.7211
  58        7.7212
  59        7.7220
  60        7.7236
  61        7.7287
  62        7.9348
  63        7.9350
  64        7.9387
  65        7.9406
  66        7.9573
  67        7.9574
  68        8.5830
  69        8.5851
  70        9.0089
  71        9.0091
  72        9.2194
 
  0.3333333E+00  0.1666667E+00  0.0000000E+00  0.3703704E-01
   1       -3.3125
   2       -2.6287
   3       -1.9479
   4       -1.2713
   5       -1.2699
   6       -1.2687
   7       -0.5962
   8       -0.5950
   9       -0.5937
  10        0.0751
  11        0.0772
  12        0.0772
  13        0.0790
  14        0.7460
  15        0.7460
  16        1.4123
  17        1.4132
  18        1.4136
  19        2.0663
  20        2.0737
  21        2.0740
  22        2.0770
  23        2.0777
  24        2.7381
  25        3.3518
  26        3.3848
  27        3.4025
  28        3.4026
  29        4.0044
  30        4.0399
  31        4.0399
  32        4.2698
  33        4.6929
  34        4.7104
  35        4.7105
  36        4.9075
  37        5.2493
  38        5.3045
  39        5.3046
  40        5.3462
  41        5.3463
  42        5.5456
  43        5.9184
  44        5.9516
  45        5.9516
  46        6.1585
  47        6.1837
  48        6.5825
  49        6.5951
  50        6.6411
  51        6.6411
  52        6.8129
  53        6.8229
  54        7.2399
  55        7.4173
  56        7.4600
  57        7.4633
  58        7.8836
  59        8.1073
  60        8.1073
  61        8.5041
  62        8.5162
  63        8.5196
  64        8.5196
  65        8.5294
  66        8.7046
  67        8.7377
  68        8.7494
  69        8.7495
  70        9.3392
  71        9.3401
  72        9.3696
 
  0.5000000E+00  0.1666667E+00  0.0000000E+00  0.1851852E-01
   1       -3.0286
   2       -3.0259
   3       -1.6665
   4       -1.6638
   5       -0.9903
   6       -0.9891
   7       -0.9876
   8       -0.9865
   9       -0.3159
  10       -0.3132
  11        0.3543
  12        0.3554
  13        0.3569
  14        0.3581
  15        1.0213
  16        1.0228
  17        1.6876
  18        1.6887
  19        1.6903
  20        1.6913
  21        2.3492
  22        2.3507
  23        3.0091
  24        3.0092
  25        3.0106
  26        3.0107
  27        3.6227
  28        3.6253
  29        3.6667
  30        3.6682
  31        4.3250
  32        4.3251
  33        4.3265
  34        4.3265
  35        4.5340
  36        4.5368
  37        5.5278
  38        5.5303
  39        5.5723
  40        5.5736
  41        5.5750
  42        5.5763
  43        5.6277
  44        5.6277
  45        5.6292
  46        5.6292
  47        5.8100
  48        5.8128
  49        6.4304
  50        6.4330
  51        6.8560
  52        6.8585
  53        7.0874
  54        7.0902
  55        7.5009
  56        7.5026
  57        8.1522
  58        8.1547
  59        8.3665
  60        8.3688
  61        8.3737
  62        8.3748
  63        8.3765
  64        8.3772
  65        8.9617
  66        8.9633
  67        9.3890
  68        9.3896
  69        9.4172
  70        9.4174
  71        9.4190
  72        9.4193
 
  0.0000000E+00  0.3333333E+00  0.0000000E+00  0.1851852E-01
   1       -3.3696
   2       -2.6856
   3       -1.3290
   4       -1.3263
   5       -1.3263
   6       -1.3236
   7       -0.6538
   8       -0.6511
   9       -0.6511
  10       -0.6484
  11        0.0209
  12        0.6888
  13        0.6899
  14        0.6919
  15        0.6931
  16        1.3546
  17        1.3557
  18        1.3577
  19        1.3589
  20        2.0115
  21        2.0189
  22        2.0216
  23        2.0216
  24        2.0243
  25        3.9830
  26        3.9857
  27        3.9857
  28        3.9884
  29        4.0005
  30        4.0016
  31        4.0036
  32        4.0048
  33        4.2166
  34        4.2167
  35        4.8543
  36        4.8544
  37        5.1932
  38        5.1933
  39        5.8632
  40        5.8633
  41        5.9388
  42        5.9400
  43        5.9420
  44        5.9432
  45        6.1283
  46        6.1308
  47        6.1309
  48        6.1333
  49        6.7665
  50        6.7690
  51        6.7691
  52        6.7716
  53        7.1813
  54        7.1832
  55        7.1832
  56        7.1851
  57        7.3632
  58        7.4091
  59        7.4091
  60        7.8333
  61        7.8352
  62        7.8352
  63        7.8371
  64        8.4627
  65        8.4627
  66        9.2835
  67        9.2861
  68        9.2865
  69        9.2888
  70        9.3213
  71        9.3226
  72        9.3242
 
  0.1666667E+00  0.3333333E+00  0.0000000E+00  0.3703704E-01
   1       -3.3125
   2       -2.6287
   3       -1.9479
   4       -1.2713
   5       -1.2699
   6       -1.2687
   7       -0.5963
   8       -0.5950
   9       -0.5936
  10        0.0751
  11        0.0770
  12        0.0772
  13        0.0791
  14        0.7460
  15        0.7460
  16        1.4116
  17        1.4132
  18        1.4144
  19        2.0664
  20        2.0742
  21        2.0744
  22        2.0768
  23        2.0769
  24        2.7381
  25        3.3518
  26        3.3848
  27        3.4025
  28        3.4025
  29        4.0044
  30        4.0399
  31        4.0399
  32        4.2698
  33        4.6930
  34        4.7104
  35        4.7104
  36        4.9075
  37        5.2493
  38        5.3046
  39        5.3047
  40        5.3462
  41        5.3462
  42        5.5456
  43        5.9184
  44        5.9516
  45        5.9516
  46        6.1585
  47        6.1837
  48        6.5825
  49        6.5951
  50        6.6411
  51        6.6411
  52        6.8129
  53        6.8229
  54        7.2399
  55        7.4173
  56        7.4606
  57        7.4626
  58        7.8836
  59        8.1073
  60        8.1073
  61        8.5042
  62        8.5158
  63        8.5196
  64        8.5201
  65        8.5293
  66        8.7046
  67        8.7377
  68        8.7494
  69        8.7494
  70        9.3392
  71        9.3412
  72        9.3707
 
  0.3333333E+00  0.3333333E+00  0.0000000E+00  0.3703704E-01
   1       -3.1413
   2       -2.4594
   3       -2.4572
   4       -1.7782
   5       -1.1010
   6       -1.1010
   7       -0.4283
   8       -0.4274
   9       -0.4261
  10       -0.4252
  11        0.2425
  12        0.2444
  13        0.2444
  14        0.2463
  15        0.9124
  16        0.9136
  17        2.2312
  18        2.2323
  19        2.2404
  20        2.2412
  21        2.2425
  22        2.2435
  23        2.8346
  24        2.8346
  25        2.8905
  26        2.8927
  27        2.9736
  28        2.9736
  29        3.5602
  30        4.1659
  31        4.1659
  32        4.2424
  33        4.2424
  34        4.4291
  35        4.8566
  36        4.8575
  37        4.8588
  38        4.8597
  39        5.0658
  40        5.0681
  41        5.4173
  42        5.5037
  43        5.5045
  44        5.5230
  45        5.5230
  46        5.7050
  47        6.0859
  48        6.0880
  49        6.7481
  50        7.4268
  51        7.4436
  52        7.4445
  53        7.4447
  54        7.4456
  55        7.5788
  56        7.5799
  57        7.6205
  58        7.6229
  59        8.2236
  60        8.2244
  61        8.2586
  62        8.2605
  63        8.6759
  64        8.6779
  65        9.3143
  66        9.3144
  67        9.3447
  68        9.3447
  69        9.4852
  70        9.4862
  71        9.5113
  72        9.5123
 
  0.5000000E+00  0.3333333E+00  0.0000000E+00  0.1851852E-01
   1       -2.8577
   2       -2.8550
   3       -2.1759
   4       -2.1733
   5       -0.8216
   6       -0.8205
   7       -0.8190
   8       -0.8179
   9       -0.1486
  10       -0.1475
  11       -0.1460
  12       -0.1449
  13        0.5219
  14        0.5246
  15        1.1879
  16        1.1894
  17        1.8524
  18        1.8539
  19        2.5057
  20        2.5084
  21        2.5139
  22        2.5150
  23        2.5165
  24        2.5176
  25        3.1727
  26        3.1728
  27        3.1742
  28        3.1744
  29        3.8348
  30        3.8349
  31        3.8363
  32        3.8363
  33        4.4761
  34        4.4774
  35        4.4788
  36        4.4801
  37        4.4840
  38        4.4855
  39        4.6934
  40        4.6962
  41        5.3314
  42        5.3341
  43        5.6946
  44        5.6971
  45        6.3616
  46        6.3641
  47        6.4189
  48        6.4204
  49        6.4360
  50        6.4361
  51        6.4376
  52        6.4376
  53        7.8473
  54        7.8499
  55        7.8861
  56        7.8889
  57        8.3473
  58        8.3474
  59        8.3490
  60        8.3491
  61        8.5261
  62        8.5283
  63        8.9416
  64        8.9441
  65        9.1214
  66        9.1230
  67        9.1632
  68        9.1655
  69        9.5472
  70        9.5478
  71        9.7589
  72        9.7636
 
  0.0000000E+00  0.5000000E+00  0.0000000E+00  0.9259259E-02
   1       -3.0842
   2       -3.0842
   3       -1.0495
   4       -1.0451
   5       -1.0446
   6       -1.0446
   7       -1.0446
   8       -1.0446
   9       -1.0442
  10       -1.0397
  11        0.9636
  12        0.9661
  13        0.9669
  14        0.9673
  15        0.9685
  16        0.9686
  17        0.9689
  18        0.9694
  19        0.9706
  20        0.9731
  21        2.9523
  22        2.9526
  23        2.9552
  24        2.9552
  25        2.9552
  26        2.9552
  27        2.9577
  28        2.9580
  29        4.4823
  30        4.4823
  31        4.4823
  32        4.4823
  33        4.9214
  34        4.9224
  35        4.9229
  36        4.9232
  37        4.9249
  38        4.9253
  39        4.9257
  40        4.9267
  41        5.4732
  42        5.4733
  43        5.4733
  44        5.4733
  45        6.3921
  46        6.3964
  47        6.3967
  48        6.3967
  49        6.3967
  50        6.3968
  51        6.3971
  52        6.4014
  53        7.4522
  54        7.4553
  55        7.4557
  56        7.4557
  57        7.4557
  58        7.4557
  59        7.4561
  60        7.4592
  61        8.3147
  62        8.3147
  63        8.3147
  64        8.3147
  65        8.9092
  66        8.9092
  67        9.3365
  68        9.3365
  69        9.3365
  70        9.3366
  71       10.2243
  72       10.2253
 
  0.1666667E+00  0.5000000E+00  0.0000000E+00  0.1851852E-01
   1       -3.0272
   2       -3.0272
   3       -1.6651
   4       -1.6651
   5       -0.9884
   6       -0.9884
   7       -0.9884
   8       -0.9884
   9       -0.3145
  10       -0.3145
  11        0.3562
  12        0.3562
  13        0.3562
  14        0.3562
  15        1.0221
  16        1.0221
  17        1.6895
  18        1.6895
  19        1.6895
  20        1.6895
  21        2.3500
  22        2.3500
  23        3.0099
  24        3.0099
  25        3.0099
  26        3.0099
  27        3.6240
  28        3.6240
  29        3.6675
  30        3.6675
  31        4.3258
  32        4.3258
  33        4.3258
  34        4.3258
  35        4.5354
  36        4.5354
  37        5.5289
  38        5.5291
  39        5.5743
  40        5.5743
  41        5.5743
  42        5.5745
  43        5.6285
  44        5.6285
  45        5.6285
  46        5.6285
  47        5.8114
  48        5.8115
  49        6.4317
  50        6.4317
  51        6.8572
  52        6.8572
  53        7.0888
  54        7.0888
  55        7.5018
  56        7.5018
  57        8.1535
  58        8.1535
  59        8.3676
  60        8.3678
  61        8.3755
  62        8.3755
  63        8.3755
  64        8.3757
  65        8.9625
  66        8.9625
  67        9.3891
  68        9.3893
  69        9.4182
  70        9.4182
  71        9.4182
  72        9.4184
 
  0.3333333E+00  0.5000000E+00  0.0000000E+00  0.1851852E-01
   1       -2.8564
   2       -2.8564
   3       -2.1746
   4       -2.1746
   5       -0.8198
   6       -0.8197
   7       -0.8197
   8       -0.8197
   9       -0.1468
  10       -0.1468
  11       -0.1468
  12       -0.1468
  13        0.5233
  14        0.5233
  15        1.1886
  16        1.1886
  17        1.8532
  18        1.8532
  19        2.5068
  20        2.5070
  21        2.5158
  22        2.5158
  23        2.5158
  24        2.5160
  25        3.1735
  26        3.1735
  27        3.1735
  28        3.1735
  29        3.8356
  30        3.8356
  31        3.8356
  32        3.8356
  33        4.4781
  34        4.4781
  35        4.4781
  36        4.4781
  37        4.4847
  38        4.4848
  39        4.6948
  40        4.6948
  41        5.3327
  42        5.3328
  43        5.6958
  44        5.6958
  45        6.3629
  46        6.3629
  47        6.4195
  48        6.4197
  49        6.4368
  50        6.4368
  51        6.4368
  52        6.4369
  53        7.8486
  54        7.8486
  55        7.8875
  56        7.8875
  57        8.3482
  58        8.3482
  59        8.3482
  60        8.3482
  61        8.5272
  62        8.5272
  63        8.9429
  64        8.9429
  65        9.1222
  66        9.1222
  67        9.1644
  68        9.1644
  69        9.5475
  70        9.5475
  71        9.7588
  72        9.7626
 
  0.5000000E+00  0.5000000E+00  0.0000000E+00  0.9259259E-02
   1       -2.5744
   2       -2.5722
   3       -2.5717
   4       -2.5696
   5       -0.5424
   6       -0.5404
   7       -0.5394
   8       -0.5391
   9       -0.5389
  10       -0.5386
  11       -0.5376
  12       -0.5356
  13        1.4619
  14        1.4640
  15        1.4655
  16        1.4658
  17        1.4659
  18        1.4661
  19        1.4676
  20        1.4698
  21        3.3920
  22        3.3923
  23        3.3931
  24        3.3940
  25        3.3941
  26        3.3948
  27        3.3957
  28        3.3960
  29        3.5023
  30        3.5036
  31        3.5043
  32        3.5048
  33        3.5049
  34        3.5053
  35        3.5061
  36        3.5074
  37        4.9580
  38        4.9604
  39        4.9608
  40        4.9632
  41        5.4019
  42        5.4027
  43        5.4035
  44        5.4043
  45        5.9741
  46        5.9762
  47        5.9767
  48        5.9787
  49        7.3440
  50        7.3449
  51        7.3451
  52        7.3456
  53        7.3460
  54        7.3465
  55        7.3466
  56        7.3476
  57        8.7874
  58        8.7913
  59        8.7925
  60        8.7927
  61        8.7928
  62        8.7930
  63        8.7942
  64        8.7981
  65        9.3849
  66        9.3857
  67        9.3861
  68        9.3870
  69        9.3872
  70        9.3882
  71        9.3886
  72        9.3893
 
  0.0000000E+00  0.1666667E+00  0.1666667E+00  0.1851852E-01
   1       -3.4839
   2       -2.1178
   3       -2.1178
   4       -1.4407
   5       -1.4375
   6       -0.7635
   7       -0.7634
   8       -0.7634
   9       -0.0930
  10       -0.0911
  11       -0.0899
  12       -0.0879
  13        0.5796
  14        0.5796
  15        1.2437
  16        1.2449
  17        1.2464
  18        1.2470
  19        1.2476
  20        1.2497
  21        1.9117
  22        2.4963
  23        2.4964
  24        2.6539
  25        2.6539
  26        3.1884
  27        3.1884
  28        3.8929
  29        3.8960
  30        4.1104
  31        4.4926
  32        4.4926
  33        5.0809
  34        5.1222
  35        5.1222
  36        5.1616
  37        5.1616
  38        5.3861
  39        5.3861
  40        5.7883
  41        5.7884
  42        5.9942
  43        5.9942
  44        6.4172
  45        6.4173
  46        6.4331
  47        6.4350
  48        6.4364
  49        6.4384
  50        6.6625
  51        6.6633
  52        6.6634
  53        7.3001
  54        7.3001
  55        7.7191
  56        7.7196
  57        7.7216
  58        7.7220
  59        7.7229
  60        7.7233
  61        7.7285
  62        7.9348
  63        7.9349
  64        7.9395
  65        7.9398
  66        7.9574
  67        7.9575
  68        8.5840
  69        8.5840
  70        9.0090
  71        9.0090
  72        9.2249
 
  0.1666667E+00  0.1666667E+00  0.1666667E+00  0.3703704E-01
   1       -3.4267
   2       -2.0627
   3       -2.0611
   4       -2.0596
   5       -0.7106
   6       -0.7076
   7       -0.7076
   8       -0.7070
   9       -0.7069
  10       -0.7040
  11        0.6319
  12        0.6343
  13        0.6345
  14        0.6353
  15        0.6355
  16        0.6363
  17        0.6384
  18        1.9622
  19        1.9633
  20        1.9639
  21        1.9659
  22        1.9671
  23        1.9688
  24        3.2422
  25        3.2429
  26        3.2436
  27        3.2933
  28        3.2941
  29        3.2949
  30        4.5439
  31        4.5454
  32        4.5466
  33        4.5466
  34        4.5478
  35        4.5492
  36        4.6027
  37        5.8408
  38        5.8412
  39        5.8428
  40        5.8431
  41        5.8434
  42        5.8436
  43        5.8439
  44        5.8454
  45        5.8464
  46        6.0483
  47        6.0490
  48        6.0497
  49        7.1310
  50        7.1316
  51        7.1327
  52        7.1327
  53        7.1338
  54        7.1345
  55        7.3534
  56        7.3536
  57        7.3548
  58        7.3548
  59        7.3560
  60        7.3562
  61        8.4135
  62        8.4142
  63        8.4149
  64        8.6348
  65        8.6366
  66        8.6374
  67        8.6375
  68        8.6380
  69        8.6399
  70        8.6437
  71        8.6445
  72        8.6449
 
  0.3333333E+00  0.1666667E+00  0.1666667E+00  0.3703704E-01
   1       -3.2554
   2       -2.5719
   3       -1.8913
   4       -1.8913
   5       -1.2137
   6       -1.2137
   7       -0.5390
   8       -0.5388
   9       -0.5388
  10        0.1308
  11        0.1328
  12        0.1331
  13        0.1349
  14        0.8021
  15        0.8021
  16        1.4662
  17        1.4670
  18        1.4688
  19        1.4696
  20        2.1216
  21        2.1322
  22        2.7220
  23        2.7928
  24        2.7929
  25        2.8671
  26        3.4062
  27        3.4063
  28        3.4394
  29        3.4394
  30        4.0586
  31        4.0587
  32        4.1113
  33        4.1114
  34        4.6954
  35        4.6955
  36        4.7498
  37        4.7616
  38        4.7616
  39        5.3587
  40        5.3587
  41        5.4158
  42        6.0047
  43        6.0048
  44        6.0485
  45        6.0485
  46        6.2132
  47        6.2132
  48        6.6468
  49        6.6473
  50        6.6504
  51        6.6509
  52        6.8680
  53        6.8680
  54        7.3387
  55        7.4714
  56        7.5171
  57        7.5171
  58        7.9334
  59        7.9334
  60        8.1631
  61        8.1631
  62        8.5574
  63        8.5574
  64        8.7552
  65        8.7552
  66        8.8001
  67        8.8001
  68        9.2099
  69        9.2099
  70        9.4212
  71        9.4232
  72        9.4347
 
  0.5000000E+00  0.1666667E+00  0.1666667E+00  0.1851852E-01
   1       -2.9716
   2       -2.9689
   3       -1.6109
   4       -1.6091
   5       -1.6082
   6       -1.6064
   7       -0.2612
   8       -0.2598
   9       -0.2589
  10       -0.2581
  11       -0.2578
  12       -0.2560
  13        1.0754
  14        1.0777
  15        1.0786
  16        1.0794
  17        1.0810
  18        1.0823
  19        2.4035
  20        2.4046
  21        2.4048
  22        2.4054
  23        2.4061
  24        2.4077
  25        3.6768
  26        3.6771
  27        3.6796
  28        3.6797
  29        3.7205
  30        3.7212
  31        3.7221
  32        3.7227
  33        3.7259
  34        3.7274
  35        4.9786
  36        4.9803
  37        4.9813
  38        4.9830
  39        5.0311
  40        5.0318
  41        5.0326
  42        5.0334
  43        6.2722
  44        6.2727
  45        6.2750
  46        6.2754
  47        6.3294
  48        6.3310
  49        6.4847
  50        6.4852
  51        6.4873
  52        6.4878
  53        7.5541
  54        7.5547
  55        7.5559
  56        7.5564
  57        7.7853
  58        7.7858
  59        7.7879
  60        7.7884
  61        8.8333
  62        8.8342
  63        8.8351
  64        8.8359
  65        9.0150
  66        9.0166
  67        9.0612
  68        9.0630
  69        9.0638
  70        9.0656
  71       10.0563
  72       10.0648
 
  0.0000000E+00  0.3333333E+00  0.1666667E+00  0.3703704E-01
   1       -3.3125
   2       -2.6287
   3       -1.9479
   4       -1.2720
   5       -1.2700
   6       -1.2679
   7       -0.5970
   8       -0.5949
   9       -0.5929
  10        0.0750
  11        0.0769
  12        0.0772
  13        0.0792
  14        0.7444
  15        0.7476
  16        1.4114
  17        1.4128
  18        1.4148
  19        2.0664
  20        2.0728
  21        2.0752
  22        2.0759
  23        2.0784
  24        2.7381
  25        3.3518
  26        3.3848
  27        3.4009
  28        3.4041
  29        4.0044
  30        4.0383
  31        4.0415
  32        4.2698
  33        4.6930
  34        4.7088
  35        4.7120
  36        4.9075
  37        5.2493
  38        5.3030
  39        5.3063
  40        5.3446
  41        5.3478
  42        5.5456
  43        5.9184
  44        5.9499
  45        5.9532
  46        6.1585
  47        6.1837
  48        6.5825
  49        6.5951
  50        6.6395
  51        6.6427
  52        6.8127
  53        6.8230
  54        7.2399
  55        7.4173
  56        7.4610
  57        7.4623
  58        7.8836
  59        8.1059