       N       E                     dE             d eps       ncg     rms          rms(c)
DAV:   1     0.107358685691E+03    0.10736E+03   -0.31764E+04  5760   0.102E+03
DAV:   2    -0.105244122430E+03   -0.21260E+03   -0.19714E+03  6752   0.130E+02
DAV:   3    -0.117853688300E+03   -0.12610E+02   -0.11991E+02  7208   0.251E+01
DAV:   4    -0.118107848287E+03   -0.25416E+00   -0.25181E+00  6744   0.385E+00
DAV:   5    -0.118111115114E+03   -0.32668E-02   -0.32654E-02  6688   0.522E-01    0.490E+00
DAV:   6    -0.117724562540E+03    0.38655E+00   -0.72263E-02  6656   0.812E-01    0.304E+00
DAV:   7    -0.117447776568E+03    0.27679E+00   -0.20897E-01  6328   0.130E+00    0.136E-01
DAV:   8    -0.117447618225E+03    0.15834E-03   -0.15485E-03  6888   0.138E-01    0.391E-02
DAV:   9    -0.117447632806E+03   -0.14580E-04   -0.48947E-05  6792   0.194E-02    0.315E-03
DAV:  10    -0.117447630408E+03    0.23976E-05   -0.15451E-06  6936   0.401E-03    0.179E-03
DAV:  11    -0.117447626789E+03    0.36196E-05   -0.11507E-07  6768   0.969E-04    0.572E-04
DAV:  12    -0.117447625875E+03    0.91376E-06   -0.16286E-08  4144   0.364E-04    0.842E-05
DAV:  13    -0.117447625822E+03    0.52786E-07   -0.27555E-09  3744   0.169E-04    0.286E-05
DAV:  14    -0.117447625832E+03   -0.10379E-07   -0.41319E-10  3760   0.683E-05    0.950E-06
DAV:  15    -0.117447625854E+03   -0.21123E-07   -0.11479E-10  3720   0.368E-05    0.448E-06
DAV:  16    -0.117447625858E+03   -0.45522E-08   -0.26359E-11  3712   0.168E-05
   1 F= -.11744763E+03 E0= -.11744734E+03  d E =-.577251E-03
