32   
1    

1    
  0.0100000000000000   0.0000000000000000   0.0000000000000000
  -0.0282000200    0.0000000000    0.0000000000
   0.0013783100    0.0000000000    0.0000000000
  -0.0002850900    0.0000000000    0.0000000000
   0.0003574000   -0.0000000000    0.0000000000
  -0.0002850900    0.0000000000   -0.0000000000
   0.0003574000    0.0000000000    0.0000000000
   0.0002183800    0.0000000000    0.0000000000
  -0.0002995700   -0.0000000000    0.0000000000
  -0.0011748300    0.0000193600   -0.0000193600
  -0.0007283600    0.0000057800   -0.0000057800
  -0.0011748300   -0.0000193600   -0.0000193600
  -0.0007283600   -0.0000057800   -0.0000057800
  -0.0011748300    0.0000193600    0.0000193600
  -0.0007283600    0.0000057800    0.0000057800
  -0.0011748300   -0.0000193600    0.0000193600
  -0.0007283600   -0.0000057800    0.0000057800
   0.0044223100   -0.0000000000   -0.0045099500
   0.0045116900    0.0000000000    0.0046376400
  -0.0001669200    0.0000000000    0.0005881000
  -0.0001743100    0.0000000000   -0.0006019200
   0.0044223100    0.0000000000    0.0045099500
   0.0045116900    0.0000000000   -0.0046376400
  -0.0001669200    0.0000000000   -0.0005881000
  -0.0001743100    0.0000000000    0.0006019200
   0.0044223100    0.0045099500    0.0000000000
   0.0045116900   -0.0046376400   -0.0000000000
   0.0044223100   -0.0045099500   -0.0000000000
   0.0045116900    0.0046376400    0.0000000000
  -0.0001669200   -0.0005881000   -0.0000000000
  -0.0001743100    0.0006019200    0.0000000000
  -0.0001669200    0.0005881000    0.0000000000
  -0.0001743100   -0.0006019200    0.0000000000
