  32  32   0   0
  0.1410542E+02  0.7670882E-09  0.7670882E-09  0.7670882E-09  0.5000000E-15
  1.000000000000000E-004
  CAR 
 unknown system                          
     14.67581384     -3.34471145  301      9.72184483      1.00000000
     -3.345  0.0000E+00  0.0000E+00
     -3.285  0.0000E+00  0.0000E+00
     -3.225  0.0000E+00  0.0000E+00
     -3.165  0.0000E+00  0.0000E+00
     -3.104  0.0000E+00  0.0000E+00
     -3.044  0.0000E+00  0.0000E+00
     -2.984  0.0000E+00  0.0000E+00
     -2.924  0.0000E+00  0.0000E+00
     -2.864  0.0000E+00  0.0000E+00
     -2.804  0.0000E+00  0.0000E+00
     -2.744  0.0000E+00  0.0000E+00
     -2.684  0.0000E+00  0.0000E+00
     -2.624  0.0000E+00  0.0000E+00
     -2.564  0.3130E-08  0.1880E-09
     -2.504  0.9698E-01  0.5826E-02
     -2.444  0.5845E+00  0.4094E-01
     -2.384  0.1200E+01  0.1130E+00
     -2.324  0.9361E+00  0.1692E+00
     -2.263  0.2246E+01  0.3041E+00
     -2.203  0.2757E+01  0.4698E+00
     -2.143  0.4246E-01  0.4723E+00
     -2.083  0.1178E+01  0.5431E+00
     -2.023  0.3108E+01  0.7297E+00
     -1.963  0.3220E+01  0.9232E+00
     -1.903  0.1919E+01  0.1038E+01
     -1.843  0.2403E+01  0.1183E+01
     -1.783  0.4674E+01  0.1464E+01
     -1.723  0.9085E-02  0.1464E+01
     -1.663  0.1480E+01  0.1553E+01
     -1.603  0.6085E+01  0.1919E+01
     -1.543  0.3395E+01  0.2122E+01
     -1.483  0.2424E+01  0.2268E+01
     -1.423  0.4664E+01  0.2548E+01
     -1.362  0.2325E+01  0.2688E+01
     -1.302  0.9534E+00  0.2745E+01
     -1.242  0.3877E+01  0.2978E+01
     -1.182  0.7340E+01  0.3419E+01
     -1.122  0.3166E+01  0.3609E+01
     -1.062  0.1281E+00  0.3617E+01
     -1.002  0.7883E+01  0.4091E+01
     -0.942  0.3637E+01  0.4309E+01
     -0.882  0.1131E+01  0.4377E+01
     -0.822  0.4690E+01  0.4659E+01
     -0.762  0.4683E+01  0.4940E+01
     -0.702  0.4958E+01  0.5238E+01
     -0.642  0.3871E+01  0.5471E+01
     -0.582  0.7535E+01  0.5923E+01
     -0.521  0.5025E+00  0.5953E+01
     -0.461  0.2347E+01  0.6094E+01
     -0.401  0.9579E+01  0.6670E+01
     -0.341  0.5373E+01  0.6993E+01
     -0.281  0.3394E+01  0.7196E+01
     -0.221  0.7224E+01  0.7630E+01
     -0.161  0.4697E+01  0.7913E+01
     -0.101  0.2879E-01  0.7914E+01
     -0.041  0.2582E+01  0.8069E+01
      0.019  0.1024E+02  0.8685E+01
      0.079  0.5940E+01  0.9041E+01
      0.139  0.2373E+01  0.9184E+01
      0.199  0.7275E+01  0.9621E+01
      0.259  0.9029E+01  0.1016E+02
      0.319  0.3836E+01  0.1039E+02
      0.380  0.5437E+01  0.1072E+02
      0.440  0.2379E+01  0.1086E+02
      0.500  0.6986E+01  0.1128E+02
      0.560  0.2246E+01  0.1142E+02
      0.620  0.1249E+02  0.1217E+02
      0.680  0.1570E+01  0.1226E+02
      0.740  0.5898E+00  0.1230E+02
      0.800  0.9687E+01  0.1288E+02
      0.860  0.9813E+01  0.1347E+02
      0.920  0.5519E+01  0.1380E+02
      0.980  0.9870E+01  0.1439E+02
      1.040  0.4707E+01  0.1468E+02
      1.100  0.2211E+00  0.1469E+02
      1.160  0.5466E+01  0.1502E+02
      1.220  0.1311E+02  0.1581E+02
      1.281  0.6427E+01  0.1619E+02
      1.341  0.2369E+01  0.1633E+02
      1.401  0.9831E+01  0.1693E+02
      1.461  0.4111E+01  0.1717E+02
      1.521  0.2244E+01  0.1731E+02
      1.581  0.9981E+01  0.1791E+02
      1.641  0.4758E+01  0.1819E+02
      1.701  0.7983E+01  0.1867E+02
      1.761  0.7223E+01  0.1911E+02
      1.821  0.1251E+02  0.1986E+02
      1.881  0.1433E+00  0.1987E+02
      1.941  0.3027E+01  0.2005E+02
      2.001  0.1844E+02  0.2116E+02
      2.061  0.1082E+02  0.2181E+02
      2.122  0.3260E+00  0.2183E+02
      2.182  0.4724E+01  0.2211E+02
      2.242  0.9255E+01  0.2266E+02
      2.302  0.1661E+01  0.2276E+02
      2.362  0.5254E+01  0.2308E+02
      2.422  0.1056E+02  0.2371E+02
      2.482  0.7116E+01  0.2414E+02
      2.542  0.1018E+02  0.2475E+02
      2.602  0.1324E+02  0.2555E+02
      2.662  0.3277E+00  0.2557E+02
      2.722  0.7130E+01  0.2600E+02
      2.782  0.1075E+02  0.2664E+02
      2.842  0.1085E+02  0.2729E+02
      2.902  0.4649E+01  0.2757E+02
      2.962  0.7049E+01  0.2800E+02
      3.023  0.1393E+02  0.2883E+02
      3.083  0.1041E-08  0.2883E+02
      3.143  0.9050E+01  0.2938E+02
      3.203  0.9586E+01  0.2995E+02
      3.263  0.5079E+01  0.3026E+02
      3.323  0.1171E+02  0.3096E+02
      3.383  0.1296E+02  0.3174E+02
      3.443  0.5428E+00  0.3177E+02
      3.503  0.5135E+01  0.3208E+02
      3.563  0.1246E+02  0.3283E+02
      3.623  0.1087E+02  0.3348E+02
      3.683  0.8508E-01  0.3349E+02
      3.743  0.1445E+02  0.3436E+02
      3.803  0.1349E+02  0.3517E+02
      3.863  0.8310E+00  0.3522E+02
      3.924  0.1427E+02  0.3607E+02
      3.984  0.5151E+01  0.3638E+02
      4.044  0.1252E+02  0.3714E+02
      4.104  0.8097E+01  0.3762E+02
      4.164  0.1617E+02  0.3859E+02
      4.224  0.2328E+01  0.3873E+02
      4.284  0.5527E+01  0.3906E+02
      4.344  0.1521E+02  0.3998E+02
      4.404  0.7249E+01  0.4041E+02
      4.464  0.5527E+01  0.4075E+02
      4.524  0.1350E+02  0.4156E+02
      4.584  0.5093E+00  0.4159E+02
      4.644  0.5208E+01  0.4190E+02
      4.704  0.1604E+02  0.4286E+02
      4.765  0.1387E+02  0.4370E+02
      4.825  0.6923E+01  0.4411E+02
      4.885  0.1583E+02  0.4506E+02
      4.945  0.9759E+01  0.4565E+02
      5.005  0.6984E+01  0.4607E+02
      5.065  0.1091E+02  0.4673E+02
      5.125  0.8093E+01  0.4721E+02
      5.185  0.9340E+01  0.4777E+02
      5.245  0.8852E+01  0.4830E+02
      5.305  0.9753E+01  0.4889E+02
      5.365  0.3518E+01  0.4910E+02
      5.425  0.9901E+01  0.4970E+02
      5.485  0.1054E+02  0.5033E+02
      5.545  0.6044E+01  0.5069E+02
      5.605  0.6522E+01  0.5108E+02
      5.666  0.1591E+02  0.5204E+02
      5.726  0.7709E+01  0.5250E+02
      5.786  0.1094E+02  0.5316E+02
      5.846  0.1899E+02  0.5430E+02
      5.906  0.8155E+01  0.5479E+02
      5.966  0.7236E+01  0.5523E+02
      6.026  0.1740E+02  0.5627E+02
      6.086  0.2821E+01  0.5644E+02
      6.146  0.6275E+01  0.5682E+02
      6.206  0.1422E+02  0.5767E+02
      6.266  0.2396E+00  0.5769E+02
      6.326  0.1471E+02  0.5857E+02
      6.386  0.1440E+02  0.5944E+02
      6.446  0.8330E+01  0.5994E+02
      6.507  0.2335E+02  0.6134E+02
      6.567  0.1364E+02  0.6216E+02
      6.627  0.5872E+01  0.6251E+02
      6.687  0.1309E+02  0.6330E+02
      6.747  0.3191E+01  0.6349E+02
      6.807  0.5649E+01  0.6383E+02
      6.867  0.9324E+01  0.6439E+02
      6.927  0.1806E+02  0.6547E+02
      6.987  0.1139E+02  0.6616E+02
      7.047  0.8883E+01  0.6669E+02
      7.107  0.1398E+02  0.6753E+02
      7.167  0.1555E+02  0.6847E+02
      7.227  0.8368E+01  0.6897E+02
      7.287  0.7244E+01  0.6940E+02
      7.347  0.6466E+01  0.6979E+02
      7.408  0.1389E+02  0.7063E+02
      7.468  0.1462E+02  0.7150E+02
      7.528  0.1456E+01  0.7159E+02
      7.588  0.1262E+02  0.7235E+02
      7.648  0.9194E+01  0.7290E+02
      7.708  0.1452E+02  0.7377E+02
      7.768  0.7792E+01  0.7424E+02
      7.828  0.8151E+01  0.7473E+02
      7.888  0.1071E+02  0.7538E+02
      7.948  0.1855E+02  0.7649E+02
      8.008  0.7851E+01  0.7696E+02
      8.068  0.1799E+01  0.7707E+02
      8.128  0.1101E+02  0.7773E+02
      8.188  0.1388E+02  0.7856E+02
      8.248  0.1459E+02  0.7944E+02
      8.309  0.2013E+02  0.8065E+02
      8.369  0.6396E+01  0.8103E+02
      8.429  0.2671E+01  0.8119E+02
      8.489  0.1418E+02  0.8205E+02
      8.549  0.1052E+02  0.8268E+02
      8.609  0.8018E+01  0.8316E+02
      8.669  0.1646E+02  0.8415E+02
      8.729  0.1043E+02  0.8478E+02
      8.789  0.1608E+02  0.8574E+02
      8.849  0.1165E+02  0.8644E+02
      8.909  0.9241E+01  0.8700E+02
      8.969  0.1471E+02  0.8788E+02
      9.029  0.4642E+01  0.8816E+02
      9.089  0.1049E+02  0.8879E+02
      9.150  0.1600E+02  0.8975E+02
      9.210  0.1184E+02  0.9046E+02
      9.270  0.1367E+02  0.9128E+02
      9.330  0.1111E+02  0.9195E+02
      9.390  0.3969E+01  0.9219E+02
      9.450  0.1543E+02  0.9312E+02
      9.510  0.1138E+02  0.9380E+02
      9.570  0.1606E+02  0.9476E+02
      9.630  0.2035E+01  0.9489E+02
      9.690  0.1176E+02  0.9559E+02
      9.750  0.1042E+02  0.9622E+02
      9.810  0.1695E+02  0.9724E+02
      9.870  0.7475E+01  0.9769E+02
      9.930  0.8521E+01  0.9820E+02
      9.990  0.8942E+01  0.9873E+02
     10.051  0.6677E+01  0.9914E+02
     10.111  0.5422E+01  0.9946E+02
     10.171  0.1625E+02  0.1004E+03
     10.231  0.1242E+02  0.1012E+03
     10.291  0.1971E+02  0.1024E+03
     10.351  0.9986E+01  0.1030E+03
     10.411  0.1255E+02  0.1037E+03
     10.471  0.1897E+02  0.1049E+03
     10.531  0.1395E+02  0.1057E+03
     10.591  0.1929E+02  0.1069E+03
     10.651  0.1241E+02  0.1076E+03
     10.711  0.2029E+02  0.1088E+03
     10.771  0.7903E+01  0.1093E+03
     10.831  0.1529E+02  0.1102E+03
     10.892  0.2828E+01  0.1104E+03
     10.952  0.2354E+01  0.1105E+03
     11.012  0.1074E+02  0.1112E+03
     11.072  0.1265E+02  0.1119E+03
     11.132  0.1480E+02  0.1128E+03
     11.192  0.6221E+01  0.1132E+03
     11.252  0.2193E+02  0.1145E+03
     11.312  0.8206E+01  0.1150E+03
     11.372  0.1443E+02  0.1159E+03
     11.432  0.6494E+01  0.1163E+03
     11.492  0.1053E+02  0.1169E+03
     11.552  0.1984E+02  0.1181E+03
     11.612  0.1499E+02  0.1190E+03
     11.672  0.1619E+02  0.1200E+03
     11.732  0.9852E+01  0.1206E+03
     11.793  0.1053E+02  0.1212E+03
     11.853  0.1269E+02  0.1219E+03
     11.913  0.1129E+02  0.1226E+03
     11.973  0.9400E+01  0.1232E+03
     12.033  0.8139E+01  0.1237E+03
     12.093  0.2012E+02  0.1249E+03
     12.153  0.1218E+02  0.1256E+03
     12.213  0.1426E+02  0.1265E+03
     12.273  0.6635E+01  0.1269E+03
     12.333  0.7489E+01  0.1273E+03
     12.393  0.9550E+01  0.1279E+03
     12.453  0.1758E+02  0.1290E+03
     12.513  0.1659E+02  0.1300E+03
     12.573  0.2852E+02  0.1317E+03
     12.633  0.1432E+01  0.1318E+03
     12.694  0.1138E+02  0.1324E+03
     12.754  0.2598E+02  0.1340E+03
     12.814  0.1031E+02  0.1346E+03
     12.874  0.1342E+01  0.1347E+03
     12.934  0.4350E+01  0.1350E+03
     12.994  0.4140E+01  0.1352E+03
     13.054  0.1900E+02  0.1363E+03
     13.114  0.1613E+02  0.1373E+03
     13.174  0.9106E+01  0.1379E+03
     13.234  0.1885E+02  0.1390E+03
     13.294  0.1169E+02  0.1397E+03
     13.354  0.1236E+02  0.1404E+03
     13.414  0.1951E+02  0.1416E+03
     13.474  0.8051E+01  0.1421E+03
     13.535  0.8430E+01  0.1426E+03
     13.595  0.0000E+00  0.1426E+03
     13.655  0.2305E-07  0.1426E+03
     13.715  0.6938E+01  0.1430E+03
     13.775  0.7096E+01  0.1434E+03
     13.835  0.6935E+01  0.1439E+03
     13.895  0.2327E+01  0.1440E+03
     13.955  0.0000E+00  0.1440E+03
     14.015  0.0000E+00  0.1440E+03
     14.075  0.0000E+00  0.1440E+03
     14.135  0.0000E+00  0.1440E+03
     14.195  0.0000E+00  0.1440E+03
     14.255  0.0000E+00  0.1440E+03
     14.315  0.0000E+00  0.1440E+03
     14.375  0.0000E+00  0.1440E+03
     14.436  0.0000E+00  0.1440E+03
     14.496  0.0000E+00  0.1440E+03
     14.556  0.0000E+00  0.1440E+03
     14.616  0.0000E+00  0.1440E+03
     14.676  0.0000E+00  0.1440E+03
