 vasp.4.6.28 25Jul05 complex 
 executed on             LinuxIFC date 2016.10.19  17:39:04
 running on    8 nodes
 distr:  one band on    1 nodes,    8 groups


--------------------------------------------------------------------------------------------------------


 INCAR:
 POTCAR:   PAW_PBE Al 04Jan2001                   
 POTCAR:   PAW_PBE Al 04Jan2001                   
   VRHFIN =Al: s2p1                                                             
   LEXCH  = PE                                                                  
   EATOM  =    53.5387 eV,    3.9350 Ry                                         
                                                                                
   TITEL  = PAW_PBE Al 04Jan2001                                                
   LULTRA =        F    use ultrasoft PP ?                                      
   IUNSCR =        1    unscreen: 0-lin 1-nonlin 2-no                           
   RPACOR =    1.500    partial core radius                                     
   POMASS =   26.982; ZVAL   =    3.000    mass and valenz                      
   RCORE  =    1.900    outmost cutoff radius                                   
   RWIGS  =    2.650; RWIGS  =    1.402    wigner-seitz radius (au A)           
   ENMAX  =  240.300; ENMIN  =  180.225 eV                                      
   ICORE  =        2    local potential                                         
   LCOR   =        T    correct aug charges                                     
   LPAW   =        T    paw PP                                                  
   EAUG   =  291.052                                                            
   DEXC   =    -.041                                                            
   RMAX   =    2.974    core radius for proj-oper                               
   RAUG   =    1.300    factor for augmentation sphere                          
   RDEP   =    1.966    radius for radial grids                                 
   QCUT   =   -4.203; QGAM   =    8.405    optimization parameters              
                                                                                
   Description                                                                  
     l     E      TYP  RCUT    TYP  RCUT                                        
     0   .000     23  1.900                                                     
     0   .000     23  1.900                                                     
     1   .000     23  1.900                                                     
     1  1.000     23  1.900                                                     
     2   .000      7  1.900                                                     
  local pseudopotential read in
  partial core-charges read in
  atomic valenz-charges read in
  non local Contribution for L=           0  read in
    real space projection operators read in
  non local Contribution for L=           0  read in
    real space projection operators read in
  non local Contribution for L=           1  read in
    real space projection operators read in
  non local Contribution for L=           1  read in
    real space projection operators read in
    PAW grid and wavefunctions read in
 
   number of l-projection  operators is LMAX  =           4
   number of lm-projection operators is LMMAX =           8
 

 ----------------------------------------------------------------------------- 
|                                                                             |
|  ADVICE TO THIS USER RUNNING 'VASP/VAMP'   (HEAR YOUR MASTER'S VOICE ...):  |
|                                                                             |
|      You have a (more or less) 'large supercell' and for larger cells       |
|      it might be more efficient to use real space projection operators      |
|      So try LREAL= Auto  in the INCAR   file.                               |
|      Mind: If you want to do an extremely accurate calculations keep the    |
|      reciprocal projection scheme          (i.e. LREAL=.FALSE.)             |
|                                                                             |
 ----------------------------------------------------------------------------- 

 PAW_PBE Al 04Jan2001                   :
 energy of atom  1       EATOM=  -53.5387
 kinetic energy error for atom=    0.0003 (will be added to EATOM!!)
 
 EXHCAR: internal setup
 exchange correlation table for  LEXCH =        8
   RHO(1)=    0.500       N(1)  =     2000
   RHO(2)=  100.500       N(2)  =     4000
 
 POSCAR: Al                                      
  positions in direct lattice
  No initial velocities read in
 


--------------------------------------------------------------------------------------------------------


 ion  position               nearest neighbor table
   1  0.251  0.250  0.000-  18 2.71  22 2.71  26 2.71  28 2.71   9 2.71  11 2.71  13 2.71  15 2.71
                            25 2.72  21 2.72  27 2.72  17 2.72
   2  0.750  0.250  0.000-  10 2.71  12 2.71  14 2.71  16 2.71  17 2.71  18 2.71  21 2.71  22 2.71
                            25 2.71  26 2.71  27 2.71  28 2.71
   3  0.250  0.750  0.000-   9 2.71  11 2.71  13 2.71  15 2.71  19 2.71  20 2.71  23 2.71  24 2.71
                            25 2.71  26 2.71  27 2.71  28 2.71
   4  0.750  0.750  0.000-  10 2.71  12 2.71  14 2.71  16 2.71  19 2.71  20 2.71  23 2.71  24 2.71
                            25 2.71  26 2.71  27 2.71  28 2.71
   5  0.250  0.250  0.500-   9 2.71  11 2.71  13 2.71  15 2.71  17 2.71  18 2.71  21 2.71  22 2.71
                            29 2.71  30 2.71  31 2.71  32 2.71
   6  0.750  0.250  0.500-  10 2.71  12 2.71  14 2.71  16 2.71  17 2.71  18 2.71  21 2.71  22 2.71
                            29 2.71  30 2.71  31 2.71  32 2.71
   7  0.250  0.750  0.500-   9 2.71  11 2.71  13 2.71  15 2.71  19 2.71  20 2.71  23 2.71  24 2.71
                            29 2.71  30 2.71  31 2.71  32 2.71
   8  0.750  0.750  0.500-  10 2.71  12 2.71  14 2.71  16 2.71  19 2.71  20 2.71  23 2.71  24 2.71
                            29 2.71  30 2.71  31 2.71  32 2.71
   9  0.250  0.000  0.250-   3 2.71   5 2.71   7 2.71  17 2.71  18 2.71  19 2.71  20 2.71  25 2.71
                            26 2.71  29 2.71  30 2.71   1 2.71
  10  0.750  0.000  0.250-   2 2.71   4 2.71   6 2.71   8 2.71  17 2.71  18 2.71  19 2.71  20 2.71
                            25 2.71  26 2.71  29 2.71  30 2.71
  11  0.250  0.500  0.250-   3 2.71   5 2.71   7 2.71  17 2.71  18 2.71  19 2.71  20 2.71  27 2.71
                            28 2.71  31 2.71  32 2.71   1 2.71
  12  0.750  0.500  0.250-   2 2.71   4 2.71   6 2.71   8 2.71  17 2.71  18 2.71  19 2.71  20 2.71
                            27 2.71  28 2.71  31 2.71  32 2.71
  13  0.250  0.000  0.750-   3 2.71   5 2.71   7 2.71  21 2.71  22 2.71  23 2.71  24 2.71  25 2.71
                            26 2.71  29 2.71  30 2.71   1 2.71
  14  0.750  0.000  0.750-   2 2.71   4 2.71   6 2.71   8 2.71  21 2.71  22 2.71  23 2.71  24 2.71
                            25 2.71  26 2.71  29 2.71  30 2.71
  15  0.250  0.500  0.750-   3 2.71   5 2.71   7 2.71  21 2.71  22 2.71  23 2.71  24 2.71  27 2.71
                            28 2.71  31 2.71  32 2.71   1 2.71
  16  0.750  0.500  0.750-   2 2.71   4 2.71   6 2.71   8 2.71  21 2.71  22 2.71  23 2.71  24 2.71
                            27 2.71  28 2.71  31 2.71  32 2.71
  17  0.000  0.250  0.250-   2 2.71   5 2.71   6 2.71   9 2.71  10 2.71  11 2.71  12 2.71  25 2.71
                            27 2.71  29 2.71  31 2.71   1 2.72
  18  0.500  0.250  0.250-   1 2.71   2 2.71   5 2.71   6 2.71   9 2.71  10 2.71  11 2.71  12 2.71
                            26 2.71  28 2.71  30 2.71  32 2.71
  19  0.000  0.750  0.250-   3 2.71   4 2.71   7 2.71   8 2.71   9 2.71  10 2.71  11 2.71  12 2.71
                            25 2.71  27 2.71  29 2.71  31 2.71
  20  0.500  0.750  0.250-   3 2.71   4 2.71   7 2.71   8 2.71   9 2.71  10 2.71  11 2.71  12 2.71
                            26 2.71  28 2.71  30 2.71  32 2.71
  21  0.000  0.250  0.750-   2 2.71   5 2.71   6 2.71  13 2.71  14 2.71  15 2.71  16 2.71  25 2.71
                            27 2.71  29 2.71  31 2.71   1 2.72
  22  0.500  0.250  0.750-   1 2.71   2 2.71   5 2.71   6 2.71  13 2.71  14 2.71  15 2.71  16 2.71
                            26 2.71  28 2.71  30 2.71  32 2.71
  23  0.000  0.750  0.750-   3 2.71   4 2.71   7 2.71   8 2.71  13 2.71  14 2.71  15 2.71  16 2.71
                            25 2.71  27 2.71  29 2.71  31 2.71
  24  0.500  0.750  0.750-   3 2.71   4 2.71   7 2.71   8 2.71  13 2.71  14 2.71  15 2.71  16 2.71
                            26 2.71  28 2.71  30 2.71  32 2.71
  25  0.000  0.000  0.000-   2 2.71   3 2.71   4 2.71   9 2.71  10 2.71  13 2.71  14 2.71  17 2.71
                            19 2.71  21 2.71  23 2.71   1 2.72
  26  0.500  0.000  0.000-   1 2.71   2 2.71   3 2.71   4 2.71   9 2.71  10 2.71  13 2.71  14 2.71
                            18 2.71  20 2.71  22 2.71  24 2.71
  27  0.000  0.500  0.000-   2 2.71   3 2.71   4 2.71  11 2.71  12 2.71  15 2.71  16 2.71  17 2.71
                            19 2.71  21 2.71  23 2.71   1 2.72
  28  0.500  0.500  0.000-   1 2.71   2 2.71   3 2.71   4 2.71  11 2.71  12 2.71  15 2.71  16 2.71
                            18 2.71  20 2.71  22 2.71  24 2.71
  29  0.000  0.000  0.500-   5 2.71   6 2.71   7 2.71   8 2.71   9 2.71  10 2.71  13 2.71  14 2.71
                            17 2.71  19 2.71  21 2.71  23 2.71
  30  0.500  0.000  0.500-   5 2.71   6 2.71   7 2.71   8 2.71   9 2.71  10 2.71  13 2.71  14 2.71
                            18 2.71  20 2.71  22 2.71  24 2.71
  31  0.000  0.500  0.500-   5 2.71   6 2.71   7 2.71   8 2.71  11 2.71  12 2.71  15 2.71  16 2.71
                            17 2.71  19 2.71  21 2.71  23 2.71
  32  0.500  0.500  0.500-   5 2.71   6 2.71   7 2.71   8 2.71  11 2.71  12 2.71  15 2.71  16 2.71
                            18 2.71  20 2.71  22 2.71  24 2.71
 
  LATTYP: Found a simple cubic cell.
 ALAT       =     7.6708821024
  
  Lattice vectors:
  
 A1 = (   7.6708821024,   0.0000000000,   0.0000000000)
 A2 = (   0.0000000000,   7.6708821024,   0.0000000000)
 A3 = (   0.0000000000,   0.0000000000,   7.6708821024)
 Subroutine PRICEL returns:
 Original cell was already a primitive cell.
 

Analysis of symmetry for initial positions (statically):

 Routine SETGRP: Setting up the symmetry group for a 
 simple cubic supercell.


 Subroutine GETGRP returns: Found  8 space group operations
 (whereof  2 operations were pure point group operations)
 out of a pool of 48 trial point group operations.


The static configuration has the point symmetry C_1h.
 The point group associated with its full space group is C_4v.

Analysis of symmetry for dynamics (positions and initial velocities):

 Subroutine DYNSYM returns: Found  8 space group operations
 (whereof  2 operations were pure point group operations)
 out of a pool of  8 trial space group operations
 (whereof  2 operations were pure point group operations)
 and found also     1 'primitive' translations


The dynamic configuration has the point symmetry C_1h.
 The point group associated with its full space group is C_4v.
 
 
 KPOINTS: Automatic mesh                          

Automatic generation of k-mesh.
 generate k-points for:   7   7   7
 
 Subroutine IBZKPT returns following result:
 ===========================================
 
 Found     40 irreducible k-points:
 
 Following reciprocal coordinates:
            Coordinates               Weight
  0.000000  0.000000  0.000000      1.000000
  0.142857  0.000000  0.000000      2.000000
  0.285714  0.000000  0.000000      2.000000
  0.428571  0.000000  0.000000      2.000000
  0.000000  0.142857  0.000000      4.000000
  0.142857  0.142857  0.000000      8.000000
  0.285714  0.142857  0.000000      8.000000
  0.428571  0.142857  0.000000      8.000000
  0.000000  0.285714  0.000000      4.000000
  0.142857  0.285714  0.000000      8.000000
  0.285714  0.285714  0.000000      8.000000
  0.428571  0.285714  0.000000      8.000000
  0.000000  0.428571  0.000000      4.000000
  0.142857  0.428571  0.000000      8.000000
  0.285714  0.428571  0.000000      8.000000
  0.428571  0.428571  0.000000      8.000000
  0.000000  0.142857  0.142857      4.000000
  0.142857  0.142857  0.142857      8.000000
  0.285714  0.142857  0.142857      8.000000
  0.428571  0.142857  0.142857      8.000000
  0.000000  0.285714  0.142857      8.000000
  0.142857  0.285714  0.142857     16.000000
  0.285714  0.285714  0.142857     16.000000
  0.428571  0.285714  0.142857     16.000000
  0.000000  0.428571  0.142857      8.000000
  0.142857  0.428571  0.142857     16.000000
  0.285714  0.428571  0.142857     16.000000
  0.428571  0.428571  0.142857     16.000000
  0.000000  0.285714  0.285714      4.000000
  0.142857  0.285714  0.285714      8.000000
  0.285714  0.285714  0.285714      8.000000
  0.428571  0.285714  0.285714      8.000000
  0.000000  0.428571  0.285714      8.000000
  0.142857  0.428571  0.285714     16.000000
  0.285714  0.428571  0.285714     16.000000
  0.428571  0.428571  0.285714     16.000000
  0.000000  0.428571  0.428571      4.000000
  0.142857  0.428571  0.428571      8.000000
  0.285714  0.428571  0.428571      8.000000
  0.428571  0.428571  0.428571      8.000000
 
 Following cartesian coordinates:
            Coordinates               Weight
  0.000000  0.000000  0.000000      1.000000
  0.018623  0.000000  0.000000      2.000000
  0.037247  0.000000  0.000000      2.000000
  0.055870  0.000000  0.000000      2.000000
  0.000000  0.018623  0.000000      4.000000
  0.018623  0.018623  0.000000      8.000000
  0.037247  0.018623  0.000000      8.000000
  0.055870  0.018623  0.000000      8.000000
  0.000000  0.037247  0.000000      4.000000
  0.018623  0.037247  0.000000      8.000000
  0.037247  0.037247  0.000000      8.000000
  0.055870  0.037247  0.000000      8.000000
  0.000000  0.055870  0.000000      4.000000
  0.018623  0.055870  0.000000      8.000000
  0.037247  0.055870  0.000000      8.000000
  0.055870  0.055870  0.000000      8.000000
  0.000000  0.018623  0.018623      4.000000
  0.018623  0.018623  0.018623      8.000000
  0.037247  0.018623  0.018623      8.000000
  0.055870  0.018623  0.018623      8.000000
  0.000000  0.037247  0.018623      8.000000
  0.018623  0.037247  0.018623     16.000000
  0.037247  0.037247  0.018623     16.000000
  0.055870  0.037247  0.018623     16.000000
  0.000000  0.055870  0.018623      8.000000
  0.018623  0.055870  0.018623     16.000000
  0.037247  0.055870  0.018623     16.000000
  0.055870  0.055870  0.018623     16.000000
  0.000000  0.037247  0.037247      4.000000
  0.018623  0.037247  0.037247      8.000000
  0.037247  0.037247  0.037247      8.000000
  0.055870  0.037247  0.037247      8.000000
  0.000000  0.055870  0.037247      8.000000
  0.018623  0.055870  0.037247     16.000000
  0.037247  0.055870  0.037247     16.000000
  0.055870  0.055870  0.037247     16.000000
  0.000000  0.055870  0.055870      4.000000
  0.018623  0.055870  0.055870      8.000000
  0.037247  0.055870  0.055870      8.000000
  0.055870  0.055870  0.055870      8.000000
 


--------------------------------------------------------------------------------------------------------




 Dimension of arrays:
   k-Points           NKPTS =     40   number of bands    NBANDS=     72
   number of dos      NEDOS =    301   number of ions     NIONS =     32
   non local maximal  LDIM  =      4   non local SUM 2l+1 LMDIM =      8
   total plane-waves  NPLWV = 175616
   max r-space proj   IRMAX =      1   max aug-charges    IRDMAX=  15340
   dimension x,y,z NGX =    56 NGY =   56 NGZ =   56
   dimension x,y,z NGXF=   112 NGYF=  112 NGZF=  112
   support grid    NGXF=   112 NGYF=  112 NGZF=  112
   ions per type =              32
 NGX,Y,Z   is equivalent  to a cutoff of  12.14, 12.14, 12.14 a.u.
 NGXF,Y,Z  is equivalent  to a cutoff of  24.27, 24.27, 24.27 a.u.


 I would recommend the setting:
   dimension x,y,z NGX =    56 NGY =   56 NGZ =   56
 SYSTEM =  unknown system                          
 POSCAR =  Al                                      

 Startparameter for this run:
   NWRITE =      2    write-flag & timer
   PREC   = accura    medium, high low
   ISTART =      0    job   : 0-new  1-cont  2-samecut
   ICHARG =      2    charge: 1-file 2-atom 10-const
   ISPIN  =      1    spin polarized calculation?
   LNONCOLLINEAR =      F non collinear calculations
   LSORBIT =      F    spin-orbit coupling
   INIWAV =      1    electr: 0-lowe 1-rand  2-diag
   LASPH  =      F    aspherical Exc in radial PAW
   METAGGA=      F    non-selfconsistent MetaGGA calc.

 Electronic Relaxation 1
   ENCUT  =  500.0 eV  36.75 Ry    6.06 a.u.  13.99 13.99 13.99*2*pi/ulx,y,z
   ENINI  =  500.0     initial cutoff
   ENAUG  =  291.1 eV  augmentation charge cutoff
   NELM   =     60;   NELMIN=  2; NELMDL=  0     # of ELM steps 
   EDIFF  = 0.1E-07   stopping-criterion for ELM
   LREAL  =      F    real-space projection
   LCOMPAT=      F    compatible to vasp.4.4
   LREAL_COMPAT= F    compatible to vasp.4.5.1-3
   GGA_COMPAT  = T    GGA compatible to vasp.4.4-vasp.4.6
   LMAXPAW     = -100 max onsite density
   LMAXMIX     =    2 max onsite mixed and CHGCAR
   VOSKOWN=      0    Vosko Wilk Nusair interpolation
   ROPT   =    0.00000
 Ionic relaxation
   EDIFFG = 0.1E-06   stopping-criterion for IOM
   NSW    =      0    number of steps for IOM
   NBLOCK =      1;   KBLOCK =      1    inner block; outer block 
   IBRION =     -1    ionic relax: 0-MD 1-quasi-New 2-CG
   NFREE  =      0    steps in history (QN), initial steepest desc. (CG)
   ISIF   =      2    stress and relaxation
   IWAVPR =     10    prediction:  0-non 1-charg 2-wave 3-comb
   ISYM   =      2    0-nonsym 1-usesym 2-fastsym
   LCORR  =      T    Harris-Foulkes like correction to forces

   POTIM  =   0.50    time-step for ionic-motion
   TEIN   =    0.0    initial temperature
   TEBEG  =    0.0;   TEEND  =   0.0 temperature during run
   SMASS  =  -3.00    Nose mass-parameter (am)
   estimated Nose-frequenzy (Omega)   =  0.10E-29 period in steps =****** mass=  -0.134E-26a.u.
   NPACO  =    256;   APACO  = 16.0  distance and # of slots for P.C.
   PSTRESS=    0.0 pullay stress

  Mass of Ions in am
   POMASS =  26.98
  Ionic Valenz
   ZVAL   =   3.00
  Atomic Wigner-Seitz radii
   RWIGS  =  -1.00
   NELECT =      96.0000    total number of electrons
   NUPDOWN=      -1.0000    fix difference up-down

 DOS related values:
   EMIN   =  10.00;   EMAX   =-10.00  energy-range for DOS
   ISMEAR =     0;   SIGMA  =   0.01  broadening in eV -4-tet -1-fermi 0-gaus

 Electronic relaxation 2 (details)
   IALGO  =     38    algorithm
   LDIAG  =      T    sub-space diagonalisation
   IMIX   =      4    mixing-type and parameters
     AMIX     =   0.40;   BMIX     =  1.00
     AMIX_MAG =   1.60;   BMIX_MAG =  1.00
     AMIN     =   0.10
     WC   =   100.;   INIMIX=   1;  MIXPRE=   1

 Intra band minimization:
   WEIMIN = 0.0000     energy-eigenvalue tresh-hold
   EBREAK =  0.38E-10  absolut break condition
   DEPER  =   0.30     relativ break condition  

   TIME   =   0.10     timestep for ELM

  volume/ion in A,a.u.               =      14.11        95.19
  Fermi-wavevector in a.u.,eV,Ry     =   0.977207 12.992661  0.954934

 Second variation
   LSECVAR=     F    do a second variation
 
 Write flags
   LWAVE  =      F    write WAVECAR
   LCHARG =      F    write CHGCAR
   LVTOT  =      F    write LOCPOT, local potential
   LELF   =      F    write electronic localiz. function (ELF)
   LORBIT =      0    0 simple, 1 ext, 2 COOP (PROOUT)


 Dipole corrections
   IDIPOL =      0    1-x, 2-y, 3-z
   LDIPOL =      F    correct potential



--------------------------------------------------------------------------------------------------------


 Static calculation
 charge density will be updated during run
 non-spin polarized calculation
 Variant of blocked Davidson
 Davidson routine will perform the subspace rotation
 performe sub-space diagonalisation
    after iterative eigenvector-optimisation
 modified Broyden-mixing scheme, WC =      100.0
 initial mixing is a Kerker type mixing with AMIX =  0.4000 and BMIX =      1.0000
 Hartree-type preconditioning will be used
 using additional bands           24
 reciprocal scheme for non local part
 use partial core corrections
 calculate Harris-corrections to forces 
   (improved forces if not selfconsistent)
 use gradient corrections 
 use of overlap-Matrix (Vanderbilt PP)
 Gauss-broadening in eV      SIGMA  =   0.01


--------------------------------------------------------------------------------------------------------


  energy-cutoff  :      500.00
  volume of cell :      451.37
      direct lattice vectors                 reciprocal lattice vectors
     7.670882102  0.000000000  0.000000000     0.130363104  0.000000000  0.000000000
     0.000000000  7.670882102  0.000000000     0.000000000  0.130363104  0.000000000
     0.000000000  0.000000000  7.670882102     0.000000000  0.000000000  0.130363104

  length of vectors
     7.670882102  7.670882102  7.670882102     0.130363104  0.130363104  0.130363104


 
 k-points in units of 2pi/SCALE and weight: Automatic mesh                          
   0.00000000  0.00000000  0.00000000       0.003
   0.01862330  0.00000000  0.00000000       0.006
   0.03724660  0.00000000  0.00000000       0.006
   0.05586990  0.00000000  0.00000000       0.006
   0.00000000  0.01862330  0.00000000       0.012
   0.01862330  0.01862330  0.00000000       0.023
   0.03724660  0.01862330  0.00000000       0.023
   0.05586990  0.01862330  0.00000000       0.023
   0.00000000  0.03724660  0.00000000       0.012
   0.01862330  0.03724660  0.00000000       0.023
   0.03724660  0.03724660  0.00000000       0.023
   0.05586990  0.03724660  0.00000000       0.023
   0.00000000  0.05586990  0.00000000       0.012
   0.01862330  0.05586990  0.00000000       0.023
   0.03724660  0.05586990  0.00000000       0.023
   0.05586990  0.05586990  0.00000000       0.023
   0.00000000  0.01862330  0.01862330       0.012
   0.01862330  0.01862330  0.01862330       0.023
   0.03724660  0.01862330  0.01862330       0.023
   0.05586990  0.01862330  0.01862330       0.023
   0.00000000  0.03724660  0.01862330       0.023
   0.01862330  0.03724660  0.01862330       0.047
   0.03724660  0.03724660  0.01862330       0.047
   0.05586990  0.03724660  0.01862330       0.047
   0.00000000  0.05586990  0.01862330       0.023
   0.01862330  0.05586990  0.01862330       0.047
   0.03724660  0.05586990  0.01862330       0.047
   0.05586990  0.05586990  0.01862330       0.047
   0.00000000  0.03724660  0.03724660       0.012
   0.01862330  0.03724660  0.03724660       0.023
   0.03724660  0.03724660  0.03724660       0.023
   0.05586990  0.03724660  0.03724660       0.023
   0.00000000  0.05586990  0.03724660       0.023
   0.01862330  0.05586990  0.03724660       0.047
   0.03724660  0.05586990  0.03724660       0.047
   0.05586990  0.05586990  0.03724660       0.047
   0.00000000  0.05586990  0.05586990       0.012
   0.01862330  0.05586990  0.05586990       0.023
   0.03724660  0.05586990  0.05586990       0.023
   0.05586990  0.05586990  0.05586990       0.023
 
 k-points in reciprocal lattice and weights: Automatic mesh                          
   0.00000000  0.00000000  0.00000000       0.003
   0.14285714  0.00000000  0.00000000       0.006
   0.28571429  0.00000000  0.00000000       0.006
   0.42857143  0.00000000  0.00000000       0.006
   0.00000000  0.14285714  0.00000000       0.012
   0.14285714  0.14285714  0.00000000       0.023
   0.28571429  0.14285714  0.00000000       0.023
   0.42857143  0.14285714  0.00000000       0.023
   0.00000000  0.28571429  0.00000000       0.012
   0.14285714  0.28571429  0.00000000       0.023
   0.28571429  0.28571429  0.00000000       0.023
   0.42857143  0.28571429  0.00000000       0.023
   0.00000000  0.42857143  0.00000000       0.012
   0.14285714  0.42857143  0.00000000       0.023
   0.28571429  0.42857143  0.00000000       0.023
   0.42857143  0.42857143  0.00000000       0.023
   0.00000000  0.14285714  0.14285714       0.012
   0.14285714  0.14285714  0.14285714       0.023
   0.28571429  0.14285714  0.14285714       0.023
   0.42857143  0.14285714  0.14285714       0.023
   0.00000000  0.28571429  0.14285714       0.023
   0.14285714  0.28571429  0.14285714       0.047
   0.28571429  0.28571429  0.14285714       0.047
   0.42857143  0.28571429  0.14285714       0.047
   0.00000000  0.42857143  0.14285714       0.023
   0.14285714  0.42857143  0.14285714       0.047
   0.28571429  0.42857143  0.14285714       0.047
   0.42857143  0.42857143  0.14285714       0.047
   0.00000000  0.28571429  0.28571429       0.012
   0.14285714  0.28571429  0.28571429       0.023
   0.28571429  0.28571429  0.28571429       0.023
   0.42857143  0.28571429  0.28571429       0.023
   0.00000000  0.42857143  0.28571429       0.023
   0.14285714  0.42857143  0.28571429       0.047
   0.28571429  0.42857143  0.28571429       0.047
   0.42857143  0.42857143  0.28571429       0.047
   0.00000000  0.42857143  0.42857143       0.012
   0.14285714  0.42857143  0.42857143       0.023
   0.28571429  0.42857143  0.42857143       0.023
   0.42857143  0.42857143  0.42857143       0.023
 
 position of ions in fractional coordinates (direct lattice) 
   0.25130363  0.25000000  0.00000000
   0.75000000  0.25000000  0.00000000
   0.25000000  0.75000000  0.00000000
   0.75000000  0.75000000  0.00000000
   0.25000000  0.25000000  0.50000000
   0.75000000  0.25000000  0.50000000
   0.25000000  0.75000000  0.50000000
   0.75000000  0.75000000  0.50000000
   0.25000000  0.00000000  0.25000000
   0.75000000  0.00000000  0.25000000
   0.25000000  0.50000000  0.25000000
   0.75000000  0.50000000  0.25000000
   0.25000000  0.00000000  0.75000000
   0.75000000  0.00000000  0.75000000
   0.25000000  0.50000000  0.75000000
   0.75000000  0.50000000  0.75000000
   0.00000000  0.25000000  0.25000000
   0.50000000  0.25000000  0.25000000
   0.00000000  0.75000000  0.25000000
   0.50000000  0.75000000  0.25000000
   0.00000000  0.25000000  0.75000000
   0.50000000  0.25000000  0.75000000
   0.00000000  0.75000000  0.75000000
   0.50000000  0.75000000  0.75000000
   0.00000000  0.00000000  0.00000000
   0.50000000  0.00000000  0.00000000
   0.00000000  0.50000000  0.00000000
   0.50000000  0.50000000  0.00000000
   0.00000000  0.00000000  0.50000000
   0.50000000  0.00000000  0.50000000
   0.00000000  0.50000000  0.50000000
   0.50000000  0.50000000  0.50000000
 
 position of ions in cartesian coordinates  (Angst):
   1.92772053  1.91772053  0.00000000
   5.75316158  1.91772053  0.00000000
   1.91772053  5.75316158  0.00000000
   5.75316158  5.75316158  0.00000000
   1.91772053  1.91772053  3.83544105
   5.75316158  1.91772053  3.83544105
   1.91772053  5.75316158  3.83544105
   5.75316158  5.75316158  3.83544105
   1.91772053  0.00000000  1.91772053
   5.75316158  0.00000000  1.91772053
   1.91772053  3.83544105  1.91772053
   5.75316158  3.83544105  1.91772053
   1.91772053  0.00000000  5.75316158
   5.75316158  0.00000000  5.75316158
   1.91772053  3.83544105  5.75316158
   5.75316158  3.83544105  5.75316158
   0.00000000  1.91772053  1.91772053
   3.83544105  1.91772053  1.91772053
   0.00000000  5.75316158  1.91772053
   3.83544105  5.75316158  1.91772053
   0.00000000  1.91772053  5.75316158
   3.83544105  1.91772053  5.75316158
   0.00000000  5.75316158  5.75316158
   3.83544105  5.75316158  5.75316158
   0.00000000  0.00000000  0.00000000
   3.83544105  0.00000000  0.00000000
   0.00000000  3.83544105  0.00000000
   3.83544105  3.83544105  0.00000000
   0.00000000  0.00000000  3.83544105
   3.83544105  0.00000000  3.83544105
   0.00000000  3.83544105  3.83544105
   3.83544105  3.83544105  3.83544105
 


--------------------------------------------------------------------------------------------------------


 k-point  1 :  0.00000.00000.0000  plane waves:  11459
 k-point  2 :  0.14290.00000.0000  plane waves:  11424
 k-point  3 :  0.28570.00000.0000  plane waves:  11428
 k-point  4 :  0.42860.00000.0000  plane waves:  11448
 k-point  5 :  0.00000.14290.0000  plane waves:  11424
 k-point  6 :  0.14290.14290.0000  plane waves:  11422
 k-point  7 :  0.28570.14290.0000  plane waves:  11449
 k-point  8 :  0.42860.14290.0000  plane waves:  11449
 k-point  9 :  0.00000.28570.0000  plane waves:  11428
 k-point 10 :  0.14290.28570.0000  plane waves:  11449
 k-point 11 :  0.28570.28570.0000  plane waves:  11446
 k-point 12 :  0.42860.28570.0000  plane waves:  11456
 k-point 13 :  0.00000.42860.0000  plane waves:  11448
 k-point 14 :  0.14290.42860.0000  plane waves:  11449
 k-point 15 :  0.28570.42860.0000  plane waves:  11456
 k-point 16 :  0.42860.42860.0000  plane waves:  11458
 k-point 17 :  0.00000.14290.1429  plane waves:  11422
 k-point 18 :  0.14290.14290.1429  plane waves:  11425
 k-point 19 :  0.28570.14290.1429  plane waves:  11458
 k-point 20 :  0.42860.14290.1429  plane waves:  11451
 k-point 21 :  0.00000.28570.1429  plane waves:  11449
 k-point 22 :  0.14290.28570.1429  plane waves:  11458
 k-point 23 :  0.28570.28570.1429  plane waves:  11464
 k-point 24 :  0.42860.28570.1429  plane waves:  11469
 k-point 25 :  0.00000.42860.1429  plane waves:  11449
 k-point 26 :  0.14290.42860.1429  plane waves:  11451
 k-point 27 :  0.28570.42860.1429  plane waves:  11469
 k-point 28 :  0.42860.42860.1429  plane waves:  11468
 k-point 29 :  0.00000.28570.2857  plane waves:  11446
 k-point 30 :  0.14290.28570.2857  plane waves:  11464
 k-point 31 :  0.28570.28570.2857  plane waves:  11473
 k-point 32 :  0.42860.28570.2857  plane waves:  11468
 k-point 33 :  0.00000.42860.2857  plane waves:  11456
 k-point 34 :  0.14290.42860.2857  plane waves:  11469
 k-point 35 :  0.28570.42860.2857  plane waves:  11468
 k-point 36 :  0.42860.42860.2857  plane waves:  11474
 k-point 37 :  0.00000.42860.4286  plane waves:  11458
 k-point 38 :  0.14290.42860.4286  plane waves:  11468
 k-point 39 :  0.28570.42860.4286  plane waves:  11474
 k-point 40 :  0.42860.42860.4286  plane waves:  11476

 maximum and minimum number of plane-waves per node :  11476 11422

 maximum number of plane-waves:  11476
 maximal index in each direction: 
   IXMAX= 13   IYMAX= 13   IZMAX= 13
   IXMIN=-14   IYMIN=-14   IZMIN=-14

 NGX is ok and might be reduce to  56
 NGY is ok and might be reduce to  56
 NGZ is ok and might be reduce to  56

 parallel 3dFFT wavefunction:
    minimum data exchange during FFTs selected (reduces bandwidth)
 parallel 3dFFT charge:
    minimum data exchange during FFTs selected (reduces bandwidth)

 For storing wavefunctions  527.75 MBYTES are necessary
 For predicting wavefunctions   29.21 MBYTES are necessary
Broyden mixing: mesh for mixing (old mesh)
   NGX = 27   NGY = 27   NGZ = 27
  (NGX  =112   NGY  =112   NGZ  =112)
 gives a total of  19683 points
 initial charge density was supplied:
 charge density of overlapping atoms calculated
 number of electron   96.0000000 magnetization 
 keeping initial charge density in first step


--------------------------------------------------------------------------------------------------------


 Maximum index for augmentation-charges         1900 (set IRDMAX)


--------------------------------------------------------------------------------------------------------


 First call to EWALD:  gamma=   0.231
 Maximum number of real-space cells 3x 3x 3
 Maximum number of reciprocal cells 3x 3x 3

    FEWALD:  VPU time    0.00: CPU time    0.00


----------------------------------------- Iteration    1(   1)  ---------------------------------------


    POTLOK:  VPU time    0.30: CPU time    0.30
    SETDIJ:  VPU time    0.01: CPU time    0.01
    EDDAV :  VPU time   23.79: CPU time   23.83
    DOS   :  VPU time    0.00: CPU time   -0.00
    ------------------------------------------
      LOOP:  VPU time   24.11: CPU time   24.15

 eigenvalue-minimisations  :  5760
 total energy-change (2. order) : 0.1410402E+03  (-0.3382915E+04)
 number of electron   96.0000000 magnetization 
 augmentation part    96.0000000 magnetization 

 Free energy of the ion-electron system (eV)
  ---------------------------------------------------
  alpha Z        PSCENC =        -7.61990802
  Ewald energy   TEWEN  =     -2478.73017096
  -1/2 Hartree   DENC   =        -2.10401837
  -V(xc)+E(xc)   XCENC  =      -830.39434498
  PAW double counting   =      1137.73615723     -115.16745734
  entropy T*S    EENTRO =        -0.00042705
  eigenvalues    EBANDS =       724.09123462
  atomic energy  EATOM  =      1713.22913220
  ---------------------------------------------------
  free energy    TOTEN  =       141.04019733 eV

  energy without entropy =      141.04062438  energy(sigma->0) =      141.04041085


--------------------------------------------------------------------------------------------------------




----------------------------------------- Iteration    1(   2)  ---------------------------------------


    EDDAV :  VPU time   29.38: CPU time   29.37
    DOS   :  VPU time    0.00: CPU time   -0.00
    ------------------------------------------
      LOOP:  VPU time   29.38: CPU time   29.38

 eigenvalue-minimisations  :  6816
 total energy-change (2. order) :-0.2449139E+03  (-0.2278613E+03)
 number of electron   96.0000000 magnetization 
 augmentation part    96.0000000 magnetization 

 Free energy of the ion-electron system (eV)
  ---------------------------------------------------
  alpha Z        PSCENC =        -7.61990802
  Ewald energy   TEWEN  =     -2478.73017096
  -1/2 Hartree   DENC   =        -2.10401837
  -V(xc)+E(xc)   XCENC  =      -830.39434498
  PAW double counting   =      1137.73615723     -115.16745734
  entropy T*S    EENTRO =        -0.00036236
  eigenvalues    EBANDS =       479.17730895
  atomic energy  EATOM  =      1713.22913220
  ---------------------------------------------------
  free energy    TOTEN  =      -103.87366365 eV

  energy without entropy =     -103.87330129  energy(sigma->0) =     -103.87348247


--------------------------------------------------------------------------------------------------------




----------------------------------------- Iteration    1(   3)  ---------------------------------------


    EDDAV :  VPU time   27.41: CPU time   27.40
    DOS   :  VPU time    0.00: CPU time   -0.00
    ------------------------------------------
      LOOP:  VPU time   27.41: CPU time   27.41

 eigenvalue-minimisations  :  7056
 total energy-change (2. order) :-0.1310738E+02  (-0.1254969E+02)
 number of electron   96.0000000 magnetization 
 augmentation part    96.0000000 magnetization 

 Free energy of the ion-electron system (eV)
  ---------------------------------------------------
  alpha Z        PSCENC =        -7.61990802
  Ewald energy   TEWEN  =     -2478.73017096
  -1/2 Hartree   DENC   =        -2.10401837
  -V(xc)+E(xc)   XCENC  =      -830.39434498
  PAW double counting   =      1137.73615723     -115.16745734
  entropy T*S    EENTRO =        -0.00009849
  eigenvalues    EBANDS =       466.06966473
  atomic energy  EATOM  =      1713.22913220
  ---------------------------------------------------
  free energy    TOTEN  =      -116.98104400 eV

  energy without entropy =     -116.98094551  energy(sigma->0) =     -116.98099476


--------------------------------------------------------------------------------------------------------




----------------------------------------- Iteration    1(   4)  ---------------------------------------


    EDDAV :  VPU time   25.67: CPU time   25.66
    DOS   :  VPU time    0.00: CPU time   -0.00
    ------------------------------------------
      LOOP:  VPU time   25.67: CPU time   25.66

 eigenvalue-minimisations  :  6744
 total energy-change (2. order) :-0.2231732E+00  (-0.2215691E+00)
 number of electron   96.0000000 magnetization 
 augmentation part    96.0000000 magnetization 

 Free energy of the ion-electron system (eV)
  ---------------------------------------------------
  alpha Z        PSCENC =        -7.61990802
  Ewald energy   TEWEN  =     -2478.73017096
  -1/2 Hartree   DENC   =        -2.10401837
  -V(xc)+E(xc)   XCENC  =      -830.39434498
  PAW double counting   =      1137.73615723     -115.16745734
  entropy T*S    EENTRO =        -0.00009156
  eigenvalues    EBANDS =       465.84648463
  atomic energy  EATOM  =      1713.22913220
  ---------------------------------------------------
  free energy    TOTEN  =      -117.20421717 eV

  energy without entropy =     -117.20412561  energy(sigma->0) =     -117.20417139


--------------------------------------------------------------------------------------------------------




----------------------------------------- Iteration    1(   5)  ---------------------------------------


    EDDAV :  VPU time   18.19: CPU time   18.18
    DOS   :  VPU time    0.00: CPU time   -0.00
    CHARGE:  VPU time    0.71: CPU time    0.71
    MIXING:  VPU time    0.00: CPU time    0.00
    ------------------------------------------
      LOOP:  VPU time   18.90: CPU time   18.90

 eigenvalue-minimisations  :  6704
 total energy-change (2. order) :-0.2559343E-02  (-0.2557844E-02)
 number of electron   95.9999996 magnetization 
 augmentation part    -1.1003679 magnetization 

 Broyden mixing:
  rms(total) = 0.56840E+00    rms(broyden)= 0.56839E+00
  rms(prec ) = 0.81310E+00
  weight for this iteration     100.00

 Free energy of the ion-electron system (eV)
  ---------------------------------------------------
  alpha Z        PSCENC =        -7.61990802
  Ewald energy   TEWEN  =     -2478.73017096
  -1/2 Hartree   DENC   =        -2.10401837
  -V(xc)+E(xc)   XCENC  =      -830.39434498
  PAW double counting   =      1137.73615723     -115.16745734
  entropy T*S    EENTRO =        -0.00009172
  eigenvalues    EBANDS =       465.84392545
  atomic energy  EATOM  =      1713.22913220
  ---------------------------------------------------
  free energy    TOTEN  =      -117.20677651 eV

  energy without entropy =     -117.20668479  energy(sigma->0) =     -117.20673065


--------------------------------------------------------------------------------------------------------




----------------------------------------- Iteration    1(   6)  ---------------------------------------


    POTLOK:  VPU time    0.13: CPU time    0.13
    SETDIJ:  VPU time    0.01: CPU time    0.01
    EDDAV :  VPU time   16.98: CPU time   16.98
    DOS   :  VPU time    0.00: CPU time   -0.00
    CHARGE:  VPU time    0.78: CPU time    0.78
    MIXING:  VPU time    0.00: CPU time    0.00
    ------------------------------------------
      LOOP:  VPU time   17.91: CPU time   17.90

 eigenvalue-minimisations  :  6680
 total energy-change (2. order) : 0.5014611E+00  (-0.2968542E-02)
 number of electron   95.9999996 magnetization 
 augmentation part    -1.1133089 magnetization 

 Broyden mixing:
  rms(total) = 0.35367E+00    rms(broyden)= 0.35367E+00
  rms(prec ) = 0.50816E+00
  weight for this iteration     100.00

 eigenvalues of (default mixing * dielectric matrix)
  average eigenvalue GAMMA=   2.6387
  2.6387

 Free energy of the ion-electron system (eV)
  ---------------------------------------------------
  alpha Z        PSCENC =        -7.61990802
  Ewald energy   TEWEN  =     -2478.73017096
  -1/2 Hartree   DENC   =        -2.47766913
  -V(xc)+E(xc)   XCENC  =      -828.85211628
  PAW double counting   =      1147.05500752     -124.99073113
  entropy T*S    EENTRO =        -0.00009204
  eigenvalues    EBANDS =       465.68123241
  atomic energy  EATOM  =      1713.22913220
  ---------------------------------------------------
  free energy    TOTEN  =      -116.70531542 eV

  energy without entropy =     -116.70522338  energy(sigma->0) =     -116.70526940


--------------------------------------------------------------------------------------------------------




----------------------------------------- Iteration    1(   7)  ---------------------------------------


    POTLOK:  VPU time    0.12: CPU time    0.12
    SETDIJ:  VPU time    0.01: CPU time    0.01
    EDDAV :  VPU time   21.43: CPU time   21.43
    DOS   :  VPU time    0.00: CPU time   -0.00
    CHARGE:  VPU time    0.99: CPU time    0.99
    MIXING:  VPU time    0.01: CPU time    0.01
    ------------------------------------------
      LOOP:  VPU time   22.57: CPU time   22.56

 eigenvalue-minimisations  :  6264
 total energy-change (2. order) : 0.3602623E+00  (-0.9618688E-02)
 number of electron   95.9999996 magnetization 
 augmentation part    -1.1417979 magnetization 

 Broyden mixing:
  rms(total) = 0.13409E-01    rms(broyden)= 0.13408E-01
  rms(prec ) = 0.15563E-01
  weight for this iteration     100.00

 eigenvalues of (default mixing * dielectric matrix)
  average eigenvalue GAMMA=   2.4588
  2.4588  2.4588

 Free energy of the ion-electron system (eV)
  ---------------------------------------------------
  alpha Z        PSCENC =        -7.61990802
  Ewald energy   TEWEN  =     -2478.73017096
  -1/2 Hartree   DENC   =        -4.54101511
  -V(xc)+E(xc)   XCENC  =      -825.85152710
  PAW double counting   =      1161.42062923     -140.27546184
  entropy T*S    EENTRO =        -0.00009400
  eigenvalues    EBANDS =       466.02336249
  atomic energy  EATOM  =      1713.22913220
  ---------------------------------------------------
  free energy    TOTEN  =      -116.34505312 eV

  energy without entropy =     -116.34495912  energy(sigma->0) =     -116.34500612


--------------------------------------------------------------------------------------------------------




----------------------------------------- Iteration    1(   8)  ---------------------------------------


    POTLOK:  VPU time    0.43: CPU time    0.43
    SETDIJ:  VPU time    0.02: CPU time    0.02
    EDDAV :  VPU time   18.46: CPU time   18.46
    DOS   :  VPU time    0.00: CPU time   -0.00
    CHARGE:  VPU time    0.70: CPU time    0.70
    MIXING:  VPU time    0.00: CPU time    0.00
    ------------------------------------------
      LOOP:  VPU time   19.62: CPU time   19.62

 eigenvalue-minimisations  :  6984
 total energy-change (2. order) :-0.2107122E-03  (-0.1047894E-03)
 number of electron   95.9999996 magnetization 
 augmentation part    -1.1442293 magnetization 

 Broyden mixing:
  rms(total) = 0.52440E-02    rms(broyden)= 0.52440E-02
  rms(prec ) = 0.64776E-02
  weight for this iteration     100.00

 eigenvalues of (default mixing * dielectric matrix)
  average eigenvalue GAMMA=   2.0771
  1.0020  2.6722  2.5571

 Free energy of the ion-electron system (eV)
  ---------------------------------------------------
  alpha Z        PSCENC =        -7.61990802
  Ewald energy   TEWEN  =     -2478.73017096
  -1/2 Hartree   DENC   =        -4.56931665
  -V(xc)+E(xc)   XCENC  =      -825.81325710
  PAW double counting   =      1161.21308534     -140.06739644
  entropy T*S    EENTRO =        -0.00009417
  eigenvalues    EBANDS =       466.01266196
  atomic energy  EATOM  =      1713.22913220
  ---------------------------------------------------
  free energy    TOTEN  =      -116.34526383 eV

  energy without entropy =     -116.34516966  energy(sigma->0) =     -116.34521675


--------------------------------------------------------------------------------------------------------




----------------------------------------- Iteration    1(   9)  ---------------------------------------


    POTLOK:  VPU time    0.12: CPU time    0.12
    SETDIJ:  VPU time    0.01: CPU time    0.01
    EDDAV :  VPU time   16.66: CPU time   16.66
    DOS   :  VPU time    0.00: CPU time   -0.00
    CHARGE:  VPU time    0.68: CPU time    0.68
    MIXING:  VPU time    0.00: CPU time    0.00
    ------------------------------------------
      LOOP:  VPU time   17.48: CPU time   17.48

 eigenvalue-minimisations  :  6584
 total energy-change (2. order) :-0.3157643E-04  (-0.6712056E-05)
 number of electron   95.9999996 magnetization 
 augmentation part    -1.1450870 magnetization 

 Broyden mixing:
  rms(total) = 0.48715E-03    rms(broyden)= 0.48713E-03
  rms(prec ) = 0.74106E-03
  weight for this iteration     100.00

 eigenvalues of (default mixing * dielectric matrix)
  average eigenvalue GAMMA=   1.8398
  2.6677  2.5748  1.2477  0.8692

 Free energy of the ion-electron system (eV)
  ---------------------------------------------------
  alpha Z        PSCENC =        -7.61990802
  Ewald energy   TEWEN  =     -2478.73017096
  -1/2 Hartree   DENC   =        -4.60354820
  -V(xc)+E(xc)   XCENC  =      -825.77065927
  PAW double counting   =      1161.08204379     -139.94007428
  entropy T*S    EENTRO =        -0.00009413
  eigenvalues    EBANDS =       466.00798345
  atomic energy  EATOM  =      1713.22913220
  ---------------------------------------------------
  free energy    TOTEN  =      -116.34529541 eV

  energy without entropy =     -116.34520128  energy(sigma->0) =     -116.34524834


--------------------------------------------------------------------------------------------------------




----------------------------------------- Iteration    1(  10)  ---------------------------------------


    POTLOK:  VPU time    0.12: CPU time    0.12
    SETDIJ:  VPU time    0.01: CPU time    0.01
    EDDAV :  VPU time   17.42: CPU time   17.41
    DOS   :  VPU time    0.00: CPU time   -0.00
    CHARGE:  VPU time    0.70: CPU time    0.70
    MIXING:  VPU time    0.00: CPU time    0.00
    ------------------------------------------
      LOOP:  VPU time   18.25: CPU time   18.25

 eigenvalue-minimisations  :  7000
 total energy-change (2. order) :-0.3025660E-05  (-0.3998818E-06)
 number of electron   95.9999996 magnetization 
 augmentation part    -1.1452339 magnetization 

 Broyden mixing:
  rms(total) = 0.20797E-03    rms(broyden)= 0.20797E-03
  rms(prec ) = 0.27226E-03
  weight for this iteration     100.00

 eigenvalues of (default mixing * dielectric matrix)
  average eigenvalue GAMMA=   1.8680
  2.6252  2.6252  2.2367  1.0291  0.8238

 Free energy of the ion-electron system (eV)
  ---------------------------------------------------
  alpha Z        PSCENC =        -7.61990802
  Ewald energy   TEWEN  =     -2478.73017096
  -1/2 Hartree   DENC   =        -4.60657994
  -V(xc)+E(xc)   XCENC  =      -825.76696320
  PAW double counting   =      1161.05619145     -139.91474994
  entropy T*S    EENTRO =        -0.00009409
  eigenvalues    EBANDS =       466.00784406
  atomic energy  EATOM  =      1713.22913220
  ---------------------------------------------------
  free energy    TOTEN  =      -116.34529844 eV

  energy without entropy =     -116.34520435  energy(sigma->0) =     -116.34525139


--------------------------------------------------------------------------------------------------------




----------------------------------------- Iteration    1(  11)  ---------------------------------------


    POTLOK:  VPU time    0.12: CPU time    0.12
    SETDIJ:  VPU time    0.01: CPU time    0.01
    EDDAV :  VPU time   16.93: CPU time   16.92
    DOS   :  VPU time    0.00: CPU time   -0.00
    CHARGE:  VPU time    0.68: CPU time    0.68
    MIXING:  VPU time    0.00: CPU time    0.00
    ------------------------------------------
      LOOP:  VPU time   17.75: CPU time   17.75

 eigenvalue-minimisations  :  6736
 total energy-change (2. order) : 0.8338379E-06  (-0.2560954E-07)
 number of electron   95.9999996 magnetization 
 augmentation part    -1.1452608 magnetization 

 Broyden mixing:
  rms(total) = 0.82164E-04    rms(broyden)= 0.82163E-04
  rms(prec ) = 0.97677E-04
  weight for this iteration     100.00

 eigenvalues of (default mixing * dielectric matrix)
  average eigenvalue GAMMA=   1.7964
  2.6815  2.5832  2.4866  0.8091  1.1879  1.0304

 Free energy of the ion-electron system (eV)
  ---------------------------------------------------
  alpha Z        PSCENC =        -7.61990802
  Ewald energy   TEWEN  =     -2478.73017096
  -1/2 Hartree   DENC   =        -4.60620090
  -V(xc)+E(xc)   XCENC  =      -825.76739011
  PAW double counting   =      1161.03503755     -139.89357319
  entropy T*S    EENTRO =        -0.00009407
  eigenvalues    EBANDS =       466.00786990
  atomic energy  EATOM  =      1713.22913220
  ---------------------------------------------------
  free energy    TOTEN  =      -116.34529760 eV

  energy without entropy =     -116.34520354  energy(sigma->0) =     -116.34525057


--------------------------------------------------------------------------------------------------------




----------------------------------------- Iteration    1(  12)  ---------------------------------------


    POTLOK:  VPU time    0.12: CPU time    0.12
    SETDIJ:  VPU time    0.01: CPU time    0.01
    EDDAV :  VPU time   12.41: CPU time   12.41
    DOS   :  VPU time    0.00: CPU time   -0.00
    CHARGE:  VPU time    0.71: CPU time    0.71
    MIXING:  VPU time    0.00: CPU time    0.00
    ------------------------------------------
      LOOP:  VPU time   13.26: CPU time   13.26

 eigenvalue-minimisations  :  4280
 total energy-change (2. order) : 0.3363946E-06  (-0.1693153E-08)
 number of electron   95.9999996 magnetization 
 augmentation part    -1.1452644 magnetization 

 Broyden mixing:
  rms(total) = 0.14625E-04    rms(broyden)= 0.14624E-04
  rms(prec ) = 0.21885E-04
  weight for this iteration     100.00

 eigenvalues of (default mixing * dielectric matrix)
  average eigenvalue GAMMA=   1.7347
  2.6432  2.6432  2.4962  1.4861  1.0568  1.0155  0.8022

 Free energy of the ion-electron system (eV)
  ---------------------------------------------------
  alpha Z        PSCENC =        -7.61990802
  Ewald energy   TEWEN  =     -2478.73017096
  -1/2 Hartree   DENC   =        -4.60648656
  -V(xc)+E(xc)   XCENC  =      -825.76708399
  PAW double counting   =      1161.02664525     -139.88530987
  entropy T*S    EENTRO =        -0.00009407
  eigenvalues    EBANDS =       466.00797875
  atomic energy  EATOM  =      1713.22913220
  ---------------------------------------------------
  free energy    TOTEN  =      -116.34529727 eV

  energy without entropy =     -116.34520320  energy(sigma->0) =     -116.34525023


--------------------------------------------------------------------------------------------------------




----------------------------------------- Iteration    1(  13)  ---------------------------------------


    POTLOK:  VPU time    0.13: CPU time    0.13
    SETDIJ:  VPU time    0.01: CPU time    0.01
    EDDAV :  VPU time   10.49: CPU time   10.49
    DOS   :  VPU time    0.00: CPU time   -0.00
    CHARGE:  VPU time    0.63: CPU time    0.63
    MIXING:  VPU time    0.00: CPU time    0.00
    ------------------------------------------
      LOOP:  VPU time   11.26: CPU time   11.26

 eigenvalue-minimisations  :  3760
 total energy-change (2. order) : 0.1009923E-06  (-0.2799709E-09)
 number of electron   95.9999996 magnetization 
 augmentation part    -1.1452647 magnetization 

 Broyden mixing:
  rms(total) = 0.29041E-05    rms(broyden)= 0.29040E-05
  rms(prec ) = 0.41619E-05
  weight for this iteration     100.00

 eigenvalues of (default mixing * dielectric matrix)
  average eigenvalue GAMMA=   1.6847
  2.6645  2.6645  2.5163  1.5844  1.2877  1.0484  0.9106  0.8013

 Free energy of the ion-electron system (eV)
  ---------------------------------------------------
  alpha Z        PSCENC =        -7.61990802
  Ewald energy   TEWEN  =     -2478.73017096
  -1/2 Hartree   DENC   =        -4.60642638
  -V(xc)+E(xc)   XCENC  =      -825.76715797
  PAW double counting   =      1161.02475217     -139.88340342
  entropy T*S    EENTRO =        -0.00009407
  eigenvalues    EBANDS =       466.00797928
  atomic energy  EATOM  =      1713.22913220
  ---------------------------------------------------
  free energy    TOTEN  =      -116.34529716 eV

  energy without entropy =     -116.34520310  energy(sigma->0) =     -116.34525013


--------------------------------------------------------------------------------------------------------




----------------------------------------- Iteration    1(  14)  ---------------------------------------


    POTLOK:  VPU time    0.12: CPU time    0.12
    SETDIJ:  VPU time    0.01: CPU time    0.01
    EDDAV :  VPU time   10.58: CPU time   10.58
    DOS   :  VPU time    0.00: CPU time   -0.00
    CHARGE:  VPU time    0.58: CPU time    0.59
    MIXING:  VPU time    0.00: CPU time    0.00
    ------------------------------------------
      LOOP:  VPU time   11.30: CPU time   11.30

 eigenvalue-minimisations  :  3784
 total energy-change (2. order) : 0.1084027E-07  (-0.4463758E-10)
 number of electron   95.9999996 magnetization 
 augmentation part    -1.1452664 magnetization 

 Broyden mixing:
  rms(total) = 0.10116E-05    rms(broyden)= 0.10115E-05
  rms(prec ) = 0.13649E-05
  weight for this iteration     100.00

 eigenvalues of (default mixing * dielectric matrix)
  average eigenvalue GAMMA=   1.6728
  2.6795  2.6795  2.5203  1.9337  1.3608  0.8013  1.0086  1.0358  1.0358

 Free energy of the ion-electron system (eV)
  ---------------------------------------------------
  alpha Z        PSCENC =        -7.61990802
  Ewald energy   TEWEN  =     -2478.73017096
  -1/2 Hartree   DENC   =        -4.60643975
  -V(xc)+E(xc)   XCENC  =      -825.76714566
  PAW double counting   =      1161.02453926     -139.88319113
  entropy T*S    EENTRO =        -0.00009407
  eigenvalues    EBANDS =       466.00798097
  atomic energy  EATOM  =      1713.22913220
  ---------------------------------------------------
  free energy    TOTEN  =      -116.34529715 eV

  energy without entropy =     -116.34520309  energy(sigma->0) =     -116.34525012


--------------------------------------------------------------------------------------------------------




----------------------------------------- Iteration    1(  15)  ---------------------------------------


    POTLOK:  VPU time    0.11: CPU time    0.11
    SETDIJ:  VPU time    0.01: CPU time    0.01
    EDDAV :  VPU time    9.89: CPU time    9.88
    DOS   :  VPU time    0.00: CPU time   -0.00
    ------------------------------------------
      LOOP:  VPU time   10.02: CPU time   10.01

 eigenvalue-minimisations  :  3728
 total energy-change (2. order) : 0.4650474E-08  (-0.9092404E-11)
 number of electron   95.9999996 magnetization 
 augmentation part    -1.1452664 magnetization 

 Free energy of the ion-electron system (eV)
  ---------------------------------------------------
  alpha Z        PSCENC =        -7.61990802
  Ewald energy   TEWEN  =     -2478.73017096
  -1/2 Hartree   DENC   =        -4.60643767
  -V(xc)+E(xc)   XCENC  =      -825.76714964
  PAW double counting   =      1161.02446052     -139.88310931
  entropy T*S    EENTRO =        -0.00009407
  eigenvalues    EBANDS =       466.00797979
  atomic energy  EATOM  =      1713.22913220
  ---------------------------------------------------
  free energy    TOTEN  =      -116.34529715 eV

  energy without entropy =     -116.34520308  energy(sigma->0) =     -116.34525012


--------------------------------------------------------------------------------------------------------




 average (electrostatic) potential at core
  the test charge radii are     1.0406
  (the norm of the test charge is              1.0000)
       1 -70.6660       2 -70.6660       3 -70.6660       4 -70.6660       5 -70.6660
       6 -70.6660       7 -70.6660       8 -70.6660       9 -70.6660      10 -70.6660
      11 -70.6660      12 -70.6660      13 -70.6660      14 -70.6660      15 -70.6660
      16 -70.6660      17 -70.6666      18 -70.6654      19 -70.6661      20 -70.6659
      21 -70.6666      22 -70.6654      23 -70.6661      24 -70.6659      25 -70.6666
      26 -70.6654      27 -70.6666      28 -70.6654      29 -70.6661      30 -70.6659
      31 -70.6661      32 -70.6659
 
 
 
 E-fermi :   9.7218     XC(G=0): -10.7779     alpha+bet :-17.4018
   add alpha+bet to get absolut eigen values

 k-point   1 :       0.0000    0.0000    0.0000
  band No.  band energies     occupation 
      1      -2.5256      2.00000
      2      -0.0424      2.00000
      3      -0.0382      2.00000
      4      -0.0382      2.00000
      5      -0.0382      2.00000
      6      -0.0382      2.00000
      7      -0.0341      2.00000
      8       2.3901      2.00000
      9       2.3946      2.00000
     10       2.3946      2.00000
     11       2.3965      2.00000
     12       2.3968      2.00000
     13       2.3968      2.00000
     14       2.3968      2.00000
     15       2.3968      2.00000
     16       2.3970      2.00000
     17       2.3989      2.00000
     18       2.3989      2.00000
     19       2.4034      2.00000
     20       4.5016      2.00000
     21       4.5016      2.00000
     22       4.5016      2.00000
     23       4.5016      2.00000
     24       5.1324      2.00000
     25       5.1324      2.00000
     26       5.1324      2.00000
     27       5.1324      2.00000
     28       6.4350      2.00000
     29       6.4350      2.00000
     30       6.4351      2.00000
     31       8.0622      2.00000
     32       8.0623      2.00000
     33       8.0623      2.00000
     34       8.6881      2.00000
     35       8.6881      2.00000
     36       8.6929      2.00000
     37       8.6929      2.00000
     38       8.6931      2.00000
     39       8.6931      2.00000
     40       8.6931      2.00000
     41       8.6931      2.00000
     42       8.6933      2.00000
     43       8.6933      2.00000
     44       8.6981      2.00000
     45       8.6981      2.00000
     46       9.6051      2.00000
     47       9.6098      2.00000
     48       9.6098      2.00000
     49       9.6098      2.00000
     50       9.6098      2.00000
     51       9.6145      2.00000
     52      10.9629      0.00000
     53      10.9629      0.00000
     54      10.9642      0.00000
     55      10.9671      0.00000
     56      10.9673      0.00000
     57      10.9673      0.00000
     58      10.9673      0.00000
     59      10.9673      0.00000
     60      10.9675      0.00000
     61      10.9704      0.00000
     62      10.9717      0.00000
     63      10.9717      0.00000
     64      11.7774      0.00000
     65      11.7788      0.00000
     66      11.7788      0.00000
     67      11.7788      0.00000
     68      11.7788      0.00000
     69      11.7803      0.00000
     70      12.9758      0.00000
     71      12.9785      0.00000
     72      12.9798      0.00000

 k-point   2 :       0.1429    0.0000    0.0000
  band No.  band energies     occupation 
      1      -2.4743      2.00000
      2      -0.6930      2.00000
      3       0.0119      2.00000
      4       0.0120      2.00000
      5       0.0120      2.00000
      6       0.0120      2.00000
      7       0.7125      2.00000
      8       1.7560      2.00000
      9       1.7560      2.00000
     10       1.7560      2.00000
     11       1.7560      2.00000
     12       2.4458      2.00000
     13       2.4458      2.00000
     14       2.4458      2.00000
     15       2.4458      2.00000
     16       3.1310      2.00000
     17       3.1310      2.00000
     18       3.1310      2.00000
     19       3.1310      2.00000
     20       4.1134      2.00000
     21       4.1134      2.00000
     22       4.1134      2.00000
     23       4.1134      2.00000
     24       5.6140      2.00000
     25       5.6140      2.00000
     26       5.6140      2.00000
     27       5.6140      2.00000
     28       5.7157      2.00000
     29       6.4810      2.00000
     30       6.4810      2.00000
     31       7.9709      2.00000
     32       7.9709      2.00000
     33       7.9709      2.00000
     34       7.9709      2.00000
     35       8.0929      2.00000
     36       8.0929      2.00000
     37       8.1087      2.00000
     38       8.1088      2.00000
     39       8.7394      2.00000
     40       8.7394      2.00000
     41       8.7394      2.00000
     42       8.7394      2.00000
     43       8.8670      2.00000
     44       9.3865      2.00000
     45       9.3865      2.00000
     46       9.4546      2.00000
     47       9.4546      2.00000
     48      10.1176      0.00000
     49      10.1176      0.00000
     50      10.1176      0.00000
     51      10.1177      0.00000
     52      10.3538      0.00000
     53      10.3538      0.00000
     54      10.3543      0.00000
     55      10.3545      0.00000
     56      10.3631      0.00000
     57      10.3632      0.00000
     58      10.3637      0.00000
     59      10.3637      0.00000
     60      11.6650      0.00000
     61      11.6650      0.00000
     62      11.6650      0.00000
     63      11.6650      0.00000
     64      12.0191      0.00000
     65      12.0191      0.00000
     66      12.1274      0.00000
     67      12.1274      0.00000
     68      12.1274      0.00000
     69      12.1274      0.00000
     70      12.3612      0.00000
     71      12.3612      0.00000
     72      12.3612      0.00000

 k-point   3 :       0.2857    0.0000    0.0000
  band No.  band energies     occupation 
      1      -2.3206      2.00000
      2      -1.2500      2.00000
      3       0.1625      2.00000
      4       0.1625      2.00000
      5       0.1625      2.00000
      6       0.1625      2.00000
      7       1.2107      2.00000
      8       1.2108      2.00000
      9       1.2108      2.00000
     10       1.2108      2.00000
     11       1.5569      2.00000
     12       2.5928      2.00000
     13       2.5928      2.00000
     14       2.5928      2.00000
     15       2.5928      2.00000
     16       3.6076      2.00000
     17       3.6076      2.00000
     18       3.6076      2.00000
     19       3.6076      2.00000
     20       3.9557      2.00000
     21       3.9557      2.00000
     22       3.9557      2.00000
     23       3.9557      2.00000
     24       4.6025      2.00000
     25       6.3990      2.00000
     26       6.3990      2.00000
     27       6.3990      2.00000
     28       6.3990      2.00000
     29       6.6189      2.00000
     30       6.6189      2.00000
     31       6.9066      2.00000
     32       6.9066      2.00000
     33       6.9066      2.00000
     34       6.9066      2.00000
     35       7.5855      2.00000
     36       7.5855      2.00000
     37       8.2468      2.00000
     38       8.2468      2.00000
     39       8.8784      2.00000
     40       8.8784      2.00000
     41       8.8784      2.00000
     42       8.8784      2.00000
     43       9.1223      2.00000
     44       9.1223      2.00000
     45       9.3160      2.00000
     46       9.3160      2.00000
     47       9.3160      2.00000
     48       9.3160      2.00000
     49       9.8523      0.00000
     50       9.8523      0.00000
     51       9.8523      0.00000
     52       9.8523      0.00000
     53      10.1731      0.00000
     54      10.1731      0.00000
     55      10.2362      0.00000
     56      10.6021      0.00000
     57      10.6021      0.00000
     58      10.6021      0.00000
     59      10.6021      0.00000
     60      11.8245      0.00000
     61      11.8245      0.00000
     62      11.8245      0.00000
     63      11.8245      0.00000
     64      12.4562      0.00000
     65      12.4562      0.00000
     66      12.4562      0.00000
     67      12.4562      0.00000
     68      12.6038      0.00000
     69      12.6039      0.00000
     70      13.0798      0.00000
     71      13.0822      0.00000
     72      13.1087      0.00000

 k-point   4 :       0.4286    0.0000    0.0000
  band No.  band energies     occupation 
      1      -2.0648      2.00000
      2      -1.7076      2.00000
      3       0.4129      2.00000
      4       0.4129      2.00000
      5       0.4129      2.00000
      6       0.4129      2.00000
      7       0.7627      2.00000
      8       0.7627      2.00000
      9       0.7627      2.00000
     10       0.7627      2.00000
     11       2.4916      2.00000
     12       2.8369      2.00000
     13       2.8369      2.00000
     14       2.8369      2.00000
     15       2.8369      2.00000
     16       3.1766      2.00000
     17       3.1766      2.00000
     18       3.1766      2.00000
     19       3.1766      2.00000
     20       3.5111      2.00000
     21       4.8664      2.00000
     22       4.8664      2.00000
     23       4.8664      2.00000
     24       4.8664      2.00000
     25       5.8555      2.00000
     26       5.8555      2.00000
     27       5.8555      2.00000
     28       5.8555      2.00000
     29       6.8488      2.00000
     30       6.8488      2.00000
     31       7.1709      2.00000
     32       7.1709      2.00000
     33       7.2928      2.00000
     34       7.2928      2.00000
     35       7.2928      2.00000
     36       7.2928      2.00000
     37       8.2723      2.00000
     38       8.2723      2.00000
     39       8.2723      2.00000
     40       8.2723      2.00000
     41       8.4716      2.00000
     42       8.4716      2.00000
     43       8.7721      2.00000
     44       8.7721      2.00000
     45       9.1101      2.00000
     46       9.1101      2.00000
     47       9.1101      2.00000
     48       9.1101      2.00000
     49       9.4347      2.00000
     50       9.4347      2.00000
     51       9.4347      2.00000
     52       9.4347      2.00000
     53      10.9742      0.00000
     54      10.9742      0.00000
     55      10.9742      0.00000
     56      10.9742      0.00000
     57      11.0523      0.00000
     58      11.0523      0.00000
     59      11.3665      0.00000
     60      11.3665      0.00000
     61      11.3665      0.00000
     62      11.3665      0.00000
     63      11.7539      0.00000
     64      12.0229      0.00000
     65      12.0229      0.00000
     66      13.3407      0.00000
     67      13.3407      0.00000
     68      13.3407      0.00000
     69      13.3407      0.00000
     70      13.3638      0.00000
     71      13.3647      0.00000
     72      13.3704      0.00000

 k-point   5 :       0.0000    0.1429    0.0000
  band No.  band energies     occupation 
      1      -2.4743      2.00000
      2      -0.6930      2.00000
      3       0.0088      2.00000
      4       0.0120      2.00000
      5       0.0120      2.00000
      6       0.0151      2.00000
      7       0.7125      2.00000
      8       1.7528      2.00000
      9       1.7560      2.00000
     10       1.7560      2.00000
     11       1.7592      2.00000
     12       2.4436      2.00000
     13       2.4445      2.00000
     14       2.4472      2.00000
     15       2.4480      2.00000
     16       3.1277      2.00000
     17       3.1310      2.00000
     18       3.1310      2.00000
     19       3.1342      2.00000
     20       4.1113      2.00000
     21       4.1121      2.00000
     22       4.1146      2.00000
     23       4.1154      2.00000
     24       5.6119      2.00000
     25       5.6127      2.00000
     26       5.6152      2.00000
     27       5.6160      2.00000
     28       5.7157      2.00000
     29       6.4810      2.00000
     30       6.4810      2.00000
     31       7.9673      2.00000
     32       7.9709      2.00000
     33       7.9709      2.00000
     34       7.9744      2.00000
     35       8.0928      2.00000
     36       8.0928      2.00000
     37       8.1087      2.00000
     38       8.1088      2.00000
     39       8.7364      2.00000
     40       8.7394      2.00000
     41       8.7394      2.00000
     42       8.7424      2.00000
     43       8.8670      2.00000
     44       9.3865      2.00000
     45       9.3865      2.00000
     46       9.4546      2.00000
     47       9.4546      2.00000
     48      10.1145      0.00000
     49      10.1177      0.00000
     50      10.1177      0.00000
     51      10.1208      0.00000
     52      10.3515      0.00000
     53      10.3527      0.00000
     54      10.3556      0.00000
     55      10.3569      0.00000
     56      10.3603      0.00000
     57      10.3631      0.00000
     58      10.3636      0.00000
     59      10.3664      0.00000
     60      11.6618      0.00000
     61      11.6650      0.00000
     62      11.6650      0.00000
     63      11.6681      0.00000
     64      12.0191      0.00000
     65      12.0191      0.00000
     66      12.1260      0.00000
     67      12.1274      0.00000
     68      12.1274      0.00000
     69      12.1287      0.00000
     70      12.3598      0.00000
     71      12.3612      0.00000
     72      12.3622      0.00000

 k-point   6 :       0.1429    0.1429    0.0000
  band No.  band energies     occupation 
      1      -2.4230      2.00000
      2      -0.6439      2.00000
      3      -0.6412      2.00000
      4       0.0622      2.00000
      5       0.0622      2.00000
      6       0.7611      2.00000
      7       0.7637      2.00000
      8       1.1114      2.00000
      9       1.8035      2.00000
     10       1.8046      2.00000
     11       1.8062      2.00000
     12       1.8072      2.00000
     13       2.4944      2.00000
     14       2.4952      2.00000
     15       3.1777      2.00000
     16       3.1787      2.00000
     17       3.1804      2.00000
     18       3.1814      2.00000
     19       3.5108      2.00000
     20       3.5108      2.00000
     21       3.8595      2.00000
     22       4.5952      2.00000
     23       4.5952      2.00000
     24       5.2310      2.00000
     25       5.2310      2.00000
     26       5.7623      2.00000
     27       5.7630      2.00000
     28       6.3043      2.00000
     29       6.3044      2.00000
     30       6.5269      2.00000
     31       7.3860      2.00000
     32       7.3886      2.00000
     33       7.8414      2.00000
     34       7.8414      2.00000
     35       8.1375      2.00000
     36       8.1406      2.00000
     37       8.1544      2.00000
     38       8.2616      2.00000
     39       8.2616      2.00000
     40       8.5893      2.00000
     41       8.5917      2.00000
     42       8.9116      2.00000
     43       8.9124      2.00000
     44       9.4313      2.00000
     45       9.4344      2.00000
     46       9.7437      0.00202
     47       9.7447      0.00125
     48       9.7463      0.00054
     49       9.7474      0.00030
     50       9.7600      0.00000
     51       9.8708      0.00000
     52       9.8728      0.00000
     53      10.1243      0.00000
     54      10.1273      0.00000
     55      10.6531      0.00000
     56      10.6531      0.00000
     57      11.0543      0.00000
     58      11.0549      0.00000
     59      11.0558      0.00000
     60      11.0569      0.00000
     61      11.0592      0.00000
     62      11.0610      0.00000
     63      11.7478      0.00000
     64      12.1871      0.00000
     65      12.1879      0.00000
     66      12.3634      0.00000
     67      12.3796      0.00000
     68      12.3798      0.00000
     69      12.5306      0.00000
     70      12.5327      0.00000
     71      13.0574      0.00000
     72      13.0596      0.00000

 k-point   7 :       0.2857    0.1429    0.0000
  band No.  band energies     occupation 
      1      -2.2694      2.00000
      2      -1.1992      2.00000
      3      -0.4912      2.00000
      4       0.2126      2.00000
      5       0.2126      2.00000
      6       0.5630      2.00000
      7       0.9119      2.00000
      8       1.2604      2.00000
      9       1.2604      2.00000
     10       1.6064      2.00000
     11       1.9527      2.00000
     12       1.9535      2.00000
     13       1.9541      2.00000
     14       2.9816      2.00000
     15       2.9816      2.00000
     16       3.3242      2.00000
     17       3.3248      2.00000
     18       3.3256      2.00000
     19       4.0034      2.00000
     20       4.0034      2.00000
     21       4.3047      2.00000
     22       4.3047      2.00000
     23       4.6504      2.00000
     24       4.6770      2.00000
     25       5.8062      2.00000
     26       5.8062      2.00000
     27       5.9034      2.00000
     28       6.3065      2.00000
     29       6.6648      2.00000
     30       6.8819      2.00000
     31       6.9324      2.00000
     32       6.9324      2.00000
     33       7.1073      2.00000
     34       7.1073      2.00000
     35       7.5768      2.00000
     36       7.6317      2.00000
     37       8.2620      2.00000
     38       8.2620      2.00000
     39       8.2778      2.00000
     40       8.2894      2.00000
     41       8.7033      2.00000
     42       8.7033      2.00000
     43       8.9578      2.00000
     44       9.0455      2.00000
     45       9.2300      2.00000
     46       9.2300      2.00000
     47       9.2499      2.00000
     48       9.5722      2.00000
     49       9.8702      0.00000
     50       9.8832      0.00000
     51      10.0214      0.00000
     52      10.0214      0.00000
     53      10.1370      0.00000
     54      10.2196      0.00000
     55      10.2786      0.00000
     56      10.5481      0.00000
     57      10.9834      0.00000
     58      11.2188      0.00000
     59      11.2559      0.00000
     60      11.2559      0.00000
     61      11.8479      0.00000
     62      11.8479      0.00000
     63      11.8501      0.00000
     64      12.4967      0.00000
     65      12.5065      0.00000
     66      12.5299      0.00000
     67      12.5299      0.00000
     68      12.6932      0.00000
     69      12.8127      0.00000
     70      13.1267      0.00000
     71      13.1560      0.00000
     72      13.1924      0.00000

 k-point   8 :       0.4286    0.1429    0.0000
  band No.  band energies     occupation 
      1      -2.0137      2.00000
      2      -1.6567      2.00000
      3      -0.2393      2.00000
      4       0.1124      2.00000
      5       0.4629      2.00000
      6       0.4630      2.00000
      7       0.8125      2.00000
      8       0.8125      2.00000
      9       1.1607      2.00000
     10       1.5082      2.00000
     11       2.1997      2.00000
     12       2.1997      2.00000
     13       2.5400      2.00000
     14       2.5430      2.00000
     15       2.5437      2.00000
     16       3.5593      2.00000
     17       3.5655      2.00000
     18       3.5658      2.00000
     19       3.8976      2.00000
     20       3.8976      2.00000
     21       4.2430      2.00000
     22       4.9124      2.00000
     23       4.9124      2.00000
     24       5.2416      2.00000
     25       5.5779      2.00000
     26       5.8972      2.00000
     27       5.8972      2.00000
     28       6.1375      2.00000
     29       6.4642      2.00000
     30       6.5520      2.00000
     31       6.6811      2.00000
     32       6.6812      2.00000
     33       6.8948      2.00000
     34       7.2170      2.00000
     35       7.6581      2.00000
     36       7.6581      2.00000
     37       8.0031      2.00000
     38       8.0031      2.00000
     39       8.4834      2.00000
     40       8.4834      2.00000
     41       8.5056      2.00000
     42       8.5090      2.00000
     43       8.7760      2.00000
     44       8.8087      2.00000
     45       8.8087      2.00000
     46       8.8330      2.00000
     47       8.9809      2.00000
     48       8.9809      2.00000
     49       9.2622      2.00000
     50       9.5488      2.00000
     51       9.8044      0.00000
     52      10.1297      0.00000
     53      10.4202      0.00000
     54      10.5606      0.00000
     55      10.7767      0.00000
     56      11.0990      0.00000
     57      11.4787      0.00000
     58      11.5587      0.00000
     59      11.6711      0.00000
     60      11.6711      0.00000
     61      11.7920      0.00000
     62      12.0220      0.00000
     63      12.0696      0.00000
     64      12.0726      0.00000
     65      12.0727      0.00000
     66      12.7292      0.00000
     67      12.7292      0.00000
     68      12.7337      0.00000
     69      13.3987      0.00000
     70      13.4279      0.00000
     71      13.6951      0.00000
     72      13.6981      0.00000

 k-point   9 :       0.0000    0.2857    0.0000
  band No.  band energies     occupation 
      1      -2.3206      2.00000
      2      -1.2500      2.00000
      3       0.1593      2.00000
      4       0.1625      2.00000
      5       0.1625      2.00000
      6       0.1656      2.00000
      7       1.2076      2.00000
      8       1.2108      2.00000
      9       1.2108      2.00000
     10       1.2139      2.00000
     11       1.5569      2.00000
     12       2.5906      2.00000
     13       2.5915      2.00000
     14       2.5941      2.00000
     15       2.5950      2.00000
     16       3.6055      2.00000
     17       3.6063      2.00000
     18       3.6090      2.00000
     19       3.6098      2.00000
     20       3.9524      2.00000
     21       3.9557      2.00000
     22       3.9557      2.00000
     23       3.9589      2.00000
     24       4.6025      2.00000
     25       6.3968      2.00000
     26       6.3977      2.00000
     27       6.4004      2.00000
     28       6.4012      2.00000
     29       6.6189      2.00000
     30       6.6189      2.00000
     31       6.9032      2.00000
     32       6.9066      2.00000
     33       6.9066      2.00000
     34       6.9101      2.00000
     35       7.5855      2.00000
     36       7.5856      2.00000
     37       8.2468      2.00000
     38       8.2468      2.00000
     39       8.8753      2.00000
     40       8.8784      2.00000
     41       8.8784      2.00000
     42       8.8814      2.00000
     43       9.1223      2.00000
     44       9.1223      2.00000
     45       9.3135      2.00000
     46       9.3146      2.00000
     47       9.3174      2.00000
     48       9.3185      2.00000
     49       9.8492      0.00000
     50       9.8523      0.00000
     51       9.8523      0.00000
     52       9.8554      0.00000
     53      10.1730      0.00000
     54      10.1730      0.00000
     55      10.2362      0.00000
     56      10.5992      0.00000
     57      10.6021      0.00000
     58      10.6021      0.00000
     59      10.6050      0.00000
     60      11.8217      0.00000
     61      11.8245      0.00000
     62      11.8245      0.00000
     63      11.8272      0.00000
     64      12.4530      0.00000
     65      12.4562      0.00000
     66      12.4562      0.00000
     67      12.4594      0.00000
     68      12.6038      0.00000
     69      12.6039      0.00000
     70      13.0804      0.00000
     71      13.0815      0.00000
     72      13.1098      0.00000

 k-point  10 :       0.1429    0.2857    0.0000
  band No.  band energies     occupation 
      1      -2.2694      2.00000
      2      -1.1992      2.00000
      3      -0.4912      2.00000
      4       0.2126      2.00000
      5       0.2126      2.00000
      6       0.5630      2.00000
      7       0.9119      2.00000
      8       1.2604      2.00000
      9       1.2604      2.00000
     10       1.6064      2.00000
     11       1.9520      2.00000
     12       1.9535      2.00000
     13       1.9548      2.00000
     14       2.9816      2.00000
     15       2.9816      2.00000
     16       3.3235      2.00000
     17       3.3248      2.00000
     18       3.3263      2.00000
     19       4.0034      2.00000
     20       4.0034      2.00000
     21       4.3047      2.00000
     22       4.3047      2.00000
     23       4.6504      2.00000
     24       4.6770      2.00000
[...]
      6       0.5630      2.00000
      7       0.5631      2.00000
      8       0.9123      2.00000
      9       1.6072      2.00000
     10       1.9531      2.00000
     11       1.9531      2.00000
     12       2.2977      2.00000
     13       2.9813      2.00000
     14       2.9813      2.00000
     15       3.3226      2.00000
     16       3.3226      2.00000
     17       3.9953      2.00000
     18       3.9953      2.00000
     19       4.3327      2.00000
     20       4.3327      2.00000
     21       4.6643      2.00000
     22       4.6643      2.00000
     23       4.9698      2.00000
     24       4.9698      2.00000
     25       5.6289      2.00000
     26       5.6289      2.00000
     27       5.7185      2.00000
     28       5.7185      2.00000
     29       6.3822      2.00000
     30       6.3822      2.00000
     31       6.4728      2.00000
     32       6.4728      2.00000
     33       6.5510      2.00000
     34       6.8585      2.00000
     35       6.8585      2.00000
     36       7.0134      2.00000
     37       7.1212      2.00000
     38       7.1212      2.00000
     39       7.4251      2.00000
     40       7.4252      2.00000
     41       7.5529      2.00000
     42       8.3026      2.00000
     43       8.3026      2.00000
     44       9.0481      2.00000
     45       9.0805      2.00000
     46      10.0524      0.00000
     47      10.0524      0.00000
     48      10.1558      0.00000
     49      10.2878      0.00000
     50      10.2878      0.00000
     51      10.4047      0.00000
     52      10.5797      0.00000
     53      10.8044      0.00000
     54      10.8045      0.00000
     55      11.0199      0.00000
     56      11.1637      0.00000
     57      11.1637      0.00000
     58      11.3733      0.00000
     59      11.3733      0.00000
     60      11.6386      0.00000
     61      11.6386      0.00000
     62      12.1074      0.00000
     63      12.1074      0.00000
     64      12.3385      0.00000
     65      12.3940      0.00000
     66      12.3940      0.00000
     67      12.4778      0.00000
     68      12.4778      0.00000
     69      13.7632      0.00000
     70      13.7664      0.00000
     71      13.7951      0.00000
     72      13.7992      0.00000

 k-point  39 :       0.2857    0.4286    0.4286
  band No.  band energies     occupation 
      1      -1.4024      2.00000
      2      -1.0472      2.00000
      3      -1.0472      2.00000
      4      -0.6931      2.00000
      5      -0.3400      2.00000
      6       0.0121      2.00000
      7       0.0121      2.00000
      8       0.3630      2.00000
      9       2.4445      2.00000
     10       2.7875      2.00000
     11       2.7875      2.00000
     12       3.1272      2.00000
     13       3.1276      2.00000
     14       3.1290      2.00000
     15       3.4681      2.00000
     16       3.4681      2.00000
     17       4.1396      2.00000
     18       4.1397      2.00000
     19       4.1427      2.00000
     20       4.1428      2.00000
     21       4.4720      2.00000
     22       4.4720      2.00000
     23       4.4759      2.00000
     24       4.4760      2.00000
     25       5.1356      2.00000
     26       5.1356      2.00000
     27       5.4386      2.00000
     28       5.4386      2.00000
     29       5.4566      2.00000
     30       5.7807      2.00000
     31       5.7807      2.00000
     32       6.0827      2.00000
     33       6.9423      2.00000
     34       6.9423      2.00000
     35       7.2469      2.00000
     36       7.2469      2.00000
     37       7.5780      2.00000
     38       7.8869      2.00000
     39       7.8869      2.00000
     40       8.2162      2.00000
     41       8.2162      2.00000
     42       8.5045      2.00000
     43       8.5045      2.00000
     44       8.5579      2.00000
     45       9.4167      2.00000
     46       9.5295      2.00000
     47       9.5295      2.00000
     48       9.7813      0.00000
     49       9.7813      0.00000
     50      10.1306      0.00000
     51      10.1306      0.00000
     52      10.4959      0.00000
     53      10.7057      0.00000
     54      10.7057      0.00000
     55      11.0835      0.00000
     56      11.0835      0.00000
     57      11.2023      0.00000
     58      11.2783      0.00000
     59      11.5589      0.00000
     60      11.5590      0.00000
     61      11.8829      0.00000
     62      12.1683      0.00000
     63      12.1684      0.00000
     64      12.5029      0.00000
     65      12.5029      0.00000
     66      12.7525      0.00000
     67      12.7525      0.00000
     68      13.1313      0.00000
     69      13.4030      0.00000
     70      13.4030      0.00000
     71      13.7726      0.00000
     72      13.7726      0.00000

 k-point  40 :       0.4286    0.4286    0.4286
  band No.  band energies     occupation 
      1      -1.1486      2.00000
      2      -0.7960      2.00000
      3      -0.7941      2.00000
      4      -0.7923      2.00000
      5      -0.4426      2.00000
      6      -0.4407      2.00000
      7      -0.4389      2.00000
      8      -0.0884      2.00000
      9       3.3688      2.00000
     10       3.3708      2.00000
     11       3.3726      2.00000
     12       3.7068      2.00000
     13       3.7085      2.00000
     14       3.7098      2.00000
     15       3.7098      2.00000
     16       3.7112      2.00000
     17       3.7128      2.00000
     18       4.0454      2.00000
     19       4.0460      2.00000
     20       4.0466      2.00000
     21       4.3790      2.00000
     22       4.3796      2.00000
     23       4.3802      2.00000
     24       4.7100      2.00000
     25       4.7117      2.00000
     26       4.7130      2.00000
     27       4.7130      2.00000
     28       4.7144      2.00000
     29       4.7161      2.00000
     30       5.0380      2.00000
     31       5.0399      2.00000
     32       5.0418      2.00000
     33       7.7987      2.00000
     34       7.8007      2.00000
     35       7.8028      2.00000
     36       8.1297      2.00000
     37       8.1304      2.00000
     38       8.1311      2.00000
     39       8.7571      2.00000
     40       8.7575      2.00000
     41       8.7592      2.00000
     42       8.7592      2.00000
     43       8.7608      2.00000
     44       8.7612      2.00000
     45       9.0967      2.00000
     46       9.0972      2.00000
     47       9.0988      2.00000
     48       9.0988      2.00000
     49       9.1004      2.00000
     50       9.1009      2.00000
     51       9.7087      1.93597
     52       9.7096      1.91609
     53       9.7105      1.89231
     54      10.0590      0.00000
     55      10.0611      0.00000
     56      10.0632      0.00000
     57      12.0861      0.00000
     58      12.7211      0.00000
     59      12.7216      0.00000
     60      12.7221      0.00000
     61      13.0252      0.00000
     62      13.0256      0.00000
     63      13.0272      0.00000
     64      13.0273      0.00000
     65      13.0288      0.00000
     66      13.0290      0.00000
     67      13.0483      0.00000
     68      13.0494      0.00000
     69      13.0505      0.00000
     70      13.3624      0.00000
     71      13.3635      0.00000
     72      13.3646      0.00000


--------------------------------------------------------------------------------------------------------


 soft charge-density along one line, spin component           1
         0         1         2         3         4         5         6         7         8         9
 total charge-density along one line
 
 pseudopotential strength for first ion, spin component:           1
  8.391  -0.009   0.000  -0.000   0.000   0.000  -0.000  -0.000
 -0.009   0.000   0.000  -0.000  -0.000  -0.000   0.000   0.000
  0.000   0.000   1.997   0.000   0.000  -0.032  -0.000  -0.000
 -0.000  -0.000   0.000   1.997  -0.000  -0.000  -0.032   0.000
  0.000  -0.000   0.000  -0.000   1.997  -0.000   0.000  -0.032
  0.000  -0.000  -0.032  -0.000  -0.000  -0.011  -0.000  -0.000
 -0.000   0.000  -0.000  -0.032   0.000  -0.000  -0.011   0.000
 -0.000   0.000  -0.000   0.000  -0.032  -0.000   0.000  -0.011
 total augmentation occupancy for first ion, spin component:           1
  1.292  -0.664  -0.000   0.000   0.004   0.000  -0.000  -0.002
 -0.664   0.682  -0.000   0.000  -0.004   0.000  -0.000   0.002
 -0.000  -0.000   0.865   0.003   0.005  -0.192  -0.001  -0.001
  0.000   0.000   0.003   0.867   0.000  -0.001  -0.188  -0.001
  0.004  -0.004   0.005   0.000   0.866  -0.001  -0.001  -0.190
  0.000   0.000  -0.192  -0.001  -0.001   0.049   0.000   0.000
 -0.000  -0.000  -0.001  -0.188  -0.001   0.000   0.048   0.000
 -0.002   0.002  -0.001  -0.001  -0.190   0.000   0.000   0.048


------------------------ aborting loop because EDIFF is reached ----------------------------------------




--------------------------------------------------------------------------------------------------------


    CHARGE:  VPU time    0.60: CPU time    0.60
    FORLOC:  VPU time    0.02: CPU time    0.02
    FORNL :  VPU time    5.43: CPU time    5.42
    STRESS:  VPU time   11.06: CPU time   11.05
    FORCOR:  VPU time    0.12: CPU time    0.12
    FORHAR:  VPU time    0.04: CPU time    0.04
    MIXING:  VPU time    0.00: CPU time    0.00


--------------------------------------------------------------------------------------------------------



  FREE ENERGIE OF THE ION-ELECTRON SYSTEM (eV)
  ---------------------------------------------------
  free  energy   TOTEN  =      -116.345297 eV

  energy  without entropy=     -116.345203  energy(sigma->0) =     -116.345250
 

  FORCE on cell =-STRESS in cart. coord.  units (eV/reduce length):
  Direction    X        Y        Z        XY       YZ       ZX
  --------------------------------------------------------------------------------------
  Alpha Z     -7.62     -7.62     -7.62
  Ewald     -826.25   -826.25   -826.25     -0.00      0.00      0.00
  Hartree      1.53      1.54      1.54     -0.00     -0.00     -0.00
  E(xc)     -288.89   -288.89   -288.89     -0.00      0.00      0.00
  Local       30.91     30.91     30.91     -0.00     -0.00      0.00
  n-local    635.99    634.95    637.04     -1.99     -0.63      0.73
  augment    -30.43    -30.43    -30.43      0.00      0.00      0.00
  Kinetic    533.11    526.17    540.05      5.72      0.06     -5.60
  -------------------------------------------------------------------------------------
  Total       48.37     48.37     48.37     -0.00      0.00      0.00
  in kB      171.68    171.68    171.68     -0.00      0.00      0.00
  external pressure =      171.68 kB  Pullay stress =        0.00 kB


 VOLUME and BASIS-vectors are now :
 -----------------------------------------------------------------------------
  energy-cutoff  :      500.00
  volume of cell :      451.37
      direct lattice vectors                 reciprocal lattice vectors
     7.670882102  0.000000000  0.000000000     0.130363104  0.000000000  0.000000000
     0.000000000  7.670882102  0.000000000     0.000000000  0.130363104  0.000000000
     0.000000000  0.000000000  7.670882102     0.000000000  0.000000000  0.130363104

  length of vectors
     7.670882102  7.670882102  7.670882102     0.130363104  0.130363104  0.130363104


 FORCES acting on ions
    electron-ion (+dipol)            ewald-force                    non-local-force                 convergence-correction
 -----------------------------------------------------------------------------------------------
   0.454E+00 0.321E-13 -.801E-08   -.373E+00 0.311E-14 0.444E-15   -.165E+00 0.112E-18 0.147E-19   -.138E-05 0.106E-13 -.741E-14
   -.964E-01 0.164E-12 -.747E-13   0.984E-01 -.222E-14 -.876E-14   0.174E-02 0.529E-19 -.515E-20   -.825E-06 0.117E-13 -.681E-14
   0.319E-01 -.360E-13 -.726E-13   -.312E-01 -.488E-14 -.565E-14   -.101E-02 0.183E-20 -.497E-20   -.924E-06 -.105E-13 -.613E-14
   -.252E-01 -.638E-13 0.360E-12   0.245E-01 -.488E-14 -.565E-14   0.112E-02 -.372E-20 0.636E-20   0.320E-07 -.111E-13 -.471E-14
   0.319E-01 -.321E-13 -.768E-15   -.312E-01 -.178E-14 -.750E-14   -.101E-02 -.981E-20 0.367E-21   -.915E-06 0.816E-14 0.713E-14
   -.252E-01 -.708E-14 0.953E-13   0.245E-01 -.178E-14 -.750E-14   0.112E-02 0.189E-20 -.941E-20   0.264E-07 0.877E-14 0.658E-14
   0.128E-01 0.375E-13 -.810E-14   -.129E-01 -.533E-14 -.351E-14   0.318E-03 -.991E-20 0.140E-20   -.259E-05 -.800E-14 0.587E-14
   -.139E-01 -.265E-12 0.122E-12   0.120E-01 -.533E-14 -.351E-14   0.668E-03 -.163E-21 0.448E-21   0.258E-05 -.818E-14 0.447E-14
   0.559E-01 -.275E-03 0.275E-03   -.588E-01 0.241E-03 -.241E-03   0.105E-02 0.730E-04 -.730E-04   -.122E-05 0.135E-06 -.135E-06
   -.355E-01 0.834E-04 -.834E-04   0.331E-01 -.722E-04 0.722E-04   0.210E-02 -.143E-04 0.143E-04   0.161E-06 0.673E-07 -.673E-07
   0.559E-01 0.275E-03 0.275E-03   -.588E-01 -.241E-03 -.241E-03   0.105E-02 -.730E-04 -.730E-04   -.122E-05 -.135E-06 -.135E-06
   -.355E-01 -.834E-04 -.834E-04   0.331E-01 0.722E-04 0.722E-04   0.210E-02 0.143E-04 0.143E-04   0.161E-06 -.673E-07 -.673E-07
   0.559E-01 -.275E-03 -.275E-03   -.588E-01 0.241E-03 0.241E-03   0.105E-02 0.730E-04 0.730E-04   -.122E-05 0.135E-06 0.135E-06
   -.355E-01 0.834E-04 0.834E-04   0.331E-01 -.722E-04 -.722E-04   0.210E-02 -.143E-04 -.143E-04   0.161E-06 0.673E-07 0.673E-07
   0.559E-01 0.275E-03 -.275E-03   -.588E-01 -.241E-03 0.241E-03   0.105E-02 -.730E-04 0.730E-04   -.122E-05 -.135E-06 0.135E-06
   -.355E-01 -.834E-04 0.834E-04   0.331E-01 0.722E-04 -.722E-04   0.210E-02 0.143E-04 -.143E-04   0.161E-06 -.673E-07 0.673E-07
   -.556E-01 -.358E-14 0.982E-01   0.476E-01 0.844E-14 -.901E-01   0.187E-01 0.190E-19 -.201E-01   0.813E-06 0.100E-13 -.715E-07
   -.554E-01 0.219E-12 -.991E-01   0.473E-01 0.888E-14 0.909E-01   0.190E-01 0.203E-19 0.206E-01   0.788E-06 0.111E-13 -.260E-06
   -.973E-03 -.114E-13 0.795E-02   0.159E-02 0.124E-13 -.746E-02   -.232E-03 -.415E-20 -.444E-03   0.180E-06 -.966E-14 0.103E-05
   -.821E-03 -.233E-13 -.794E-02   0.143E-02 0.124E-13 0.747E-02   -.225E-03 0.659E-20 0.437E-03   0.290E-06 -.107E-13 -.108E-05
   -.556E-01 -.442E-14 -.982E-01   0.476E-01 0.844E-14 0.901E-01   0.187E-01 0.105E-19 0.201E-01   0.813E-06 0.881E-14 0.715E-07
   -.554E-01 -.138E-12 0.991E-01   0.473E-01 0.888E-14 -.909E-01   0.190E-01 -.115E-19 -.206E-01   0.788E-06 0.930E-14 0.260E-06
   -.973E-03 -.147E-13 -.795E-02   0.159E-02 0.129E-13 0.746E-02   -.232E-03 0.104E-21 0.444E-03   0.180E-06 -.849E-14 -.103E-05
   -.821E-03 -.235E-12 0.794E-02   0.143E-02 0.124E-13 -.747E-02   -.225E-03 -.119E-19 -.437E-03   0.290E-06 -.889E-14 0.108E-05
   -.556E-01 -.982E-01 0.547E-14   0.476E-01 0.901E-01 0.541E-14   0.187E-01 0.201E-01 -.508E-20   0.814E-06 0.680E-07 -.625E-14
   -.554E-01 0.991E-01 0.213E-12   0.473E-01 -.909E-01 0.542E-14   0.190E-01 -.206E-01 0.966E-20   0.789E-06 0.264E-06 -.780E-14
   -.556E-01 0.982E-01 0.104E-14   0.476E-01 -.901E-01 0.808E-14   0.187E-01 -.201E-01 0.930E-21   0.814E-06 -.680E-07 -.505E-14
   -.554E-01 -.991E-01 -.877E-13   0.473E-01 0.909E-01 0.108E-13   0.190E-01 0.206E-01 -.146E-19   0.789E-06 -.264E-06 -.598E-14
   -.973E-03 -.795E-02 -.978E-14   0.159E-02 0.746E-02 0.697E-14   -.232E-03 0.444E-03 0.323E-20   0.180E-06 -.103E-05 0.599E-14
   -.821E-03 0.794E-02 -.140E-12   0.143E-02 -.747E-02 0.520E-14   -.225E-03 -.437E-03 -.100E-19   0.289E-06 0.108E-05 0.754E-14
   -.973E-03 0.795E-02 -.518E-14   0.159E-02 -.746E-02 0.101E-13   -.232E-03 -.444E-03 0.319E-20   0.180E-06 0.103E-05 0.483E-14
   -.821E-03 -.794E-02 0.157E-12   0.143E-02 0.747E-02 0.877E-14   -.225E-03 0.437E-03 0.555E-20   0.289E-06 -.108E-05 0.571E-14
 -----------------------------------------------------------------------------------------------
   0.234E-05 0.152E-12 -.801E-08   -.110E-14 0.625E-14 0.293E-13   0.295E-05 0.000E+00 -.429E-17   0.413E-07 -.157E-15 -.236E-15
 
 
 POSITION                                       TOTAL-FORCE (eV/Angst)
 -----------------------------------------------------------------------------------
      1.92772      1.91772      0.00000        -0.083740     -0.000000     -0.000000
      5.75316      1.91772      0.00000         0.003774     -0.000000     -0.000000
      1.91772      5.75316      0.00000        -0.000282      0.000000     -0.000000
      5.75316      5.75316      0.00000         0.000375      0.000000      0.000000
      1.91772      1.91772      3.83544        -0.000282     -0.000000      0.000000
      5.75316      1.91772      3.83544         0.000375     -0.000000      0.000000
      1.91772      5.75316      3.83544         0.000270     -0.000000     -0.000000
      5.75316      5.75316      3.83544        -0.001165     -0.000000      0.000000
      1.91772      0.00000      1.91772        -0.001797      0.000039     -0.000039
      5.75316      0.00000      1.91772        -0.000324     -0.000003      0.000003
      1.91772      3.83544      1.91772        -0.001797     -0.000039     -0.000039
      5.75316      3.83544      1.91772        -0.000324      0.000003      0.000003
      1.91772      0.00000      5.75316        -0.001797      0.000039      0.000039
      5.75316      0.00000      5.75316        -0.000324     -0.000003     -0.000003
      1.91772      3.83544      5.75316        -0.001797     -0.000039      0.000039
      5.75316      3.83544      5.75316        -0.000324      0.000003     -0.000003
      0.00000      1.91772      1.91772         0.010643     -0.000000     -0.012046
      3.83544      1.91772      1.91772         0.010872      0.000000      0.012376
      0.00000      5.75316      1.91772         0.000386      0.000000      0.000047
      3.83544      5.75316      1.91772         0.000389      0.000000     -0.000038
      0.00000      1.91772      5.75316         0.010643      0.000000      0.012046
      3.83544      1.91772      5.75316         0.010872     -0.000000     -0.012376
      0.00000      5.75316      5.75316         0.000386      0.000000     -0.000047
      3.83544      5.75316      5.75316         0.000389     -0.000000      0.000038
      0.00000      0.00000      0.00000         0.010643      0.012046     -0.000000
      3.83544      0.00000      0.00000         0.010872     -0.012376      0.000000
      0.00000      3.83544      0.00000         0.010643     -0.012046      0.000000
      3.83544      3.83544      0.00000         0.010872      0.012376     -0.000000
      0.00000      0.00000      3.83544         0.000386     -0.000047     -0.000000
      3.83544      0.00000      3.83544         0.000389      0.000038     -0.000000
      0.00000      3.83544      3.83544         0.000386      0.000047     -0.000000
      3.83544      3.83544      3.83544         0.000389     -0.000038      0.000000
 -----------------------------------------------------------------------------------
    total drift:                                0.000005      0.000000     -0.000000


--------------------------------------------------------------------------------------------------------



 mean value of Nose-termostat <S>:     1.000 mean value of <T> :     0.000
 mean temperature <T/S>/<1/S>  :     0.000

     LOOP+:  VPU time  302.18: CPU time  302.19
  
  
 General timing and accounting informations for this job:
 ========================================================
  
                  Total CPU time used (sec):      311.188
                            User time (sec):      260.455
                          System time (sec):       50.732
                         Elapsed time (sec):      311.205
  
                   Maximum memory used (kb):      835140.
                   Average memory used (kb):           0.
  
                          Minor page faults:       177191
                          Major page faults:            0
                 Voluntary context switches:          944
