  32  32   0   0
  0.1745885E+02  0.8236105E-09  0.8236105E-09  0.8236105E-09  0.5000000E-15
  1.000000000000000E-004
  CAR 
 unknown system                          
     11.91507612     -4.05273981  301      7.43338828      1.00000000
     -4.053  0.0000E+00  0.0000E+00
     -4.000  0.0000E+00  0.0000E+00
     -3.946  0.0000E+00  0.0000E+00
     -3.893  0.0000E+00  0.0000E+00
     -3.840  0.0000E+00  0.0000E+00
     -3.787  0.0000E+00  0.0000E+00
     -3.733  0.0000E+00  0.0000E+00
     -3.680  0.0000E+00  0.0000E+00
     -3.627  0.0000E+00  0.0000E+00
     -3.574  0.0000E+00  0.0000E+00
     -3.520  0.0000E+00  0.0000E+00
     -3.467  0.0000E+00  0.0000E+00
     -3.414  0.0000E+00  0.0000E+00
     -3.361  0.1450E-06  0.7717E-08
     -3.308  0.1734E+00  0.9231E-02
     -3.254  0.9969E+00  0.6229E-01
     -3.201  0.1595E+01  0.1472E+00
     -3.148  0.1024E+01  0.2017E+00
     -3.095  0.9877E+00  0.2543E+00
     -3.041  0.9928E+00  0.3071E+00
     -2.988  0.4147E+01  0.5278E+00
     -2.935  0.4174E+01  0.7500E+00
     -2.882  0.3320E-07  0.7500E+00
     -2.829  0.2040E+01  0.8586E+00
     -2.775  0.4409E+01  0.1093E+01
     -2.722  0.2883E+01  0.1247E+01
     -2.669  0.2772E+01  0.1394E+01
     -2.616  0.3581E+01  0.1585E+01
     -2.562  0.1369E+01  0.1658E+01
     -2.509  0.4170E+01  0.1880E+01
     -2.456  0.8348E+01  0.2324E+01
     -2.403  0.2354E-02  0.2324E+01
     -2.350  0.9706E+00  0.2376E+01
     -2.296  0.5810E+01  0.2685E+01
     -2.243  0.4555E+01  0.2927E+01
     -2.190  0.4628E+01  0.3174E+01
     -2.137  0.3898E+01  0.3381E+01
     -2.083  0.4147E+01  0.3602E+01
     -2.030  0.8347E+01  0.4046E+01
     -1.977  0.4170E+01  0.4268E+01
     -1.924  0.4664E-02  0.4269E+01
     -1.870  0.3665E+01  0.4464E+01
     -1.817  0.3565E+01  0.4653E+01
     -1.764  0.5052E+01  0.4922E+01
     -1.711  0.9909E+01  0.5450E+01
     -1.658  0.5296E+01  0.5731E+01
     -1.604  0.2486E-02  0.5732E+01
     -1.551  0.1252E+02  0.6398E+01
     -1.498  0.8337E+01  0.6842E+01
     -1.445  0.1292E-01  0.6843E+01
     -1.391  0.1804E+01  0.6939E+01
     -1.338  0.5000E+01  0.7205E+01
     -1.285  0.5510E+01  0.7498E+01
     -1.232  0.6880E+01  0.7864E+01
     -1.179  0.7971E+01  0.8288E+01
     -1.125  0.5193E+01  0.8565E+01
     -1.072  0.4174E+01  0.8787E+01
     -1.019  0.1251E+02  0.9453E+01
     -0.966  0.1462E-01  0.9454E+01
     -0.912  0.3706E+01  0.9651E+01
     -0.859  0.1095E+02  0.1023E+02
     -0.806  0.8577E+01  0.1069E+02
     -0.753  0.6301E+01  0.1103E+02
     -0.699  0.3908E+01  0.1123E+02
     -0.646  0.4145E+01  0.1145E+02
     -0.593  0.1252E+02  0.1212E+02
     -0.540  0.8346E+01  0.1256E+02
     -0.487  0.4017E-02  0.1256E+02
     -0.433  0.1312E+01  0.1263E+02
     -0.380  0.7217E+01  0.1302E+02
     -0.327  0.8628E+01  0.1348E+02
     -0.274  0.9589E+01  0.1399E+02
     -0.220  0.7129E+01  0.1437E+02
     -0.167  0.4088E+01  0.1459E+02
     -0.114  0.1249E+02  0.1525E+02
     -0.061  0.1670E+02  0.1614E+02
     -0.008  0.6746E-03  0.1614E+02
      0.046  0.8203E+01  0.1658E+02
      0.099  0.7699E+01  0.1699E+02
      0.152  0.3681E+01  0.1718E+02
      0.205  0.5773E+01  0.1749E+02
      0.259  0.8045E+01  0.1792E+02
      0.312  0.2458E+00  0.1793E+02
      0.365  0.1231E+02  0.1859E+02
      0.418  0.1667E+02  0.1947E+02
      0.471  0.6541E-05  0.1947E+02
      0.525  0.1043E+01  0.1953E+02
      0.578  0.1641E+02  0.2040E+02
      0.631  0.1541E+02  0.2122E+02
      0.684  0.4446E+01  0.2146E+02
      0.738  0.4622E+01  0.2170E+02
      0.791  0.7617E+01  0.2211E+02
      0.844  0.1432E+02  0.2287E+02
      0.897  0.8159E+01  0.2331E+02
      0.951  0.2616E-02  0.2331E+02
      1.004  0.6260E+01  0.2364E+02
      1.057  0.8343E+01  0.2408E+02
      1.110  0.2070E+02  0.2518E+02
      1.163  0.9243E+01  0.2568E+02
      1.217  0.3809E+01  0.2588E+02
      1.270  0.9453E+01  0.2638E+02
      1.323  0.9967E+01  0.2691E+02
      1.376  0.6677E+01  0.2727E+02
      1.430  0.6043E-01  0.2727E+02
      1.483  0.4146E+01  0.2749E+02
      1.536  0.1772E+02  0.2844E+02
      1.589  0.8346E+01  0.2888E+02
      1.642  0.1250E+02  0.2954E+02
      1.696  0.8257E+01  0.2998E+02
      1.749  0.7939E+01  0.3041E+02
      1.802  0.1646E+02  0.3128E+02
      1.855  0.4945E+01  0.3155E+02
      1.909  0.5514E+00  0.3158E+02
      1.962  0.5462E+01  0.3187E+02
      2.015  0.2355E+02  0.3312E+02
      2.068  0.2061E+02  0.3422E+02
      2.121  0.8278E+01  0.3466E+02
      2.175  0.2697E-04  0.3466E+02
      2.228  0.8337E+01  0.3510E+02
      2.281  0.1648E+02  0.3598E+02
      2.334  0.2309E+00  0.3599E+02
      2.388  0.3233E+01  0.3616E+02
      2.441  0.5676E+01  0.3646E+02
      2.494  0.1019E+02  0.3701E+02
      2.547  0.1372E+02  0.3774E+02
      2.601  0.1171E+02  0.3836E+02
      2.654  0.5979E+01  0.3868E+02
      2.707  0.2826E+02  0.4018E+02
      2.760  0.7877E+01  0.4060E+02
      2.813  0.2084E-01  0.4060E+02
      2.867  0.1246E+02  0.4127E+02
      2.920  0.1648E+02  0.4214E+02
      2.973  0.1234E+02  0.4280E+02
      3.026  0.1035E+02  0.4335E+02
      3.080  0.7442E+01  0.4375E+02
      3.133  0.6320E+01  0.4408E+02
      3.186  0.1938E+02  0.4511E+02
      3.239  0.1125E+02  0.4571E+02
      3.292  0.1382E+01  0.4579E+02
      3.346  0.1153E+01  0.4585E+02
      3.399  0.1918E+02  0.4687E+02
      3.452  0.8890E+01  0.4734E+02
      3.505  0.1508E+02  0.4815E+02
      3.559  0.5797E+01  0.4845E+02
      3.612  0.2423E+02  0.4974E+02
      3.665  0.1250E+02  0.5041E+02
      3.718  0.8411E+00  0.5045E+02
      3.771  0.8649E+01  0.5091E+02
      3.825  0.4700E+01  0.5116E+02
      3.878  0.2174E+02  0.5232E+02
      3.931  0.3791E+01  0.5252E+02
      3.984  0.1233E+02  0.5318E+02
      4.038  0.5620E+01  0.5348E+02
      4.091  0.3213E+02  0.5519E+02
      4.144  0.8117E+01  0.5562E+02
      4.197  0.4161E+01  0.5584E+02
      4.251  0.6233E+01  0.5617E+02
      4.304  0.2183E+02  0.5734E+02
      4.357  0.1514E+02  0.5814E+02
      4.410  0.1276E+02  0.5882E+02
      4.463  0.4584E+01  0.5906E+02
      4.517  0.1301E+02  0.5976E+02
      4.570  0.1622E+02  0.6062E+02
      4.623  0.4300E+01  0.6085E+02
      4.676  0.1060E+02  0.6141E+02
      4.730  0.1469E+02  0.6220E+02
      4.783  0.2107E+02  0.6332E+02
      4.836  0.1286E+02  0.6400E+02
      4.889  0.1415E+02  0.6475E+02
      4.942  0.1261E+02  0.6543E+02
      4.996  0.1247E+02  0.6609E+02
      5.049  0.6010E+01  0.6641E+02
      5.102  0.4474E+01  0.6665E+02
      5.155  0.4199E+01  0.6687E+02
      5.209  0.2774E+02  0.6835E+02
      5.262  0.1071E+02  0.6892E+02
      5.315  0.1660E+02  0.6980E+02
      5.368  0.6189E+01  0.7013E+02
      5.421  0.1122E+02  0.7073E+02
      5.475  0.1879E+02  0.7173E+02
      5.528  0.9332E+01  0.7222E+02
      5.581  0.6356E+01  0.7256E+02
      5.634  0.1588E+02  0.7341E+02
      5.688  0.1766E+02  0.7435E+02
      5.741  0.1703E+02  0.7525E+02
      5.794  0.1051E+02  0.7581E+02
      5.847  0.1132E+02  0.7642E+02
      5.901  0.2058E+01  0.7653E+02
      5.954  0.1310E+02  0.7722E+02
      6.007  0.1547E+01  0.7731E+02
      6.060  0.1172E+02  0.7793E+02
      6.113  0.1560E+02  0.7876E+02
      6.167  0.2478E+02  0.8008E+02
      6.220  0.4379E+01  0.8031E+02
      6.273  0.1229E+02  0.8097E+02
      6.326  0.7120E+01  0.8134E+02
      6.380  0.2640E+02  0.8275E+02
      6.433  0.1828E+02  0.8372E+02
      6.486  0.5106E+00  0.8375E+02
      6.539  0.1151E+02  0.8436E+02
      6.592  0.9360E+01  0.8486E+02
      6.646  0.1771E+02  0.8580E+02
      6.699  0.9227E+01  0.8629E+02
      6.752  0.1613E+02  0.8715E+02
      6.805  0.2123E+02  0.8828E+02
      6.859  0.1135E+02  0.8889E+02
      6.912  0.1098E+02  0.8947E+02
      6.965  0.8348E+01  0.8992E+02
      7.018  0.4355E+00  0.8994E+02
      7.072  0.1385E+02  0.9068E+02
      7.125  0.1911E+02  0.9169E+02
      7.178  0.8384E+01  0.9214E+02
      7.231  0.8390E+01  0.9259E+02
      7.284  0.3390E+02  0.9439E+02
      7.338  0.9846E+01  0.9492E+02
      7.391  0.1455E+02  0.9569E+02
      7.444  0.1431E+02  0.9645E+02
      7.497  0.2943E+02  0.9802E+02
      7.551  0.6363E+01  0.9836E+02
      7.604  0.8855E+01  0.9883E+02
      7.657  0.1832E+02  0.9980E+02
      7.710  0.9758E+01  0.1003E+03
      7.763  0.1334E+02  0.1010E+03
      7.817  0.5672E+01  0.1013E+03
      7.870  0.1382E+02  0.1021E+03
      7.923  0.1167E+02  0.1027E+03
      7.976  0.1753E+02  0.1036E+03
      8.030  0.1628E+02  0.1045E+03
      8.083  0.4171E+01  0.1047E+03
      8.136  0.9115E-01  0.1047E+03
      8.189  0.1658E+02  0.1056E+03
      8.242  0.1462E+02  0.1064E+03
      8.296  0.2591E+02  0.1078E+03
      8.349  0.2348E+02  0.1090E+03
      8.402  0.1207E+02  0.1097E+03
      8.455  0.1348E+02  0.1104E+03
      8.509  0.1855E+02  0.1114E+03
      8.562  0.1125E+02  0.1120E+03
      8.615  0.1569E+02  0.1128E+03
      8.668  0.1308E+02  0.1135E+03
      8.722  0.4078E+01  0.1137E+03
      8.775  0.2036E+02  0.1148E+03
      8.828  0.1940E+02  0.1158E+03
      8.881  0.2617E+02  0.1172E+03
      8.934  0.1351E+02  0.1179E+03
      8.988  0.6345E+01  0.1183E+03
      9.041  0.4640E+01  0.1185E+03
      9.094  0.1993E+02  0.1196E+03
      9.147  0.1289E+02  0.1203E+03
      9.201  0.1444E+02  0.1210E+03
      9.254  0.1477E+02  0.1218E+03
      9.307  0.1904E+02  0.1228E+03
      9.360  0.8266E+01  0.1233E+03
      9.413  0.1986E+02  0.1243E+03
      9.467  0.2079E+02  0.1254E+03
      9.520  0.8373E+01  0.1259E+03
      9.573  0.1765E+01  0.1260E+03
      9.626  0.1575E+02  0.1268E+03
      9.680  0.2456E+02  0.1281E+03
      9.733  0.2260E+02  0.1293E+03
      9.786  0.1860E+02  0.1303E+03
      9.839  0.8536E+01  0.1308E+03
      9.892  0.3440E+01  0.1309E+03
      9.946  0.2061E+02  0.1320E+03
      9.999  0.1371E+02  0.1328E+03
     10.052  0.1609E+02  0.1336E+03
     10.105  0.1389E+02  0.1344E+03
     10.159  0.1328E+02  0.1351E+03
     10.212  0.1033E+02  0.1356E+03
     10.265  0.2092E+02  0.1367E+03
     10.318  0.7252E+01  0.1371E+03
     10.372  0.1423E+02  0.1379E+03
     10.425  0.2526E+02  0.1392E+03
     10.478  0.1508E+02  0.1400E+03
     10.531  0.1716E+02  0.1409E+03
     10.584  0.3471E+01  0.1411E+03
     10.638  0.8568E+01  0.1416E+03
     10.691  0.1156E+02  0.1422E+03
     10.744  0.1030E+02  0.1427E+03
     10.797  0.8538E+01  0.1432E+03
     10.851  0.5528E+01  0.1435E+03
     10.904  0.2823E+01  0.1436E+03
     10.957  0.1391E+01  0.1437E+03
     11.010  0.2354E-03  0.1437E+03
     11.063  0.2941E+00  0.1437E+03
     11.117  0.3880E+01  0.1439E+03
     11.170  0.5257E-02  0.1439E+03
     11.223  0.1040E+01  0.1440E+03
     11.276  0.0000E+00  0.1440E+03
     11.330  0.0000E+00  0.1440E+03
     11.383  0.0000E+00  0.1440E+03
     11.436  0.0000E+00  0.1440E+03
     11.489  0.0000E+00  0.1440E+03
     11.542  0.0000E+00  0.1440E+03
     11.596  0.0000E+00  0.1440E+03
     11.649  0.0000E+00  0.1440E+03
     11.702  0.0000E+00  0.1440E+03
     11.755  0.0000E+00  0.1440E+03
     11.809  0.0000E+00  0.1440E+03
     11.862  0.0000E+00  0.1440E+03
     11.915  0.0000E+00  0.1440E+03
