   32   32    1    1
  0.1745885E+02  0.8236105E-09  0.8236105E-09  0.8236105E-09  0.5000000E-15
  1.000000000000000E-004
  CAR 
 unknown system                          
   96   40   72
 
  0.0000000E+00  0.0000000E+00  0.0000000E+00  0.4629630E-02
   1       -3.3269
   2       -1.1635
   3       -1.1600
   4       -1.1600
   5       -1.1600
   6       -1.1600
   7       -1.1566
   8        0.9702
   9        0.9745
  10        0.9745
  11        0.9760
  12        0.9762
  13        0.9762
  14        0.9762
  15        0.9762
  16        0.9763
  17        0.9778
  18        0.9778
  19        0.9822
  20        3.0533
  21        3.0534
  22        3.0534
  23        3.0534
  24        3.1170
  25        3.1170
  26        3.1170
  27        3.1171
  28        4.6356
  29        4.6356
  30        4.6356
  31        5.8260
  32        5.8260
  33        5.8260
  34        6.6443
  35        6.6443
  36        6.6484
  37        6.6484
  38        6.6485
  39        6.6485
  40        6.6485
  41        6.6485
  42        6.6485
  43        6.6485
  44        6.6527
  45        6.6527
  46        7.6860
  47        7.6899
  48        7.6899
  49        7.6899
  50        7.6899
  51        7.6938
  52        8.2222
  53        8.2230
  54        8.2230
  55        8.2230
  56        8.2230
  57        8.2238
  58        8.6613
  59        8.6613
  60        8.6630
  61        8.6651
  62        8.6653
  63        8.6653
  64        8.6653
  65        8.6653
  66        8.6654
  67        8.6675
  68        8.6692
  69        8.6692
  70       10.0016
  71       10.0041
  72       10.0047
 
  0.1666667E+00  0.0000000E+00  0.0000000E+00  0.9259259E-02
   1       -3.2663
   2       -1.8187
   3       -1.1003
   4       -1.1003
   5       -1.1003
   6       -1.1003
   7       -0.3855
   8        0.3267
   9        0.3267
  10        0.3267
  11        0.3267
  12        1.0351
  13        1.0351
  14        1.0351
  15        1.0351
  16        1.7399
  17        1.7399
  18        1.7399
  19        1.7399
  20        2.4430
  21        2.4430
  22        2.4430
  23        2.4430
  24        3.7705
  25        3.8404
  26        3.8404
  27        3.8404
  28        3.8404
  29        4.6914
  30        4.6914
  31        5.8231
  32        5.8232
  33        5.8232
  34        5.8232
  35        5.8853
  36        5.8854
  37        6.0327
  38        6.0327
  39        6.7044
  40        6.7044
  41        6.7044
  42        6.7044
  43        6.7969
  44        7.2678
  45        7.2679
  46        7.3768
  47        7.3768
  48        7.8718
  49        7.8719
  50        7.8719
  51        7.8719
  52        7.9646
  53        7.9646
  54        7.9646
  55        7.9647
  56        8.0487
  57        8.0487
  58        8.0487
  59        8.0487
  60        8.7499
  61        8.7499
  62        8.9348
  63        8.9348
  64        8.9348
  65        8.9348
  66        9.3843
  67        9.3844
  68        9.3846
  69        9.3886
  70        9.3942
  71        9.3943
  72        9.3945
 
  0.3333333E+00  0.0000000E+00  0.0000000E+00  0.9259259E-02
   1       -3.0846
   2       -2.3599
   3       -0.9212
   4       -0.9212
   5       -0.9212
   6       -0.9212
   7       -0.2069
   8       -0.2069
   9       -0.2069
  10       -0.2069
  11        0.5024
  12        1.2118
  13        1.2118
  14        1.2118
  15        1.2118
  16        1.9166
  17        1.9166
  18        1.9166
  19        1.9166
  20        2.5992
  21        2.6153
  22        2.6153
  23        2.6153
  24        2.6153
  25        4.6790
  26        4.6790
  27        4.6790
  28        4.6790
  29        4.7050
  30        4.7050
  31        4.7050
  32        4.7050
  33        4.8589
  34        4.8589
  35        5.5294
  36        5.5294
  37        6.0628
  38        6.0628
  39        6.7441
  40        6.7443
  41        6.7443
  42        6.7443
  43        6.7632
  44        6.7634
  45        6.8724
  46        6.8724
  47        6.8724
  48        6.8724
  49        7.5444
  50        7.5444
  51        7.5444
  52        7.5444
  53        8.1719
  54        8.1719
  55        8.1720
  56        8.1720
  57        8.2181
  58        8.2181
  59        8.2857
  60        8.8712
  61        8.8712
  62        8.8712
  63        8.8712
  64        9.5659
  65        9.5659
  66       10.2350
  67       10.2351
  68       10.2355
  69       10.2355
  70       10.2399
  71       10.2400
  72       10.3535
 
  0.5000000E+00  0.0000000E+00  0.0000000E+00  0.4629630E-02
   1       -2.7836
   2       -2.7808
   3       -0.6271
   4       -0.6240
   5       -0.6240
   6       -0.6232
   7       -0.6232
   8       -0.6223
   9       -0.6223
  10       -0.6193
  11        1.4976
  12        1.5001
  13        1.5044
  14        1.5046
  15        1.5046
  16        1.5054
  17        1.5063
  18        1.5071
  19        1.5071
  20        1.5095
  21        3.5970
  22        3.5973
  23        3.5973
  24        3.5980
  25        3.5982
  26        3.5989
  27        3.5989
  28        3.5992
  29        5.1367
  30        5.1367
  31        5.1396
  32        5.1396
  33        5.6752
  34        5.6752
  35        5.6758
  36        5.6760
  37        5.6765
  38        5.6767
  39        5.6773
  40        5.6773
  41        6.3551
  42        6.3560
  43        6.3578
  44        6.3587
  45        7.1501
  46        7.1501
  47        7.1510
  48        7.1523
  49        7.1524
  50        7.1537
  51        7.1546
  52        7.1546
  53        8.4649
  54        8.4660
  55        8.4660
  56        8.4662
  57        8.4681
  58        8.4683
  59        8.4683
  60        8.4694
  61        9.1711
  62        9.1711
  63        9.1734
  64        9.1734
  65        9.9126
  66        9.9141
  67       10.4763
  68       10.4769
  69       10.4781
  70       10.4786
  71       11.1880
  72       11.1890
 
  0.0000000E+00  0.1666667E+00  0.0000000E+00  0.1851852E-01
   1       -3.2663
   2       -1.8187
   3       -1.1030
   4       -1.1003
   5       -1.1003
   6       -1.0976
   7       -0.3855
   8        0.3240
   9        0.3267
  10        0.3267
  11        0.3294
  12        1.0330
  13        1.0340
  14        1.0362
  15        1.0372
  16        1.7372
  17        1.7399
  18        1.7399
  19        1.7426
  20        2.4409
  21        2.4419
  22        2.4442
  23        2.4452
  24        3.7705
  25        3.8382
  26        3.8392
  27        3.8415
  28        3.8425
  29        4.6914
  30        4.6914
  31        5.8203
  32        5.8232
  33        5.8232
  34        5.8261
  35        5.8853
  36        5.8853
  37        6.0327
  38        6.0328
  39        6.7018
  40        6.7044
  41        6.7044
  42        6.7070
  43        6.7969
  44        7.2678
  45        7.2679
  46        7.3768
  47        7.3769
  48        7.8694
  49        7.8708
  50        7.8730
  51        7.8743
  52        7.9624
  53        7.9646
  54        7.9646
  55        7.9668
  56        8.0461
  57        8.0487
  58        8.0488
  59        8.0513
  60        8.7499
  61        8.7499
  62        8.9327
  63        8.9348
  64        8.9348
  65        8.9368
  66        9.3832
  67        9.3846
  68        9.3849
  69        9.3873
  70        9.3929
  71        9.3942
  72        9.3948
 
  0.1666667E+00  0.1666667E+00  0.0000000E+00  0.3703704E-01
   1       -3.2057
   2       -1.7598
   3       -1.7577
   4       -1.0406
   5       -1.0406
   6       -0.3277
   7       -0.3259
   8       -0.3242
   9        0.3843
  10        0.3852
  11        0.3865
  12        0.3874
  13        1.0931
  14        1.0941
  15        1.7965
  16        1.7977
  17        1.7988
  18        1.7990
  19        1.8002
  20        1.8012
  21        2.4998
  22        3.1660
  23        3.1660
  24        3.2361
  25        3.2361
  26        3.8274
  27        3.8283
  28        4.5911
  29        4.5911
  30        4.7472
  31        5.1981
  32        5.2003
  33        5.8219
  34        5.8219
  35        5.9439
  36        5.9454
  37        5.9460
  38        6.0875
  39        6.0899
  40        6.5477
  41        6.5492
  42        6.8541
  43        6.8551
  44        7.2481
  45        7.2490
  46        7.2503
  47        7.2513
  48        7.3729
  49        7.3744
  50        7.4305
  51        7.4326
  52        7.4348
  53        8.1623
  54        8.1644
  55        8.6038
  56        8.6049
  57        8.6050
  58        8.6060
  59        8.7425
  60        8.7425
  61        8.7599
  62        8.7767
  63        8.7786
  64        8.8493
  65        8.8501
  66        9.1343
  67        9.1343
  68        9.6313
  69        9.6334
  70       10.1118
  71       10.1119
  72       10.1229
 
  0.3333333E+00  0.1666667E+00  0.0000000E+00  0.3703704E-01
   1       -3.0241
   2       -2.2997
   3       -1.5789
   4       -0.8629
   5       -0.8615
   6       -0.8601
   7       -0.1491
   8       -0.1475
   9       -0.1464
  10        0.5602
  11        0.5628
  12        0.5632
  13        0.5645
  14        1.2709
  15        1.2709
  16        1.9726
  17        1.9744
  18        1.9746
  19        2.6573
  20        2.6728
  21        2.6733
  22        2.6759
  23        2.6765
  24        3.3706
  25        3.9998
  26        4.0468
  27        4.0703
  28        4.0704
  29        4.6862
  30        4.7355
  31        4.7355
  32        4.9147
  33        5.4210
  34        5.4522
  35        5.4522
  36        5.5853
  37        6.0590
  38        6.0590
  39        6.1170
  40        6.1171
  41        6.1217
  42        6.2565
  43        6.7395
  44        6.7395
  45        6.8048
  46        6.9282
  47        7.0272
  48        7.4465
  49        7.4826
  50        7.4827
  51        7.5472
  52        7.6009
  53        7.7062
  54        8.2431
  55        8.2720
  56        8.2753
  57        8.3421
  58        8.8786
  59        9.0829
  60        9.0830
  61        9.4343
  62        9.4470
  63        9.4471
  64        9.6019
  65        9.6191
  66        9.6277
  67        9.7707
  68        9.7782
  69        9.7782
  70       10.2955
  71       10.4160
  72       10.4258
 
  0.5000000E+00  0.1666667E+00  0.0000000E+00  0.1851852E-01
   1       -2.7232
   2       -2.7204
   3       -1.2809
   4       -1.2782
   5       -0.5656
   6       -0.5645
   7       -0.5628
   8       -0.5617
   9        0.1472
  10        0.1500
  11        0.8565
  12        0.8576
  13        0.8593
  14        0.8604
  15        1.5579
  16        1.5593
  17        2.2650
  18        2.2661
  19        2.2679
  20        2.2690
  21        2.9594
  22        2.9608
  23        3.6551
  24        3.6553
  25        3.6565
  26        3.6567
  27        4.2847
  28        4.2876
  29        4.3472
  30        4.3486
  31        5.0441
  32        5.0442
  33        5.0456
  34        5.0457
  35        5.1926
  36        5.1955
  37        6.3401
  38        6.3413
  39        6.3430
  40        6.3442
  41        6.4120
  42        6.4146
  43        6.4185
  44        6.4189
  45        6.4201
  46        6.4203
  47        6.5348
  48        6.5378
  49        7.3115
  50        7.3143
  51        7.8366
  52        7.8393
  53        7.8795
  54        7.8825
  55        8.3818
  56        8.3836
  57        9.1959
  58        9.1987
  59        9.2271
  60        9.2294
  61        9.3773
  62        9.3781
  63        9.3802
  64        9.3810
  65        9.9675
  66        9.9690
  67       10.3939
  68       10.3941
  69       10.3958
  70       10.3960
  71       10.5349
  72       10.5391
 
  0.0000000E+00  0.3333333E+00  0.0000000E+00  0.1851852E-01
   1       -3.0846
   2       -2.3599
   3       -0.9239
   4       -0.9212
   5       -0.9212
   6       -0.9185
   7       -0.2096
   8       -0.2069
   9       -0.2069
  10       -0.2042
  11        0.5024
  12        1.2097
  13        1.2107
  14        1.2129
  15        1.2139
  16        1.9145
  17        1.9155
  18        1.9178
  19        1.9188
  20        2.5993
  21        2.6125
  22        2.6153
  23        2.6153
  24        2.6180
  25        4.6762
  26        4.6790
  27        4.6790
  28        4.6818
  29        4.7028
  30        4.7038
  31        4.7061
  32        4.7072
  33        4.8589
  34        4.8589
  35        5.5294
  36        5.5294
  37        6.0628
  38        6.0629
  39        6.7420
  40        6.7432
  41        6.7455
  42        6.7465
  43        6.7632
  44        6.7634
  45        6.8698
  46        6.8724
  47        6.8724
  48        6.8750
  49        7.5418
  50        7.5444
  51        7.5444
  52        7.5470
  53        8.1699
  54        8.1720
  55        8.1720
  56        8.1740
  57        8.2180
  58        8.2180
  59        8.2857
  60        8.8691
  61        8.8712
  62        8.8712
  63        8.8732
  64        9.5659
  65        9.5659
  66       10.2327
  67       10.2354
  68       10.2355
  69       10.2380
  70       10.2395
  71       10.2397
  72       10.3537
 
  0.1666667E+00  0.3333333E+00  0.0000000E+00  0.3703704E-01
   1       -3.0241
   2       -2.2997
   3       -1.5789
   4       -0.8629
   5       -0.8615
   6       -0.8601
   7       -0.1491
   8       -0.1475
   9       -0.1463
  10        0.5604
  11        0.5623
  12        0.5632
  13        0.5648
  14        1.2709
  15        1.2709
  16        1.9720
  17        1.9744
  18        1.9752
  19        2.6573
  20        2.6733
  21        2.6735
  22        2.6756
  23        2.6759
  24        3.3706
  25        3.9998
  26        4.0467
  27        4.0703
  28        4.0704
  29        4.6862
  30        4.7355
  31        4.7355
  32        4.9147
  33        5.4211
  34        5.4522
  35        5.4522
  36        5.5853
  37        6.0590
  38        6.0591
  39        6.1171
  40        6.1171
  41        6.1216
  42        6.2565
  43        6.7395
  44        6.7395
  45        6.8048
  46        6.9282
  47        7.0272
  48        7.4465
  49        7.4827
  50        7.4827
  51        7.5472
  52        7.6009
  53        7.7062
  54        8.2431
  55        8.2728
  56        8.2745
  57        8.3421
  58        8.8786
  59        9.0829
  60        9.0830
  61        9.4344
  62        9.4470
  63        9.4470
  64        9.6020
  65        9.6191
  66        9.6277
  67        9.7707
  68        9.7782
  69        9.7782
  70       10.2955
  71       10.4160
  72       10.4226
 
  0.3333333E+00  0.3333333E+00  0.0000000E+00  0.3703704E-01
   1       -2.8427
   2       -2.1203
   3       -2.1181
   4       -1.3992
   5       -0.6828
   6       -0.6827
   7        0.0289
   8        0.0299
   9        0.0311
  10        0.0320
  11        0.7370
  12        0.7391
  13        0.7405
  14        0.7415
  15        1.4445
  16        1.4455
  17        2.8312
  18        2.8321
  19        2.8469
  20        2.8477
  21        2.8490
  22        2.8500
  23        3.5033
  24        3.5034
  25        3.5261
  26        3.5283
  27        3.5917
  28        3.5918
  29        4.2359
  30        4.8447
  31        4.8447
  32        4.9795
  33        4.9795
  34        5.0823
  35        5.6009
  36        5.6019
  37        5.6031
  38        5.6041
  39        5.7518
  40        5.7542
  41        6.2577
  42        6.2593
  43        6.2959
  44        6.3091
  45        6.3092
  46        6.4243
  47        7.0416
  48        7.0429
  49        7.7240
  50        8.3177
  51        8.3287
  52        8.3297
  53        8.3298
  54        8.3309
  55        8.4410
  56        8.4435
  57        8.5100
  58        8.5111
  59        9.1138
  60        9.1157
  61        9.1363
  62        9.1383
  63        9.8391
  64        9.8399
  65       10.3296
  66       10.3296
  67       10.3955
  68       10.3955
  69       10.4249
  70       10.4251
  71       10.4628
  72       10.4647
 
  0.5000000E+00  0.3333333E+00  0.0000000E+00  0.1851852E-01
   1       -2.5422
   2       -2.5394
   3       -1.8202
   4       -1.8174
   5       -0.3871
   6       -0.3860
   7       -0.3843
   8       -0.3832
   9        0.3248
  10        0.3259
  11        0.3276
  12        0.3286
  13        1.0319
  14        1.0347
  15        1.7337
  16        1.7352
  17        2.4353
  18        2.4367
  19        3.1205
  20        3.1233
  21        3.1369
  22        3.1380
  23        3.1397
  24        3.1409
  25        3.8279
  26        3.8282
  27        3.8293
  28        3.8295
  29        4.5266
  30        4.5267
  31        4.5281
  32        4.5281
  33        5.2006
  34        5.2016
  35        5.2034
  36        5.2044
  37        5.2049
  38        5.2063
  39        5.3602
  40        5.3631
  41        6.0311
  42        6.0341
  43        6.5695
  44        6.5721
  45        7.2707
  46        7.2708
  47        7.2722
  48        7.2723
  49        7.2796
  50        7.2812
  51        7.3180
  52        7.3206
  53        8.7209
  54        8.7239
  55        8.7855
  56        8.7883
  57        9.2809
  58        9.2809
  59        9.2825
  60        9.2825
  61        9.3953
  62        9.3976
  63       10.0004
  64       10.0034
  65       10.0679
  66       10.0702
  67       10.1295
  68       10.1309
  69       10.7078
  70       10.7081
  71       10.7437
  72       10.7606
 
  0.0000000E+00  0.5000000E+00  0.0000000E+00  0.9259259E-02
   1       -2.7822
   2       -2.7822
   3       -0.6282
   4       -0.6237
   5       -0.6232
   6       -0.6232
   7       -0.6232
   8       -0.6232
   9       -0.6227
  10       -0.6182
  11        1.4985
  12        1.4997
  13        1.5032
  14        1.5039
  15        1.5054
  16        1.5056
  17        1.5061
  18        1.5065
  19        1.5078
  20        1.5100
  21        3.5951
  22        3.5955
  23        3.5981
  24        3.5981
  25        3.5981
  26        3.5981
  27        3.6006
  28        3.6010
  29        5.1381
  30        5.1382
  31        5.1382
  32        5.1382
  33        5.6734
  34        5.6747
  35        5.6749
  36        5.6753
  37        5.6772
  38        5.6776
  39        5.6778
  40        5.6791
  41        6.3568
  42        6.3569
  43        6.3569
  44        6.3569
  45        7.1476
  46        7.1519
  47        7.1523
  48        7.1523
  49        7.1523
  50        7.1524
  51        7.1528
  52        7.1571
  53        8.4634
  54        8.4667
  55        8.4671
  56        8.4671
  57        8.4672
  58        8.4672
  59        8.4676
  60        8.4709
  61        9.1722
  62        9.1722
  63        9.1722
  64        9.1722
  65        9.9134
  66        9.9134
  67       10.4775
  68       10.4775
  69       10.4775
  70       10.4775
  71       11.1887
  72       11.1893
 
  0.1666667E+00  0.5000000E+00  0.0000000E+00  0.1851852E-01
   1       -2.7218
   2       -2.7218
   3       -1.2796
   4       -1.2795
   5       -0.5637
   6       -0.5636
   7       -0.5636
   8       -0.5636
   9        0.1486
  10        0.1486
  11        0.8585
  12        0.8585
  13        0.8585
  14        0.8585
  15        1.5586
  16        1.5586
  17        2.2670
  18        2.2670
  19        2.2670
  20        2.2670
  21        2.9601
  22        2.9601
  23        3.6559
  24        3.6559
  25        3.6559
  26        3.6559
  27        4.2861
  28        4.2862
  29        4.3479
  30        4.3479
  31        5.0449
  32        5.0449
  33        5.0449
  34        5.0449
  35        5.1940
  36        5.1940
  37        6.3421
  38        6.3422
  39        6.3422
  40        6.3422
  41        6.4134
  42        6.4135
  43        6.4193
  44        6.4193
  45        6.4194
  46        6.4196
  47        6.5363
  48        6.5363
  49        7.3129
  50        7.3129
  51        7.8380
  52        7.8380
  53        7.8810
  54        7.8810
  55        8.3827
  56        8.3827
  57        9.1973
  58        9.1973
  59        9.2283
  60        9.2283
  61        9.3792
  62        9.3792
  63        9.3792
  64        9.3792
  65        9.9682
  66        9.9682
  67       10.3949
  68       10.3949
  69       10.3950
  70       10.3950
  71       10.5363
  72       10.5659
 
  0.3333333E+00  0.5000000E+00  0.0000000E+00  0.1851852E-01
   1       -2.5408
   2       -2.5408
   3       -1.8188
   4       -1.8188
   5       -0.3852
   6       -0.3852
   7       -0.3852
   8       -0.3852
   9        0.3267
  10        0.3267
  11        0.3267
  12        0.3267
  13        1.0333
  14        1.0333
  15        1.7344
  16        1.7344
  17        2.4360
  18        2.4360
  19        3.1218
  20        3.1219
  21        3.1389
  22        3.1389
  23        3.1389
  24        3.1389
  25        3.8287
  26        3.8287
  27        3.8287
  28        3.8287
  29        4.5274
  30        4.5274
  31        4.5274
  32        4.5274
  33        5.2024
  34        5.2025
  35        5.2025
  36        5.2026
  37        5.2055
  38        5.2056
  39        5.3617
  40        5.3617
  41        6.0326
  42        6.0326
  43        6.5708
  44        6.5708
  45        7.2713
  46        7.2715
  47        7.2715
  48        7.2715
  49        7.2804
  50        7.2806
  51        7.3193
  52        7.3193
  53        8.7224
  54        8.7224
  55        8.7869
  56        8.7869
  57        9.2817
  58        9.2817
  59        9.2817
  60        9.2817
  61        9.3965
  62        9.3965
  63       10.0019
  64       10.0019
  65       10.0690
  66       10.0690
  67       10.1302
  68       10.1302
  69       10.7077
  70       10.7091
  71       10.7443
  72       10.7533
 
  0.5000000E+00  0.5000000E+00  0.0000000E+00  0.9259259E-02
   1       -2.2420
   2       -2.2399
   3       -2.2392
   4       -2.2371
   5       -0.0917
   6       -0.0896
   7       -0.0886
   8       -0.0884
   9       -0.0879
  10       -0.0878
  11       -0.0867
  12       -0.0847
  13        2.0233
  14        2.0252
  15        2.0268
  16        2.0271
  17        2.0272
  18        2.0275
  19        2.0290
  20        2.0309
  21        4.0617
  22        4.0632
  23        4.0639
  24        4.0644
  25        4.0644
  26        4.0649
  27        4.0656
  28        4.0670
  29        4.1760
  30        4.1760
  31        4.1770
  32        4.1778
  33        4.1778
  34        4.1786
  35        4.1796
  36        4.1797
  37        5.6384
  38        5.6409
  39        5.6414
  40        5.6438
  41        6.1529
  42        6.1541
  43        6.1545
  44        6.1557
  45        6.9261
  46        6.9274
  47        6.9284
  48        6.9298
  49        8.2270
  50        8.2280
  51        8.2280
  52        8.2284
  53        8.2291
  54        8.2296
  55        8.2296
  56        8.2306
  57        9.6714
  58        9.6751
  59        9.6765
  60        9.6767
  61        9.6768
  62        9.6771
  63        9.6784
  64        9.6821
  65       10.3662
  66       10.3675
  67       10.3689
  68       10.3692
  69       10.3695
  70       10.3698
  71       10.3711
  72       10.3724
 
  0.0000000E+00  0.1666667E+00  0.1666667E+00  0.1851852E-01
   1       -3.2057
   2       -1.7588
   3       -1.7587
   4       -1.0422
   5       -1.0389
   6       -0.3261
   7       -0.3261
   8       -0.3256
   9        0.3832
  10        0.3852
  11        0.3865
  12        0.3885
  13        1.0936
  14        1.0936
  15        1.7958
  16        1.7979
  17        1.7981
  18        1.7992
  19        1.8007
  20        1.8017
  21        2.4998
  22        3.1659
  23        3.1659
  24        3.2361
  25        3.2362
  26        3.8279
  27        3.8279
  28        4.5894
  29        4.5927
  30        4.7472
  31        5.1992
  32        5.1992
  33        5.8219
  34        5.8219
  35        5.9445
  36        5.9454
  37        5.9455
  38        6.0887
  39        6.0887
  40        6.5485
  41        6.5485
  42        6.8546
  43        6.8546
  44        7.2469
  45        7.2489
  46        7.2504
  47        7.2524
  48        7.3735
  49        7.3736
  50        7.4323
  51        7.4328
  52        7.4329
  53        8.1633
  54        8.1633
  55        8.6027
  56        8.6035
  57        8.6063
  58        8.6071
  59        8.7424
  60        8.7425
  61        8.7598
  62        8.7777
  63        8.7777
  64        8.8497
  65        8.8497
  66        9.1343
  67        9.1343
  68        9.6323
  69        9.6323
  70       10.1117
  71       10.1118
  72       10.1230
 
  0.1666667E+00  0.1666667E+00  0.1666667E+00  0.3703704E-01
   1       -3.1451
   2       -1.7003
   3       -1.6988
   4       -1.6972
   5       -0.2697
   6       -0.2669
   7       -0.2667
   8       -0.2662
   9       -0.2660
  10       -0.2632
  11        1.1494
  12        1.1515
  13        1.1523
  14        1.1525
  15        1.1533
  16        1.1535
  17        1.1559
  18        2.5560
  19        2.5577
  20        2.5584
  21        2.5592
  22        2.5597
  23        2.5610
  24        3.8845
  25        3.8852
  26        3.8858
  27        3.9551
  28        3.9558
  29        3.9565
  30        5.2526
  31        5.2541
  32        5.2553
  33        5.2553
  34        5.2566
  35        5.2580
  36        5.3389
  37        6.6196
  38        6.6198
  39        6.6213
  40        6.6215
  41        6.6224
  42        6.6229
  43        6.6251
  44        6.6266
  45        6.6282
  46        6.9114
  47        6.9121
  48        6.9128
  49        7.9824
  50        7.9832
  51        7.9842
  52        7.9843
  53        7.9853
  54        7.9861
  55        8.2863
  56        8.2869
  57        8.2879
  58        8.2879
  59        8.2890
  60        8.2896
  61        9.3352
  62        9.3361
  63        9.3369
  64        9.6678
  65        9.6685
  66        9.6693
  67        9.6938
  68        9.6952
  69        9.6960
  70        9.6960
  71        9.6968
  72        9.6981
 
  0.3333333E+00  0.1666667E+00  0.1666667E+00  0.3703704E-01
   1       -2.9636
   2       -2.2395
   3       -1.5190
   4       -1.5190
   5       -0.8018
   6       -0.8018
   7       -0.0886
   8       -0.0886
   9       -0.0881
  10        0.6191
  11        0.6218
  12        0.6223
  13        0.6234
  14        1.3290
  15        1.3290
  16        2.0305
  17        2.0310
  18        2.0336
  19        2.0342
  20        2.7155
  21        2.7331
  22        3.3909
  23        3.4286
  24        3.4286
  25        3.4735
  26        4.0571
  27        4.0571
  28        4.1043
  29        4.1043
  30        4.7432
  31        4.7432
  32        4.8197
  33        4.8197
  34        5.3853
  35        5.3853
  36        5.4882
  37        5.5275
  38        5.5275
  39        6.1153
  40        6.1153
  41        6.1965
  42        6.7941
  43        6.7941
  44        6.8575
  45        6.8575
  46        7.0839
  47        7.0839
  48        7.4378
  49        7.4378
  50        7.4752
  51        7.4752
  52        7.8155
  53        7.8155
  54        8.2185
  55        8.3980
  56        8.4722
  57        8.4722
  58        8.8282
  59        8.8282
  60        9.1595
  61        9.1595
  62        9.4914
  63        9.4914
  64        9.6243
  65        9.6243
  66        9.9894
  67        9.9894
  68       10.1758
  69       10.1758
  70       10.4994
  71       10.5050
  72       10.5097
 
  0.5000000E+00  0.1666667E+00  0.1666667E+00  0.1851852E-01
   1       -2.6629
   2       -2.6601
   3       -1.2221
   4       -1.2202
   5       -1.2193
   6       -1.2174
   7        0.2052
   8        0.2072
   9        0.2074
  10        0.2082
  11        0.2093
  12        0.2107
  13        1.6157
  14        1.6175
  15        1.6216
  16        1.6219
  17        1.6241
  18        1.6250
  19        3.0172
  20        3.0178
  21        3.0187
  22        3.0190
  23        3.0227
  24        3.0254
  25        4.3417
  26        4.3420
  27        4.3446
  28        4.3448
  29        4.4037
  30        4.4042
  31        4.4051
  32        4.4056
  33        4.4114
  34        4.4129
  35        5.7160
  36        5.7179
  37        5.7189
  38        5.7208
  39        5.7891
  40        5.7898
  41        5.7906
  42        5.7913
  43        7.0766
  44        7.0772
  45        7.0795
  46        7.0801
  47        7.1588
  48        7.1603
  49        7.3633
  50        7.3639
  51        7.3661
  52        7.3667
  53        8.4423
  54        8.4428
  55        8.4441
  56        8.4446
  57        8.7588
  58        8.7595
  59        8.7616
  60        8.7623
  61        9.7770
  62        9.7777
  63        9.7788
  64        9.7795
  65       10.0197
  66       10.0211
  67       10.0928
  68       10.0949
  69       10.0958
  70       10.0979
  71       11.0681
  72       11.0943
 
  0.0000000E+00  0.3333333E+00  0.1666667E+00  0.3703704E-01
   1       -3.0241
   2       -2.2997
   3       -1.5789
   4       -0.8637
   5       -0.8615
   6       -0.8594
   7       -0.1497
   8       -0.1478
   9       -0.1455
  10        0.5604
  11        0.5622
  12        0.5628
  13        0.5652
  14        1.2693
  15        1.2725
  16        1.9723
  17        1.9732
  18        1.9761
  19        2.6573
  20        2.6719
  21        2.6741
  22        2.6751
  23        2.6773
  24        3.3706
  25        3.9998
  26        4.0467
  27        4.0687
  28        4.0720
  29        4.6862
  30        4.7338
  31        4.7371
  32        4.9147
  33        5.4210
  34        5.4505
  35        5.4539
  36        5.5853
  37        6.0573
  38        6.0608
  39        6.1153
  40        6.1187
  41        6.1216
  42        6.2565
  43        6.7377
  44        6.7412
  45        6.8048
  46        6.9282
  47        7.0272
  48        7.4464
  49        7.4809
  50        7.4844
  51        7.5472
  52        7.6009
  53        7.7062
  54        8.2430
  55        8.2733
  56        8.2741
  57        8.3421
  58        8.8786
  59        9.0815