32   
1    

1    
  0.0100000000000000   0.0000000000000000   0.0000000000000000
  -0.0494134100    0.0000000000   -0.0000000000
   0.0009617500    0.0000000000   -0.0000000000
  -0.0003970100    0.0000000000    0.0000000000
  -0.0003061500    0.0000000000    0.0000000000
  -0.0003970100   -0.0000000000   -0.0000000000
  -0.0003061500    0.0000000000   -0.0000000000
   0.0000334500    0.0000000000   -0.0000000000
  -0.0002404200   -0.0000000000    0.0000000000
   0.0058881300    0.0066749700    0.0000000000
   0.0056829000   -0.0063999600   -0.0000000000
   0.0058881300   -0.0066749700   -0.0000000000
   0.0056829000    0.0063999600   -0.0000000000
   0.0003209300    0.0001211200    0.0000000000
   0.0003187900   -0.0001267300   -0.0000000000
   0.0003209300   -0.0001211200   -0.0000000000
   0.0003187900    0.0001267300   -0.0000000000
   0.0058881300    0.0000000000    0.0066749700
   0.0056829000   -0.0000000000   -0.0063999600
   0.0003209300    0.0000000000    0.0001211200
   0.0003187900    0.0000000000   -0.0001267300
   0.0058881300    0.0000000000   -0.0066749700
   0.0056829000    0.0000000000    0.0063999600
   0.0003209300    0.0000000000   -0.0001211200
   0.0003187900    0.0000000000    0.0001267300
  -0.0002944700   -0.0000134900   -0.0000134900
   0.0005999600    0.0000020600    0.0000020600
  -0.0002944700    0.0000134900   -0.0000134900
   0.0005999600   -0.0000020600    0.0000020600
  -0.0002944700   -0.0000134900    0.0000134900
   0.0005999600    0.0000020600   -0.0000020600
  -0.0002944700    0.0000134900    0.0000134900
   0.0005999600   -0.0000020600   -0.0000020600
