mesh: [    48,    48,    48 ]
nqpoint: 2600   
reciprocal_lattice:
- [   0.26960397,   0.00000000,   0.00000000 ] # a*
- [   0.00000000,   0.26960397,   0.00000000 ] # b*
- [   0.00000000,   0.00000000,   0.26960397 ] # c*
natom:   4      
lattice:
- [     3.709144127967713,     0.000000000000000,     0.000000000000000 ] # a
- [     0.000000000000000,     3.709144127967713,     0.000000000000000 ] # b
- [     0.000000000000000,     0.000000000000000,     3.709144127967713 ] # c
points:
- symbol: Cu # 1
  coordinates: [  0.000000000000000,  0.000000000000000,  0.000000000000000 ]
  mass: 63.546000
- symbol: Cu # 2
  coordinates: [  0.500000000000000,  0.500000000000000,  0.000000000000000 ]
  mass: 63.546000
- symbol: Cu # 3
  coordinates: [  0.500000000000000,  0.000000000000000,  0.500000000000000 ]
  mass: 63.546000
- symbol: Cu # 4
  coordinates: [  0.000000000000000,  0.500000000000000,  0.500000000000000 ]
  mass: 63.546000
phonon:
- q-position: [    0.0104167,    0.0104167,    0.0104167 ]
  weight: 8    
  band:
  - # 1
    frequency:     0.1109560391
  - # 2
    frequency:     0.1109560391
  - # 3
    frequency:     0.2126557911
  - # 4
    frequency:     4.4396250623
  - # 5
    frequency:     4.4396250623
  - # 6
    frequency:     4.4396250623
  - # 7
    frequency:     4.4420938771
  - # 8
    frequency:     4.4420938771
  - # 9
    frequency:     4.4420938771
  - # 10
    frequency:     6.1277436676
  - # 11
    frequency:     6.1277436676
  - # 12
    frequency:     6.1277436676

- q-position: [    0.0312500,    0.0104167,    0.0104167 ]
  weight: 24   
  band:
  - # 1
    frequency:     0.2205162278
  - # 2
    frequency:     0.2385713064
  - # 3
    frequency:     0.3877157534
  - # 4
    frequency:     4.4351466754
  - # 5
    frequency:     4.4370534360
  - # 6
    frequency:     4.4370534360
  - # 7
    frequency:     4.4376050398
  - # 8
    frequency:     4.4456465873
  - # 9
    frequency:     4.4456465873
  - # 10
    frequency:     6.1225384939
  - # 11
    frequency:     6.1234603783
  - # 12
    frequency:     6.1234603783

- q-position: [    0.0520833,    0.0104167,    0.0104167 ]
  weight: 24   
  band:
  - # 1
    frequency:     0.3666524879
  - # 2
    frequency:     0.3819740033
  - # 3
    frequency:     0.5886452734
  - # 4
    frequency:     4.4261920122
  - # 5
    frequency:     4.4286295344
  - # 6
    frequency:     4.4333638087
  - # 7
    frequency:     4.4333638087
  - # 8
    frequency:     4.4513298624
  - # 9
    frequency:     4.4513298624
  - # 10
    frequency:     6.1121198562
  - # 11
    frequency:     6.1149182327
  - # 12
    frequency:     6.1149182327

- q-position: [    0.0729167,    0.0104167,    0.0104167 ]
  weight: 24   
  band:
  - # 1
    frequency:     0.5158673799
  - # 2
    frequency:     0.5280454335
  - # 3
    frequency:     0.7972989276
  - # 4
    frequency:     4.4127653186
  - # 5
    frequency:     4.4151717229
  - # 6
    frequency:     4.4282538368
  - # 7
    frequency:     4.4282538368
  - # 8
    frequency:     4.4595082299
  - # 9
    frequency:     4.4595082299
  - # 10
    frequency:     6.0964713436
  - # 11
    frequency:     6.1021659514
  - # 12
    frequency:     6.1021659514

- q-position: [    0.0937500,    0.0104167,    0.0104167 ]
  weight: 24   
  band:
  - # 1
    frequency:     0.6647141713
  - # 2
    frequency:     0.6745659147
  - # 3
    frequency:     1.0085610311
  - # 4
    frequency:     4.3948730259
  - # 5
    frequency:     4.3972382071
  - # 6
    frequency:     4.4216849824
  - # 7
    frequency:     4.4216849824
  - # 8
    frequency:     4.4703115778
  - # 9
    frequency:     4.4703115778
  - # 10
    frequency:     6.0755687622
  - # 11
    frequency:     6.0852762515
  - # 12
    frequency:     6.0852762515

- q-position: [    0.1145833,    0.0104167,    0.0104167 ]
  weight: 24   
  band:
  - # 1
    frequency:     0.8126093201
  - # 2
    frequency:     0.8207629096
  - # 3
    frequency:     1.2202439540
  - # 4
    frequency:     4.3725238250
  - # 5
    frequency:     4.3748378988
  - # 6
    frequency:     4.4137211396
  - # 7
    frequency:     4.4137211396
  - # 8
    frequency:     4.4837942565
  - # 9
    frequency:     4.4837942565
  - # 10
    frequency:     6.0493806346
  - # 11
    frequency:     6.0643454104
  - # 12
    frequency:     6.0643454104

- q-position: [    0.1354167,    0.0104167,    0.0104167 ]
  weight: 24   
  band:
  - # 1
    frequency:     0.9593477295
  - # 2
    frequency:     0.9662236767
  - # 3
    frequency:     1.4311663018
  - # 4
    frequency:     4.3457287633
  - # 5
    frequency:     4.3479821115
  - # 6
    frequency:     4.4044746140
  - # 7
    frequency:     4.4044746140
  - # 8
    frequency:     4.4999861346
  - # 9
    frequency:     4.4999861346
  - # 10
    frequency:     6.0178688532
  - # 11
    frequency:     6.0394926831
  - # 12
    frequency:     6.0394926831

- q-position: [    0.1562500,    0.0104167,    0.0104167 ]
  weight: 24   
  band:
  - # 1
    frequency:     1.1047790436
  - # 2
    frequency:     1.1106603980
  - # 3
    frequency:     1.6405638291
  - # 4
    frequency:     4.3145013639
  - # 5
    frequency:     4.3166846733
  - # 6
    frequency:     4.3940884899
  - # 7
    frequency:     4.3940884899
  - # 8
    frequency:     4.5189066294
  - # 9
    frequency:     4.5189066294
  - # 10
    frequency:     5.9809894796
  - # 11
    frequency:     6.0108595733
  - # 12
    frequency:     6.0108595733

- q-position: [    0.1770833,    0.0104167,    0.0104167 ]
  weight: 24   
  band:
  - # 1
    frequency:     1.2487563741
  - # 2
    frequency:     1.2538391828
  - # 3
    frequency:     1.8478711166
  - # 4
    frequency:     4.2788577648
  - # 5
    frequency:     4.2809620590
  - # 6
    frequency:     4.3827292608
  - # 7
    frequency:     4.3827292608
  - # 8
    frequency:     4.5405679008
  - # 9
    frequency:     4.5405679008
  - # 10
    frequency:     5.9386936750
  - # 11
    frequency:     5.9786089589
  - # 12
    frequency:     5.9786089589

- q-position: [    0.1979167,    0.0104167,    0.0104167 ]
  weight: 24   
  band:
  - # 1
    frequency:     1.3911294493
  - # 2
    frequency:     1.3955537168
  - # 3
    frequency:     2.0526297722
  - # 4
    frequency:     4.2388168770
  - # 5
    frequency:     4.2408335404
  - # 6
    frequency:     4.3705824328
  - # 7
    frequency:     4.3705824328
  - # 8
    frequency:     4.5649745794
  - # 9
    frequency:     4.5649745794
  - # 10
    frequency:     5.8909287504
  - # 11
    frequency:     5.9429240706
  - # 12
    frequency:     5.9429240706

- q-position: [    0.2187500,    0.0104167,    0.0104167 ]
  weight: 24   
  band:
  - # 1
    frequency:     1.5317455290
  - # 2
    frequency:     1.5356140580
  - # 3
    frequency:     2.2544460036
  - # 4
    frequency:     4.1944005590
  - # 5
    frequency:     4.1963213520
  - # 6
    frequency:     4.3578489539
  - # 7
    frequency:     4.3578489539
  - # 8
    frequency:     4.5921222616
  - # 9
    frequency:     4.5921222616
  - # 10
    frequency:     5.8376393208
  - # 11
    frequency:     5.9040073245
  - # 12
    frequency:     5.9040073245

- q-position: [    0.2395833,    0.0104167,    0.0104167 ]
  weight: 24   
  band:
  - # 1
    frequency:     1.6704512866
  - # 2
    frequency:     1.6738414129
  - # 3
    frequency:     2.4529695604
  - # 4
    frequency:     4.1456338049
  - # 5
    frequency:     4.1474508712
  - # 6
    frequency:     4.3447417786
  - # 7
    frequency:     4.3447417786
  - # 8
    frequency:     4.6219955596
  - # 9
    frequency:     4.6219955596
  - # 10
    frequency:     5.7787685461
  - # 11
    frequency:     5.8620790104
  - # 12
    frequency:     5.8620790104

- q-position: [    0.2604167,    0.0104167,    0.0104167 ]
  weight: 24   
  band:
  - # 1
    frequency:     1.8070944243
  - # 2
    frequency:     1.8100655489
  - # 3
    frequency:     2.6478827157
  - # 4
    frequency:     4.0925449453
  - # 5
    frequency:     4.0942508092
  - # 6
    frequency:     4.3314823336
  - # 7
    frequency:     4.3314823336
  - # 8
    frequency:     4.6545660454
  - # 9
    frequency:     4.6545660454
  - # 10
    frequency:     5.7142594425
  - # 11
    frequency:     5.8173758363
  - # 12
    frequency:     5.8173758363

- q-position: [    0.2812500,    0.0104167,    0.0104167 ]
  weight: 24   
  band:
  - # 1
    frequency:     1.9415248983
  - # 2
    frequency:     1.9441234701
  - # 3
    frequency:     2.8388942855
  - # 4
    frequency:     4.0351658565
  - # 5
    frequency:     4.0367534120
  - # 6
    frequency:     4.3182968137
  - # 7
    frequency:     4.3182968137
  - # 8
    frequency:     4.6897902678
  - # 9
    frequency:     4.6897902678
  - # 10
    frequency:     5.6440562471
  - # 11
    frequency:     5.7701493320
  - # 12
    frequency:     5.7701493320

- q-position: [    0.3020833,    0.0104167,    0.0104167 ]
  weight: 24   
  band:
  - # 1
    frequency:     2.0735958275
  - # 2
    frequency:     2.0758587357
  - # 3
    frequency:     3.0257363037
  - # 4
    frequency:     3.9735321764
  - # 5
    frequency:     3.9749946665
  - # 6
    frequency:     4.3054123091
  - # 7
    frequency:     4.3054123091
  - # 8
    frequency:     4.7276079569
  - # 9
    frequency:     4.7276079569
  - # 10
    frequency:     5.5681058165
  - # 11
    frequency:     5.7206641163
  - # 12
    frequency:     5.7206641163

- q-position: [    0.3229167,    0.0104167,    0.0104167 ]
  weight: 24   
  band:
  - # 1
    frequency:     2.2031641748
  - # 2
    frequency:     2.2051211185
  - # 3
    frequency:     3.2081621469
  - # 4
    frequency:     3.9076835243
  - # 5
    frequency:     3.9090145113
  - # 6
    frequency:     4.2930527995
  - # 7
    frequency:     4.2930527995
  - # 8
    frequency:     4.7679404954
  - # 9
    frequency:     4.7679404954
  - # 10
    frequency:     5.4863590431
  - # 11
    frequency:     5.6691960340
  - # 12
    frequency:     5.6691960340

- q-position: [    0.3437500,    0.0104167,    0.0104167 ]
  weight: 24   
  band:
  - # 1
    frequency:     2.3300912631
  - # 2
    frequency:     2.3317664473
  - # 3
    frequency:     3.3859454658
  - # 4
    frequency:     3.8376637212
  - # 5
    frequency:     3.8388570477
  - # 6
    frequency:     4.2814350752
  - # 7
    frequency:     4.2814350752
  - # 8
    frequency:     4.8106897150
  - # 9
    frequency:     4.8106897150
  - # 10
    frequency:     5.3987722717
  - # 11
    frequency:     5.6160301699
  - # 12
    frequency:     5.6160301699

- q-position: [    0.3645833,    0.0104167,    0.0104167 ]
  weight: 24   
  band:
  - # 1
    frequency:     2.4542431715
  - # 2
    frequency:     2.4556565481
  - # 3
    frequency:     3.5588795601
  - # 4
    frequency:     3.7635210084
  - # 5
    frequency:     3.7645707489
  - # 6
    frequency:     4.2707646586
  - # 7
    frequency:     4.2707646586
  - # 8
    frequency:     4.8557370550
  - # 9
    frequency:     4.8557370550
  - # 10
    frequency:     5.3053086983
  - # 11
    frequency:     5.5614587543
  - # 12
    frequency:     5.5614587543

- q-position: [    0.3854167,    0.0104167,    0.0104167 ]
  weight: 24   
  band:
  - # 1
    frequency:     2.5754910406
  - # 2
    frequency:     2.5766592342
  - # 3
    frequency:     3.6853082608
  - # 4
    frequency:     3.6862086637
  - # 5
    frequency:     3.7267769879
  - # 6
    frequency:     4.2612318174
  - # 7
    frequency:     4.2612318174
  - # 8
    frequency:     4.9029431010
  - # 9
    frequency:     4.9029431010
  - # 10
    frequency:     5.2059397380
  - # 11
    frequency:     5.5057789781
  - # 12
    frequency:     5.5057789781

- q-position: [    0.4062500,    0.0104167,    0.0104167 ]
  weight: 24   
  band:
  - # 1
    frequency:     2.6937113047
  - # 2
    frequency:     2.6946483179
  - # 3
    frequency:     3.6030831931
  - # 4
    frequency:     3.6038286124
  - # 5
    frequency:     3.8894692812
  - # 6
    frequency:     4.2530077643
  - # 7
    frequency:     4.2530077643
  - # 8
    frequency:     4.9521474937
  - # 9
    frequency:     4.9521474937
  - # 10
    frequency:     5.1006463449
  - # 11
    frequency:     5.4492907531
  - # 12
    frequency:     5.4492907531

- q-position: [    0.4270833,    0.0104167,    0.0104167 ]
  weight: 24   
  band:
  - # 1
    frequency:     2.8087858650
  - # 2
    frequency:     2.8095036245
  - # 3
    frequency:     3.5169085555
  - # 4
    frequency:     3.5174933717
  - # 5
    frequency:     4.0468066876
  - # 6
    frequency:     4.2462411471
  - # 7
    frequency:     4.2462411471
  - # 8
    frequency:     4.9894202731
  - # 9
    frequency:     5.0031691422
  - # 10
    frequency:     5.0031691422
  - # 11
    frequency:     5.3922944985
  - # 12
    frequency:     5.3922944985

- q-position: [    0.4479167,    0.0104167,    0.0104167 ]
  weight: 24   
  band:
  - # 1
    frequency:     2.9206022126
  - # 2
    frequency:     2.9211109992
  - # 3
    frequency:     3.4268523170
  - # 4
    frequency:     3.4272708457
  - # 5
    frequency:     4.1986578887
  - # 6
    frequency:     4.2410549303
  - # 7
    frequency:     4.2410549303
  - # 8
    frequency:     4.8722652646
  - # 9
    frequency:     5.0558064658
  - # 10
    frequency:     5.0558064658
  - # 11
    frequency:     5.3350892363
  - # 12
    frequency:     5.3350892363

- q-position: [    0.4687500,    0.0104167,    0.0104167 ]
  weight: 24   
  band:
  - # 1
    frequency:     3.0290535061
  - # 2
    frequency:     3.0293623000
  - # 3
    frequency:     3.3329878330
  - # 4
    frequency:     3.3332342203
  - # 5
    frequency:     4.2375437648
  - # 6
    frequency:     4.2375437648
  - # 7
    frequency:     4.3449096603
  - # 8
    frequency:     4.7491981561
  - # 9
    frequency:     5.1098360006
  - # 10
    frequency:     5.1098360006
  - # 11
    frequency:     5.2779726609
  - # 12
    frequency:     5.2779726609

- q-position: [    0.4895833,    0.0104167,    0.0104167 ]
  weight: 24   
  band:
  - # 1
    frequency:     3.1340386101
  - # 2
    frequency:     3.1341553711
  - # 3
    frequency:     3.2353939968
  - # 4
    frequency:     3.2354620979
  - # 5
    frequency:     4.2357719320
  - # 6
    frequency:     4.2357719320
  - # 7
    frequency:     4.4854664554
  - # 8
    frequency:     4.6202498944
  - # 9
    frequency:     5.1649815993
  - # 10
    frequency:     5.1649815993
  - # 11
    frequency:     5.2212709521
  - # 12
    frequency:     5.2212709521

- q-position: [    0.0312500,    0.0312500,    0.0104167 ]
  weight: 24   
  band:
  - # 1
    frequency:     0.2569749112
  - # 2
    frequency:     0.3150241560
  - # 3
    frequency:     0.5254783140
  - # 4
    frequency:     4.4307543037
  - # 5
    frequency:     4.4325694062
  - # 6
    frequency:     4.4325694062
  - # 7
    frequency:     4.4411491558
  - # 8
    frequency:     4.4411491558
  - # 9
    frequency:     4.4529052639
  - # 10
    frequency:     6.1183033267
  - # 11
    frequency:     6.1183033267
  - # 12
    frequency:     6.1191812311

- q-position: [    0.0520833,    0.0312500,    0.0104167 ]
  weight: 48   
  band:
  - # 1
    frequency:     0.3644054225
  - # 2
    frequency:     0.4335367967
  - # 3
    frequency:     0.7004736705
  - # 4
    frequency:     4.4236032706
  - # 5
    frequency:     4.4238921299
  - # 6
    frequency:     4.4288474744
  - # 7
    frequency:     4.4321568457
  - # 8
    frequency:     4.4468360319
  - # 9
    frequency:     4.4617180868
  - # 10
    frequency:     6.1079807846
  - # 11
    frequency:     6.1098573125
  - # 12
    frequency:     6.1106473138

- q-position: [    0.0729167,    0.0312500,    0.0104167 ]
  weight: 48   
  band:
  - # 1
    frequency:     0.5011426506
  - # 2
    frequency:     0.5662696388
  - # 3
    frequency:     0.8899157277
  - # 4
    frequency:     4.4101589003
  - # 5
    frequency:     4.4164485832
  - # 6
    frequency:     4.4186747839
  - # 7
    frequency:     4.4236803025
  - # 8
    frequency:     4.4550279781
  - # 9
    frequency:     4.4721657336
  - # 10
    frequency:     6.0924760498
  - # 11
    frequency:     6.0972489452
  - # 12
    frequency:     6.0979072357

- q-position: [    0.0937500,    0.0312500,    0.0104167 ]
  weight: 48   
  band:
  - # 1
    frequency:     0.6464969155
  - # 2
    frequency:     0.7047086784
  - # 3
    frequency:     1.0866015524
  - # 4
    frequency:     4.3922421599
  - # 5
    frequency:     4.4007107127
  - # 6
    frequency:     4.4082386067
  - # 7
    frequency:     4.4170311471
  - # 8
    frequency:     4.4658524274
  - # 9
    frequency:     4.4845248589
  - # 10
    frequency:     6.0717645055
  - # 11
    frequency:     6.0805506001
  - # 12
    frequency:     6.0810335490

- q-position: [    0.1145833,    0.0312500,    0.0104167 ]
  weight: 48   
  band:
  - # 1
    frequency:     0.7940211285
  - # 2
    frequency:     0.8455327617
  - # 3
    frequency:     1.2870095601
  - # 4
    frequency:     4.3698609769
  - # 5
    frequency:     4.3782750513
  - # 6
    frequency:     4.3991530286
  - # 7
    frequency:     4.4089645567
  - # 8
    frequency:     4.4793622260
  - # 9
    frequency:     4.4990232142
  - # 10
    frequency:     6.0458141362
  - # 11
    frequency:     6.0598580950
  - # 12
    frequency:     6.0601223139

- q-position: [    0.1354167,    0.0312500,    0.0104167 ]
  weight: 48   
  band:
  - # 1
    frequency:     0.9414910534
  - # 2
    frequency:     0.9871737203
  - # 3
    frequency:     1.4890331195
  - # 4
    frequency:     4.3430254355
  - # 5
    frequency:     4.3513809742
  - # 6
    frequency:     4.3891654603
  - # 7
    frequency:     4.3995928633
  - # 8
    frequency:     4.4955862035
  - # 9
    frequency:     4.5158297893
  - # 10
    frequency:     6.0145862028
  - # 11
    frequency:     6.0352901041
  - # 12
    frequency:     6.0352925185

- q-position: [    0.1562500,    0.0312500,    0.0104167 ]
  weight: 48   
  band:
  - # 1
    frequency:     1.0880072950
  - # 2
    frequency:     1.1287572338
  - # 3
    frequency:     1.6912645193
  - # 4
    frequency:     4.3117478941
  - # 5
    frequency:     4.3200445057
  - # 6
    frequency:     4.3783181144
  - # 7
    frequency:     4.3890588851
  - # 8
    frequency:     4.5145428994
  - # 9
    frequency:     4.5350653937
  - # 10
    frequency:     5.9780360674
  - # 11
    frequency:     6.0066853544
  - # 12
    frequency:     6.0069874258

- q-position: [    0.1770833,    0.0312500,    0.0104167 ]
  weight: 48   
  band:
  - # 1
    frequency:     1.2331329772
  - # 2
    frequency:     1.2697234393
  - # 3
    frequency:     1.8926898880
  - # 4
    frequency:     4.2760431293
  - # 5
    frequency:     4.2842846257
  - # 6
    frequency:     4.3667063578
  - # 7
    frequency:     4.3775287190
  - # 8
    frequency:     4.5362436328
  - # 9
    frequency:     4.5568139282
  - # 10
    frequency:     5.9361141531
  - # 11
    frequency:     5.9744633453
  - # 12
    frequency:     5.9751121028

- q-position: [    0.1979167,    0.0312500,    0.0104167 ]
  weight: 48   
  band:
  - # 1
    frequency:     1.3766063668
  - # 2
    frequency:     1.4096714938
  - # 3
    frequency:     2.0925353680
  - # 4
    frequency:     4.2359285055
  - # 5
    frequency:     4.2441233847
  - # 6
    frequency:     4.3544657633
  - # 7
    frequency:     4.3651874312
  - # 8
    frequency:     4.5606921852
  - # 9
    frequency:     4.5811306619
  - # 10
    frequency:     5.8887670275
  - # 11
    frequency:     5.9388093317
  - # 12
    frequency:     5.9398463966

- q-position: [    0.2187500,    0.0312500,    0.0104167 ]
  weight: 48   
  band:
  - # 1
    frequency:     1.5182360299
  - # 2
    frequency:     1.5482886422
  - # 3
    frequency:     2.2901821138
  - # 4
    frequency:     4.1914241727
  - # 5
    frequency:     4.1995860220
  - # 6
    frequency:     4.3417618845
  - # 7
    frequency:     4.3522355457
  - # 8
    frequency:     4.5878832825
  - # 9
    frequency:     4.6080473746
  - # 10
    frequency:     5.8359385914
  - # 11
    frequency:     5.8999253112
  - # 12
    frequency:     5.9013916148

- q-position: [    0.2395833,    0.0312500,    0.0104167 ]
  weight: 48   
  band:
  - # 1
    frequency:     1.6578601435
  - # 2
    frequency:     1.6853149652
  - # 3
    frequency:     2.4851167057
  - # 4
    frequency:     4.1425532916
  - # 5
    frequency:     4.1507010851
  - # 6
    frequency:     4.3287821221
  - # 7
    frequency:     4.3388856558
  - # 8
    frequency:     4.6178006460
  - # 9
    frequency:     4.6375750943
  - # 10
    frequency:     5.7775713579
  - # 11
    frequency:     5.8580311345
  - # 12
    frequency:     5.8599667944

- q-position: [    0.2604167,    0.0312500,    0.0104167 ]
  weight: 48   
  band:
  - # 1
    frequency:     1.7953301614
  - # 2
    frequency:     1.8205246326
  - # 3
    frequency:     2.6769011328
  - # 4
    frequency:     4.0893422857
  - # 5
    frequency:     4.0975005457
  - # 6
    frequency:     4.3157289943
  - # 7
    frequency:     4.3253589328
  - # 8
    frequency:     4.6504149413
  - # 9
    frequency:     4.6697052178
  - # 10
    frequency:     5.7136078033
  - # 11
    frequency:     5.8133630621
  - # 12
    frequency:     5.8158072432

- q-position: [    0.2812500,    0.0312500,    0.0104167 ]
  weight: 48   
  band:
  - # 1
    frequency:     1.9305042575
  - # 2
    frequency:     1.9537153760
  - # 3
    frequency:     2.8651540981
  - # 4
    frequency:     4.0318211153
  - # 5
    frequency:     4.0400199141
  - # 6
    frequency:     4.3028142917
  - # 7
    frequency:     4.3118814637
  - # 8
    frequency:     4.6856818009
  - # 9
    frequency:     4.7044096457
  - # 10
    frequency:     5.6439917728
  - # 11
    frequency:     5.7661721840
  - # 12
    frequency:     5.7691629418

- q-position: [    0.3020833,    0.0312500,    0.0104167 ]
  weight: 48   
  band:
  - # 1
    frequency:     2.0632448421
  - # 2
    frequency:     2.0847023135
  - # 3
    frequency:     3.0495390924
  - # 4
    frequency:     3.9700235663
  - # 5
    frequency:     3.9782983524
  - # 6
    frequency:     4.2902537710
  - # 7
    frequency:     4.2986804171
  - # 8
    frequency:     4.7235400291
  - # 9
    frequency:     4.7416403875
  - # 10
    frequency:     5.5686699221
  - # 11
    frequency:     5.7167227091
  - # 12
    frequency:     5.7202968151

- q-position: [    0.3229167,    0.0312500,    0.0104167 ]
  weight: 48   
  band:
  - # 1
    frequency:     2.1934177997
  - # 2
    frequency:     2.2133141944
  - # 3
    frequency:     3.2297566220
  - # 4
    frequency:     3.9039875430
  - # 5
    frequency:     3.9123787950
  - # 6
    frequency:     4.2782621891
  - # 7
    frequency:     4.2859800760
  - # 8
    frequency:     4.7639100645
  - # 9
    frequency:     4.7813289486
  - # 10
    frequency:     5.4875931793
  - # 11
    frequency:     5.6652901362
  - # 12
    frequency:     5.6694828820

- q-position: [    0.3437500,    0.0312500,    0.0104167 ]
  weight: 48   
  band:
  - # 1
    frequency:     2.3208924460
  - # 2
    frequency:     2.3393910455
  - # 3
    frequency:     3.4055390346
  - # 4
    frequency:     3.8337553499
  - # 5
    frequency:     3.8423080830
  - # 6
    frequency:     4.2670485761
  - # 7
    frequency:     4.2739977918
  - # 8
    frequency:     4.8066927472
  - # 9
    frequency:     4.8233857069
  - # 10
    frequency:     5.4007182084
  - # 11
    frequency:     5.6121593256
  - # 12
    frequency:     5.6170043016

- q-position: [    0.3645833,    0.0312500,    0.0104167 ]
  weight: 48   
  band:
  - # 1
    frequency:     2.4455417615
  - # 2
    frequency:     2.4627826576
  - # 3
    frequency:     3.5766469954
  - # 4
    frequency:     3.7593739485
  - # 5
    frequency:     3.7681371231
  - # 6
    frequency:     4.2568117220
  - # 7
    frequency:     4.2629399375
  - # 8
    frequency:     4.8517684086
  - # 9
    frequency:     4.8676993965
  - # 10
    frequency:     5.3080088605
  - # 11
    frequency:     5.5576225066
  - # 12
    frequency:     5.5631513495

- q-position: [    0.3854167,    0.0312500,    0.0104167 ]
  weight: 48   
  band:
  - # 1
    frequency:     2.5672427079
  - # 2
    frequency:     2.5833475851
  - # 3
    frequency:     3.6808951778
  - # 4
    frequency:     3.6899210764
  - # 5
    frequency:     3.7428670176
  - # 6
    frequency:     4.2477358973
  - # 7
    frequency:     4.2529979456
  - # 8
    frequency:     4.8989962517
  - # 9
    frequency:     4.9141367255
  - # 10
    frequency:     5.2094375969
  - # 11
    frequency:     5.5019773011
  - # 12
    frequency:     5.5082193906

- q-position: [    0.4062500,    0.0312500,    0.0104167 ]
  weight: 48   
  band:
  - # 1
    frequency:     2.6858765441
  - # 2
    frequency:     2.7009524674
  - # 3
    frequency:     3.5983759295
  - # 4
    frequency:     3.6077195800
  - # 5
    frequency:     3.9040096666
  - # 6
    frequency:     4.2399868598
  - # 7
    frequency:     4.2443445263
  - # 8
    frequency:     4.9482138821
  - # 9
    frequency:     4.9625419985
  - # 10
    frequency:     5.1049868723
  - # 11
    frequency:     5.4455249636
  - # 12
    frequency:     5.4525070168

- q-position: [    0.4270833,    0.0312500,    0.0104167 ]
  weight: 48   
  band:
  - # 1
    frequency:     2.8013291041
  - # 2
    frequency:     2.8154715491
  - # 3
    frequency:     3.5118782790
  - # 4
    frequency:     3.5215969956
  - # 5
    frequency:     4.0599081896
  - # 6
    frequency:     4.2337082207
  - # 7
    frequency:     4.2371301703
  - # 8
    frequency:     4.9946504661
  - # 9
    frequency:     4.9992364971
  - # 10
    frequency:     5.0127361492
  - # 11
    frequency:     5.3885694772
  - # 12
    frequency:     5.3963148538

- q-position: [    0.4479167,    0.0312500,    0.0104167 ]
  weight: 48   
  band:
  - # 1
    frequency:     2.9134910291
  - # 2
    frequency:     2.9267863255
  - # 3
    frequency:     3.4214695736
  - # 4
    frequency:     3.4316226785
  - # 5
    frequency:     4.2104174031
  - # 6
    frequency:     4.2290182517
  - # 7
    frequency:     4.2314800348
  - # 8
    frequency:     4.8784347543
  - # 9
    frequency:     5.0518537419
  - # 10
    frequency:     5.0645125086
  - # 11
    frequency:     5.3314202087
  - # 12
    frequency:     5.3399470392

- q-position: [    0.4687500,    0.0312500,    0.0104167 ]
  weight: 48   
  band:
  - # 1
    frequency:     3.0222579501
  - # 2
    frequency:     3.0347852611
  - # 3
    frequency:     3.3272224867
  - # 4
    frequency:     3.3378712532
  - # 5
    frequency:     4.2260072145
  - # 6
    frequency:     4.2274913110
  - # 7
    frequency:     4.3554127275
  - # 8
    frequency:     4.7563599137
  - # 9
    frequency:     5.1058123564
  - # 10
    frequency:     5.1176114618
  - # 11
    frequency:     5.2744159852
  - # 12
    frequency:     5.2837272462

- q-position: [    0.4895833,    0.0312500,    0.0104167 ]
  weight: 48   
  band:
  - # 1
    frequency:     3.1275306260
  - # 2
    frequency:     3.1393635489
  - # 3
    frequency:     3.2292150440
  - # 4
    frequency:     3.2404228865
  - # 5
    frequency:     4.2247352888
  - # 6
    frequency:     4.2252311602
  - # 7
    frequency:     4.4947892919
  - # 8
    frequency:     4.6284610560
  - # 9
    frequency:     5.1606168874
  - # 10
    frequency:     5.1713175800
  - # 11
    frequency:     5.2183270123
  - # 12
    frequency:     5.2281969775

- q-position: [    0.0520833,    0.0520833,    0.0104167 ]
  weight: 24   
  band:
  - # 1
    frequency:     0.4157577263
  - # 2
    frequency:     0.5257455931
  - # 3
    frequency:     0.8545270851
  - # 4
    frequency:     4.4131612682
  - # 5
    frequency:     4.4198165647
  - # 6
    frequency:     4.4198165647
  - # 7
    frequency:     4.4378515133
  - # 8
    frequency:     4.4378515133
  - # 9
    frequency:     4.4743137544
  - # 10
    frequency:     6.0997267082
  - # 11
    frequency:     6.0997267082
  - # 12
    frequency:     6.1021297417

- q-position: [    0.0729167,    0.0520833,    0.0104167 ]
  weight: 48   
  band:
  - # 1
    frequency:     0.5159056561
  - # 2
    frequency:     0.6393494478
  - # 3
    frequency:     1.0266488748
  - # 4
    frequency:     4.4020703213
  - # 5
    frequency:     4.4062746445
  - # 6
    frequency:     4.4145351944
  - # 7
    frequency:     4.4243825789
  - # 8
    frequency:     4.4460711269
  - # 9
    frequency:     4.4882804259
  - # 10
    frequency:     6.0845090797
  - # 11
    frequency:     6.0874056117
  - # 12
    frequency:     6.0894139045

- q-position: [    0.0937500,    0.0520833,    0.0104167 ]
  weight: 48   
  band:
  - # 1
    frequency:     0.6417184068
  - # 2
    frequency:     0.7643751583
  - # 3
    frequency:     1.2085304320
  - # 4
    frequency:     4.3882271769
  - # 5
    frequency:     4.3906484936
  - # 6
    frequency:     4.4064386075
  - # 7
    frequency:     4.4077260939
  - # 8
    frequency:     4.4569382120
  - # 9
    frequency:     4.5036809699
  - # 10
    frequency:     6.0641788828
  - # 11
    frequency:     6.0710891015
  - # 12
    frequency:     6.0725720257

- q-position: [    0.1145833,    0.0520833,    0.0104167 ]
  weight: 48   
  band:
  - # 1
    frequency:     0.7792066936
  - # 2
    frequency:     0.8955588140
  - # 3
    frequency:     1.3961290047
  - # 4
    frequency:     4.3656816603
  - # 5
    frequency:     4.3788477474
  - # 6
    frequency:     4.3840320501
  - # 7
    frequency:     4.3994551946
  - # 8
    frequency:     4.4705026560
  - # 9
    frequency:     4.5206826507
  - # 10
    frequency:     6.0387029190
  - # 11
    frequency:     6.0508719601
  - # 12
    frequency:     6.0516997330

- q-position: [    0.1354167,    0.0520833,    0.0104167 ]
  weight: 48   
  band:
  - # 1
    frequency:     0.9216640412
  - # 2