32   
1    

1    
  0.0100000000000000   0.0000000000000000   0.0000000000000000
  -0.0381047000   -0.0000000000    0.0000000000
   0.0010604200    0.0000000000    0.0000000000
  -0.0003109300   -0.0000000000    0.0000000000
  -0.0004119800   -0.0000000000    0.0000000000
  -0.0003109300    0.0000000000   -0.0000000000
  -0.0004119800   -0.0000000000   -0.0000000000
  -0.0001211500    0.0000000000    0.0000000000
  -0.0001073900   -0.0000000000   -0.0000000000
   0.0048614000    0.0056900600    0.0000000000
   0.0046971800   -0.0054688200   -0.0000000000
   0.0048614000   -0.0056900600    0.0000000000
   0.0046971800    0.0054688200   -0.0000000000
   0.0002144600    0.0000438000   -0.0000000000
   0.0002143600   -0.0000436300   -0.0000000000
   0.0002144600   -0.0000438000   -0.0000000000
   0.0002143600    0.0000436300    0.0000000000
   0.0048614000   -0.0000000000    0.0056900600
   0.0046971800    0.0000000000   -0.0054688200
   0.0002144600    0.0000000000    0.0000438000
   0.0002143600   -0.0000000000   -0.0000436300
   0.0048614000    0.0000000000   -0.0056900600
   0.0046971800    0.0000000000    0.0054688200
   0.0002144600    0.0000000000   -0.0000438000
   0.0002143600    0.0000000000    0.0000436300
  -0.0009086100   -0.0000073900   -0.0000073900
   0.0006008800    0.0000013200    0.0000013200
  -0.0009086100    0.0000073900   -0.0000073900
   0.0006008800   -0.0000013200    0.0000013200
  -0.0009086100   -0.0000073900    0.0000073900
   0.0006008800    0.0000013200   -0.0000013200
  -0.0009086100    0.0000073900    0.0000073900
   0.0006008800   -0.0000013200   -0.0000013200
