mesh: [    48,    48,    48 ]
nqpoint: 2600   
reciprocal_lattice:
- [   0.23782021,   0.00000000,   0.00000000 ] # a*
- [   0.00000000,   0.23782021,   0.00000000 ] # b*
- [   0.00000000,   0.00000000,   0.23782021 ] # c*
natom:   4      
lattice:
- [     4.204857029432606,     0.000000000000000,     0.000000000000000 ] # a
- [     0.000000000000000,     4.204857029432606,     0.000000000000000 ] # b
- [     0.000000000000000,     0.000000000000000,     4.204857029432606 ] # c
points:
- symbol: Ag # 1
  coordinates: [  0.000000000000000,  0.000000000000000,  0.000000000000000 ]
  mass: 107.868200
- symbol: Ag # 2
  coordinates: [  0.500000000000000,  0.500000000000000,  0.000000000000000 ]
  mass: 107.868200
- symbol: Ag # 3
  coordinates: [  0.500000000000000,  0.000000000000000,  0.500000000000000 ]
  mass: 107.868200
- symbol: Ag # 4
  coordinates: [  0.000000000000000,  0.500000000000000,  0.500000000000000 ]
  mass: 107.868200
phonon:
- q-position: [    0.0104167,    0.0104167,    0.0104167 ]
  weight: 8    
  band:
  - # 1
    frequency:     0.0711581735
  - # 2
    frequency:     0.0711581735
  - # 3
    frequency:     0.1463909379
  - # 4
    frequency:     2.9131635024
  - # 5
    frequency:     2.9131635024
  - # 6
    frequency:     2.9131635024
  - # 7
    frequency:     2.9150345799
  - # 8
    frequency:     2.9150345799
  - # 9
    frequency:     2.9150345799
  - # 10
    frequency:     4.2535254485
  - # 11
    frequency:     4.2535254485
  - # 12
    frequency:     4.2535254485

- q-position: [    0.0312500,    0.0104167,    0.0104167 ]
  weight: 24   
  band:
  - # 1
    frequency:     0.1416454749
  - # 2
    frequency:     0.1512065034
  - # 3
    frequency:     0.2697025359
  - # 4
    frequency:     2.9099832658
  - # 5
    frequency:     2.9111094112
  - # 6
    frequency:     2.9111094112
  - # 7
    frequency:     2.9118476328
  - # 8
    frequency:     2.9179020203
  - # 9
    frequency:     2.9179020203
  - # 10
    frequency:     4.2501304929
  - # 11
    frequency:     4.2502893521
  - # 12
    frequency:     4.2502893521

- q-position: [    0.0520833,    0.0104167,    0.0104167 ]
  weight: 24   
  band:
  - # 1
    frequency:     0.2338661376
  - # 2
    frequency:     0.2416436194
  - # 3
    frequency:     0.4127017854
  - # 4
    frequency:     2.9036267926
  - # 5
    frequency:     2.9054777868
  - # 6
    frequency:     2.9079360339
  - # 7
    frequency:     2.9079360339
  - # 8
    frequency:     2.9227254684
  - # 9
    frequency:     2.9227254684
  - # 10
    frequency:     4.2433321559
  - # 11
    frequency:     4.2438341993
  - # 12
    frequency:     4.2438341993

- q-position: [    0.0729167,    0.0104167,    0.0104167 ]
  weight: 24   
  band:
  - # 1
    frequency:     0.3278819508
  - # 2
    frequency:     0.3339239286
  - # 3
    frequency:     0.5610889210
  - # 4
    frequency:     2.8941020735
  - # 5
    frequency:     2.8959331275
  - # 6
    frequency:     2.9034330761
  - # 7
    frequency:     2.9034330761
  - # 8
    frequency:     2.9297614184
  - # 9
    frequency:     2.9297614184
  - # 10
    frequency:     4.2331137410
  - # 11
    frequency:     4.2341939794
  - # 12
    frequency:     4.2341939794

- q-position: [    0.0937500,    0.0104167,    0.0104167 ]
  weight: 24   
  band:
  - # 1
    frequency:     0.4217880337
  - # 2
    frequency:     0.4266030264
  - # 3
    frequency:     0.7110778034
  - # 4
    frequency:     2.8814210694
  - # 5
    frequency:     2.8832257553
  - # 6
    frequency:     2.8975987965
  - # 7
    frequency:     2.8975987965
  - # 8
    frequency:     2.9390795576
  - # 9
    frequency:     2.9390795576
  - # 10
    frequency:     4.2194505877
  - # 11
    frequency:     4.2214194476
  - # 12
    frequency:     4.2214194476

- q-position: [    0.1145833,    0.0104167,    0.0104167 ]
  weight: 24   
  band:
  - # 1
    frequency:     0.5152574420
  - # 2
    frequency:     0.5191939281
  - # 3
    frequency:     0.8611457761
  - # 4
    frequency:     2.8655996830
  - # 5
    frequency:     2.8673717528
  - # 6
    frequency:     2.8905025637
  - # 7
    frequency:     2.8905025637
  - # 8
    frequency:     2.9506986118
  - # 9
    frequency:     2.9506986118
  - # 10
    frequency:     4.2023105262
  - # 11
    frequency:     4.2055778516
  - # 12
    frequency:     4.2055778516

- q-position: [    0.1354167,    0.0104167,    0.0104167 ]
  weight: 24   
  band:
  - # 1
    frequency:     0.6081669795
  - # 2
    frequency:     0.6114476933
  - # 3
    frequency:     1.0104884406
  - # 4
    frequency:     2.8466577197
  - # 5
    frequency:     2.8483911412
  - # 6
    frequency:     2.8822484698
  - # 7
    frequency:     2.8822484698
  - # 8
    frequency:     2.9646206411
  - # 9
    frequency:     2.9646206411
  - # 10
    frequency:     4.1816544707
  - # 11
    frequency:     4.1867525663
  - # 12
    frequency:     4.1867525663

- q-position: [    0.1562500,    0.0104167,    0.0104167 ]
  weight: 24   
  band:
  - # 1
    frequency:     0.7004260627
  - # 2
    frequency:     0.7031972080
  - # 3
    frequency:     1.1585834546
  - # 4
    frequency:     2.8246188396
  - # 5
    frequency:     2.8263078268
  - # 6
    frequency:     2.8729647271
  - # 7
    frequency:     2.8729647271
  - # 8
    frequency:     2.9808390971
  - # 9
    frequency:     2.9808390971
  - # 10
    frequency:     4.1574371433
  - # 11
    frequency:     4.1650426368
  - # 12
    frequency:     4.1650426368

- q-position: [    0.1770833,    0.0104167,    0.0104167 ]
  weight: 24   
  band:
  - # 1
    frequency:     0.7919484547
  - # 2
    frequency:     0.7943097369
  - # 3
    frequency:     1.3050389774
  - # 4
    frequency:     2.7995105008
  - # 5
    frequency:     2.8011495382
  - # 6
    frequency:     2.8627991799
  - # 7
    frequency:     2.8627991799
  - # 8
    frequency:     2.9993403481
  - # 9
    frequency:     2.9993403481
  - # 10
    frequency:     4.1296079158
  - # 11
    frequency:     4.1405622314
  - # 12
    frequency:     4.1405622314

- q-position: [    0.1979167,    0.0104167,    0.0104167 ]
  weight: 24   
  band:
  - # 1
    frequency:     0.8826472928
  - # 2
    frequency:     0.8846691771
  - # 3
    frequency:     1.4495327373
  - # 4
    frequency:     2.7713638941
  - # 5
    frequency:     2.7729477543
  - # 6
    frequency:     2.8519163395
  - # 7
    frequency:     2.8519163395
  - # 8
    frequency:     3.0201033126
  - # 9
    frequency:     3.0201033126
  - # 10
    frequency:     4.0981117570
  - # 11
    frequency:     4.1134400024
  - # 12
    frequency:     4.1134400024

- q-position: [    0.2187500,    0.0104167,    0.0104167 ]
  weight: 24   
  band:
  - # 1
    frequency:     0.9724345681
  - # 2
    frequency:     0.9741684097
  - # 3
    frequency:     1.5917847853
  - # 4
    frequency:     2.7402138691
  - # 5
    frequency:     2.7417376237
  - # 6
    frequency:     2.8404947186
  - # 7
    frequency:     2.8404947186
  - # 8
    frequency:     3.0430984766
  - # 9
    frequency:     3.0430984766
  - # 10
    frequency:     4.0628902694
  - # 11
    frequency:     4.0838183568
  - # 12
    frequency:     4.0838183568

- q-position: [    0.2395833,    0.0104167,    0.0104167 ]
  weight: 24   
  band:
  - # 1
    frequency:     1.0612214417
  - # 2
    frequency:     1.0627056522
  - # 3
    frequency:     1.7315443415
  - # 4
    frequency:     2.7060988535
  - # 5
    frequency:     2.7075578769
  - # 6
    frequency:     2.8287240873
  - # 7
    frequency:     2.8287240873
  - # 8
    frequency:     3.0682867290
  - # 9
    frequency:     3.0682867290
  - # 10
    frequency:     4.0238828020
  - # 11
    frequency:     4.0518526369
  - # 12
    frequency:     4.0518526369

- q-position: [    0.2604167,    0.0104167,    0.0104167 ]
  weight: 24   
  band:
  - # 1
    frequency:     1.1489186429
  - # 2
    frequency:     1.1501825869
  - # 3
    frequency:     1.8685831014
  - # 4
    frequency:     2.6690607644
  - # 5
    frequency:     2.6704507313
  - # 6
    frequency:     2.8168025273
  - # 7
    frequency:     2.8168025273
  - # 8
    frequency:     3.0956182012
  - # 9
    frequency:     3.0956182012
  - # 10
    frequency:     3.9810276209
  - # 11
    frequency:     4.0177102118
  - # 12
    frequency:     4.0177102118

- q-position: [    0.2812500,    0.0104167,    0.0104167 ]
  weight: 24   
  band:
  - # 1
    frequency:     1.2354368082
  - # 2
    frequency:     1.2365033523
  - # 3
    frequency:     2.0026917190
  - # 4
    frequency:     2.6291449135
  - # 5
    frequency:     2.6304617891
  - # 6
    frequency:     2.8049332508
  - # 7
    frequency:     2.8049332508
  - # 8
    frequency:     3.1250312083
  - # 9
    frequency:     3.1250312083
  - # 10
    frequency:     3.9342631222
  - # 11
    frequency:     3.9815694802
  - # 12
    frequency:     3.9815694802

- q-position: [    0.3020833,    0.0104167,    0.0104167 ]
  weight: 24   
  band:
  - # 1
    frequency:     1.3206867505
  - # 2
    frequency:     1.3215739841
  - # 3
    frequency:     2.1336779339
  - # 4
    frequency:     2.5863999059
  - # 5
    frequency:     2.5876399307
  - # 6
    frequency:     2.7933211911
  - # 7
    frequency:     2.7933211911
  - # 8
    frequency:     3.1564513571
  - # 9
    frequency:     3.1564513571
  - # 10
    frequency:     3.8835290713
  - # 11
    frequency:     3.9436187886
  - # 12
    frequency:     3.9436187886

- q-position: [    0.3229167,    0.0104167,    0.0104167 ]
  weight: 24   
  band:
  - # 1
    frequency:     1.4045796762
  - # 2
    frequency:     1.4053021059
  - # 3
    frequency:     2.2613655777
  - # 4
    frequency:     2.5408775342
  - # 5
    frequency:     2.5420372021
  - # 6
    frequency:     2.7821693996
  - # 7
    frequency:     2.7821693996
  - # 8
    frequency:     3.1897908606
  - # 9
    frequency:     3.1897908606
  - # 10
    frequency:     3.8287678509
  - # 11
    frequency:     3.9040552650
  - # 12
    frequency:     3.9040552650

- q-position: [    0.3437500,    0.0104167,    0.0104167 ]
  weight: 24   
  band:
  - # 1
    frequency:     1.4870273665
  - # 2
    frequency:     1.4875967668
  - # 3
    frequency:     2.3855940556
  - # 4
    frequency:     2.4926326669
  - # 5
    frequency:     2.4937086983
  - # 6
    frequency:     2.7716753022
  - # 7
    frequency:     2.7716753022
  - # 8
    frequency:     3.2249480889
  - # 9
    frequency:     3.2249480889
  - # 10
    frequency:     3.7699257043
  - # 11
    frequency:     3.8630835748
  - # 12
    frequency:     3.8630835748

- q-position: [    0.3645833,    0.0104167,    0.0104167 ]
  weight: 24   
  band:
  - # 1
    frequency:     1.5679423347
  - # 2
    frequency:     1.5683683683
  - # 3
    frequency:     2.4417231336
  - # 4
    frequency:     2.4427124429
  - # 5
    frequency:     2.5062180765
  - # 6
    frequency:     2.7620268877
  - # 7
    frequency:     2.7620268877
  - # 8
    frequency:     3.2618073679
  - # 9
    frequency:     3.2618073679
  - # 10
    frequency:     3.7069539568
  - # 11
    frequency:     3.8209146030
  - # 12
    frequency:     3.8209146030

- q-position: [    0.3854167,    0.0104167,    0.0104167 ]
  weight: 24   
  band:
  - # 1
    frequency:     1.6472379695
  - # 2
    frequency:     1.6475286492
  - # 3
    frequency:     2.3882096069
  - # 4
    frequency:     2.3891092647
  - # 5
    frequency:     2.6231075010
  - # 6
    frequency:     2.7533989160
  - # 7
    frequency:     2.7533989160
  - # 8
    frequency:     3.3002390290
  - # 9
    frequency:     3.3002390290
  - # 10
    frequency:     3.6398102040
  - # 11
    frequency:     3.7777640743
  - # 12
    frequency:     3.7777640743

- q-position: [    0.4062500,    0.0104167,    0.0104167 ]
  weight: 24   
  band:
  - # 1
    frequency:     1.7248286691
  - # 2
    frequency:     1.7249907091
  - # 3
    frequency:     2.3321554809
  - # 4
    frequency:     2.3329626718
  - # 5
    frequency:     2.7361472288
  - # 6
    frequency:     2.7459492478
  - # 7
    frequency:     2.7459492478
  - # 8
    frequency:     3.3400996933
  - # 9
    frequency:     3.3400996933
  - # 10
    frequency:     3.5684594530
  - # 11
    frequency:     3.7338511297
  - # 12
    frequency:     3.7338511297

- q-position: [    0.4270833,    0.0104167,    0.0104167 ]
  weight: 24   
  band:
  - # 1
    frequency:     1.8006299705
  - # 2
    frequency:     1.8006690587
  - # 3
    frequency:     2.2736267491
  - # 4
    frequency:     2.2743387232
  - # 5
    frequency:     2.7398154060
  - # 6
    frequency:     2.7398154060
  - # 7
    frequency:     2.8452370743
  - # 8
    frequency:     3.3812327393
  - # 9
    frequency:     3.3812327393
  - # 10
    frequency:     3.4928752048
  - # 11
    frequency:     3.6893969057
  - # 12
    frequency:     3.6893969057

- q-position: [    0.4479167,    0.0104167,    0.0104167 ]
  weight: 24   
  band:
  - # 1
    frequency:     1.8744796897
  - # 2
    frequency:     1.8745586766
  - # 3
    frequency:     2.2126918805
  - # 4
    frequency:     2.2133059004
  - # 5
    frequency:     2.7351114837
  - # 6
    frequency:     2.7351114837
  - # 7
    frequency:     2.9502915993
  - # 8
    frequency:     3.4130404696
  - # 9
    frequency:     3.4234687789
  - # 10
    frequency:     3.4234687789
  - # 11
    frequency:     3.6446232884
  - # 12
    frequency:     3.6446232884

- q-position: [    0.4687500,    0.0104167,    0.0104167 ]
  weight: 24   
  band:
  - # 1
    frequency:     1.9463401591
  - # 2
    frequency:     1.9465329820
  - # 3
    frequency:     2.1494216958
  - # 4
    frequency:     2.1499349767
  - # 5
    frequency:     2.7319255083
  - # 6
    frequency:     2.7319255083
  - # 7
    frequency:     3.0512398819
  - # 8
    frequency:     3.3289487056
  - # 9
    frequency:     3.4666251141
  - # 10
    frequency:     3.4666251141
  - # 11
    frequency:     3.5997528568
  - # 12
    frequency:     3.5997528568

- q-position: [    0.4895833,    0.0104167,    0.0104167 ]
  weight: 24   
  band:
  - # 1
    frequency:     2.0161696838
  - # 2
    frequency:     2.0164725997
  - # 3
    frequency:     2.0838892446
  - # 4
    frequency:     2.0842988875
  - # 5
    frequency:     2.7303173660
  - # 6
    frequency:     2.7303173660
  - # 7
    frequency:     3.1480252077
  - # 8
    frequency:     3.2406046744
  - # 9
    frequency:     3.5104871508
  - # 10
    frequency:     3.5104871508
  - # 11
    frequency:     3.5550270302
  - # 12
    frequency:     3.5550270302

- q-position: [    0.0312500,    0.0312500,    0.0104167 ]
  weight: 24   
  band:
  - # 1
    frequency:     0.1666312186
  - # 2
    frequency:     0.1997117859
  - # 3
    frequency:     0.3631959021
  - # 4
    frequency:     2.9065114819
  - # 5
    frequency:     2.9079263540
  - # 6
    frequency:     2.9079263540
  - # 7
    frequency:     2.9147109881
  - # 8
    frequency:     2.9147109881
  - # 9
    frequency:     2.9232983961
  - # 10
    frequency:     4.2469259211
  - # 11
    frequency:     4.2469259211
  - # 12
    frequency:     4.2470565610

- q-position: [    0.0520833,    0.0312500,    0.0104167 ]
  weight: 48   
  band:
  - # 1
    frequency:     0.2355889298
  - # 2
    frequency:     0.2744864627
  - # 3
    frequency:     0.4858318917
  - # 4
    frequency:     2.9012545297
  - # 5
    frequency:     2.9015641915
  - # 6
    frequency:     2.9047347689
  - # 7
    frequency:     2.9083331804
  - # 8
    frequency:     2.9195386492
  - # 9
    frequency:     2.9301756869
  - # 10
    frequency:     4.2401904895
  - # 11
    frequency:     4.2405337280
  - # 12
    frequency:     4.2406079796

- q-position: [    0.0729167,    0.0312500,    0.0104167 ]
  weight: 48   
  band:
  - # 1
    frequency:     0.3223427834
  - # 2
    frequency:     0.3583466685
  - # 3
    frequency:     0.6199581322
  - # 4
    frequency:     2.8920308181
  - # 5
    frequency:     2.8953143798
  - # 6
    frequency:     2.8987770944
  - # 7
    frequency:     2.9002000872
  - # 8
    frequency:     2.9265848768
  - # 9
    frequency:     2.9386044136
  - # 10
    frequency:     4.2300660777
  - # 11
    frequency:     4.2309775182
  - # 12
    frequency:     4.2309877228

- q-position: [    0.0937500,    0.0312500,    0.0104167 ]
  weight: 48   
  band:
  - # 1
    frequency:     0.4141818890
  - # 2
    frequency:     0.4459276060
  - # 3
    frequency:     0.7596812005
  - # 4
    frequency:     2.8793380509
  - # 5
    frequency:     2.8860554369
  - # 6
    frequency:     2.8885304755
  - # 7
    frequency:     2.8943215535
  - # 8
    frequency:     2.9359178414
  - # 9
    frequency:     2.9488132999
  - # 10
    frequency:     4.2165276143
  - # 11
    frequency:     4.2182158151
  - # 12
    frequency:     4.2183383909

- q-position: [    0.1145833,    0.0312500,    0.0104167 ]
  weight: 48   
  band:
  - # 1
    frequency:     0.5072958722
  - # 2
    frequency:     0.5351369988
  - # 3
    frequency:     0.9021298822
  - # 4
    frequency:     2.8635016010
  - # 5
    frequency:     2.8701850781
  - # 6
    frequency:     2.8808232638
  - # 7
    frequency:     2.8871687059
  - # 8
    frequency:     2.9475554134
  - # 9
    frequency:     2.9609702882
  - # 10
    frequency:     4.1995424058
  - # 11
    frequency:     4.2023899637
  - # 12
    frequency:     4.2026526195

- q-position: [    0.1354167,    0.0312500,    0.0104167 ]
  weight: 48   
  band:
  - # 1
    frequency:     0.6004300380
  - # 2
    frequency:     0.6249950736
  - # 3
    frequency:     1.0456417975
  - # 4
    frequency:     2.8445410355
  - # 5
    frequency:     2.8511869914
  - # 6
    frequency:     2.8721914463
  - # 7
    frequency:     2.8788454492
  - # 8
    frequency:     2.9614990203
  - # 9
    frequency:     2.9751831987
  - # 10
    frequency:     4.1790707493
  - # 11
    frequency:     4.1835831494
  - # 12
    frequency:     4.1840133318

- q-position: [    0.1562500,    0.0312500,    0.0104167 ]
  weight: 48   
  band:
  - # 1
    frequency:     0.6930959073
  - # 2
    frequency:     0.7149629716
  - # 3
    frequency:     1.1891472177
  - # 4
    frequency:     2.8224797308
  - # 5
    frequency:     2.8290861802
  - # 6
    frequency:     2.8626934151
  - # 7
    frequency:     2.8694796461
  - # 8
    frequency:     2.9777415312
  - # 9
    frequency:     2.9915157450
  - # 10
    frequency:     4.1550666803
  - # 11
    frequency:     4.1618941943
  - # 12
    frequency:     4.1625190304

- q-position: [    0.1770833,    0.0312500,    0.0104167 ]
  weight: 48   
  band:
  - # 1
    frequency:     0.7850598991
  - # 2
    frequency:     0.8047011061
  - # 3
    frequency:     1.3318987361
  - # 4
    frequency:     2.7973448177
  - # 5
    frequency:     2.8039115924
  - # 6
    frequency:     2.8524313067
  - # 7
    frequency:     2.8592187125
  - # 8
    frequency:     2.9962687274
  - # 9
    frequency:     3.0100005138
  - # 10
    frequency:     4.1274788399
  - # 11
    frequency:     4.1374370134
  - # 12
    frequency:     4.1382832484

- q-position: [    0.1979167,    0.0312500,    0.0104167 ]
  weight: 48   
  band:
  - # 1
    frequency:     0.8761804816
  - # 2
    frequency:     0.8939698484
  - # 3
    frequency:     1.4733373086
  - # 4
    frequency:     2.7691671186
  - # 5
    frequency:     2.7756960250
  - # 6
    frequency:     2.8415393967
  - # 7
    frequency:     2.8482266986
  - # 8
    frequency:     3.0170589207
  - # 9
    frequency:     3.0306472322
  - # 10
    frequency:     4.0962514501
  - # 11
    frequency:     4.1103399786
  - # 12
    frequency:     4.1114339105

- q-position: [    0.2187500,    0.0312500,    0.0104167 ]
  weight: 48   
  band:
  - # 1
    frequency:     0.9663511728
  - # 2
    frequency:     0.9825840627
  - # 3
    frequency:     1.6130210921
  - # 4
    frequency:     2.7379810774
  - # 5
    frequency:     2.7444760189
  - # 6
    frequency:     2.8301757504
  - # 7
    frequency:     2.8366816568
  - # 8
    frequency:     3.0400819721
  - # 9
    frequency:     3.0534474584
  - # 10
    frequency:     4.0613253809
  - # 11
    frequency:     4.0807451939
  - # 12
    frequency:     4.0821126036

- q-position: [    0.2395833,    0.0312500,    0.0104167 ]
  weight: 48   
  band:
  - # 1
    frequency:     1.0554791414
  - # 2
    frequency:     1.0703904212
  - # 3
    frequency:     1.7505857399
  - # 4
    frequency:     2.7038246834
  - # 5
    frequency:     2.7102917460
  - # 6
    frequency:     2.8185158978
  - # 7
    frequency:     2.8247729271
  - # 8
    frequency:     3.0652981334
  - # 9
    frequency:     3.0783769861
  - # 10
    frequency:     4.0226392922
  - # 11
    frequency:     4.0488076818
  - # 12
    frequency:     4.0504737566

- q-position: [    0.2604167,    0.0312500,    0.0104167 ]
  weight: 48   
  band:
  - # 1
    frequency:     1.1434768071
  - # 2
    frequency:     1.1572552781
  - # 3
    frequency:     1.8857213690
  - # 4
    frequency:     2.6667393880
  - # 5
    frequency:     2.6731868901
  - # 6
    frequency:     2.8067476520
  - # 7
    frequency:     2.8126982215
  - # 8
    frequency:     3.0926568943
  - # 9
    frequency:     3.1053969023
  - # 10
    frequency:     3.9801308363
  - # 11
    frequency:     4.0146944815
  - # 12
    frequency:     4.0166837335

- q-position: [    0.2812500,    0.0312500,    0.0104167 ]
  weight: 48   
  band:
  - # 1
    frequency:     1.2302584980
  - # 2
    frequency:     1.2430578148
  - # 3
    frequency:     2.0181587570
  - # 4
    frequency:     2.6267700156
  - # 5
    frequency:     2.6332085228
  - # 6
    frequency:     2.7950665244
  - # 7
    frequency:     2.8006604718
  - # 8
    frequency:     3.1220959304
  - # 9
    frequency:     3.1344539109
  - # 10
    frequency:     3.9337379008
  - # 11
    frequency:     3.9785836624
  - # 12
    frequency:     3.9809198387

- q-position: [    0.3020833,    0.0312500,    0.0104167 ]
  weight: 48   
  band:
  - # 1
    frequency:     1.3157391687
  - # 2
    frequency:     1.3276859891
  - # 3
    frequency:     2.1476608391
  - # 4
    frequency:     2.5839646689
  - # 5
    frequency:     2.5904069764
  - # 6
    frequency:     2.7836714255
  - # 7
    frequency:     2.7888644500
  - # 8
    frequency:     3.1535402141
  - # 9
    frequency:     3.1654803054
  - # 10
    frequency:     3.8833998785
  - # 11
    frequency:     3.9406632554
  - # 12
    frequency:     3.9433692405

- q-position: [    0.3229167,    0.0312500,    0.0104167 ]
  weight: 48   
  band:
  - # 1
    frequency:     1.3998339824
  - # 2
    frequency:     1.4110340523
  - # 3
    frequency:     2.2740173387
  - # 4
    frequency:     2.5383746282
  - # 5
    frequency:     2.5448357151
  - # 6
    frequency:     2.7727604882
  - # 7
    frequency:     2.7775131938
  - # 8
    frequency:     3.1869013255
  - # 9
    frequency:     3.1983938240
  - # 10
    frequency:     3.8290589472
  - # 11
    frequency:     3.9011301085
  - # 12
    frequency:     3.9042278169

- q-position: [    0.3437500,    0.0312500,    0.0104167 ]
  weight: 48   
  band:
  - # 1
    frequency:     1.4824582592
  - # 2
    frequency:     1.4930009866
  - # 3
    frequency:     2.3970412968
  - # 4
    frequency:     2.4900542434
  - # 5
    frequency:     2.4965512075
  - # 6
    frequency:     2.7625269534
  - # 7
    frequency:     2.7668042899
  - # 8
    frequency:     3.2220769864
  - # 9
    frequency:     3.2330975270
  - # 10
    frequency:     3.7706613431
  - # 11
    frequency:     3.8601886772
  - # 12
    frequency:     3.8636989338

- q-position: [    0.3645833,    0.0312500,    0.0104167 ]
  weight: 48   
  band:
  - # 1
    frequency:     1.5635275777
  - # 2
    frequency:     1.5734895008
  - # 3
    frequency:     2.4390608211
  - # 4
    frequency:     2.4456128000
  - # 5
    frequency:     2.5165667689
  - # 6
    frequency:     2.7531551157
  - # 7
    frequency:     2.7569260866
  - # 8
    frequency:     3.2589508165
  - # 9
    frequency:     3.2694797691
  - # 10
    frequency:     3.7081586154
  - # 11
    frequency:     3.8180497699
  - # 12
    frequency:     3.8219921745

- q-position: [    0.3854167,    0.0312500,    0.0104167 ]
  weight: 48   
  band:
  - # 1
    frequency:     1.6429579353
  - # 2
    frequency:     1.6524053799
  - # 3
    frequency:     2.3854545036
  - # 4
    frequency:     2.3920825950
  - # 5
    frequency:     2.6324472467
  - # 6
    frequency:     2.7448163749
  - # 7
    frequency:     2.7480539222
  - # 8
    frequency:     3.2973922854
  - # 9
    frequency:     3.3074142764
  - # 10
    frequency:     3.6415088490
  - # 11
    frequency:     3.7749292948
  - # 12
    frequency:     3.7793220611

- q-position: [    0.4062500,    0.0312500,    0.0104167 ]
  weight: 48   
  band:
  - # 1
    frequency:     1.7206659296
  - # 2
    frequency:     1.7296570615
  - # 3
    frequency:     2.3292981409
  - # 4
    frequency:     2.3360253349
  - # 5
    frequency:     2.7376654675
  - # 6
    frequency:     2.7403464696
  - # 7
    frequency:     2.7445545267
  - # 8
    frequency:     3.3372567597
  - # 9
    frequency:     3.3467602407
  - # 10
    frequency:     3.5706778425
  - # 11
    frequency:     3.7310471267
  - # 12
    frequency:     3.7359068680

- q-position: [    0.4270833,    0.0312500,    0.0104167 ]
  weight: 48   
  band:
  - # 1
    frequency:     1.7965689425
  - # 2
    frequency:     1.8051553660
  - # 3
    frequency:     2.2706571565
  - # 4
    frequency:     2.2775082925
  - # 5
    frequency:     2.7318369697
  - # 6
    frequency:     2.7339423067
  - # 7
    frequency:     2.8527778469
  - # 8
    frequency:     3.3783853308
  - # 9
    frequency:     3.3873620641
  - # 10
    frequency:     3.4956402341
  - # 11
    frequency:     3.6866264789
  - # 12
    frequency:     3.6919678418

- q-position: [    0.4479167,    0.0312500,    0.0104167 ]
  weight: 48   
  band:
  - # 1
    frequency:     1.8705853210
  - # 2
    frequency:     1.8788133289
  - # 3
    frequency:     2.2095994055
  - # 4
    frequency:     2.2166011701
  - # 5
    frequency:     2.7274421759
  - # 6
    frequency:     2.7289568269
  - # 7
    frequency:     2.9570231767
  - # 8
    frequency:     3.4163805651
  - # 9
    frequency:     3.4206031625
  - # 10
    frequency:     3.4290471378
  - # 11
    frequency:     3.6418953964
  - # 12
    frequency:     3.6477300811

- q-position: [    0.4687500,    0.0312500,    0.0104167 ]
  weight: 48   
  band:
  - # 1
    frequency:     1.9426345549
  - # 2
    frequency:     1.9505461060
  - # 3
    frequency:     2.1461950274
  - # 4
    frequency:     2.1533760074
  - # 5
    frequency:     2.7245664537
  - # 6
    frequency:     2.7254795994
  - # 7
    frequency:     3.0572125801
  - # 8
    frequency:     3.3328942775
  - # 9
    frequency:     3.4637088295
  - # 10
    frequency:     3.4716110143
  - # 11
    frequency:     3.5971010148
  - # 12
    frequency:     3.6034325946

- q-position: [    0.4895833,    0.0312500,    0.0104167 ]
  weight: 48   
  band:
  - # 1
    frequency:     2.0126374493
  - # 2
    frequency:     2.0202709294
  - # 3
    frequency:     2.0805162934
  - # 4
    frequency:     2.0879071000
  - # 5
    frequency:     2.7232671725
  - # 6
    frequency:     2.7235722823
  - # 7
    frequency:     3.1532836019
  - # 8
    frequency:     3.2451886397
  - # 9
    frequency:     3.5073455387
  - # 10
    frequency:     3.5145824255
  - # 11
    frequency:     3.5527441236
  - # 12
    frequency:     3.5594566378

- q-position: [    0.0520833,    0.0520833,    0.0104167 ]
  weight: 24   
  band:
  - # 1
    frequency:     0.2699944115
  - # 2
    frequency:     0.3328047183
  - # 3
    frequency:     0.5913432401
  - # 4
    frequency:     2.8933263358
  - # 5
    frequency:     2.8983362785
  - # 6
    frequency:     2.8983362785
  - # 7
    frequency:     2.9131695155
  - # 8
    frequency:     2.9131695155
  - # 9
    frequency:     2.9396648952
  - # 10
    frequency:     4.2339239135
  - # 11
    frequency:     4.2339239135
  - # 12
    frequency:     4.2341724621

- q-position: [    0.0729167,    0.0520833,    0.0104167 ]
  weight: 48   
  band:
  - # 1
    frequency:     0.3344398437
  - # 2
    frequency:     0.4046941285
  - # 3
    frequency:     0.7114992630
  - # 4
    frequency:     2.8849100968
  - # 5
    frequency:     2.8887486376
  - # 6
    frequency:     2.8937385008
  - # 7
    frequency:     2.9036270461
  - # 8
    frequency:     2.9202364893
  - # 9
    frequency:     2.9504810769
  - # 10
    frequency:     4.2239871833
  - # 11
    frequency:     4.2245614006
  - # 12
    frequency:     4.2245658497

- q-position: [    0.0937500,    0.0520833,    0.0104167 ]
  weight: 48   
  band:
  - # 1
    frequency:     0.4146024218
  - # 2
    frequency:     0.4838914858
  - # 3
    frequency:     0.8396258170
  - # 4
    frequency:     2.8759839466
  - # 5
    frequency:     2.8760202877
  - # 6
    frequency:     2.8877720957
  - # 7
    frequency:     2.8909246340
  - # 8
    frequency:     2.9295992645
  - # 9
    frequency:     2.9626783487
  - # 10
    frequency:     4.2106976041
  - # 11
    frequency:     4.2118252005
  - # 12
    frequency:     4.2121662012

- q-position: [    0.1145833,    0.0520833,    0.0104167 ]
  weight: 48   
  band:
  - # 1
    frequency:     0.5018270945
  - # 2
    frequency:     0.5670896045
  - # 3
    frequency:     0.9723895046
  - # 4
    frequency:     2.8600583154
  - # 5
    frequency:     2.8666049852
  - # 6
    frequency:     2.8750800009
  - # 7
    frequency:     2.8805069796
  - # 8
    frequency:     2.9412740267
  - # 9
    frequency:     2.9763975933
  - # 10
    frequency:     4.1940213831
  - # 11
    frequency:     4.1960306484
  - # 12
    frequency:     4.1967910769

- q-position: [    0.1354167,    0.0520833,    0.0104167 ]
  weight: 48   
  band:
  - # 1
    frequency:     0.5920293245