<?xml version="1.0" encoding="ISO-8859-1"?>
<modeling>
 <generator>
  <i name="program" type="string">vasp</i>
  <i name="version" type="string">4.6.28 </i>
  <i name="subversion" type="string">25Jul05 complex  parallel</i>
  <i name="platform" type="string">LinuxIFC</i>
  <i name="date" type="string">2017 01 10</i>
  <i name="time" type="string">10:43:44</i>
 </generator>
 <incar>
  <i type="string" name="PREC">accurate</i>
  <i type="int" name="IALGO">    38</i>
  <i type="logical" name="ADDGRID"> T  </i>
  <i name="EDIFF">      0.00000001</i>
  <i type="int" name="IBRION">    -1</i>
  <i name="ENCUT">    750.00000000</i>
  <i type="logical" name="LREAL"> F  </i>
  <i type="int" name="ISMEAR">     0</i>
  <i name="SIGMA">      0.01000000</i>
  <i type="logical" name="LWAVE"> F  </i>
  <i type="logical" name="LCHARG"> F  </i>
 </incar>
 <kpoints>
  <generation param="Gamma">
   <v type="int" name="divisions">      12      12      12</v>
   <v name="usershift">      0.00000000      0.00000000      0.00000000</v>
   <v name="genvec1">      0.08333333      0.00000000      0.00000000</v>
   <v name="genvec2">      0.00000000      0.08333333      0.00000000</v>
   <v name="genvec3">      0.00000000      0.00000000      0.08333333</v>
   <v name="shift">      0.00000000      0.00000000      0.00000000</v>
  </generation>
  <varray name="kpointlist" >
   <v>       0.00000000      0.00000000      0.00000000</v>
   <v>       0.08333333      0.00000000      0.00000000</v>
   <v>       0.16666667      0.00000000      0.00000000</v>
   <v>       0.25000000      0.00000000      0.00000000</v>
   <v>       0.33333333      0.00000000      0.00000000</v>
   <v>       0.41666667      0.00000000      0.00000000</v>
   <v>       0.50000000      0.00000000      0.00000000</v>
   <v>       0.00000000      0.08333333      0.00000000</v>
   <v>       0.08333333      0.08333333      0.00000000</v>
   <v>       0.16666667      0.08333333      0.00000000</v>
   <v>       0.25000000      0.08333333      0.00000000</v>
   <v>       0.33333333      0.08333333      0.00000000</v>
   <v>       0.41666667      0.08333333      0.00000000</v>
   <v>       0.50000000      0.08333333      0.00000000</v>
   <v>       0.00000000      0.16666667      0.00000000</v>
   <v>       0.08333333      0.16666667      0.00000000</v>
   <v>       0.16666667      0.16666667      0.00000000</v>
   <v>       0.25000000      0.16666667      0.00000000</v>
   <v>       0.33333333      0.16666667      0.00000000</v>
   <v>       0.41666667      0.16666667      0.00000000</v>
   <v>       0.50000000      0.16666667      0.00000000</v>
   <v>       0.00000000      0.25000000      0.00000000</v>
   <v>       0.08333333      0.25000000      0.00000000</v>
   <v>       0.16666667      0.25000000      0.00000000</v>
   <v>       0.25000000      0.25000000      0.00000000</v>
   <v>       0.33333333      0.25000000      0.00000000</v>
   <v>       0.41666667      0.25000000      0.00000000</v>
   <v>       0.50000000      0.25000000      0.00000000</v>
   <v>       0.00000000      0.33333333      0.00000000</v>
   <v>       0.08333333      0.33333333      0.00000000</v>
   <v>       0.16666667      0.33333333      0.00000000</v>
   <v>       0.25000000      0.33333333      0.00000000</v>
   <v>       0.33333333      0.33333333      0.00000000</v>
   <v>       0.41666667      0.33333333      0.00000000</v>
   <v>       0.50000000      0.33333333      0.00000000</v>
   <v>       0.00000000      0.41666667      0.00000000</v>
   <v>       0.08333333      0.41666667      0.00000000</v>
   <v>       0.16666667      0.41666667      0.00000000</v>
   <v>       0.25000000      0.41666667      0.00000000</v>
   <v>       0.33333333      0.41666667      0.00000000</v>
   <v>       0.41666667      0.41666667      0.00000000</v>
   <v>       0.50000000      0.41666667      0.00000000</v>
   <v>       0.00000000      0.50000000      0.00000000</v>
   <v>       0.08333333      0.50000000      0.00000000</v>
   <v>       0.16666667      0.50000000      0.00000000</v>
   <v>       0.25000000      0.50000000      0.00000000</v>
   <v>       0.33333333      0.50000000      0.00000000</v>
   <v>       0.41666667      0.50000000      0.00000000</v>
   <v>       0.50000000      0.50000000      0.00000000</v>
   <v>       0.00000000      0.08333333      0.08333333</v>
   <v>       0.08333333      0.08333333      0.08333333</v>
   <v>       0.16666667      0.08333333      0.08333333</v>
   <v>       0.25000000      0.08333333      0.08333333</v>
   <v>       0.33333333      0.08333333      0.08333333</v>
   <v>       0.41666667      0.08333333      0.08333333</v>
   <v>       0.50000000      0.08333333      0.08333333</v>
   <v>       0.00000000      0.16666667      0.08333333</v>
   <v>       0.08333333      0.16666667      0.08333333</v>
   <v>       0.16666667      0.16666667      0.08333333</v>
   <v>       0.25000000      0.16666667      0.08333333</v>
   <v>       0.33333333      0.16666667      0.08333333</v>
   <v>       0.41666667      0.16666667      0.08333333</v>
   <v>       0.50000000      0.16666667      0.08333333</v>
   <v>       0.00000000      0.25000000      0.08333333</v>
   <v>       0.08333333      0.25000000      0.08333333</v>
   <v>       0.16666667      0.25000000      0.08333333</v>
   <v>       0.25000000      0.25000000      0.08333333</v>
   <v>       0.33333333      0.25000000      0.08333333</v>
   <v>       0.41666667      0.25000000      0.08333333</v>
   <v>       0.50000000      0.25000000      0.08333333</v>
   <v>       0.00000000      0.33333333      0.08333333</v>
   <v>       0.08333333      0.33333333      0.08333333</v>
   <v>       0.16666667      0.33333333      0.08333333</v>
   <v>       0.25000000      0.33333333      0.08333333</v>
   <v>       0.33333333      0.33333333      0.08333333</v>
   <v>       0.41666667      0.33333333      0.08333333</v>
   <v>       0.50000000      0.33333333      0.08333333</v>
   <v>       0.00000000      0.41666667      0.08333333</v>
   <v>       0.08333333      0.41666667      0.08333333</v>
   <v>       0.16666667      0.41666667      0.08333333</v>
   <v>       0.25000000      0.41666667      0.08333333</v>
   <v>       0.33333333      0.41666667      0.08333333</v>
   <v>       0.41666667      0.41666667      0.08333333</v>
   <v>       0.50000000      0.41666667      0.08333333</v>
   <v>       0.00000000      0.50000000      0.08333333</v>
   <v>       0.08333333      0.50000000      0.08333333</v>
   <v>       0.16666667      0.50000000      0.08333333</v>
   <v>       0.25000000      0.50000000      0.08333333</v>
   <v>       0.33333333      0.50000000      0.08333333</v>
   <v>       0.41666667      0.50000000      0.08333333</v>
   <v>       0.50000000      0.50000000      0.08333333</v>
   <v>       0.00000000      0.16666667      0.16666667</v>
   <v>       0.08333333      0.16666667      0.16666667</v>
   <v>       0.16666667      0.16666667      0.16666667</v>
   <v>       0.25000000      0.16666667      0.16666667</v>
   <v>       0.33333333      0.16666667      0.16666667</v>
   <v>       0.41666667      0.16666667      0.16666667</v>
   <v>       0.50000000      0.16666667      0.16666667</v>
   <v>       0.00000000      0.25000000      0.16666667</v>
   <v>       0.08333333      0.25000000      0.16666667</v>
   <v>       0.16666667      0.25000000      0.16666667</v>
   <v>       0.25000000      0.25000000      0.16666667</v>
   <v>       0.33333333      0.25000000      0.16666667</v>
   <v>       0.41666667      0.25000000      0.16666667</v>
   <v>       0.50000000      0.25000000      0.16666667</v>
   <v>       0.00000000      0.33333333      0.16666667</v>
   <v>       0.08333333      0.33333333      0.16666667</v>
   <v>       0.16666667      0.33333333      0.16666667</v>
   <v>       0.25000000      0.33333333      0.16666667</v>
   <v>       0.33333333      0.33333333      0.16666667</v>
   <v>       0.41666667      0.33333333      0.16666667</v>
   <v>       0.50000000      0.33333333      0.16666667</v>
   <v>       0.00000000      0.41666667      0.16666667</v>
   <v>       0.08333333      0.41666667      0.16666667</v>
   <v>       0.16666667      0.41666667      0.16666667</v>
   <v>       0.25000000      0.41666667      0.16666667</v>
   <v>       0.33333333      0.41666667      0.16666667</v>
   <v>       0.41666667      0.41666667      0.16666667</v>
   <v>       0.50000000      0.41666667      0.16666667</v>
   <v>       0.00000000      0.50000000      0.16666667</v>
   <v>       0.08333333      0.50000000      0.16666667</v>
   <v>       0.16666667      0.50000000      0.16666667</v>
   <v>       0.25000000      0.50000000      0.16666667</v>
   <v>       0.33333333      0.50000000      0.16666667</v>
   <v>       0.41666667      0.50000000      0.16666667</v>
   <v>       0.50000000      0.50000000      0.16666667</v>
   <v>       0.00000000      0.25000000      0.25000000</v>
   <v>       0.08333333      0.25000000      0.25000000</v>
   <v>       0.16666667      0.25000000      0.25000000</v>
   <v>       0.25000000      0.25000000      0.25000000</v>
   <v>       0.33333333      0.25000000      0.25000000</v>
   <v>       0.41666667      0.25000000      0.25000000</v>
   <v>       0.50000000      0.25000000      0.25000000</v>
   <v>       0.00000000      0.33333333      0.25000000</v>
   <v>       0.08333333      0.33333333      0.25000000</v>
   <v>       0.16666667      0.33333333      0.25000000</v>
   <v>       0.25000000      0.33333333      0.25000000</v>
   <v>       0.33333333      0.33333333      0.25000000</v>
   <v>       0.41666667      0.33333333      0.25000000</v>
   <v>       0.50000000      0.33333333      0.25000000</v>
   <v>       0.00000000      0.41666667      0.25000000</v>
   <v>       0.08333333      0.41666667      0.25000000</v>
   <v>       0.16666667      0.41666667      0.25000000</v>
   <v>       0.25000000      0.41666667      0.25000000</v>
   <v>       0.33333333      0.41666667      0.25000000</v>
   <v>       0.41666667      0.41666667      0.25000000</v>
   <v>       0.50000000      0.41666667      0.25000000</v>
   <v>       0.00000000      0.50000000      0.25000000</v>
   <v>       0.08333333      0.50000000      0.25000000</v>
   <v>       0.16666667      0.50000000      0.25000000</v>
   <v>       0.25000000      0.50000000      0.25000000</v>
   <v>       0.33333333      0.50000000      0.25000000</v>
   <v>       0.41666667      0.50000000      0.25000000</v>
   <v>       0.50000000      0.50000000      0.25000000</v>
   <v>       0.00000000      0.33333333      0.33333333</v>
   <v>       0.08333333      0.33333333      0.33333333</v>
   <v>       0.16666667      0.33333333      0.33333333</v>
   <v>       0.25000000      0.33333333      0.33333333</v>
   <v>       0.33333333      0.33333333      0.33333333</v>
   <v>       0.41666667      0.33333333      0.33333333</v>
   <v>       0.50000000      0.33333333      0.33333333</v>
   <v>       0.00000000      0.41666667      0.33333333</v>
   <v>       0.08333333      0.41666667      0.33333333</v>
   <v>       0.16666667      0.41666667      0.33333333</v>
   <v>       0.25000000      0.41666667      0.33333333</v>
   <v>       0.33333333      0.41666667      0.33333333</v>
   <v>       0.41666667      0.41666667      0.33333333</v>
   <v>       0.50000000      0.41666667      0.33333333</v>
   <v>       0.00000000      0.50000000      0.33333333</v>
   <v>       0.08333333      0.50000000      0.33333333</v>
   <v>       0.16666667      0.50000000      0.33333333</v>
   <v>       0.25000000      0.50000000      0.33333333</v>
   <v>       0.33333333      0.50000000      0.33333333</v>
   <v>       0.41666667      0.50000000      0.33333333</v>
   <v>       0.50000000      0.50000000      0.33333333</v>
   <v>       0.00000000      0.41666667      0.41666667</v>
   <v>       0.08333333      0.41666667      0.41666667</v>
   <v>       0.16666667      0.41666667      0.41666667</v>
   <v>       0.25000000      0.41666667      0.41666667</v>
   <v>       0.33333333      0.41666667      0.41666667</v>
   <v>       0.41666667      0.41666667      0.41666667</v>
   <v>       0.50000000      0.41666667      0.41666667</v>
   <v>       0.00000000      0.50000000      0.41666667</v>
   <v>       0.08333333      0.50000000      0.41666667</v>
   <v>       0.16666667      0.50000000      0.41666667</v>
   <v>       0.25000000      0.50000000      0.41666667</v>
   <v>       0.33333333      0.50000000      0.41666667</v>
   <v>       0.41666667      0.50000000      0.41666667</v>
   <v>       0.50000000      0.50000000      0.41666667</v>
   <v>       0.00000000      0.50000000      0.50000000</v>
   <v>       0.08333333      0.50000000      0.50000000</v>
   <v>       0.16666667      0.50000000      0.50000000</v>
   <v>       0.25000000      0.50000000      0.50000000</v>
   <v>       0.33333333      0.50000000      0.50000000</v>
   <v>       0.41666667      0.50000000      0.50000000</v>
   <v>       0.50000000      0.50000000      0.50000000</v>
  </varray>
  <varray name="weights" >
   <v>       0.00057870</v>
   <v>       0.00115741</v>
   <v>       0.00115741</v>
   <v>       0.00115741</v>
   <v>       0.00115741</v>
   <v>       0.00115741</v>
   <v>       0.00057870</v>
   <v>       0.00231481</v>
   <v>       0.00462963</v>
   <v>       0.00462963</v>
   <v>       0.00462963</v>
   <v>       0.00462963</v>
   <v>       0.00462963</v>
   <v>       0.00231481</v>
   <v>       0.00231481</v>
   <v>       0.00462963</v>
   <v>       0.00462963</v>
   <v>       0.00462963</v>
   <v>       0.00462963</v>
   <v>       0.00462963</v>
   <v>       0.00231481</v>
   <v>       0.00231481</v>
   <v>       0.00462963</v>
   <v>       0.00462963</v>
   <v>       0.00462963</v>
   <v>       0.00462963</v>
   <v>       0.00462963</v>
   <v>       0.00231481</v>
   <v>       0.00231481</v>
   <v>       0.00462963</v>
   <v>       0.00462963</v>
   <v>       0.00462963</v>
   <v>       0.00462963</v>
   <v>       0.00462963</v>
   <v>       0.00231481</v>
   <v>       0.00231481</v>
   <v>       0.00462963</v>
   <v>       0.00462963</v>
   <v>       0.00462963</v>
   <v>       0.00462963</v>
   <v>       0.00462963</v>
   <v>       0.00231481</v>
   <v>       0.00115741</v>
   <v>       0.00231481</v>
   <v>       0.00231481</v>
   <v>       0.00231481</v>
   <v>       0.00231481</v>
   <v>       0.00231481</v>
   <v>       0.00115741</v>
   <v>       0.00231481</v>
   <v>       0.00462963</v>
   <v>       0.00462963</v>
   <v>       0.00462963</v>
   <v>       0.00462963</v>
   <v>       0.00462963</v>
   <v>       0.00231481</v>
   <v>       0.00462963</v>
   <v>       0.00925926</v>
   <v>       0.00925926</v>
   <v>       0.00925926</v>
   <v>       0.00925926</v>
   <v>       0.00925926</v>
   <v>       0.00462963</v>
   <v>       0.00462963</v>
   <v>       0.00925926</v>
   <v>       0.00925926</v>
   <v>       0.00925926</v>
   <v>       0.00925926</v>
   <v>       0.00925926</v>
   <v>       0.00462963</v>
   <v>       0.00462963</v>
   <v>       0.00925926</v>
   <v>       0.00925926</v>
   <v>       0.00925926</v>
   <v>       0.00925926</v>
   <v>       0.00925926</v>
   <v>       0.00462963</v>
   <v>       0.00462963</v>
   <v>       0.00925926</v>
   <v>       0.00925926</v>
   <v>       0.00925926</v>
   <v>       0.00925926</v>
   <v>       0.00925926</v>
   <v>       0.00462963</v>
   <v>       0.00231481</v>
   <v>       0.00462963</v>
   <v>       0.00462963</v>
   <v>       0.00462963</v>
   <v>       0.00462963</v>
   <v>       0.00462963</v>
   <v>       0.00231481</v>
   <v>       0.00231481</v>
   <v>       0.00462963</v>
   <v>       0.00462963</v>
   <v>       0.00462963</v>
   <v>       0.00462963</v>
   <v>       0.00462963</v>
   <v>       0.00231481</v>
   <v>       0.00462963</v>
   <v>       0.00925926</v>
   <v>       0.00925926</v>
   <v>       0.00925926</v>
   <v>       0.00925926</v>
   <v>       0.00925926</v>
   <v>       0.00462963</v>
   <v>       0.00462963</v>
   <v>       0.00925926</v>
   <v>       0.00925926</v>
   <v>       0.00925926</v>
   <v>       0.00925926</v>
   <v>       0.00925926</v>
   <v>       0.00462963</v>
   <v>       0.00462963</v>
   <v>       0.00925926</v>
   <v>       0.00925926</v>
   <v>       0.00925926</v>
   <v>       0.00925926</v>
   <v>       0.00925926</v>
   <v>       0.00462963</v>
   <v>       0.00231481</v>
   <v>       0.00462963</v>
   <v>       0.00462963</v>
   <v>       0.00462963</v>
   <v>       0.00462963</v>
   <v>       0.00462963</v>
   <v>       0.00231481</v>
   <v>       0.00231481</v>
   <v>       0.00462963</v>
   <v>       0.00462963</v>
   <v>       0.00462963</v>
   <v>       0.00462963</v>
   <v>       0.00462963</v>
   <v>       0.00231481</v>
   <v>       0.00462963</v>
   <v>       0.00925926</v>
   <v>       0.00925926</v>
   <v>       0.00925926</v>
   <v>       0.00925926</v>
   <v>       0.00925926</v>
   <v>       0.00462963</v>
   <v>       0.00462963</v>
   <v>       0.00925926</v>
   <v>       0.00925926</v>
   <v>       0.00925926</v>
   <v>       0.00925926</v>
   <v>       0.00925926</v>
   <v>       0.00462963</v>
   <v>       0.00231481</v>
   <v>       0.00462963</v>
   <v>       0.00462963</v>
   <v>       0.00462963</v>
   <v>       0.00462963</v>
   <v>       0.00462963</v>
   <v>       0.00231481</v>
   <v>       0.00231481</v>
   <v>       0.00462963</v>
   <v>       0.00462963</v>
   <v>       0.00462963</v>
   <v>       0.00462963</v>
   <v>       0.00462963</v>
   <v>       0.00231481</v>
   <v>       0.00462963</v>
   <v>       0.00925926</v>
   <v>       0.00925926</v>
   <v>       0.00925926</v>
   <v>       0.00925926</v>
   <v>       0.00925926</v>
   <v>       0.00462963</v>
   <v>       0.00231481</v>
   <v>       0.00462963</v>
   <v>       0.00462963</v>
   <v>       0.00462963</v>
   <v>       0.00462963</v>
   <v>       0.00462963</v>
   <v>       0.00231481</v>
   <v>       0.00231481</v>
   <v>       0.00462963</v>
   <v>       0.00462963</v>
   <v>       0.00462963</v>
   <v>       0.00462963</v>
   <v>       0.00462963</v>
   <v>       0.00231481</v>
   <v>       0.00231481</v>
   <v>       0.00462963</v>
   <v>       0.00462963</v>
   <v>       0.00462963</v>
   <v>       0.00462963</v>
   <v>       0.00462963</v>
   <v>       0.00231481</v>
   <v>       0.00057870</v>
   <v>       0.00115741</v>
   <v>       0.00115741</v>
   <v>       0.00115741</v>
   <v>       0.00115741</v>
   <v>       0.00115741</v>
   <v>       0.00057870</v>
  </varray>
 </kpoints>
 <parameters>
  <separator name="general" >
   <i type="string" name="SYSTEM">unknown system</i>
   <i type="logical" name="LCOMPAT"> F  </i>
  </separator>
  <separator name="electronic" >
   <i type="string" name="PREC">accura</i>
   <i name="ENMAX">    750.00000000</i>
   <i name="ENAUG">    412.49600000</i>
   <i name="EDIFF">      0.00000001</i>
   <i type="int" name="IALGO">    38</i>
   <i type="int" name="IWAVPR">    10</i>
   <i type="int" name="NBANDS">   211</i>
   <i name="NELECT">    352.00000000</i>
   <separator name="electronic smearing" >
    <i type="int" name="ISMEAR">     0</i>
    <i name="SIGMA">      0.01000000</i>
   </separator>
   <separator name="electronic projectors" >
    <i type="logical" name="LREAL"> F  </i>
    <v name="ROPT">      0.00000000</v>
    <i type="int" name="LMAXPAW">  -100</i>
    <i type="int" name="LMAXMIX">     2</i>
   </separator>
   <separator name="electronic startup" >
    <i type="int" name="ISTART">     0</i>
    <i type="int" name="ICHARG">     2</i>
    <i type="int" name="INIWAV">     1</i>
   </separator>
   <separator name="electronic spin" >
    <i type="int" name="ISPIN">     1</i>
    <i type="logical" name="LNONCOLLINEAR"> F  </i>
    <v name="MAGMOM">      1.00000000      1.00000000      1.00000000      1.00000000      1.00000000      1.00000000      1.00000000      1.00000000      1.00000000      1.00000000      1.00000000      1.00000000      1.00000000      1.00000000      1.00000000      1.00000000      1.00000000      1.00000000      1.00000000      1.00000000
      1.00000000      1.00000000      1.00000000      1.00000000      1.00000000      1.00000000      1.00000000      1.00000000      1.00000000      1.00000000      1.00000000      1.00000000</v>
    <i name="NUPDOWN">     -1.00000000</i>
    <i type="logical" name="LSORBIT"> F  </i>
    <v name="SAXIS">      0.00000000      0.00000000      1.00000000</v>
    <i type="logical" name="LSPIRAL"> F  </i>
    <v name="QSPIRAL">      0.00000000      0.00000000      0.00000000</v>
    <i type="logical" name="LZEROZ"> F  </i>
   </separator>
   <separator name="electronic exchange-correlation" >
    <i type="string" name="GGA">--</i>
    <i type="int" name="VOSKOWN">     0</i>
    <i type="logical" name="LASPH"> F  </i>
    <i type="logical" name="LMETAGGA"> F  </i>
    <i type="string" name="GGA2">--</i>
   </separator>
   <separator name="electronic convergence" >
    <i type="int" name="NELM">    60</i>
    <i type="int" name="NELMDL">    -5</i>
    <i type="int" name="NELMIN">     2</i>
    <i name="ENINI">    750.00000000</i>
    <separator name="electronic convergence detail" >
     <i type="logical" name="LDIAG"> T  </i>
     <i name="WEIMIN">      0.00000000</i>
     <i name="EBREAK">      0.00000000</i>
     <i name="DEPER">      0.30000000</i>
     <i type="int" name="NRMM">     4</i>
     <i name="TIME">      0.10000000</i>
    </separator>
   </separator>
   <separator name="electronic mixer" >
    <i name="AMIX">      0.40000000</i>
    <i name="BMIX">      1.00000000</i>
    <i name="AMIN">      0.10000000</i>
    <i name="AMIX_MAG">      1.60000000</i>
    <i name="BMIX_MAG">      1.00000000</i>
    <separator name="electronic mixer details" >
     <i type="int" name="IMIX">     4</i>
     <i type="int" name="MAXMIX">   -45</i>
     <i name="WC">    100.00000000</i>
     <i type="int" name="INIMIX">     1</i>
     <i type="int" name="MIXPRE">     1</i>
     <i type="int" name="MREMOVE">     5</i>
    </separator>
   </separator>
   <separator name="electronic dipolcorrection" >
    <i type="int" name="IDIPOL">     0</i>
    <i type="logical" name="LDIPOL"> F  </i>
    <v name="DIPOL">   -100.00000000</v>
    <i name="EFIELD">      0.00000000</i>
   </separator>
  </separator>
  <separator name="grids" >
   <i type="int" name="NGX">    80</i>
   <i type="int" name="NGY">    80</i>
   <i type="int" name="NGZ">    80</i>
   <i type="int" name="NGXF">   160</i>
   <i type="int" name="NGYF">   160</i>
   <i type="int" name="NGZF">   160</i>
   <i type="logical" name="ADDGRID"> T  </i>
  </separator>
  <separator name="ionic" >
   <i type="int" name="NSW">     0</i>
   <i type="int" name="IBRION">    -1</i>
   <i type="int" name="ISIF">     2</i>
   <i name="PSTRESS">      0.00000000</i>
   <i name="EDIFFG">      0.00000010</i>
   <i type="int" name="NFREE">     0</i>
   <i name="POTIM">      0.50000000</i>
   <i name="SMASS">     -3.00000000</i>
  </separator>
  <separator name="ionic md" >
   <i name="TEBEG">      0.00010000</i>
   <i name="TEEND">      0.00010000</i>
   <i type="int" name="NBLOCK">     1</i>
   <i type="int" name="KBLOCK">     1</i>
   <i type="int" name="NPACO">   256</i>
   <i name="APACO">     16.00000000</i>
  </separator>
  <separator name="symmetry" >
   <i type="int" name="ISYM">     2</i>
   <i name="SYMPREC">      0.00001000</i>
  </separator>
  <separator name="dos" >
   <i type="logical" name="LORBIT"> F  </i>
   <v name="RWIGS">     -1.00000000</v>
   <i type="int" name="NEDOS">   301</i>
   <i name="EMIN">     10.00000000</i>
   <i name="EMAX">    -10.00000000</i>
  </separator>
  <separator name="writing" >
   <i type="int" name="NWRITE">     2</i>
   <i type="logical" name="LWAVE"> F  </i>
   <i type="logical" name="LCHARG"> F  </i>
   <i type="logical" name="LPARD"> F  </i>
   <i type="logical" name="LVTOT"> F  </i>
   <i type="logical" name="LELF"> F  </i>
   <i type="logical" name="LOPTICS"> F  </i>
   <i name="STM">      0.00000000</i>
  </separator>
  <separator name="performance" >
   <i type="int" name="NPAR">     8</i>
   <i type="int" name="NSIM">     4</i>
   <i type="int" name="NBLK">   256</i>
   <i type="logical" name="LPLANE"> T  </i>
   <i type="logical" name="LCRITICAL_MEM"> F  </i>
   <i type="logical" name="LSCALAPACK"> F  </i>
   <i type="logical" name="LSCALU"> F  </i>
   <i type="logical" name="LASYNC"> F  </i>
  </separator>
  <separator name="miscellaneous" >
   <i type="int" name="IDIOT">     3</i>
   <i type="logical" name="LMUSIC"> F  </i>
   <v name="POMASS">    107.86800000</v>
   <i type="logical" name="LCORR"> T  </i>
  </separator>
  <i type="logical" name="LREAL_COMPAT"> F  </i>
  <i type="logical" name="GGA_COMPAT"> T  </i>
  <i type="logical" name="LBERRY"> F  </i>
  <i type="int" name="ICORELEVEL">     0</i>
  <i type="logical" name="LDAU"> F  </i>
  <i type="int" name="I_CONSTRAINED_M">     0</i>
 </parameters>
 <atominfo>
  <atoms>      32</atoms>
  <types>       1</types>
  <array name="atoms" >
   <dimension dim="1">ion</dimension>
   <field type="string">element</field>
   <field type="int">atomtype</field>
   <set>
    <rc><c>Ag</c><c>   1</c></rc>
    <rc><c>Ag</c><c>   1</c></rc>
    <rc><c>Ag</c><c>   1</c></rc>
    <rc><c>Ag</c><c>   1</c></rc>
    <rc><c>Ag</c><c>   1</c></rc>
    <rc><c>Ag</c><c>   1</c></rc>
    <rc><c>Ag</c><c>   1</c></rc>
    <rc><c>Ag</c><c>   1</c></rc>
    <rc><c>Ag</c><c>   1</c></rc>
    <rc><c>Ag</c><c>   1</c></rc>
    <rc><c>Ag</c><c>   1</c></rc>
    <rc><c>Ag</c><c>   1</c></rc>
    <rc><c>Ag</c><c>   1</c></rc>
    <rc><c>Ag</c><c>   1</c></rc>
    <rc><c>Ag</c><c>   1</c></rc>
    <rc><c>Ag</c><c>   1</c></rc>
    <rc><c>Ag</c><c>   1</c></rc>
    <rc><c>Ag</c><c>   1</c></rc>
    <rc><c>Ag</c><c>   1</c></rc>
    <rc><c>Ag</c><c>   1</c></rc>
    <rc><c>Ag</c><c>   1</c></rc>
    <rc><c>Ag</c><c>   1</c></rc>
    <rc><c>Ag</c><c>   1</c></rc>
    <rc><c>Ag</c><c>   1</c></rc>
    <rc><c>Ag</c><c>   1</c></rc>
    <rc><c>Ag</c><c>   1</c></rc>
    <rc><c>Ag</c><c>   1</c></rc>
    <rc><c>Ag</c><c>   1</c></rc>
    <rc><c>Ag</c><c>   1</c></rc>
    <rc><c>Ag</c><c>   1</c></rc>
    <rc><c>Ag</c><c>   1</c></rc>
    <rc><c>Ag</c><c>   1</c></rc>
   </set>
  </array>
  <array name="atomtypes" >
   <dimension dim="1">type</dimension>
   <field type="int">atomspertype</field>
   <field type="string">element</field>
   <field>mass</field>
   <field>valence</field>
   <field type="string">pseudopotential</field>
   <set>
    <rc><c>  32</c><c>Ag</c><c>    107.86800000</c><c>     11.00000000</c><c> PAW_PBE Ag 06Sep2000                   </c></rc>
   </set>
  </array>
 </atominfo>
 <structure name="initialpos" >
  <crystal>
   <varray name="basis" >
    <v>       8.40971406      0.00000000      0.00000000</v>
    <v>       0.00000000      8.40971406      0.00000000</v>
    <v>       0.00000000      0.00000000      8.40971406</v>
   </varray>
   <i name="volume">    594.76265084</i>
   <varray name="rec_basis" >
    <v>       0.11891011      0.00000000      0.00000000</v>
    <v>       0.00000000      0.11891011      0.00000000</v>
    <v>       0.00000000      0.00000000      0.11891011</v>
   </varray>
  </crystal>
  <varray name="positions" >
   <v>       0.00118910      0.00000000      0.00000000</v>
   <v>       0.50000000      0.00000000      0.00000000</v>
   <v>       0.00000000      0.50000000      0.00000000</v>
   <v>       0.50000000      0.50000000      0.00000000</v>
   <v>       0.00000000      0.00000000      0.50000000</v>
   <v>       0.50000000      0.00000000      0.50000000</v>
   <v>       0.00000000      0.50000000      0.50000000</v>
   <v>       0.50000000      0.50000000      0.50000000</v>
   <v>       0.25000000      0.25000000      0.00000000</v>
   <v>       0.75000000      0.25000000      0.00000000</v>
   <v>       0.25000000      0.75000000      0.00000000</v>
   <v>       0.75000000      0.75000000      0.00000000</v>
   <v>       0.25000000      0.25000000      0.50000000</v>
   <v>       0.75000000      0.25000000      0.50000000</v>
   <v>       0.25000000      0.75000000      0.50000000</v>
   <v>       0.75000000      0.75000000      0.50000000</v>
   <v>       0.25000000      0.00000000      0.25000000</v>
   <v>       0.75000000      0.00000000      0.25000000</v>
   <v>       0.25000000      0.50000000      0.25000000</v>
   <v>       0.75000000      0.50000000      0.25000000</v>
   <v>       0.25000000      0.00000000      0.75000000</v>
   <v>       0.75000000      0.00000000      0.75000000</v>
   <v>       0.25000000      0.50000000      0.75000000</v>
   <v>       0.75000000      0.50000000      0.75000000</v>
   <v>       0.00000000      0.25000000      0.25000000</v>
   <v>       0.50000000      0.25000000      0.25000000</v>
   <v>       0.00000000      0.75000000      0.25000000</v>
   <v>       0.50000000      0.75000000      0.25000000</v>
   <v>       0.00000000      0.25000000      0.75000000</v>
   <v>       0.50000000      0.25000000      0.75000000</v>
   <v>       0.00000000      0.75000000      0.75000000</v>
   <v>       0.50000000      0.75000000      0.75000000</v>
  </varray>
 </structure>
 <calculation>
  <scstep>
   <time name="dav"> 2020.62 2604.86</time>
   <time name="total"> 2035.02 2647.95</time>
   <energy>
    <i name="alphaZ">   3057.34687163</i>
    <i name="ewald"> -30397.38661571</i>
    <i name="hartreedc">  -6910.84814527</i>
    <i name="XCdc">   -349.59288967</i>
    <i name="pawpsdc">  27861.41421209</i>
    <i name="pawaedc"> -26376.63839568</i>
    <i name="eentropy">     -0.00051884</i>
    <i name="bandstr">   4140.95745817</i>
    <i name="atom">  33197.19690173</i>
    <i name="e_fr_energy">   4222.44887846</i>
    <i name="e_wo_entrp">   4222.44939730</i>
    <i name="e_0_energy">   4222.44913788</i>
   </energy>
  </scstep>
  <scstep>
   <time name="dav"> 2023.54 2467.46</time>
   <time name="total"> 2023.66 2467.59</time>
   <energy>
    <i name="e_fr_energy">    117.39836362</i>
    <i name="e_wo_entrp">    117.39877009</i>
    <i name="e_0_energy">    117.39856685</i>
   </energy>
  </scstep>
  <scstep>
   <time name="dav"> 1955.30 2176.61</time>
   <time name="total"> 1955.42 2176.73</time>
   <energy>
    <i name="e_fr_energy">    -93.07878979</i>
    <i name="e_wo_entrp">    -93.07806795</i>
    <i name="e_0_energy">    -93.07842887</i>
   </energy>
  </scstep>
  <scstep>
   <time name="dav"> 2386.16 3160.28</time>
   <time name="total"> 2386.28 3160.40</time>
   <energy>
    <i name="e_fr_energy">    -97.12788364</i>
    <i name="e_wo_entrp">    -97.12702651</i>
    <i name="e_0_energy">    -97.12745507</i>
   </energy>
  </scstep>
  <scstep>
   <time name="dav"> 3275.98 4908.10</time>
   <time name="total"> 3537.8111979.15</time>
   <energy>
    <i name="e_fr_energy">    -97.15011520</i>
    <i name="e_wo_entrp">    -97.14925779</i>
    <i name="e_0_energy">    -97.14968649</i>
   </energy>
  </scstep>
  <scstep>
   <time name="dav"> 3597.18 6045.77</time>
   <time name="total"> 3691.12 6197.38</time>
   <energy>
    <i name="e_fr_energy">    -90.56439900</i>
    <i name="e_wo_entrp">    -90.56376416</i>
    <i name="e_0_energy">    -90.56408158</i>
   </energy>
  </scstep>
  <scstep>
   <time name="dav"> 2597.28 2597.05</time>
   <time name="total"> 2737.91 2738.36</time>
   <energy>
    <i name="e_fr_energy">    -90.41843737</i>
    <i name="e_wo_entrp">    -90.41779763</i>
    <i name="e_0_energy">    -90.41811750</i>
   </energy>
  </scstep>
  <scstep>
   <time name="dav"> 2459.34 2482.76</time>
   <time name="total"> 2565.87 2591.22</time>
   <energy>
    <i name="e_fr_energy">    -90.34463299</i>
    <i name="e_wo_entrp">    -90.34400112</i>
    <i name="e_0_energy">    -90.34431706</i>
   </energy>
  </scstep>
  <scstep>
   <time name="dav"> 2411.48 2498.38</time>
   <time name="total"> 2491.72 2584.29</time>
   <energy>
    <i name="e_fr_energy">    -90.34558057</i>
    <i name="e_wo_entrp">    -90.34495391</i>
    <i name="e_0_energy">    -90.34526724</i>
   </energy>
  </scstep>
  <scstep>
   <time name="dav"> 2265.50 2364.90</time>
   <time name="total"> 2347.34 2461.70</time>
   <energy>
    <i name="e_fr_energy">    -90.34547715</i>
    <i name="e_wo_entrp">    -90.34484816</i>
    <i name="e_0_energy">    -90.34516266</i>
   </energy>
  </scstep>
  <scstep>
   <time name="dav"> 2177.56 2282.55</time>
   <time name="total"> 2256.48 2375.09</time>
   <energy>
    <i name="e_fr_energy">    -90.34547326</i>
    <i name="e_wo_entrp">    -90.34484396</i>
    <i name="e_0_energy">    -90.34515861</i>
   </energy>
  </scstep>
  <scstep>
   <time name="dav"> 2260.78 2523.59</time>
   <time name="total"> 2344.91 2615.88</time>
   <energy>
    <i name="e_fr_energy">    -90.34546943</i>
    <i name="e_wo_entrp">    -90.34484006</i>
    <i name="e_0_energy">    -90.34515474</i>
   </energy>
  </scstep>
  <scstep>
   <time name="dav"> 1972.28 2490.94</time>
   <time name="total"> 2036.04 2565.33</time>
   <energy>
    <i name="e_fr_energy">    -90.34546745</i>
    <i name="e_wo_entrp">    -90.34483807</i>
    <i name="e_0_energy">    -90.34515276</i>
   </energy>
  </scstep>
  <scstep>
   <time name="dav"> 1668.55 2529.14</time>
   <time name="total"> 1741.67 2631.79</time>
   <energy>
    <i name="e_fr_energy">    -90.34546727</i>
    <i name="e_wo_entrp">    -90.34483789</i>
    <i name="e_0_energy">    -90.34515258</i>
   </energy>
  </scstep>
  <scstep>
   <time name="dav"> 4624.56 7050.89</time>
   <time name="total"> 4702.81 7181.85</time>
   <energy>
    <i name="alphaZ">   3057.34687163</i>
    <i name="ewald"> -30397.38661571</i>
    <i name="hartreedc">  -6542.18916129</i>
    <i name="XCdc">   -363.22029569</i>
    <i name="pawpsdc">  27686.32110522</i>
    <i name="pawaedc"> -26264.13802758</i>
    <i name="eentropy">     -0.00062938</i>
    <i name="bandstr">   -464.27561622</i>
    <i name="atom">  33197.19690173</i>
    <i name="e_fr_energy">    -90.34546728</i>
    <i name="e_wo_entrp">    -90.34483790</i>
    <i name="e_0_energy">    -90.34515259</i>
   </energy>
  </scstep>
  <structure>
   <crystal>
    <varray name="basis" >
     <v>       8.40971406      0.00000000      0.00000000</v>
     <v>       0.00000000      8.40971406      0.00000000</v>
     <v>       0.00000000      0.00000000      8.40971406</v>
    </varray>
    <i name="volume">    594.76265084</i>
    <varray name="rec_basis" >
     <v>       0.11891011      0.00000000      0.00000000</v>
     <v>       0.00000000      0.11891011      0.00000000</v>
     <v>       0.00000000      0.00000000      0.11891011</v>
    </varray>
   </crystal>
   <varray name="positions" >
    <v>       0.00118910      0.00000000      0.00000000</v>
    <v>       0.50000000      0.00000000      0.00000000</v>
    <v>       0.00000000      0.50000000      0.00000000</v>
    <v>       0.50000000      0.50000000      0.00000000</v>
    <v>       0.00000000      0.00000000      0.50000000</v>
    <v>       0.50000000      0.00000000      0.50000000</v>
    <v>       0.00000000      0.50000000      0.50000000</v>
    <v>       0.50000000      0.50000000      0.50000000</v>
    <v>       0.25000000      0.25000000      0.00000000</v>
    <v>       0.75000000      0.25000000      0.00000000</v>
    <v>       0.25000000      0.75000000      0.00000000</v>
    <v>       0.75000000      0.75000000      0.00000000</v>
    <v>       0.25000000      0.25000000      0.50000000</v>
    <v>       0.75000000      0.25000000      0.50000000</v>
    <v>       0.25000000      0.75000000      0.50000000</v>
    <v>       0.75000000      0.75000000      0.50000000</v>
    <v>       0.25000000      0.00000000      0.25000000</v>
    <v>       0.75000000      0.00000000      0.25000000</v>
    <v>       0.25000000      0.50000000      0.25000000</v>
    <v>       0.75000000      0.50000000      0.25000000</v>
    <v>       0.25000000      0.00000000      0.75000000</v>
    <v>       0.75000000      0.00000000      0.75000000</v>
    <v>       0.25000000      0.50000000      0.75000000</v>
    <v>       0.75000000      0.50000000      0.75000000</v>
    <v>       0.00000000      0.25000000      0.25000000</v>
    <v>       0.50000000      0.25000000      0.25000000</v>
    <v>       0.00000000      0.75000000      0.25000000</v>
    <v>       0.50000000      0.75000000      0.25000000</v>
    <v>       0.00000000      0.25000000      0.75000000</v>
    <v>       0.50000000      0.25000000      0.75000000</v>
    <v>       0.00000000      0.75000000      0.75000000</v>
    <v>       0.50000000      0.75000000      0.75000000</v>
   </varray>
  </structure>
  <varray name="forces" >
   <v>      -0.03810470     -0.00000000      0.00000000</v>
   <v>       0.00106042      0.00000000      0.00000000</v>
   <v>      -0.00031093     -0.00000000      0.00000000</v>
   <v>      -0.00041198     -0.00000000      0.00000000</v>
   <v>      -0.00031093      0.00000000     -0.00000000</v>
   <v>      -0.00041198     -0.00000000     -0.00000000</v>
   <v>      -0.00012115      0.00000000      0.00000000</v>
   <v>      -0.00010739     -0.00000000     -0.00000000</v>
   <v>       0.00486140      0.00569006      0.00000000</v>
   <v>       0.00469718     -0.00546882     -0.00000000</v>
   <v>       0.00486140     -0.00569006      0.00000000</v>
   <v>       0.00469718      0.00546882     -0.00000000</v>
   <v>       0.00021446      0.00004380     -0.00000000</v>
   <v>       0.00021436     -0.00004363     -0.00000000</v>
   <v>       0.00021446     -0.00004380     -0.00000000</v>
   <v>       0.00021436      0.00004363      0.00000000</v>
   <v>       0.00486140     -0.00000000      0.00569006</v>
   <v>       0.00469718      0.00000000     -0.00546882</v>
   <v>       0.00021446      0.00000000      0.00004380</v>
   <v>       0.00021436     -0.00000000     -0.00004363</v>
   <v>       0.00486140      0.00000000     -0.00569006</v>
   <v>       0.00469718      0.00000000      0.00546882</v>
   <v>       0.00021446      0.00000000     -0.00004380</v>
   <v>       0.00021436      0.00000000      0.00004363</v>
   <v>      -0.00090861     -0.00000739     -0.00000739</v>
   <v>       0.00060088      0.00000132      0.00000132</v>
   <v>      -0.00090861      0.00000739     -0.00000739</v>
   <v>       0.00060088     -0.00000132      0.00000132</v>
   <v>      -0.00090861     -0.00000739      0.00000739</v>
   <v>       0.00060088      0.00000132     -0.00000132</v>
   <v>      -0.00090861      0.00000739      0.00000739</v>
   <v>       0.00060088     -0.00000132     -0.00000132</v>
  </varray>
  <varray name="stress" >
   <v>     -23.99444742      0.00000000      0.00000000</v>
   <v>       0.00000000    -23.99481344      0.00000000</v>
   <v>      -0.00000000      0.00000000    -23.99481344</v>
  </varray>
  <energy>
   <i name="e_fr_energy">    -90.34546728</i>
   <i name="e_wo_entrp">    -90.34515259</i>
   <i name="e_0_energy">     -0.00062938</i>
  </energy>
  <eigenvalues>
   <array>
    <dimension dim="1">band</dimension>
    <dimension dim="2">kpoint</dimension>
    <dimension dim="3">spin</dimension>
    <field>eigene</field>
    <field>occ</field>
    <set>
     <set comment="spin 1">
      <set comment="kpoint 1">
       <r>  -4.3704  1.0000</r>
       <r>  -3.1493  1.0000</r>
       <r>  -3.1493  1.0000</r>
       <r>  -3.1493  1.0000</r>
       <r>  -3.1208  1.0000</r>
       <r>  -3.1208  1.0000</r>
       <r>  -3.1208  1.0000</r>
       <r>  -3.1208  1.0000</r>
       <r>  -3.0410  1.0000</r>
       <r>  -3.0410  1.0000</r>
       <r>  -3.0410  1.0000</r>
       <r>  -2.7247  1.0000</r>
       <r>  -2.7230  1.0000</r>
       <r>  -2.7230  1.0000</r>
       <r>  -2.7230  1.0000</r>
       <r>  -2.7230  1.0000</r>
       <r>  -2.7213  1.0000</r>
       <r>  -2.4915  1.0000</r>
       <r>  -2.4900  1.0000</r>
       <r>  -2.4900  1.0000</r>
       <r>  -2.4900  1.0000</r>
       <r>  -2.4900  1.0000</r>
       <r>  -2.4885  1.0000</r>
       <r>  -2.4306  1.0000</r>
       <r>  -2.4291  1.0000</r>
       <r>  -2.4291  1.0000</r>
       <r>  -2.4290  1.0000</r>
       <r>  -2.4290  1.0000</r>
       <r>  -2.4275  1.0000</r>
       <r>  -2.2093  1.0000</r>
       <r>  -2.2093  1.0000</r>
       <r>  -2.2090  1.0000</r>
       <r>  -2.2083  1.0000</r>
       <r>  -2.2080  1.0000</r>
       <r>  -2.2080  1.0000</r>
       <r>  -2.2080  1.0000</r>
       <r>  -2.2080  1.0000</r>
       <r>  -2.2077  1.0000</r>
       <r>  -2.2070  1.0000</r>
       <r>  -2.2067  1.0000</r>
       <r>  -2.2067  1.0000</r>
       <r>  -2.0227  1.0000</r>
       <r>  -2.0208  1.0000</r>
       <r>  -2.0208  1.0000</r>
       <r>  -2.0200  1.0000</r>
       <r>  -2.0199  1.0000</r>
       <r>  -2.0199  1.0000</r>
       <r>  -2.0199  1.0000</r>
       <r>  -2.0199  1.0000</r>
       <r>  -2.0199  1.0000</r>
       <r>  -2.0191  1.0000</r>
       <r>  -2.0191  1.0000</r>
       <r>  -2.0173  1.0000</r>
       <r>  -1.9692  1.0000</r>
       <r>  -1.9692  1.0000</r>
       <r>  -1.9676  1.0000</r>
       <r>  -1.9676  1.0000</r>
       <r>  -1.9676  1.0000</r>
       <r>  -1.9675  1.0000</r>
       <r>  -1.9675  1.0000</r>
       <r>  -1.9675  1.0000</r>
       <r>  -1.9675  1.0000</r>
       <r>  -1.9674  1.0000</r>
       <r>  -1.9658  1.0000</r>
       <r>  -1.9658  1.0000</r>
       <r>  -1.7681  1.0000</r>
       <r>  -1.7681  1.0000</r>
       <r>  -1.7681  1.0000</r>
       <r>  -1.7680  1.0000</r>
       <r>  -1.7680  1.0000</r>
       <r>  -1.7680  1.0000</r>
       <r>  -1.7680  1.0000</r>
       <r>  -1.7680  1.0000</r>
       <r>  -1.7524  1.0000</r>
       <r>  -1.7524  1.0000</r>
       <r>  -1.7524  1.0000</r>
       <r>  -1.6453  1.0000</r>
       <r>  -1.6434  1.0000</r>
       <r>  -1.6431  1.0000</r>
       <r>  -1.6431  1.0000</r>
       <r>  -1.6430  1.0000</r>
       <r>  -1.6430  1.0000</r>
       <r>  -1.6430  1.0000</r>
       <r>  -1.6429  1.0000</r>
       <r>  -1.6428  1.0000</r>
       <r>  -1.6428  1.0000</r>
       <r>  -1.6425  1.0000</r>
       <r>  -1.6406  1.0000</r>
       <r>  -1.1817  1.0000</r>
       <r>  -1.1811  1.0000</r>
       <r>  -1.1803  1.0000</r>
       <r>  -1.1803  1.0000</r>
       <r>  -1.1799  1.0000</r>
       <r>  -1.1799  1.0000</r>
       <r>  -1.1799  1.0000</r>
       <r>  -1.1799  1.0000</r>
       <r>  -1.1795  1.0000</r>
       <r>  -1.1795  1.0000</r>
       <r>  -1.1787  1.0000</r>
       <r>  -1.1782  1.0000</r>
       <r>  -0.9970  1.0000</r>
       <r>  -0.9970  1.0000</r>
       <r>  -0.9952  1.0000</r>
       <r>  -0.9952  1.0000</r>
       <r>  -0.9950  1.0000</r>
       <r>  -0.9950  1.0000</r>
       <r>  -0.9950  1.0000</r>
       <r>  -0.9950  1.0000</r>
       <r>  -0.9949  1.0000</r>
       <r>  -0.9949  1.0000</r>
       <r>  -0.9932  1.0000</r>
       <r>  -0.9932  1.0000</r>
       <r>  -0.8647  1.0000</r>
       <r>  -0.8646  1.0000</r>
       <r>  -0.8502  1.0000</r>
       <r>  -0.8502  1.0000</r>
       <r>  -0.8485  1.0000</r>
       <r>  -0.8484  1.0000</r>
       <r>  -0.8481  1.0000</r>
       <r>  -0.8480  1.0000</r>
       <r>  -0.8480  1.0000</r>
       <r>  -0.8480  1.0000</r>
       <r>  -0.8480  1.0000</r>
       <r>  -0.8477  1.0000</r>
       <r>  -0.8463  1.0000</r>
       <r>  -0.8463  1.0000</r>
       <r>  -0.8439  1.0000</r>
       <r>  -0.8431  1.0000</r>
       <r>  -0.8431  1.0000</r>
       <r>  -0.8426  1.0000</r>
       <r>  -0.8426  1.0000</r>
       <r>  -0.8418  1.0000</r>
       <r>  -0.7932  1.0000</r>
       <r>  -0.7916  1.0000</r>
       <r>  -0.7916  1.0000</r>
       <r>  -0.7916  1.0000</r>
       <r>  -0.7916  1.0000</r>
       <r>  -0.7900  1.0000</r>
       <r>  -0.5453  1.0000</r>
       <r>  -0.5445  1.0000</r>
       <r>  -0.5445  1.0000</r>
       <r>  -0.5445  1.0000</r>
       <r>  -0.5445  1.0000</r>
       <r>  -0.5436  1.0000</r>
       <r>  -0.2094  1.0000</r>
       <r>  -0.2094  1.0000</r>
       <r>  -0.2094  1.0000</r>
       <r>  -0.1809  1.0000</r>
       <r>  -0.1809  1.0000</r>
       <r>  -0.1809  1.0000</r>
       <r>  -0.1809  1.0000</r>
       <r>  -0.1809  1.0000</r>
       <r>  -0.1809  1.0000</r>
       <r>  -0.1809  1.0000</r>
       <r>  -0.1809  1.0000</r>
       <r>  -0.0036  1.0000</r>
       <r>  -0.0033  1.0000</r>
       <r>  -0.0033  1.0000</r>
       <r>  -0.0033  1.0000</r>
       <r>  -0.0033  1.0000</r>
       <r>  -0.0033  1.0000</r>
       <r>  -0.0025  1.0000</r>
       <r>  -0.0024  1.0000</r>
       <r>  -0.0024  1.0000</r>
       <r>  -0.0024  1.0000</r>
       <r>  -0.0024  1.0000</r>
       <r>  -0.0022  1.0000</r>
       <r>   2.1735  1.0000</r>
       <r>   2.1743  1.0000</r>
       <r>   2.1743  1.0000</r>
       <r>   2.1753  1.0000</r>
       <r>   2.1756  1.0000</r>
       <r>   2.1756  1.0000</r>
       <r>   2.1756  1.0000</r>
       <r>   2.1756  1.0000</r>
       <r>   2.1759  1.0000</r>
       <r>   2.1769  1.0000</r>
       <r>   2.1769  1.0000</r>
       <r>   2.1777  1.0000</r>
       <r>   2.6099  1.0000</r>
       <r>   2.6099  1.0000</r>
       <r>   2.6099  1.0000</r>
       <r>   2.6099  1.0000</r>
       <r>   4.4793  0.0000</r>
       <r>   4.4793  0.0000</r>
       <r>   4.4794  0.0000</r>
       <r>   5.9440  0.0000</r>
       <r>   5.9440  0.0000</r>
       <r>   5.9440  0.0000</r>
       <r>   5.9441  0.0000</r>
       <r>   8.4292  0.0000</r>
       <r>   8.4292  0.0000</r>
       <r>   8.4318  0.0000</r>
       <r>   8.4318  0.0000</r>
       <r>   8.4321  0.0000</r>
       <r>   8.4321  0.0000</r>
       <r>   8.4321  0.0000</r>
       <r>   8.4321  0.0000</r>
       <r>   8.4324  0.0000</r>
       <r>   8.4324  0.0000</r>
       <r>   8.4349  0.0000</r>
       <r>   8.4349  0.0000</r>
       <r>   8.8936  0.0000</r>
       <r>   8.8936  0.0000</r>
       <r>   8.8936  0.0000</r>
       <r>   9.2801  0.0000</r>
       <r>   9.2801  0.0000</r>
       <r>   9.2801  0.0000</r>
       <r>   9.2802  0.0000</r>
       <r>   9.2802  0.0000</r>
       <r>   9.2802  0.0000</r>
       <r>  10.5039  0.0000</r>
       <r>  10.5053  0.0000</r>
       <r>  10.5053  0.0000</r>
       <r>  10.5053  0.0000</r>
       <r>  10.5067  0.0000</r>
      </set>
      <set comment="kpoint 2">
       <r>  -4.3534  1.0000</r>
       <r>  -3.1426  1.0000</r>
       <r>  -3.1406  1.0000</r>
       <r>  -3.1406  1.0000</r>
       <r>  -3.1128  1.0000</r>
       <r>  -3.1128  1.0000</r>
       <r>  -3.1128  1.0000</r>
       <r>  -3.1128  1.0000</r>
       <r>  -3.0360  1.0000</r>
       <r>  -3.0333  1.0000</r>
       <r>  -3.0333  1.0000</r>
       <r>  -2.8168  1.0000</r>
       <r>  -2.7120  1.0000</r>
       <r>  -2.7120  1.0000</r>
       <r>  -2.7120  1.0000</r>
       <r>  -2.7120  1.0000</r>
       <r>  -2.6893  1.0000</r>
       <r>  -2.5123  1.0000</r>
       <r>  -2.5059  1.0000</r>
       <r>  -2.5058  1.0000</r>
       <r>  -2.4836  1.0000</r>
       <r>  -2.4836  1.0000</r>
       <r>  -2.4836  1.0000</r>
       <r>  -2.4835  1.0000</r>
       <r>  -2.4248  1.0000</r>
       <r>  -2.4248  1.0000</r>
       <r>  -2.4248  1.0000</r>
       <r>  -2.4247  1.0000</r>
       <r>  -2.3447  1.0000</r>
       <r>  -2.2696  1.0000</r>
       <r>  -2.2696  1.0000</r>
       <r>  -2.2696  1.0000</r>
       <r>  -2.2696  1.0000</r>
       <r>  -2.2252  1.0000</r>
       <r>  -2.2251  1.0000</r>
       <r>  -2.2251  1.0000</r>
       <r>  -2.2251  1.0000</r>
       <r>  -2.1885  1.0000</r>
       <r>  -2.1885  1.0000</r>
       <r>  -2.1885  1.0000</r>
       <r>  -2.1885  1.0000</r>
       <r>  -2.1342  1.0000</r>
       <r>  -2.1342  1.0000</r>
       <r>  -2.0554  1.0000</r>
       <r>  -2.0553  1.0000</r>
       <r>  -2.0553  1.0000</r>
       <r>  -2.0553  1.0000</r>
       <r>  -1.9926  1.0000</r>
       <r>  -1.9921  1.0000</r>
       <r>  -1.9921  1.0000</r>
       <r>  -1.9921  1.0000</r>
       <r>  -1.9874  1.0000</r>
       <r>  -1.9874  1.0000</r>
       <r>  -1.9874  1.0000</r>
       <r>  -1.9870  1.0000</r>
       <r>  -1.9702  1.0000</r>
       <r>  -1.9702  1.0000</r>
       <r>  -1.9702  1.0000</r>
       <r>  -1.9702  1.0000</r>
       <r>  -1.9668  1.0000</r>
       <r>  -1.9668  1.0000</r>
       <r>  -1.9668  1.0000</r>
       <r>  -1.9666  1.0000</r>
       <r>  -1.7893  1.0000</r>
       <r>  -1.7893  1.0000</r>
       <r>  -1.7706  1.0000</r>
       <r>  -1.7706  1.0000</r>
       <r>  -1.7706  1.0000</r>
       <r>  -1.7706  1.0000</r>
       <r>  -1.7622  1.0000</r>
       <r>  -1.7622  1.0000</r>
       <r>  -1.7622  1.0000</r>
       <r>  -1.7622  1.0000</r>
       <r>  -1.7585  1.0000</r>
       <r>  -1.7466  1.0000</r>
       <r>  -1.7466  1.0000</r>
       <r>  -1.6826  1.0000</r>
       <r>  -1.6826  1.0000</r>
       <r>  -1.6826  1.0000</r>
       <r>  -1.6826  1.0000</r>
       <r>  -1.6525  1.0000</r>
       <r>  -1.6525  1.0000</r>
       <r>  -1.6525  1.0000</r>
       <r>  -1.6525  1.0000</r>
       <r>  -1.6019  1.0000</r>
       <r>  -1.6019  1.0000</r>
       <r>  -1.6019  1.0000</r>
       <r>  -1.6019  1.0000</r>
       <r>  -1.2076  1.0000</r>
       <r>  -1.2075  1.0000</r>
       <r>  -1.2075  1.0000</r>
       <r>  -1.2075  1.0000</r>
       <r>  -1.1720  1.0000</r>
       <r>  -1.1719  1.0000</r>
       <r>  -1.1719  1.0000</r>
       <r>  -1.1719  1.0000</r>
       <r>  -1.1427  1.0000</r>
       <r>  -1.1427  1.0000</r>
       <r>  -1.1427  1.0000</r>
       <r>  -1.1426  1.0000</r>
       <r>  -1.1044  1.0000</r>
       <r>  -1.1044  1.0000</r>
       <r>  -1.0801  1.0000</r>
       <r>  -1.0801  1.0000</r>
       <r>  -1.0801  1.0000</r>
       <r>  -1.0800  1.0000</r>
       <r>  -0.9955  1.0000</r>
       <r>  -0.9955  1.0000</r>
       <r>  -0.9955  1.0000</r>
       <r>  -0.9955  1.0000</r>
       <r>  -0.9909  1.0000</r>
       <r>  -0.8993  1.0000</r>
       <r>  -0.8993  1.0000</r>
       <r>  -0.8992  1.0000</r>
       <r>  -0.8992  1.0000</r>
       <r>  -0.8818  1.0000</r>
       <r>  -0.8818  1.0000</r>
       <r>  -0.8707  1.0000</r>
       <r>  -0.8620  1.0000</r>
       <r>  -0.8432  1.0000</r>
       <r>  -0.8431  1.0000</r>
       <r>  -0.8431  1.0000</r>
       <r>  -0.8431  1.0000</r>
       <r>  -0.8276  1.0000</r>
       <r>  -0.8275  1.0000</r>
       <r>  -0.8191  1.0000</r>
       <r>  -0.8191  1.0000</r>
       <r>  -0.8191  1.0000</r>
       <r>  -0.8190  1.0000</r>
       <r>  -0.7840  1.0000</r>
       <r>  -0.7840  1.0000</r>
       <r>  -0.7840  1.0000</r>
       <r>  -0.7840  1.0000</r>
       <r>  -0.7138  1.0000</r>
       <r>  -0.7138  1.0000</r>
       <r>  -0.7138  1.0000</r>
       <r>  -0.7138  1.0000</r>
       <r>  -0.5871  1.0000</r>
       <r>  -0.5325  1.0000</r>
       <r>  -0.5325  1.0000</r>
       <r>  -0.5325  1.0000</r>
       <r>  -0.5325  1.0000</r>
       <r>  -0.5016  1.0000</r>
       <r>  -0.5003  1.0000</r>
       <r>  -0.2175  1.0000</r>
       <r>  -0.2175  1.0000</r>
       <r>  -0.2123  1.0000</r>
       <r>  -0.2020  1.0000</r>
       <r>  -0.2019  1.0000</r>
       <r>  -0.2019  1.0000</r>
       <r>  -0.2019  1.0000</r>
       <r>  -0.1882  1.0000</r>
       <r>  -0.1882  1.0000</r>
       <r>  -0.1882  1.0000</r>
       <r>  -0.1881  1.0000</r>
       <r>  -0.0320  1.0000</r>
       <r>  -0.0320  1.0000</r>
       <r>  -0.0134  1.0000</r>
       <r>  -0.0134  1.0000</r>
       <r>  -0.0134  1.0000</r>
       <r>  -0.0134  1.0000</r>
       <r>  -0.0133  1.0000</r>
       <r>  -0.0133  1.0000</r>
       <r>  -0.0036  1.0000</r>
       <r>  -0.0033  1.0000</r>
       <r>  -0.0025  1.0000</r>
       <r>  -0.0022  1.0000</r>
       <r>   1.8123  1.0000</r>
       <r>   1.8123  1.0000</r>
       <r>   1.8123  1.0000</r>
       <r>   1.8123  1.0000</r>
       <r>   2.1795  1.0000</r>
       <r>   2.1795  1.0000</r>
       <r>   2.1795  1.0000</r>
       <r>   2.1795  1.0000</r>
       <r>   2.5699  1.0000</r>
       <r>   2.5699  1.0000</r>
       <r>   2.5699  1.0000</r>
       <r>   2.5699  1.0000</r>
       <r>   2.5949  1.0000</r>
       <r>   2.5950  1.0000</r>
       <r>   2.5950  1.0000</r>
       <r>   2.5950  1.0000</r>
       <r>   4.3465  0.0000</r>
       <r>   4.5225  0.0000</r>
       <r>   4.5225  0.0000</r>
       <r>   6.0049  0.0000</r>
       <r>   6.0049  0.0000</r>
       <r>   6.0049  0.0000</r>
       <r>   6.0049  0.0000</r>
       <r>   7.9496  0.0000</r>
       <r>   7.9496  0.0000</r>
       <r>   8.0965  0.0000</r>
       <r>   8.0965  0.0000</r>
       <r>   8.0965  0.0000</r>
       <r>   8.0965  0.0000</r>
       <r>   8.4584  0.0000</r>
       <r>   8.4584  0.0000</r>
       <r>   8.4584  0.0000</r>
       <r>   8.4584  0.0000</r>
       <r>   8.8968  0.0000</r>
       <r>   8.8968  0.0000</r>
       <r>   8.9230  0.0000</r>
       <r>   8.9230  0.0000</r>
       <r>   9.0540  0.0000</r>
       <r>   9.2648  0.0000</r>
       <r>   9.2648  0.0000</r>
       <r>   9.4826  0.0000</r>
       <r>   9.4826  0.0000</r>
       <r>   9.4826  0.0000</r>
       <r>   9.4826  0.0000</r>
       <r>  10.5474  0.0000</r>
       <r>  10.5474  0.0000</r>
       <r>  10.6750  0.0000</r>
       <r>  10.6751  0.0000</r>
       <r>  10.6754  0.0000</r>
      </set>
      <set comment="kpoint 3">
       <r>  -4.3025  1.0000</r>
       <r>  -3.1229  1.0000</r>
       <r>  -3.1150  1.0000</r>
       <r>  -3.1150  1.0000</r>
       <r>  -3.0887  1.0000</r>
       <r>  -3.0887  1.0000</r>
       <r>  -3.0887  1.0000</r>
       <r>  -3.0887  1.0000</r>
       <r>  -3.0211  1.0000</r>
       <r>  -3.0104  1.0000</r>
       <r>  -3.0104  1.0000</r>
       <r>  -2.9698  1.0000</r>
       <r>  -2.7021  1.0000</r>
       <r>  -2.6794  1.0000</r>
       <r>  -2.6794  1.0000</r>
       <r>  -2.6794  1.0000</r>
       <r>  -2.6794  1.0000</r>
       <r>  -2.5930  1.0000</r>
       <r>  -2.5505  1.0000</r>
       <r>  -2.5505  1.0000</r>
       <r>  -2.4648  1.0000</r>
       <r>  -2.4648  1.0000</r>
       <r>  -2.4648  1.0000</r>
       <r>  -2.4648  1.0000</r>
       <r>  -2.4119  1.0000</r>
       <r>  -2.4119  1.0000</r>
       <r>  -2.4119  1.0000</r>
       <r>  -2.4119  1.0000</r>
       <r>  -2.3859  1.0000</r>
       <r>  -2.3859  1.0000</r>
       <r>  -2.3859  1.0000</r>
       <r>  -2.3859  1.0000</r>
       <r>  -2.2883  1.0000</r>
       <r>  -2.2883  1.0000</r>
       <r>  -2.2607  1.0000</r>
       <r>  -2.2387  1.0000</r>
       <r>  -2.2387  1.0000</r>
       <r>  -2.2387  1.0000</r>
       <r>  -2.2387  1.0000</r>
       <r>  -2.1724  1.0000</r>
       <r>  -2.1724  1.0000</r>
       <r>  -2.1724  1.0000</r>
       <r>  -2.1724  1.0000</r>
       <r>  -2.0971  1.0000</r>
       <r>  -2.0970  1.0000</r>
       <r>  -2.0970  1.0000</r>
       <r>  -2.0970  1.0000</r>
       <r>  -1.9777  1.0000</r>
       <r>  -1.9777  1.0000</r>
       <r>  -1.9777  1.0000</r>
       <r>  -1.9776  1.0000</r>
       <r>  -1.9724  1.0000</r>
       <r>  -1.9719  1.0000</r>
       <r>  -1.9719  1.0000</r>
       <r>  -1.9719  1.0000</r>
       <r>  -1.9647  1.0000</r>
       <r>  -1.9647  1.0000</r>
       <r>  -1.9647  1.0000</r>
       <r>  -1.9643  1.0000</r>
       <r>  -1.9460  1.0000</r>
       <r>  -1.9460  1.0000</r>
       <r>  -1.9459  1.0000</r>
       <r>  -1.9459  1.0000</r>
       <r>  -1.7783  1.0000</r>
       <r>  -1.7783  1.0000</r>
       <r>  -1.7783  1.0000</r>
       <r>  -1.7783  1.0000</r>
       <r>  -1.7767  1.0000</r>
       <r>  -1.7511  1.0000</r>
       <r>  -1.7511  1.0000</r>
       <r>  -1.7511  1.0000</r>
       <r>  -1.7510  1.0000</r>
       <r>  -1.7447  1.0000</r>
       <r>  -1.7447  1.0000</r>
       <r>  -1.7447  1.0000</r>
       <r>  -1.7447  1.0000</r>
       <r>  -1.7292  1.0000</r>
       <r>  -1.7292  1.0000</r>
       <r>  -1.7016  1.0000</r>
       <r>  -1.7016  1.0000</r>
       <r>  -1.7016  1.0000</r>
       <r>  -1.7016  1.0000</r>
       <r>  -1.6008  1.0000</r>
       <r>  -1.6008  1.0000</r>
       <r>  -1.4917  1.0000</r>
       <r>  -1.4917  1.0000</r>
       <r>  -1.4917  1.0000</r>
       <r>  -1.4917  1.0000</r>
       <r>  -1.2713  1.0000</r>
       <r>  -1.2713  1.0000</r>
       <r>  -1.2713  1.0000</r>
       <r>  -1.2712  1.0000</r>
       <r>  -1.2157  1.0000</r>
       <r>  -1.2157  1.0000</r>
       <r>  -1.2157  1.0000</r>
       <r>  -1.2156  1.0000</r>
       <r>  -1.2084  1.0000</r>
       <r>  -1.2084  1.0000</r>
       <r>  -1.1205  1.0000</r>
       <r>  -1.1205  1.0000</r>
       <r>  -1.1205  1.0000</r>
       <r>  -1.1205  1.0000</r>
       <r>  -1.1000  1.0000</r>
       <r>  -1.0831  1.0000</r>
       <r>  -1.0831  1.0000</r>
       <r>  -1.0830  1.0000</r>
       <r>  -1.0830  1.0000</r>
       <r>  -0.9967  1.0000</r>
       <r>  -0.9967  1.0000</r>
       <r>  -0.9967  1.0000</r>
       <r>  -0.9967  1.0000</r>
       <r>  -0.9379  1.0000</r>
       <r>  -0.9379  1.0000</r>
       <r>  -0.9378  1.0000</r>
       <r>  -0.9378  1.0000</r>
       <r>  -0.8888  1.0000</r>
       <r>  -0.8540  1.0000</r>
       <r>  -0.8436  1.0000</r>
       <r>  -0.8436  1.0000</r>
       <r>  -0.8436  1.0000</r>
       <r>  -0.8436  1.0000</r>
       <r>  -0.7840  1.0000</r>
       <r>  -0.7839  1.0000</r>
       <r>  -0.7666  1.0000</r>
       <r>  -0.7666  1.0000</r>
       <r>  -0.7514  1.0000</r>
       <r>  -0.7514  1.0000</r>
       <r>  -0.7514  1.0000</r>
       <r>  -0.7514  1.0000</r>
       <r>  -0.7080  1.0000</r>
       <r>  -0.7080  1.0000</r>
       <r>  -0.7080  1.0000</r>
       <r>  -0.7080  1.0000</r>
       <r>  -0.6491  1.0000</r>
       <r>  -0.6491  1.0000</r>
       <r>  -0.6491  1.0000</r>
       <r>  -0.6491  1.0000</r>
       <r>  -0.6287  1.0000</r>
       <r>  -0.4593  1.0000</r>
       <r>  -0.4469  1.0000</r>
       <r>  -0.4469  1.0000</r>
       <r>  -0.4469  1.0000</r>
       <r>  -0.4469  1.0000</r>
       <r>  -0.2636  1.0000</r>
       <r>  -0.2636  1.0000</r>
       <r>  -0.2636  1.0000</r>
       <r>  -0.2636  1.0000</r>
       <r>  -0.2416  1.0000</r>
       <r>  -0.2416  1.0000</r>
       <r>  -0.2211  1.0000</r>
       <r>  -0.2096  1.0000</r>
       <r>  -0.2096  1.0000</r>
       <r>  -0.2096  1.0000</r>
       <r>  -0.2096  1.0000</r>
       <r>  -0.1301  1.0000</r>
       <r>  -0.1146  1.0000</r>
       <r>  -0.1146  1.0000</r>
       <r>  -0.0457  1.0000</r>
       <r>  -0.0457  1.0000</r>
       <r>  -0.0457  1.0000</r>
       <r>  -0.0457  1.0000</r>
       <r>  -0.0428  1.0000</r>
       <r>  -0.0428  1.0000</r>
       <r>  -0.0035  1.0000</r>
       <r>  -0.0032  1.0000</r>
       <r>  -0.0025  1.0000</r>
       <r>  -0.0022  1.0000</r>
       <r>   1.4776  1.0000</r>
       <r>   1.4776  1.0000</r>
       <r>   1.4776  1.0000</r>
       <r>   1.4776  1.0000</r>
       <r>   2.1912  1.0000</r>
       <r>   2.1912  1.0000</r>
       <r>   2.1912  1.0000</r>
       <r>   2.1912  1.0000</r>
       <r>   2.5542  1.0000</r>
       <r>   2.5542  1.0000</r>
       <r>   2.5542  1.0000</r>
       <r>   2.5542  1.0000</r>
       <r>   2.9968  0.0000</r>
       <r>   2.9968  0.0000</r>
       <r>   2.9969  0.0000</r>
       <r>   2.9969  0.0000</r>
       <r>   3.9953  0.0000</r>
       <r>   4.6485  0.0000</r>
       <r>   4.6485  0.0000</r>
       <r>   6.1818  0.0000</r>
       <r>   6.1818  0.0000</r>
       <r>   6.1818  0.0000</r>
       <r>   6.1818  0.0000</r>
       <r>   7.4787  0.0000</r>
       <r>   7.4787  0.0000</r>
       <r>   7.5000  0.0000</r>
       <r>   7.5000  0.0000</r>
       <r>   7.5000  0.0000</r>
       <r>   7.5000  0.0000</r>
       <r>   8.5366  0.0000</r>
       <r>   8.5366  0.0000</r>
       <r>   8.5366  0.0000</r>
       <r>   8.5366  0.0000</r>
       <r>   8.9063  0.0000</r>
       <r>   8.9063  0.0000</r>
       <r>   9.2244  0.0000</r>
       <r>   9.2244  0.0000</r>
       <r>   9.4193  0.0000</r>
       <r>   9.4193  0.0000</r>
       <r>   9.4880  0.0000</r>
       <r>   9.7026  0.0000</r>
       <r>   9.7026  0.0000</r>
       <r>   9.7026  0.0000</r>
       <r>   9.7026  0.0000</r>
       <r>  10.1710  0.0000</r>
       <r>  10.1710  0.0000</r>
       <r>  10.1710  0.0000</r>
       <r>  10.1710  0.0000</r>
       <r>  10.6712  0.0000</r>
      </set>
      <set comment="kpoint 4">
       <r>  -4.2183  1.0000</r>
       <r>  -3.1642  1.0000</r>
       <r>  -3.0906  1.0000</r>
       <r>  -3.0732  1.0000</r>
       <r>  -3.0731  1.0000</r>
       <r>  -3.0488  1.0000</r>
       <r>  -3.0488  1.0000</r>
       <r>  -3.0488  1.0000</r>
       <r>  -3.0488  1.0000</r>
       <r>  -2.9964  1.0000</r>
       <r>  -2.9723  1.0000</r>
       <r>  -2.9723  1.0000</r>
       <r>  -2.7443  1.0000</r>
       <r>  -2.6701  1.0000</r>
       <r>  -2.6267  1.0000</r>
       <r>  -2.6265  1.0000</r>
       <r>  -2.6265  1.0000</r>
       <r>  -2.6265  1.0000</r>
       <r>  -2.6170  1.0000</r>
       <r>  -2.6169  1.0000</r>
       <r>  -2.5102  1.0000</r>
       <r>  -2.5102  1.0000</r>
       <r>  -2.5102  1.0000</r>
       <r>  -2.5102  1.0000</r>
       <r>  -2.4350  1.0000</r>
       <r>  -2.4350  1.0000</r>
       <r>  -2.4350  1.0000</r>
       <r>  -2.4350  1.0000</r>
       <r>  -2.4292  1.0000</r>
       <r>  -2.4292  1.0000</r>
       <r>  -2.3908  1.0000</r>
       <r>  -2.3908  1.0000</r>
       <r>  -2.3908  1.0000</r>
       <r>  -2.3908  1.0000</r>
       <r>  -2.2501  1.0000</r>
       <r>  -2.2501  1.0000</r>
       <r>  -2.2501  1.0000</r>
       <r>  -2.2501  1.0000</r>
       <r>  -2.1786  1.0000</r>
       <r>  -2.1736  1.0000</r>
       <r>  -2.1736  1.0000</r>
       <r>  -2.1736  1.0000</r>
       <r>  -2.1736  1.0000</r>
       <r>  -2.1432  1.0000</r>
       <r>  -2.1432  1.0000</r>
       <r>  -2.1432  1.0000</r>
       <r>  -2.1432  1.0000</r>
       <r>  -1.9875  1.0000</r>
       <r>  -1.9875  1.0000</r>
       <r>  -1.9875  1.0000</r>
       <r>  -1.9875  1.0000</r>
       <r>  -1.9624  1.0000</r>
       <r>  -1.9615  1.0000</r>
       <r>  -1.9615  1.0000</r>
       <r>  -1.9615  1.0000</r>
       <r>  -1.9590  1.0000</r>
       <r>  -1.9589  1.0000</r>
       <r>  -1.9589  1.0000</r>
       <r>  -1.9581  1.0000</r>
       <r>  -1.9162  1.0000</r>
       <r>  -1.9162  1.0000</r>
       <r>  -1.9162  1.0000</r>
       <r>  -1.9162  1.0000</r>
       <r>  -1.8275  1.0000</r>
       <r>  -1.8275  1.0000</r>
       <r>  -1.8275  1.0000</r>
       <r>  -1.8275  1.0000</r>
       <r>  -1.8065  1.0000</r>
       <r>  -1.7905  1.0000</r>
       <r>  -1.7905  1.0000</r>
       <r>  -1.7905  1.0000</r>
       <r>  -1.7905  1.0000</r>
       <r>  -1.7530  1.0000</r>
       <r>  -1.7530  1.0000</r>
       <r>  -1.7530  1.0000</r>
       <r>  -1.7530  1.0000</r>
       <r>  -1.7158  1.0000</r>
       <r>  -1.7158  1.0000</r>
       <r>  -1.7158  1.0000</r>
       <r>  -1.7158  1.0000</r>
       <r>  -1.7005  1.0000</r>
       <r>  -1.7005  1.0000</r>
       <r>  -1.4038  1.0000</r>
       <r>  -1.4038  1.0000</r>
       <r>  -1.3492  1.0000</r>
       <r>  -1.3491  1.0000</r>
       <r>  -1.3491  1.0000</r>
       <r>  -1.3491  1.0000</r>
       <r>  -1.3475  1.0000</r>
       <r>  -1.3474  1.0000</r>
       <r>  -1.3474  1.0000</r>
       <r>  -1.3473  1.0000</r>
       <r>  -1.3401  1.0000</r>
       <r>  -1.3401  1.0000</r>
       <r>  -1.3401  1.0000</r>
       <r>  -1.3401  1.0000</r>
       <r>  -1.3058  1.0000</r>
       <r>  -1.3058  1.0000</r>
       <r>  -1.1380  1.0000</r>
       <r>  -1.0466  1.0000</r>
       <r>  -1.0466  1.0000</r>
       <r>  -1.0465  1.0000</r>
       <r>  -1.0465  1.0000</r>
       <r>  -1.0209  1.0000</r>
       <r>  -1.0209  1.0000</r>
       <r>  -1.0209  1.0000</r>
       <r>  -1.0208  1.0000</r>
       <r>  -0.9984  1.0000</r>
       <r>  -0.9984  1.0000</r>
       <r>  -0.9984  1.0000</r>
       <r>  -0.9984  1.0000</r>
       <r>  -0.9651  1.0000</r>
       <r>  -0.9651  1.0000</r>
       <r>  -0.9651  1.0000</r>
       <r>  -0.9651  1.0000</r>
       <r>  -0.9180  1.0000</r>
       <r>  -0.8462  1.0000</r>
       <r>  -0.8461  1.0000</r>
       <r>  -0.8461  1.0000</r>
       <r>  -0.8461  1.0000</r>
       <r>  -0.8407  1.0000</r>
       <r>  -0.7190  1.0000</r>
       <r>  -0.7190  1.0000</r>
       <r>  -0.6699  1.0000</r>
       <r>  -0.6690  1.0000</r>
       <r>  -0.6690  1.0000</r>
       <r>  -0.6690  1.0000</r>
       <r>  -0.6677  1.0000</r>
       <r>  -0.6591  1.0000</r>
       <r>  -0.6591  1.0000</r>
       <r>  -0.6591  1.0000</r>
       <r>  -0.6591  1.0000</r>
       <r>  -0.6513  1.0000</r>
       <r>  -0.6513  1.0000</r>
       <r>  -0.6222  1.0000</r>
       <r>  -0.6222  1.0000</r>
       <r>  -0.6221  1.0000</r>
       <r>  -0.6221  1.0000</r>
       <r>  -0.4181  1.0000</r>
       <r>  -0.3620  1.0000</r>
       <r>  -0.3620  1.0000</r>
       <r>  -0.3620  1.0000</r>
       <r>  -0.3620  1.0000</r>
       <r>  -0.2811  1.0000</r>
       <r>  -0.2810  1.0000</r>
       <r>  -0.2777  1.0000</r>
       <r>  -0.2777  1.0000</r>
       <r>  -0.2777  1.0000</r>
       <r>  -0.2776  1.0000</r>
       <r>  -0.2449  1.0000</r>
       <r>  -0.2449  1.0000</r>
       <r>  -0.2449  1.0000</r>
       <r>  -0.2448  1.0000</r>
       <r>  -0.2425  1.0000</r>
       <r>  -0.2425  1.0000</r>
       <r>  -0.2355  1.0000</r>
       <r>  -0.0975  1.0000</r>
       <r>  -0.0975  1.0000</r>
       <r>  -0.0974  1.0000</r>
       <r>  -0.0974  1.0000</r>
       <r>  -0.0910  1.0000</r>
       <r>  -0.0909  1.0000</r>
       <r>  -0.0035  1.0000</r>
       <r>  -0.0032  1.0000</r>
       <r>  -0.0026  1.0000</r>
       <r>  -0.0022  1.0000</r>
       <r>   0.3023  1.0000</r>
       <r>   1.1689  1.0000</r>
       <r>   1.1689  1.0000</r>
       <r>   1.1689  1.0000</r>
       <r>   1.1689  1.0000</r>
       <r>   2.2110  1.0000</r>
       <r>   2.2110  1.0000</r>
       <r>   2.2110  1.0000</r>
       <r>   2.2110  1.0000</r>
       <r>   2.4977  1.0000</r>
       <r>   2.4977  1.0000</r>
       <r>   2.4977  1.0000</r>
       <r>   2.4977  1.0000</r>
       <r>   3.4572  0.0000</r>
       <r>   3.4572  0.0000</r>
       <r>   3.4572  0.0000</r>
       <r>   3.4572  0.0000</r>
       <r>   3.5142  0.0000</r>
       <r>   4.8484  0.0000</r>
       <r>   4.8484  0.0000</r>
       <r>   6.4608  0.0000</r>
       <r>   6.4608  0.0000</r>
       <r>   6.4608  0.0000</r>
       <r>   6.4609  0.0000</r>
       <r>   6.8647  0.0000</r>
       <r>   6.8647  0.0000</r>
       <r>   6.8647  0.0000</r>
       <r>   6.8647  0.0000</r>
       <r>   7.0224  0.0000</r>
       <r>   7.0224  0.0000</r>
       <r>   8.6649  0.0000</r>
       <r>   8.6649  0.0000</r>
       <r>   8.6649  0.0000</r>
       <r>   8.6649  0.0000</r>
       <r>   8.9226  0.0000</r>
       <r>   8.9226  0.0000</r>
       <r>   9.1710  0.0000</r>
       <r>   9.1710  0.0000</r>
       <r>   9.5133  0.0000</r>
       <r>   9.5133  0.0000</r>
       <r>   9.5133  0.0000</r>
       <r>   9.5133  0.0000</r>
       <r>   9.8420  0.0000</r>
       <r>   9.8420  0.0000</r>
       <r>   9.8420  0.0000</r>
       <r>   9.8420  0.0000</r>
       <r>   9.9175  0.0000</r>
       <r>   9.9175  0.0000</r>
       <r>  10.1072  0.0000</r>
       <r>  10.3013  0.0000</r>
      </set>
      <set comment="kpoint 5">
       <r>  -4.1020  1.0000</r>
       <r>  -3.3760  1.0000</r>
       <r>  -3.0470  1.0000</r>
       <r>  -3.0165  1.0000</r>
       <r>  -3.0165  1.0000</r>
       <r>  -2.9934  1.0000</r>
       <r>  -2.9934  1.0000</r>
       <r>  -2.9934  1.0000</r>
       <r>  -2.9934  1.0000</r>
       <r>  -2.9623  1.0000</r>
       <r>  -2.9190  1.0000</r>
       <r>  -2.9190  1.0000</r>
       <r>  -2.8027  1.0000</r>
       <r>  -2.7422  1.0000</r>
       <r>  -2.6972  1.0000</r>
       <r>  -2.6972  1.0000</r>
       <r>  -2.6298  1.0000</r>
       <r>  -2.6298  1.0000</r>
       <r>  -2.6298  1.0000</r>
       <r>  -2.6298  1.0000</r>
       <r>  -2.5562  1.0000</r>
       <r>  -2.5562  1.0000</r>
       <r>  -2.5555  1.0000</r>
       <r>  -2.5555  1.0000</r>
       <r>  -2.5555  1.0000</r>
       <r>  -2.5555  1.0000</r>
       <r>  -2.3967  1.0000</r>
       <r>  -2.3966  1.0000</r>
       <r>  -2.3966  1.0000</r>
       <r>  -2.3966  1.0000</r>
       <r>  -2.3620  1.0000</r>
       <r>  -2.3620  1.0000</r>
       <r>  -2.3620  1.0000</r>
       <r>  -2.3620  1.0000</r>
       <r>  -2.2632  1.0000</r>
       <r>  -2.2632  1.0000</r>
       <r>  -2.2632  1.0000</r>
       <r>  -2.2632  1.0000</r>
       <r>  -2.2105  1.0000</r>
       <r>  -2.2105  1.0000</r>
       <r>  -2.2105  1.0000</r>
       <r>  -2.2105  1.0000</r>
       <r>  -2.1915  1.0000</r>
       <r>  -2.1914  1.0000</r>
       <r>  -2.1914  1.0000</r>
       <r>  -2.1914  1.0000</r>
       <r>  -2.0998  1.0000</r>
       <r>  -1.9961  1.0000</r>
       <r>  -1.9961  1.0000</r>
       <r>  -1.9961  1.0000</r>
       <r>  -1.9961  1.0000</r>
       <r>  -1.9581  1.0000</r>
       <r>  -1.9576  1.0000</r>
       <r>  -1.9576  1.0000</r>
       <r>  -1.9576  1.0000</r>
       <r>  -1.9521  1.0000</r>
       <r>  -1.9520  1.0000</r>
       <r>  -1.9520  1.0000</r>
       <r>  -1.9515  1.0000</r>
       <r>  -1.8983  1.0000</r>
       <r>  -1.8982  1.0000</r>
       <r>  -1.8982  1.0000</r>
       <r>  -1.8982  1.0000</r>
       <r>  -1.8917  1.0000</r>
       <r>  -1.8917  1.0000</r>
       <r>  -1.8917  1.0000</r>
       <r>  -1.8916  1.0000</r>
       <r>  -1.8474  1.0000</r>
       <r>  -1.8066  1.0000</r>
       <r>  -1.8066  1.0000</r>
       <r>  -1.8066  1.0000</r>
       <r>  -1.8066  1.0000</r>
       <r>  -1.7696  1.0000</r>
       <r>  -1.7695  1.0000</r>
       <r>  -1.7695  1.0000</r>
       <r>  -1.7695  1.0000</r>
       <r>  -1.6760  1.0000</r>
       <r>  -1.6760  1.0000</r>
       <r>  -1.6760  1.0000</r>
       <r>  -1.6759  1.0000</r>
       <r>  -1.6605  1.0000</r>
       <r>  -1.6605  1.0000</r>
       <r>  -1.4720  1.0000</r>
       <r>  -1.4720  1.0000</r>
       <r>  -1.4720  1.0000</r>
       <r>  -1.4720  1.0000</r>
       <r>  -1.4250  1.0000</r>
       <r>  -1.4250  1.0000</r>
       <r>  -1.4250  1.0000</r>
       <r>  -1.4250  1.0000</r>
       <r>  -1.3955  1.0000</r>
       <r>  -1.3955  1.0000</r>
       <r>  -1.2004  1.0000</r>
       <r>  -1.2004  1.0000</r>
       <r>  -1.1688  1.0000</r>
       <r>  -1.1688  1.0000</r>
       <r>  -1.1688  1.0000</r>
       <r>  -1.1688  1.0000</r>
       <r>  -1.1299  1.0000</r>
       <r>  -0.9999  1.0000</r>
       <r>  -0.9999  1.0000</r>
       <r>  -0.9999  1.0000</r>
       <r>  -0.9999  1.0000</r>
       <r>  -0.9830  1.0000</r>
       <r>  -0.9830  1.0000</r>
       <r>  -0.9830  1.0000</r>
       <r>  -0.9830  1.0000</r>
       <r>  -0.9669  1.0000</r>
       <r>  -0.9662  1.0000</r>
       <r>  -0.9659  1.0000</r>
       <r>  -0.9659  1.0000</r>
       <r>  -0.9657  1.0000</r>
       <r>  -0.9657  1.0000</r>
       <r>  -0.9653  1.0000</r>
       <r>  -0.9646  1.0000</r>
       <r>  -0.9565  1.0000</r>
       <r>  -0.8529  1.0000</r>
       <r>  -0.8528  1.0000</r>
       <r>  -0.8528  1.0000</r>
       <r>  -0.8528  1.0000</r>
       <r>  -0.8226  1.0000</r>
       <r>  -0.7063  1.0000</r>
       <r>  -0.6968  1.0000</r>
       <r>  -0.6968  1.0000</r>
       <r>  -0.6968  1.0000</r>
       <r>  -0.6968  1.0000</r>
       <r>  -0.6411  1.0000</r>
       <r>  -0.6411  1.0000</r>
       <r>  -0.5833  1.0000</r>
       <r>  -0.5833  1.0000</r>
       <r>  -0.5833  1.0000</r>
       <r>  -0.5833  1.0000</r>
       <r>  -0.5381  1.0000</r>
       <r>  -0.5381  1.0000</r>
       <r>  -0.5294  1.0000</r>
       <r>  -0.5294  1.0000</r>
       <r>  -0.5294  1.0000</r>
       <r>  -0.5294  1.0000</r>
       <r>  -0.4911  1.0000</r>
       <r>  -0.4911  1.0000</r>
       <r>  -0.4911  1.0000</r>
       <r>  -0.4911  1.0000</r>
       <r>  -0.4044  1.0000</r>
       <r>  -0.4044  1.0000</r>
       <r>  -0.3789  1.0000</r>
       <r>  -0.3346  1.0000</r>
       <r>  -0.3346  1.0000</r>
       <r>  -0.2929  1.0000</r>
       <r>  -0.2929  1.0000</r>
       <r>  -0.2929  1.0000</r>
       <r>  -0.2929  1.0000</r>
       <r>  -0.2552  1.0000</r>
       <r>  -0.1658  1.0000</r>
       <r>  -0.1658  1.0000</r>
       <r>  -0.1658  1.0000</r>
       <r>  -0.1658  1.0000</r>
       <r>  -0.1559  1.0000</r>
       <r>  -0.1559  1.0000</r>
       <r>  -0.0784  1.0000</r>
       <r>  -0.0784  1.0000</r>
       <r>  -0.0784  1.0000</r>
       <r>  -0.0784  1.0000</r>
       <r>  -0.0035  1.0000</r>
       <r>  -0.0031  1.0000</r>
       <r>  -0.0027  1.0000</r>
       <r>  -0.0023  1.0000</r>
       <r>   0.7829  1.0000</r>
       <r>   0.8832  1.0000</r>
       <r>   0.8832  1.0000</r>
       <r>   0.8833  1.0000</r>
       <r>   0.8833  1.0000</r>
       <r>   2.2391  1.0000</r>
       <r>   2.2391  1.0000</r>
       <r>   2.2391  1.0000</r>
       <r>   2.2391  1.0000</r>
       <r>   2.4355  1.0000</r>
       <r>   2.4355  1.0000</r>
       <r>   2.4355  1.0000</r>
       <r>   2.4355  1.0000</r>
       <r>   2.9716  0.0000</r>
       <r>   3.9510  0.0000</r>
       <r>   3.9510  0.0000</r>
       <r>   3.9510  0.0000</r>
       <r>   3.9510  0.0000</r>
       <r>   5.1108  0.0000</r>
       <r>   5.1108  0.0000</r>
       <r>   6.2340  0.0000</r>
       <r>   6.2340  0.0000</r>
       <r>   6.2341  0.0000</r>
       <r>   6.2341  0.0000</r>
       <r>   6.5842  0.0000</r>
       <r>   6.5842  0.0000</r>
       <r>   6.8257  0.0000</r>
       <r>   6.8257  0.0000</r>
       <r>   6.8257  0.0000</r>
       <r>   6.8257  0.0000</r>
       <r>   8.8406  0.0000</r>
       <r>   8.8406  0.0000</r>
       <r>   8.8406  0.0000</r>
       <r>   8.8406  0.0000</r>
       <r>   8.8884  0.0000</r>
       <r>   8.8885  0.0000</r>
       <r>   8.8885  0.0000</r>
       <r>   8.8885  0.0000</r>
       <r>   8.9460  0.0000</r>
       <r>   8.9460  0.0000</r>
       <r>   9.1148  0.0000</r>
       <r>   9.1148  0.0000</r>
       <r>   9.9442  0.0000</r>
       <r>   9.9442  0.0000</r>
       <r>   9.9442  0.0000</r>
       <r>   9.9442  0.0000</r>
       <r>   9.9606  0.0000</r>
       <r>   9.9606  0.0000</r>
       <r>   9.9606  0.0000</r>
       <r>   9.9606  0.0000</r>
      </set>
      <set comment="kpoint 6">
       <r>  -3.9556  1.0000</r>
       <r>  -3.5862  1.0000</r>
       <r>  -2.9937  1.0000</r>
       <r>  -2.9472  1.0000</r>
       <r>  -2.9472  1.0000</r>
       <r>  -2.9230  1.0000</r>
       <r>  -2.9230  1.0000</r>
       <r>  -2.9230  1.0000</r>
       <r>  -2.9229  1.0000</r>
       <r>  -2.9192  1.0000</r>
       <r>  -2.8676  1.0000</r>
       <r>  -2.8506  1.0000</r>
       <r>  -2.8506  1.0000</r>
       <r>  -2.8083  1.0000</r>
       <r>  -2.7831  1.0000</r>
       <r>  -2.7830  1.0000</r>
       <r>  -2.7399  1.0000</r>
       <r>  -2.7399  1.0000</r>
       <r>  -2.7399  1.0000</r>
       <r>  -2.7399  1.0000</r>
       <r>  -2.6690  1.0000</r>
       <r>  -2.6690  1.0000</r>
       <r>  -2.4702  1.0000</r>
       <r>  -2.4702  1.0000</r>
       <r>  -2.4702  1.0000</r>
       <r>  -2.4702  1.0000</r>
       <r>  -2.3543  1.0000</r>
       <r>  -2.3543  1.0000</r>
       <r>  -2.3543  1.0000</r>
       <r>  -2.3543  1.0000</r>
       <r>  -2.3264  1.0000</r>
       <r>  -2.3264  1.0000</r>
       <r>  -2.3264  1.0000</r>
       <r>  -2.3264  1.0000</r>
       <r>  -2.2845  1.0000</r>
       <r>  -2.2842  1.0000</r>
       <r>  -2.2842  1.0000</r>
       <r>  -2.2842  1.0000</r>
       <r>  -2.2832  1.0000</r>
       <r>  -2.2832  1.0000</r>
       <r>  -2.2832  1.0000</r>
       <r>  -2.2829  1.0000</r>
       <r>  -2.2395  1.0000</r>
       <r>  -2.2395  1.0000</r>
       <r>  -2.2395  1.0000</r>
       <r>  -2.2395  1.0000</r>
       <r>  -2.0259  1.0000</r>
       <r>  -1.9980  1.0000</r>
       <r>  -1.9980  1.0000</r>
       <r>  -1.9980  1.0000</r>
       <r>  -1.9979  1.0000</r>
       <r>  -1.9545  1.0000</r>
       <r>  -1.9539  1.0000</r>
       <r>  -1.9539  1.0000</r>
       <r>  -1.9538  1.0000</r>
       <r>  -1.9530  1.0000</r>
       <r>  -1.9529  1.0000</r>
       <r>  -1.9529  1.0000</r>
       <r>  -1.9529  1.0000</r>
       <r>  -1.9498  1.0000</r>
       <r>  -1.9497  1.0000</r>
       <r>  -1.9497  1.0000</r>
       <r>  -1.9491  1.0000</r>
       <r>  -1.8983  1.0000</r>
       <r>  -1.8689  1.0000</r>
       <r>  -1.8689  1.0000</r>
       <r>  -1.8689  1.0000</r>
       <r>  -1.8688  1.0000</r>
       <r>  -1.8257  1.0000</r>
       <r>  -1.8257  1.0000</r>
       <r>  -1.8257  1.0000</r>
       <r>  -1.8257  1.0000</r>
       <r>  -1.7389  1.0000</r>
       <r>  -1.7389  1.0000</r>
       <r>  -1.7389  1.0000</r>
       <r>  -1.7388  1.0000</r>
       <r>  -1.6259  1.0000</r>
       <r>  -1.6259  1.0000</r>
       <r>  -1.6259  1.0000</r>
       <r>  -1.6259  1.0000</r>
       <r>  -1.6095  1.0000</r>
       <r>  -1.6095  1.0000</r>
       <r>  -1.5809  1.0000</r>
       <r>  -1.5809  1.0000</r>
       <r>  -1.5809  1.0000</r>
       <r>  -1.5809  1.0000</r>
       <r>  -1.4989  1.0000</r>
       <r>  -1.4989  1.0000</r>
       <r>  -1.4989  1.0000</r>
       <r>  -1.4989  1.0000</r>
       <r>  -1.4764  1.0000</r>
       <r>  -1.4764  1.0000</r>
       <r>  -1.0961  1.0000</r>
       <r>  -1.0020  1.0000</r>
       <r>  -1.0005  1.0000</r>
       <r>  -1.0005  1.0000</r>
       <r>  -1.0005  1.0000</r>
       <r>  -1.0004  1.0000</r>
       <r>  -0.9946  1.0000</r>
       <r>  -0.9946  1.0000</r>
       <r>  -0.9937  1.0000</r>
       <r>  -0.9935  1.0000</r>
       <r>  -0.9929  1.0000</r>
       <r>  -0.9929  1.0000</r>
       <r>  -0.9902  1.0000</r>
       <r>  -0.9901  1.0000</r>
       <r>  -0.9901  1.0000</r>
       <r>  -0.9900  1.0000</r>
       <r>  -0.9213  1.0000</r>
       <r>  -0.9212  1.0000</r>
       <r>  -0.9212  1.0000</r>
       <r>  -0.9212  1.0000</r>
       <r>  -0.8867  1.0000</r>
       <r>  -0.8867  1.0000</r>
       <r>  -0.8867  1.0000</r>
       <r>  -0.8866  1.0000</r>
       <r>  -0.8661  1.0000</r>
       <r>  -0.8661  1.0000</r>
       <r>  -0.8661  1.0000</r>
       <r>  -0.8661  1.0000</r>
       <r>  -0.7996  1.0000</r>
       <r>  -0.7494  1.0000</r>
       <r>  -0.7494  1.0000</r>
       <r>  -0.7494  1.0000</r>
       <r>  -0.7494  1.0000</r>
       <r>  -0.7410  1.0000</r>
       <r>  -0.6439  1.0000</r>
       <r>  -0.6439  1.0000</r>
       <r>  -0.6439  1.0000</r>
       <r>  -0.6439  1.0000</r>
       <r>  -0.5895  1.0000</r>
       <r>  -0.5895  1.0000</r>
       <r>  -0.5580  1.0000</r>
       <r>  -0.5580  1.0000</r>
       <r>  -0.4999  1.0000</r>
       <r>  -0.4999  1.0000</r>
       <r>  -0.4999  1.0000</r>
       <r>  -0.4999  1.0000</r>
       <r>  -0.4333  1.0000</r>
       <r>  -0.4333  1.0000</r>
       <r>  -0.4333  1.0000</r>
       <r>  -0.4333  1.0000</r>
       <r>  -0.4293  1.0000</r>
       <r>  -0.4293  1.0000</r>
       <r>  -0.4005  1.0000</r>
       <r>  -0.4005  1.0000</r>
       <r>  -0.3525  1.0000</r>
       <r>  -0.3525  1.0000</r>
       <r>  -0.3525  1.0000</r>
       <r>  -0.3525  1.0000</r>
       <r>  -0.3423  1.0000</r>
       <r>  -0.2800  1.0000</r>
       <r>  -0.2473  1.0000</r>
       <r>  -0.2473  1.0000</r>
       <r>  -0.2473  1.0000</r>
       <r>  -0.2473  1.0000</r>
       <r>  -0.2356  1.0000</r>
       <r>  -0.2356  1.0000</r>
       <r>  -0.0034  1.0000</r>
       <r>  -0.0030  1.0000</r>
       <r>  -0.0027  1.0000</r>
       <r>  -0.0023  1.0000</r>
       <r>   0.1381  1.0000</r>
       <r>   0.1381  1.0000</r>
       <r>   0.1381  1.0000</r>
       <r>   0.1381  1.0000</r>
       <r>   0.6177  1.0000</r>
       <r>   0.6177  1.0000</r>
       <r>   0.6177  1.0000</r>
       <r>   0.6177  1.0000</r>
       <r>   1.3007  1.0000</r>
       <r>   2.2759  1.0000</r>
       <r>   2.2759  1.0000</r>
       <r>   2.2760  1.0000</r>
       <r>   2.2760  1.0000</r>
       <r>   2.3753  1.0000</r>
       <r>   2.3753  1.0000</r>
       <r>   2.3753  1.0000</r>
       <r>   2.3753  1.0000</r>
       <r>   2.4078  1.0000</r>
[...]
       <r>  -1.1155  1.0000</r>
       <r>  -1.1155  1.0000</r>
       <r>  -1.1153  1.0000</r>
       <r>  -1.1153  1.0000</r>
       <r>  -1.1153  1.0000</r>
       <r>  -1.1152  1.0000</r>
       <r>  -1.1150  1.0000</r>
       <r>  -1.1150  1.0000</r>
       <r>  -0.9052  1.0000</r>
       <r>  -0.9050  1.0000</r>
       <r>  -0.9050  1.0000</r>
       <r>  -0.9050  1.0000</r>
       <r>  -0.8635  1.0000</r>
       <r>  -0.8635  1.0000</r>
       <r>  -0.8635  1.0000</r>
       <r>  -0.8635  1.0000</r>
       <r>  -0.8488  1.0000</r>
       <r>  -0.8488  1.0000</r>
       <r>  -0.8484  1.0000</r>
       <r>  -0.8484  1.0000</r>
       <r>  -0.8484  1.0000</r>
       <r>  -0.8483  1.0000</r>
       <r>  -0.8480  1.0000</r>
       <r>  -0.8480  1.0000</r>
       <r>  -0.6959  1.0000</r>
       <r>  -0.6959  1.0000</r>
       <r>  -0.6959  1.0000</r>
       <r>  -0.6959  1.0000</r>
       <r>  -0.6211  1.0000</r>
       <r>  -0.6211  1.0000</r>
       <r>  -0.6211  1.0000</r>
       <r>  -0.6211  1.0000</r>
       <r>  -0.5909  1.0000</r>
       <r>  -0.5909  1.0000</r>
       <r>  -0.5909  1.0000</r>
       <r>  -0.5909  1.0000</r>
       <r>  -0.1695  1.0000</r>
       <r>  -0.1695  1.0000</r>
       <r>  -0.1693  1.0000</r>
       <r>  -0.1693  1.0000</r>
       <r>  -0.1693  1.0000</r>
       <r>  -0.1693  1.0000</r>
       <r>  -0.1692  1.0000</r>
       <r>  -0.1692  1.0000</r>
       <r>  -0.1590  1.0000</r>
       <r>  -0.1590  1.0000</r>
       <r>  -0.1590  1.0000</r>
       <r>  -0.1590  1.0000</r>
       <r>  -0.1470  1.0000</r>
       <r>  -0.1470  1.0000</r>
       <r>  -0.1470  1.0000</r>
       <r>  -0.1470  1.0000</r>
       <r>  -0.1432  1.0000</r>
       <r>  -0.1432  1.0000</r>
       <r>  -0.1431  1.0000</r>
       <r>  -0.1431  1.0000</r>
       <r>  -0.1431  1.0000</r>
       <r>  -0.1431  1.0000</r>
       <r>  -0.1430  1.0000</r>
       <r>  -0.1430  1.0000</r>
       <r>   2.5587  1.0000</r>
       <r>   2.5587  1.0000</r>
       <r>   2.5587  1.0000</r>
       <r>   2.5587  1.0000</r>
       <r>   3.3144  0.0000</r>
       <r>   3.3144  0.0000</r>
       <r>   3.3147  0.0000</r>
       <r>   3.3147  0.0000</r>
       <r>   3.3147  0.0000</r>
       <r>   3.3147  0.0000</r>
       <r>   3.3150  0.0000</r>
       <r>   3.3150  0.0000</r>
       <r>   4.1855  0.0000</r>
       <r>   4.1855  0.0000</r>
       <r>   4.1862  0.0000</r>
       <r>   4.1862  0.0000</r>
       <r>   4.1862  0.0000</r>
       <r>   4.1862  0.0000</r>
       <r>   4.1869  0.0000</r>
       <r>   4.1869  0.0000</r>
       <r>   4.9354  0.0000</r>
       <r>   4.9354  0.0000</r>
       <r>   4.9354  0.0000</r>
       <r>   4.9354  0.0000</r>
       <r>   7.5437  0.0000</r>
       <r>   7.5437  0.0000</r>
       <r>   7.5442  0.0000</r>
       <r>   7.5442  0.0000</r>
       <r>   7.5442  0.0000</r>
       <r>   7.5442  0.0000</r>
       <r>   7.5447  0.0000</r>
       <r>   7.5447  0.0000</r>
       <r>   8.1072  0.0000</r>
       <r>   8.1072  0.0000</r>
       <r>   8.1072  0.0000</r>
       <r>   8.1072  0.0000</r>
       <r>   9.0839  0.0000</r>
       <r>   9.0839  0.0000</r>
       <r>   9.0839  0.0000</r>
       <r>   9.0839  0.0000</r>
       <r>   9.6428  0.0000</r>
       <r>   9.6428  0.0000</r>
       <r>   9.6430  0.0000</r>
       <r>   9.6430  0.0000</r>
       <r>   9.6430  0.0000</r>
       <r>   9.6431  0.0000</r>
       <r>   9.6433  0.0000</r>
       <r>   9.6433  0.0000</r>
      </set>
      <set comment="kpoint 195">
       <r>  -3.1478  1.0000</r>
       <r>  -3.1478  1.0000</r>
       <r>  -3.1478  1.0000</r>
       <r>  -3.1478  1.0000</r>
       <r>  -3.0458  1.0000</r>
       <r>  -3.0458  1.0000</r>
       <r>  -3.0458  1.0000</r>
       <r>  -3.0458  1.0000</r>
       <r>  -2.7233  1.0000</r>
       <r>  -2.7232  1.0000</r>
       <r>  -2.7232  1.0000</r>
       <r>  -2.7230  1.0000</r>
       <r>  -2.7229  1.0000</r>
       <r>  -2.7228  1.0000</r>
       <r>  -2.7228  1.0000</r>
       <r>  -2.7228  1.0000</r>
       <r>  -2.7210  1.0000</r>
       <r>  -2.7208  1.0000</r>
       <r>  -2.7208  1.0000</r>
       <r>  -2.7207  1.0000</r>
       <r>  -2.7008  1.0000</r>
       <r>  -2.7008  1.0000</r>
       <r>  -2.7008  1.0000</r>
       <r>  -2.7008  1.0000</r>
       <r>  -2.6847  1.0000</r>
       <r>  -2.6847  1.0000</r>
       <r>  -2.6843  1.0000</r>
       <r>  -2.6843  1.0000</r>
       <r>  -2.6843  1.0000</r>
       <r>  -2.6843  1.0000</r>
       <r>  -2.6839  1.0000</r>
       <r>  -2.6839  1.0000</r>
       <r>  -2.2857  1.0000</r>
       <r>  -2.2857  1.0000</r>
       <r>  -2.2854  1.0000</r>
       <r>  -2.2853  1.0000</r>
       <r>  -2.2853  1.0000</r>
       <r>  -2.2853  1.0000</r>
       <r>  -2.2849  1.0000</r>
       <r>  -2.2849  1.0000</r>
       <r>  -2.2687  1.0000</r>
       <r>  -2.2686  1.0000</r>
       <r>  -2.2686  1.0000</r>
       <r>  -2.2686  1.0000</r>
       <r>  -2.1426  1.0000</r>
       <r>  -2.1426  1.0000</r>
       <r>  -2.1423  1.0000</r>
       <r>  -2.1423  1.0000</r>
       <r>  -2.1423  1.0000</r>
       <r>  -2.1422  1.0000</r>
       <r>  -2.1419  1.0000</r>
       <r>  -2.1419  1.0000</r>
       <r>  -2.1375  1.0000</r>
       <r>  -2.1375  1.0000</r>
       <r>  -2.1374  1.0000</r>
       <r>  -2.1374  1.0000</r>
       <r>  -1.6278  1.0000</r>
       <r>  -1.6278  1.0000</r>
       <r>  -1.6278  1.0000</r>
       <r>  -1.6278  1.0000</r>
       <r>  -1.5926  1.0000</r>
       <r>  -1.5926  1.0000</r>
       <r>  -1.5925  1.0000</r>
       <r>  -1.5925  1.0000</r>
       <r>  -1.5785  1.0000</r>
       <r>  -1.5784  1.0000</r>
       <r>  -1.5784  1.0000</r>
       <r>  -1.5784  1.0000</r>
       <r>  -1.5675  1.0000</r>
       <r>  -1.5675  1.0000</r>
       <r>  -1.5675  1.0000</r>
       <r>  -1.5674  1.0000</r>
       <r>  -1.5431  1.0000</r>
       <r>  -1.5431  1.0000</r>
       <r>  -1.5431  1.0000</r>
       <r>  -1.5431  1.0000</r>
       <r>  -1.3561  1.0000</r>
       <r>  -1.3561  1.0000</r>
       <r>  -1.3552  1.0000</r>
       <r>  -1.3550  1.0000</r>
       <r>  -1.3549  1.0000</r>
       <r>  -1.3549  1.0000</r>
       <r>  -1.3543  1.0000</r>
       <r>  -1.3543  1.0000</r>
       <r>  -1.3540  1.0000</r>
       <r>  -1.3538  1.0000</r>
       <r>  -1.3532  1.0000</r>
       <r>  -1.3532  1.0000</r>
       <r>  -1.3482  1.0000</r>
       <r>  -1.3482  1.0000</r>
       <r>  -1.3479  1.0000</r>
       <r>  -1.3478  1.0000</r>
       <r>  -1.2627  1.0000</r>
       <r>  -1.2627  1.0000</r>
       <r>  -1.2619  1.0000</r>
       <r>  -1.2618  1.0000</r>
       <r>  -1.2618  1.0000</r>
       <r>  -1.2618  1.0000</r>
       <r>  -1.2610  1.0000</r>
       <r>  -1.2610  1.0000</r>
       <r>  -1.2537  1.0000</r>
       <r>  -1.2536  1.0000</r>
       <r>  -1.2536  1.0000</r>
       <r>  -1.2536  1.0000</r>
       <r>  -1.1073  1.0000</r>
       <r>  -1.1072  1.0000</r>
       <r>  -1.1072  1.0000</r>
       <r>  -1.1072  1.0000</r>
       <r>  -1.0784  1.0000</r>
       <r>  -1.0784  1.0000</r>
       <r>  -1.0781  1.0000</r>
       <r>  -1.0781  1.0000</r>
       <r>  -1.0781  1.0000</r>
       <r>  -1.0781  1.0000</r>
       <r>  -1.0777  1.0000</r>
       <r>  -1.0777  1.0000</r>
       <r>  -0.9491  1.0000</r>
       <r>  -0.9491  1.0000</r>
       <r>  -0.9488  1.0000</r>
       <r>  -0.9487  1.0000</r>
       <r>  -0.9487  1.0000</r>
       <r>  -0.9487  1.0000</r>
       <r>  -0.9482  1.0000</r>
       <r>  -0.9482  1.0000</r>
       <r>  -0.9435  1.0000</r>
       <r>  -0.9434  1.0000</r>
       <r>  -0.9434  1.0000</r>
       <r>  -0.9434  1.0000</r>
       <r>  -0.8305  1.0000</r>
       <r>  -0.8305  1.0000</r>
       <r>  -0.8305  1.0000</r>
       <r>  -0.8305  1.0000</r>
       <r>  -0.7324  1.0000</r>
       <r>  -0.7320  1.0000</r>
       <r>  -0.7320  1.0000</r>
       <r>  -0.7320  1.0000</r>
       <r>  -0.7296  1.0000</r>
       <r>  -0.7296  1.0000</r>
       <r>  -0.7296  1.0000</r>
       <r>  -0.7292  1.0000</r>
       <r>  -0.6713  1.0000</r>
       <r>  -0.6712  1.0000</r>
       <r>  -0.6712  1.0000</r>
       <r>  -0.6712  1.0000</r>
       <r>  -0.1467  1.0000</r>
       <r>  -0.1467  1.0000</r>
       <r>  -0.1466  1.0000</r>
       <r>  -0.1466  1.0000</r>
       <r>  -0.1466  1.0000</r>
       <r>  -0.1466  1.0000</r>
       <r>  -0.1466  1.0000</r>
       <r>  -0.1466  1.0000</r>
       <r>  -0.1410  1.0000</r>
       <r>  -0.1409  1.0000</r>
       <r>  -0.1409  1.0000</r>
       <r>  -0.1409  1.0000</r>
       <r>  -0.1340  1.0000</r>
       <r>  -0.1340  1.0000</r>
       <r>  -0.1340  1.0000</r>
       <r>  -0.1339  1.0000</r>
       <r>  -0.1300  1.0000</r>
       <r>  -0.1300  1.0000</r>
       <r>  -0.1299  1.0000</r>
       <r>  -0.1299  1.0000</r>
       <r>  -0.1299  1.0000</r>
       <r>  -0.1299  1.0000</r>
       <r>  -0.1298  1.0000</r>
       <r>  -0.1298  1.0000</r>
       <r>   3.1189  0.0000</r>
       <r>   3.1189  0.0000</r>
       <r>   3.1189  0.0000</r>
       <r>   3.1189  0.0000</r>
       <r>   3.4954  0.0000</r>
       <r>   3.4954  0.0000</r>
       <r>   3.4957  0.0000</r>
       <r>   3.4957  0.0000</r>
       <r>   3.4957  0.0000</r>
       <r>   3.4957  0.0000</r>
       <r>   3.4961  0.0000</r>
       <r>   3.4961  0.0000</r>
       <r>   3.9365  0.0000</r>
       <r>   3.9365  0.0000</r>
       <r>   3.9371  0.0000</r>
       <r>   3.9371  0.0000</r>
       <r>   3.9371  0.0000</r>
       <r>   3.9371  0.0000</r>
       <r>   3.9376  0.0000</r>
       <r>   3.9376  0.0000</r>
       <r>   4.3127  0.0000</r>
       <r>   4.3127  0.0000</r>
       <r>   4.3127  0.0000</r>
       <r>   4.3128  0.0000</r>
       <r>   8.0176  0.0000</r>
       <r>   8.0176  0.0000</r>
       <r>   8.0180  0.0000</r>
       <r>   8.0180  0.0000</r>
       <r>   8.0180  0.0000</r>
       <r>   8.0180  0.0000</r>
       <r>   8.0184  0.0000</r>
       <r>   8.0184  0.0000</r>
       <r>   8.2994  0.0000</r>
       <r>   8.2994  0.0000</r>
       <r>   8.2995  0.0000</r>
       <r>   8.2995  0.0000</r>
       <r>   8.7906  0.0000</r>
       <r>   8.7906  0.0000</r>
       <r>   8.7906  0.0000</r>
       <r>   8.7906  0.0000</r>
       <r>   9.0706  0.0000</r>
       <r>   9.0706  0.0000</r>
       <r>   9.0709  0.0000</r>
       <r>   9.0709  0.0000</r>
       <r>   9.0709  0.0000</r>
       <r>   9.0709  0.0000</r>
       <r>   9.0712  0.0000</r>
       <r>   9.0712  0.0000</r>
      </set>
      <set comment="kpoint 196">
       <r>  -3.1005  1.0000</r>
       <r>  -3.0990  1.0000</r>
       <r>  -3.0990  1.0000</r>
       <r>  -3.0990  1.0000</r>
       <r>  -3.0981  1.0000</r>
       <r>  -3.0981  1.0000</r>
       <r>  -3.0980  1.0000</r>
       <r>  -3.0966  1.0000</r>
       <r>  -2.7106  1.0000</r>
       <r>  -2.7102  1.0000</r>
       <r>  -2.7102  1.0000</r>
       <r>  -2.7100  1.0000</r>
       <r>  -2.7091  1.0000</r>
       <r>  -2.7087  1.0000</r>
       <r>  -2.7085  1.0000</r>
       <r>  -2.7085  1.0000</r>
       <r>  -2.7085  1.0000</r>
       <r>  -2.7084  1.0000</r>
       <r>  -2.7084  1.0000</r>
       <r>  -2.7084  1.0000</r>
       <r>  -2.7083  1.0000</r>
       <r>  -2.7082  1.0000</r>
       <r>  -2.7082  1.0000</r>
       <r>  -2.7081  1.0000</r>
       <r>  -2.7081  1.0000</r>
       <r>  -2.7081  1.0000</r>
       <r>  -2.7080  1.0000</r>
       <r>  -2.7076  1.0000</r>
       <r>  -2.7067  1.0000</r>
       <r>  -2.7065  1.0000</r>
       <r>  -2.7065  1.0000</r>
       <r>  -2.7060  1.0000</r>
       <r>  -2.2124  1.0000</r>
       <r>  -2.2094  1.0000</r>
       <r>  -2.2093  1.0000</r>
       <r>  -2.2092  1.0000</r>
       <r>  -2.2092  1.0000</r>
       <r>  -2.2087  1.0000</r>
       <r>  -2.2084  1.0000</r>
       <r>  -2.2084  1.0000</r>
       <r>  -2.2083  1.0000</r>
       <r>  -2.2082  1.0000</r>
       <r>  -2.2082  1.0000</r>
       <r>  -2.2082  1.0000</r>
       <r>  -2.2082  1.0000</r>
       <r>  -2.2082  1.0000</r>
       <r>  -2.2082  1.0000</r>
       <r>  -2.2081  1.0000</r>
       <r>  -2.2080  1.0000</r>
       <r>  -2.2080  1.0000</r>
       <r>  -2.2077  1.0000</r>
       <r>  -2.2072  1.0000</r>
       <r>  -2.2072  1.0000</r>
       <r>  -2.2071  1.0000</r>
       <r>  -2.2071  1.0000</r>
       <r>  -2.2040  1.0000</r>
       <r>  -1.5782  1.0000</r>
       <r>  -1.5782  1.0000</r>
       <r>  -1.5779  1.0000</r>
       <r>  -1.5777  1.0000</r>
       <r>  -1.5773  1.0000</r>
       <r>  -1.5772  1.0000</r>
       <r>  -1.5771  1.0000</r>
       <r>  -1.5771  1.0000</r>
       <r>  -1.5769  1.0000</r>
       <r>  -1.5769  1.0000</r>
       <r>  -1.5768  1.0000</r>
       <r>  -1.5768  1.0000</r>
       <r>  -1.5763  1.0000</r>
       <r>  -1.5762  1.0000</r>
       <r>  -1.5759  1.0000</r>
       <r>  -1.5759  1.0000</r>
       <r>  -1.4722  1.0000</r>
       <r>  -1.4722  1.0000</r>
       <r>  -1.4709  1.0000</r>
       <r>  -1.4709  1.0000</r>
       <r>  -1.4708  1.0000</r>
       <r>  -1.4708  1.0000</r>
       <r>  -1.4695  1.0000</r>
       <r>  -1.4695  1.0000</r>
       <r>  -1.3072  1.0000</r>
       <r>  -1.3072  1.0000</r>
       <r>  -1.3061  1.0000</r>
       <r>  -1.3058  1.0000</r>
       <r>  -1.3047  1.0000</r>
       <r>  -1.3045  1.0000</r>
       <r>  -1.3045  1.0000</r>
       <r>  -1.3045  1.0000</r>
       <r>  -1.3045  1.0000</r>
       <r>  -1.3045  1.0000</r>
       <r>  -1.3044  1.0000</r>
       <r>  -1.3044  1.0000</r>
       <r>  -1.3043  1.0000</r>
       <r>  -1.3043  1.0000</r>
       <r>  -1.3042  1.0000</r>
       <r>  -1.3042  1.0000</r>
       <r>  -1.3042  1.0000</r>
       <r>  -1.3042  1.0000</r>
       <r>  -1.3042  1.0000</r>
       <r>  -1.3040  1.0000</r>
       <r>  -1.3029  1.0000</r>
       <r>  -1.3026  1.0000</r>
       <r>  -1.3015  1.0000</r>
       <r>  -1.3015  1.0000</r>
       <r>  -1.0288  1.0000</r>
       <r>  -1.0277  1.0000</r>
       <r>  -1.0277  1.0000</r>
       <r>  -1.0261  1.0000</r>
       <r>  -1.0260  1.0000</r>
       <r>  -1.0260  1.0000</r>
       <r>  -1.0260  1.0000</r>
       <r>  -1.0258  1.0000</r>
       <r>  -1.0257  1.0000</r>
       <r>  -1.0256  1.0000</r>
       <r>  -1.0256  1.0000</r>
       <r>  -1.0256  1.0000</r>
       <r>  -1.0256  1.0000</r>
       <r>  -1.0255  1.0000</r>
       <r>  -1.0255  1.0000</r>
       <r>  -1.0255  1.0000</r>
       <r>  -1.0254  1.0000</r>
       <r>  -1.0252  1.0000</r>
       <r>  -1.0252  1.0000</r>
       <r>  -1.0252  1.0000</r>
       <r>  -1.0250  1.0000</r>
       <r>  -1.0234  1.0000</r>
       <r>  -1.0234  1.0000</r>
       <r>  -1.0225  1.0000</r>
       <r>  -0.7540  1.0000</r>
       <r>  -0.7528  1.0000</r>
       <r>  -0.7528  1.0000</r>
       <r>  -0.7528  1.0000</r>
       <r>  -0.7521  1.0000</r>
       <r>  -0.7521  1.0000</r>
       <r>  -0.7519  1.0000</r>
       <r>  -0.7518  1.0000</r>
       <r>  -0.7518  1.0000</r>
       <r>  -0.7517  1.0000</r>
       <r>  -0.7515  1.0000</r>
       <r>  -0.7515  1.0000</r>
       <r>  -0.7508  1.0000</r>
       <r>  -0.7508  1.0000</r>
       <r>  -0.7507  1.0000</r>
       <r>  -0.7496  1.0000</r>
       <r>  -0.1328  1.0000</r>
       <r>  -0.1328  1.0000</r>
       <r>  -0.1326  1.0000</r>
       <r>  -0.1324  1.0000</r>
       <r>  -0.1324  1.0000</r>
       <r>  -0.1324  1.0000</r>
       <r>  -0.1324  1.0000</r>
       <r>  -0.1324  1.0000</r>
       <r>  -0.1323  1.0000</r>
       <r>  -0.1322  1.0000</r>
       <r>  -0.1322  1.0000</r>
       <r>  -0.1322  1.0000</r>
       <r>  -0.1321  1.0000</r>
       <r>  -0.1320  1.0000</r>
       <r>  -0.1320  1.0000</r>
       <r>  -0.1320  1.0000</r>
       <r>  -0.1319  1.0000</r>
       <r>  -0.1319  1.0000</r>
       <r>  -0.1319  1.0000</r>
       <r>  -0.1318  1.0000</r>
       <r>  -0.1318  1.0000</r>
       <r>  -0.1317  1.0000</r>
       <r>  -0.1315  1.0000</r>
       <r>  -0.1315  1.0000</r>
       <r>   3.6999  0.0000</r>
       <r>   3.7020  0.0000</r>
       <r>   3.7020  0.0000</r>
       <r>   3.7043  0.0000</r>
       <r>   3.7045  0.0000</r>
       <r>   3.7047  0.0000</r>
       <r>   3.7047  0.0000</r>
       <r>   3.7048  0.0000</r>
       <r>   3.7048  0.0000</r>
       <r>   3.7048  0.0000</r>
       <r>   3.7048  0.0000</r>
       <r>   3.7048  0.0000</r>
       <r>   3.7050  0.0000</r>
       <r>   3.7051  0.0000</r>
       <r>   3.7051  0.0000</r>
       <r>   3.7051  0.0000</r>
       <r>   3.7051  0.0000</r>
       <r>   3.7052  0.0000</r>
       <r>   3.7052  0.0000</r>
       <r>   3.7054  0.0000</r>
       <r>   3.7056  0.0000</r>
       <r>   3.7079  0.0000</r>
       <r>   3.7079  0.0000</r>
       <r>   3.7100  0.0000</r>
       <r>   8.5234  0.0000</r>
       <r>   8.5234  0.0000</r>
       <r>   8.5252  0.0000</r>
       <r>   8.5271  0.0000</r>
       <r>   8.5273  0.0000</r>
       <r>   8.5277  0.0000</r>
       <r>   8.5277  0.0000</r>
       <r>   8.5280  0.0000</r>
       <r>   8.5281  0.0000</r>
       <r>   8.5281  0.0000</r>
       <r>   8.5281  0.0000</r>
       <r>   8.5282  0.0000</r>
       <r>   8.5283  0.0000</r>
       <r>   8.5283  0.0000</r>
       <r>   8.5283  0.0000</r>
       <r>   8.5283  0.0000</r>
       <r>   8.5284  0.0000</r>
       <r>   8.5287  0.0000</r>
       <r>   8.5287  0.0000</r>
       <r>   8.5291  0.0000</r>
       <r>   8.5294  0.0000</r>
       <r>   8.5312  0.0000</r>
       <r>   8.5331  0.0000</r>
       <r>   8.5331  0.0000</r>
      </set>
     </set>
    </set>
   </array>
  </eigenvalues>
 </calculation>
 <structure name="finalpos" >
  <crystal>
   <varray name="basis" >
    <v>       8.40971406      0.00000000      0.00000000</v>
    <v>       0.00000000      8.40971406      0.00000000</v>
    <v>       0.00000000      0.00000000      8.40971406</v>
   </varray>
   <i name="volume">    594.76265084</i>
   <varray name="rec_basis" >
    <v>       0.11891011      0.00000000      0.00000000</v>
    <v>       0.00000000      0.11891011      0.00000000</v>
    <v>       0.00000000      0.00000000      0.11891011</v>
   </varray>
  </crystal>
  <varray name="positions" >
   <v>       0.00118910      0.00000000      0.00000000</v>
   <v>       0.50000000      0.00000000      0.00000000</v>
   <v>       0.00000000      0.50000000      0.00000000</v>
   <v>       0.50000000      0.50000000      0.00000000</v>
   <v>       0.00000000      0.00000000      0.50000000</v>
   <v>       0.50000000      0.00000000      0.50000000</v>
   <v>       0.00000000      0.50000000      0.50000000</v>
   <v>       0.50000000      0.50000000      0.50000000</v>
   <v>       0.25000000      0.25000000      0.00000000</v>
   <v>       0.75000000      0.25000000      0.00000000</v>
   <v>       0.25000000      0.75000000      0.00000000</v>
   <v>       0.75000000      0.75000000      0.00000000</v>
   <v>       0.25000000      0.25000000      0.50000000</v>
   <v>       0.75000000      0.25000000      0.50000000</v>
   <v>       0.25000000      0.75000000      0.50000000</v>
   <v>       0.75000000      0.75000000      0.50000000</v>
   <v>       0.25000000      0.00000000      0.25000000</v>
   <v>       0.75000000      0.00000000      0.25000000</v>
   <v>       0.25000000      0.50000000      0.25000000</v>
   <v>       0.75000000      0.50000000      0.25000000</v>
   <v>       0.25000000      0.00000000      0.75000000</v>
   <v>       0.75000000      0.00000000      0.75000000</v>
   <v>       0.25000000      0.50000000      0.75000000</v>
   <v>       0.75000000      0.50000000      0.75000000</v>
   <v>       0.00000000      0.25000000      0.25000000</v>
   <v>       0.50000000      0.25000000      0.25000000</v>
   <v>       0.00000000      0.75000000      0.25000000</v>
   <v>       0.50000000      0.75000000      0.25000000</v>
   <v>       0.00000000      0.25000000      0.75000000</v>
   <v>       0.50000000      0.25000000      0.75000000</v>
   <v>       0.00000000      0.75000000      0.75000000</v>
   <v>       0.50000000      0.75000000      0.75000000</v>
  </varray>
 </structure>
</modeling>
