  32  32   0   0
  0.1557434E+02  0.7928419E-09  0.7928419E-09  0.7928419E-09  0.5000000E-15
  1.000000000000000E-004
  CAR 
 unknown system                          
     17.18218546     -4.86814732  301      7.05679975      1.00000000
     -4.868  0.0000E+00  0.0000E+00
     -4.795  0.0000E+00  0.0000E+00
     -4.721  0.0000E+00  0.0000E+00
     -4.648  0.0000E+00  0.0000E+00
     -4.574  0.0000E+00  0.0000E+00
     -4.501  0.0000E+00  0.0000E+00
     -4.427  0.0000E+00  0.0000E+00
     -4.354  0.0000E+00  0.0000E+00
     -4.280  0.0000E+00  0.0000E+00
     -4.207  0.0000E+00  0.0000E+00
     -4.133  0.0000E+00  0.0000E+00
     -4.060  0.0000E+00  0.0000E+00
     -3.986  0.0000E+00  0.0000E+00
     -3.913  0.2930E-12  0.2154E-13
     -3.839  0.8696E-01  0.6391E-02
     -3.766  0.4557E+00  0.3989E-01
     -3.692  0.7985E+00  0.9892E-01
     -3.619  0.1269E+01  0.1922E+00
     -3.545  0.1324E+01  0.2895E+00
     -3.472  0.1192E+01  0.3781E+00
     -3.398  0.1765E+01  0.5079E+00
     -3.325  0.9524E+00  0.5804E+00
     -3.251  0.2041E+01  0.7305E+00
     -3.178  0.1837E+01  0.8655E+00
     -3.104  0.2492E+01  0.1049E+01
     -3.031  0.1799E+01  0.1182E+01
     -2.957  0.2979E+01  0.1401E+01
     -2.884  0.2247E+01  0.1569E+01
     -2.810  0.2064E+01  0.1724E+01
     -2.737  0.3384E+01  0.1974E+01
     -2.663  0.2391E+01  0.2152E+01
     -2.590  0.3023E+01  0.2374E+01
     -2.516  0.2737E+01  0.2576E+01
     -2.443  0.4150E+01  0.2883E+01
     -2.369  0.2618E+01  0.3076E+01
     -2.296  0.4433E+01  0.3403E+01
     -2.222  0.3221E+01  0.3646E+01
     -2.149  0.3525E+01  0.3914E+01
     -2.075  0.4503E+01  0.4247E+01
     -2.002  0.4335E+01  0.4570E+01
     -1.928  0.3450E+01  0.4824E+01
     -1.855  0.6023E+01  0.5269E+01
     -1.781  0.5055E+01  0.5642E+01
     -1.708  0.4857E+01  0.6001E+01
     -1.634  0.5202E+01  0.6387E+01
     -1.561  0.7148E+01  0.6912E+01
     -1.487  0.5186E+01  0.7294E+01
     -1.414  0.1025E+02  0.8048E+01
     -1.340  0.4557E+01  0.8404E+01
     -1.267  0.1067E+02  0.9189E+01
     -1.193  0.1718E+02  0.1045E+02
     -1.120  0.1891E+02  0.1186E+02
     -1.046  0.1795E+02  0.1319E+02
     -0.973  0.2341E+02  0.1491E+02
     -0.899  0.2327E+02  0.1665E+02
     -0.826  0.2631E+02  0.1861E+02
     -0.752  0.3297E+02  0.2105E+02
     -0.679  0.3277E+02  0.2347E+02
     -0.605  0.4202E+02  0.2658E+02
     -0.532  0.4499E+02  0.2990E+02
     -0.458  0.4998E+02  0.3362E+02
     -0.385  0.5228E+02  0.3749E+02
     -0.311  0.5799E+02  0.4181E+02
     -0.238  0.5357E+02  0.4579E+02
     -0.164  0.5200E+02  0.4965E+02
     -0.091  0.5325E+02  0.5361E+02
     -0.017  0.4316E+02  0.5682E+02
      0.056  0.5293E+02  0.6073E+02
      0.130  0.4072E+02  0.6374E+02
      0.203  0.5074E+02  0.6752E+02
      0.277  0.4597E+02  0.7093E+02
      0.350  0.4321E+02  0.7414E+02
      0.424  0.3582E+02  0.7681E+02
      0.497  0.3525E+02  0.7943E+02
      0.571  0.2847E+02  0.8156E+02
      0.644  0.3257E+02  0.8397E+02
      0.718  0.4800E+02  0.8753E+02
      0.791  0.4009E+02  0.9051E+02
      0.865  0.5290E+02  0.9441E+02
      0.938  0.5024E+02  0.9814E+02
      1.012  0.4924E+02  0.1018E+03
      1.085  0.5365E+02  0.1058E+03
      1.159  0.5365E+02  0.1097E+03
      1.232  0.5534E+02  0.1139E+03
      1.306  0.5030E+02  0.1176E+03
      1.379  0.5122E+02  0.1214E+03
      1.453  0.5548E+02  0.1255E+03
      1.526  0.6033E+02  0.1300E+03
      1.600  0.5030E+02  0.1337E+03
      1.673  0.6089E+02  0.1382E+03
      1.747  0.6326E+02  0.1429E+03
      1.820  0.6749E+02  0.1480E+03
      1.894  0.7368E+02  0.1534E+03
      1.967  0.7122E+02  0.1587E+03
      2.041  0.9330E+02  0.1656E+03
      2.114  0.1076E+03  0.1736E+03
      2.188  0.7734E+02  0.1794E+03
      2.261  0.6219E+02  0.1840E+03
      2.335  0.4901E+02  0.1876E+03
      2.408  0.5326E+02  0.1916E+03
      2.482  0.4188E+02  0.1947E+03
      2.555  0.5729E+02  0.1989E+03
      2.629  0.3775E+02  0.2017E+03
      2.702  0.4434E+02  0.2050E+03
      2.776  0.4489E+02  0.2084E+03
      2.849  0.4203E+02  0.2115E+03
      2.923  0.4350E+02  0.2147E+03
      2.996  0.4668E+02  0.2182E+03
      3.070  0.5298E+02  0.2221E+03
      3.143  0.5698E+02  0.2263E+03
      3.217  0.5633E+02  0.2305E+03
      3.290  0.5209E+02  0.2344E+03
      3.364  0.6836E+02  0.2394E+03
      3.437  0.5552E+02  0.2436E+03
      3.511  0.4914E+02  0.2472E+03
      3.584  0.5226E+02  0.2511E+03
      3.658  0.4871E+02  0.2547E+03
      3.731  0.4961E+02  0.2584E+03
      3.805  0.4198E+02  0.2615E+03
      3.878  0.4400E+02  0.2648E+03
      3.952  0.4762E+02  0.2683E+03
      4.025  0.4026E+02  0.2713E+03
      4.099  0.4381E+02  0.2745E+03
      4.172  0.4434E+02  0.2778E+03
      4.246  0.4171E+02  0.2809E+03
      4.319  0.4251E+02  0.2841E+03
      4.393  0.4654E+02  0.2876E+03
      4.466  0.4522E+02  0.2909E+03
      4.540  0.5463E+02  0.2950E+03
      4.613  0.5339E+02  0.2989E+03
      4.687  0.5567E+02  0.3030E+03
      4.760  0.8133E+02  0.3090E+03
      4.834  0.7597E+02  0.3147E+03
      4.908  0.8511E+02  0.3210E+03
      4.981  0.6504E+02  0.3259E+03
      5.055  0.4762E+02  0.3294E+03
      5.128  0.3895E+02  0.3323E+03
      5.202  0.3861E+02  0.3352E+03
      5.275  0.3006E+02  0.3374E+03
      5.349  0.5694E+01  0.3378E+03
      5.422  0.6095E+01  0.3383E+03
      5.496  0.6181E+01  0.3388E+03
      5.569  0.1796E+02  0.3401E+03
      5.643  0.4444E+01  0.3404E+03
      5.716  0.6517E+01  0.3409E+03
      5.790  0.5333E+01  0.3413E+03
      5.863  0.1361E+02  0.3423E+03
      5.937  0.7479E+01  0.3429E+03
      6.010  0.8015E+01  0.3435E+03
      6.084  0.4981E+01  0.3438E+03
      6.157  0.1101E+02  0.3446E+03
      6.231  0.9980E+01  0.3454E+03
      6.304  0.7189E+01  0.3459E+03
      6.378  0.7020E+01  0.3465E+03
      6.451  0.6421E+01  0.3469E+03
      6.525  0.1302E+02  0.3479E+03
      6.598  0.5600E+01  0.3483E+03
      6.672  0.7642E+01  0.3489E+03
      6.745  0.8779E+01  0.3495E+03
      6.819  0.1115E+02  0.3503E+03
      6.892  0.6406E+01  0.3508E+03
      6.966  0.7244E+01  0.3514E+03
      7.039  0.7224E+01  0.3519E+03
      7.113  0.9580E+01  0.3526E+03
      7.186  0.9971E+01  0.3533E+03
      7.260  0.8134E+01  0.3539E+03
      7.333  0.7790E+01  0.3545E+03
      7.407  0.7982E+01  0.3551E+03
      7.480  0.8060E+01  0.3557E+03
      7.554  0.9887E+01  0.3564E+03
      7.627  0.6473E+01  0.3569E+03
      7.701  0.9360E+01  0.3576E+03
      7.774  0.6672E+01  0.3581E+03
      7.848  0.6687E+01  0.3586E+03
      7.921  0.1232E+02  0.3595E+03
      7.995  0.8818E+01  0.3602E+03
      8.068  0.7154E+01  0.3607E+03
      8.142  0.4832E+01  0.3611E+03
      8.215  0.1086E+02  0.3619E+03
      8.289  0.7678E+01  0.3625E+03
      8.362  0.8772E+01  0.3631E+03
      8.436  0.7373E+01  0.3637E+03
      8.509  0.5496E+01  0.3641E+03
      8.583  0.1203E+02  0.3650E+03
      8.656  0.6722E+01  0.3655E+03
      8.730  0.8507E+01  0.3661E+03
      8.803  0.7007E+01  0.3666E+03
      8.877  0.7100E+01  0.3671E+03
      8.950  0.7938E+01  0.3677E+03
      9.024  0.6807E+01  0.3683E+03
      9.097  0.6343E+01  0.3687E+03
      9.171  0.7556E+01  0.3693E+03
      9.244  0.9540E+01  0.3700E+03
      9.318  0.6587E+01  0.3705E+03
      9.391  0.7111E+01  0.3710E+03
      9.465  0.6160E+01  0.3715E+03
      9.538  0.6564E+01  0.3720E+03
      9.612  0.9088E+01  0.3726E+03
      9.685  0.6299E+01  0.3731E+03
      9.759  0.6584E+01  0.3736E+03
      9.832  0.5759E+01  0.3740E+03
      9.906  0.7711E+01  0.3746E+03
      9.979  0.6212E+01  0.3751E+03
     10.053  0.7528E+01  0.3756E+03
     10.126  0.3628E+01  0.3759E+03
     10.200  0.7742E+01  0.3765E+03
     10.273  0.8657E+01  0.3771E+03
     10.347  0.4368E+01  0.3774E+03
     10.420  0.4689E+01  0.3778E+03
     10.494  0.6619E+01  0.3782E+03
     10.567  0.1489E+02  0.3794E+03
     10.641  0.2245E+02  0.3810E+03
     10.714  0.1057E+02  0.3818E+03
     10.788  0.6863E+01  0.3823E+03
     10.861  0.1625E+02  0.3835E+03
     10.935  0.1178E+02  0.3844E+03
     11.008  0.1067E+02  0.3852E+03
     11.082  0.5804E+01  0.3856E+03
     11.155  0.1074E+02  0.3864E+03
     11.229  0.1484E+02  0.3875E+03
     11.302  0.6420E+01  0.3880E+03
     11.376  0.6836E+01  0.3885E+03
     11.449  0.6887E+01  0.3890E+03
     11.523  0.1068E+02  0.3898E+03
     11.596  0.1100E+02  0.3906E+03
     11.670  0.7093E+01  0.3911E+03
     11.743  0.7913E+01  0.3917E+03
     11.817  0.6222E+01  0.3922E+03
     11.890  0.8584E+01  0.3928E+03
     11.964  0.1213E+02  0.3937E+03
     12.037  0.1103E+02  0.3945E+03
     12.111  0.5601E+01  0.3949E+03
     12.184  0.8469E+01  0.3956E+03
     12.258  0.9467E+01  0.3962E+03
     12.331  0.1130E+02  0.3971E+03
     12.405  0.9200E+01  0.3978E+03
     12.478  0.9385E+01  0.3985E+03
     12.552  0.1046E+02  0.3992E+03
     12.625  0.9575E+01  0.4000E+03
     12.699  0.8844E+01  0.4006E+03
     12.772  0.9333E+01  0.4013E+03
     12.846  0.1328E+02  0.4023E+03
     12.919  0.8172E+01  0.4029E+03
     12.993  0.1238E+02  0.4038E+03
     13.066  0.1225E+02  0.4047E+03
     13.140  0.7867E+01  0.4053E+03
     13.213  0.9768E+01  0.4060E+03
     13.287  0.6344E+01  0.4065E+03
     13.360  0.1251E+02  0.4074E+03
     13.434  0.1485E+02  0.4085E+03
     13.507  0.1022E+02  0.4093E+03
     13.581  0.7987E+01  0.4099E+03
     13.654  0.6958E+01  0.4104E+03
     13.728  0.1154E+02  0.4112E+03
     13.801  0.1204E+02  0.4121E+03
     13.875  0.5592E+01  0.4125E+03
     13.948  0.6658E+01  0.4130E+03
     14.022  0.9740E+01  0.4138E+03
     14.095  0.9692E+01  0.4145E+03
     14.169  0.9560E+01  0.4152E+03
     14.242  0.5878E+01  0.4156E+03
     14.316  0.8745E+01  0.4163E+03
     14.389  0.5410E+01  0.4167E+03
     14.463  0.9910E+01  0.4174E+03
     14.536  0.8000E+01  0.4180E+03
     14.610  0.9272E+01  0.4187E+03
     14.683  0.7804E+01  0.4193E+03
     14.757  0.6833E+01  0.4198E+03
     14.830  0.9763E+01  0.4205E+03
     14.904  0.9663E+01  0.4212E+03
     14.977  0.6234E+01  0.4217E+03
     15.051  0.4848E+01  0.4221E+03
     15.124  0.6179E+01  0.4225E+03
     15.198  0.5512E+01  0.4229E+03
     15.271  0.6899E+01  0.4234E+03
     15.345  0.2007E+01  0.4236E+03
     15.418  0.1516E+01  0.4237E+03
     15.492  0.9704E+00  0.4238E+03
     15.565  0.9485E+00  0.4239E+03
     15.639  0.9196E+00  0.4239E+03
     15.712  0.8941E+00  0.4240E+03
     15.786  0.3495E-01  0.4240E+03
     15.859  0.7686E-01  0.4240E+03
     15.933  0.7458E-02  0.4240E+03
     16.006  0.0000E+00  0.4240E+03
     16.080  0.0000E+00  0.4240E+03
     16.153  0.1235E-05  0.4240E+03
     16.227  0.1575E-01  0.4240E+03
     16.300  0.0000E+00  0.4240E+03
     16.374  0.0000E+00  0.4240E+03
     16.447  0.0000E+00  0.4240E+03
     16.521  0.0000E+00  0.4240E+03
     16.594  0.0000E+00  0.4240E+03
     16.668  0.0000E+00  0.4240E+03
     16.741  0.0000E+00  0.4240E+03
     16.815  0.0000E+00  0.4240E+03
     16.888  0.0000E+00  0.4240E+03
     16.962  0.0000E+00  0.4240E+03
     17.035  0.0000E+00  0.4240E+03
     17.109  0.0000E+00  0.4240E+03
     17.182  0.0000E+00  0.4240E+03
