   32   32    1    1
  0.1557434E+02  0.7928419E-09  0.7928419E-09  0.7928419E-09  0.5000000E-15
  1.000000000000000E-004
  CAR 
 unknown system                          
  352  196  212
 
  0.0000000E+00  0.0000000E+00  0.0000000E+00  0.5787037E-03
   1       -3.8659
   2       -1.2801
   3       -1.2762
   4       -1.2762
   5       -1.2762
   6       -1.2762
   7       -1.2724
   8       -1.2451
   9       -1.2451
  10       -1.2451
  11       -1.2450
  12       -1.0324
  13       -1.0324
  14       -1.0324
  15       -0.6747
  16       -0.6747
  17       -0.6747
  18        0.1535
  19        0.1550
  20        0.1550
  21        0.1572
  22        0.1575
  23        0.1575
  24        0.1575
  25        0.1575
  26        0.1578
  27        0.1600
  28        0.1600
  29        0.1615
  30        0.2071
  31        0.2100
  32        0.2100
  33        0.2100
  34        0.2101
  35        0.2129
  36        0.4024
  37        0.4054
  38        0.4054
  39        0.4054
  40        0.4054
  41        0.4084
  42        1.0775
  43        1.0814
  44        1.0814
  45        1.0830
  46        1.0830
  47        1.0830
  48        1.0830
  49        1.0830
  50        1.0831
  51        1.0845
  52        1.0845
  53        1.0881
  54        1.1579
  55        1.1579
  56        1.1609
  57        1.1609
  58        1.1609
  59        1.1610
  60        1.1610
  61        1.1611
  62        1.1611
  63        1.1614
  64        1.1642
  65        1.1642
  66        1.4536
  67        1.4588
  68        1.4588
  69        1.4588
  70        1.4591
  71        1.4591
  72        1.4592
  73        1.4592
  74        1.4594
  75        1.4596
  76        1.4596
  77        1.4646
  78        1.6682
  79        1.6682
  80        1.6682
  81        1.6682
  82        1.6683
  83        1.6683
  84        1.6683
  85        1.6683
  86        1.7181
  87        1.7181
  88        1.7182
  89        2.5110
  90        2.5139
  91        2.5140
  92        2.5140
  93        2.5140
  94        2.5170
  95        2.7730
  96        2.7741
  97        2.7757
  98        2.7757
  99        2.7766
 100        2.7766
 101        2.7766
 102        2.7766
 103        2.7775
 104        2.7775
 105        2.7793
 106        2.7801
 107        3.1455
 108        3.1455
 109        3.1491
 110        3.1491
 111        3.1495
 112        3.1495
 113        3.1495
 114        3.1495
 115        3.1498
 116        3.1498
 117        3.1533
 118        3.1533
 119        3.3013
 120        3.3038
 121        3.3038
 122        3.3038
 123        3.3038
 124        3.3064
 125        3.4700
 126        3.4700
 127        3.4736
 128        3.4741
 129        3.4741
 130        3.4742
 131        3.4742
 132        3.4742
 133        3.4744
 134        3.4749
 135        3.4787
 136        3.4787
 137        3.4981
 138        3.4983
 139        4.1439
 140        4.1457
 141        4.1457
 142        4.1457
 143        4.1457
 144        4.1476
 145        4.8568
 146        4.8568
 147        4.8568
 148        4.9040
 149        4.9041
 150        4.9041
 151        4.9041
 152        4.9041
 153        4.9041
 154        4.9041
 155        4.9041
 156        5.2836
 157        5.2840
 158        5.2840
 159        5.2840
 160        5.2840
 161        5.2840
 162        5.2864
 163        5.2865
 164        5.2865
 165        5.2865
 166        5.2866
 167        5.2869
 168        5.5837
 169        5.5837
 170        5.5837
 171        5.5837
 172        6.7796
 173        6.7799
 174        6.7799
 175        6.7808
 176        6.7814
 177        6.7815
 178        6.7815
 179        6.7815
 180        6.7821
 181        6.7831
 182        6.7831
 183        6.7833
 184        7.7657
 185        7.7657
 186        7.7658
 187       10.5977
 188       10.5977
 189       10.5977
 190       10.5977
 191       12.3542
 192       12.3546
 193       12.3547
 194       12.3547
 195       12.3547
 196       12.3551
 197       13.5865
 198       13.5869
 199       13.5869
 200       13.6455
 201       13.6455
 202       13.6492
 203       13.6492
 204       13.6499
 205       13.6499
 206       13.6499
 207       13.6503
 208       13.6506
 209       13.6506
 210       13.6542
 211       13.6542
 212       16.1799
 
  0.8333333E-01  0.0000000E+00  0.0000000E+00  0.1157407E-02
   1       -3.8437
   2       -1.5700
   3       -1.2601
   4       -1.2601
   5       -1.2601
   6       -1.2600
   7       -1.2320
   8       -1.2320
   9       -1.2320
  10       -1.2320
  11       -1.0332
  12       -1.0237
  13       -1.0169
  14       -1.0169
  15       -0.6662
  16       -0.6617
  17       -0.6617
  18        0.0417
  19        0.0417
  20        0.0417
  21        0.0417
  22        0.0882
  23        0.0882
  24        0.0882
  25        0.0882
  26        0.1779
  27        0.1781
  28        0.2216
  29        0.2216
  30        0.2216
  31        0.2217
  32        0.2535
  33        0.2575
  34        0.2575
  35        0.2575
  36        0.2576
  37        0.4127
  38        0.4127
  39        0.4127
  40        0.4127
  41        0.5611
  42        0.8733
  43        0.8733
  44        1.0257
  45        1.0259
  46        1.0259
  47        1.0259
  48        1.1270
  49        1.1277
  50        1.1277
  51        1.1278
  52        1.1432
  53        1.1434
  54        1.1434
  55        1.1437
  56        1.1477
  57        1.1479
  58        1.1479
  59        1.1480
  60        1.1623
  61        1.1624
  62        1.1624
  63        1.1631
  64        1.3763
  65        1.3764
  66        1.3764
  67        1.3764
  68        1.4710
  69        1.4710
  70        1.4929
  71        1.4936
  72        1.4936
  73        1.4936
  74        1.5070
  75        1.5070
  76        1.5070
  77        1.5078
  78        1.6621
  79        1.6621
  80        1.6621
  81        1.6621
  82        1.6790
  83        1.6790
  84        1.6790
  85        1.6791
  86        1.7056
  87        1.7287
  88        1.7287
  89        2.4540
  90        2.4541
  91        2.4541
  92        2.4541
  93        2.5061
  94        2.6141
  95        2.7245
  96        2.7246
  97        2.7246
  98        2.7247
  99        2.7756
 100        2.7756
 101        2.7756
 102        2.7756
 103        2.8364
 104        2.8364
 105        2.8365
 106        2.8365
 107        2.9358
 108        2.9358
 109        3.1487
 110        3.1487
 111        3.1488
 112        3.1489
 113        3.1980
 114        3.1980
 115        3.1980
 116        3.1980
 117        3.3095
 118        3.3096
 119        3.3096
 120        3.3097
 121        3.3419
 122        3.3422
 123        3.3683
 124        3.3683
 125        3.3693
 126        3.3693
 127        3.3748
 128        3.3748
 129        3.4844
 130        3.5031
 131        3.5315
 132        3.5315
 133        3.5315
 134        3.5318
 135        3.6043
 136        3.6043
 137        3.6044
 138        3.6044
 139        4.0579
 140        4.1614
 141        4.1614
 142        4.1614
 143        4.1614
 144        4.2346
 145        4.7401
 146        4.7402
 147        4.7402
 148        4.7402
 149        4.8370
 150        4.8370
 151        4.8504
 152        4.8876
 153        4.8876
 154        4.8876
 155        4.8876
 156        5.1762
 157        5.1762
 158        5.2598
 159        5.2598
 160        5.2603
 161        5.2603
 162        5.2603
 163        5.2603
 164        5.2836
 165        5.2840
 166        5.2864
 167        5.2869
 168        5.7147
 169        5.7148
 170        5.7148
 171        5.7148
 172        6.4607
 173        6.4607
 174        6.4607
 175        6.4607
 176        6.7776
 177        6.7776
 178        6.7776
 179        6.7776
 180        7.1185
 181        7.1185
 182        7.1185
 183        7.1185
 184        7.6144
 185        7.8875
 186        7.8875
 187       10.6561
 188       10.6561
 189       10.6561
 190       10.6561
 191       12.1265
 192       12.1266
 193       12.1266
 194       12.1266
 195       12.3707
 196       12.3707
 197       13.0944
 198       13.0944
 199       13.5598
 200       13.5598
 201       13.6941
 202       13.6941
 203       13.6941
 204       13.6941
 205       13.7731
 206       13.7869
 207       13.7869
 208       13.7870
 209       13.7881
 210       14.1880
 211       14.1880
 212       15.8541
 
  0.1666667E+00  0.0000000E+00  0.0000000E+00  0.1157407E-02
   1       -3.7773
   2       -1.8905
   3       -1.2121
   4       -1.2121
   5       -1.2121
   6       -1.2120
   7       -1.1929
   8       -1.1929
   9       -1.1929
  10       -1.1929
  11       -0.9984
  12       -0.9710
  13       -0.9709
  14       -0.8602
  15       -0.6408
  16       -0.6227
  17       -0.6227
  18       -0.0931
  19       -0.0931
  20       -0.0930
  21       -0.0930
  22       -0.0719
  23       -0.0719
  24       -0.0718
  25       -0.0718
  26        0.0886
  27        0.0887
  28        0.1077
  29        0.2558
  30        0.2559
  31        0.2559
  32        0.2559
  33        0.3462
  34        0.3462
  35        0.3462
  36        0.3463
  37        0.4345
  38        0.4345
  39        0.4345
  40        0.4345
  41        0.6087
  42        0.6087
  43        0.7182
  44        0.9581
  45        0.9582
  46        0.9582
  47        0.9582
  48        1.1098
  49        1.1098
  50        1.1098
  51        1.1099
  52        1.1583
  53        1.1598
  54        1.1598
  55        1.1599
  56        1.1661
  57        1.1662
  58        1.1662
  59        1.1677
  60        1.2505
  61        1.2510
  62        1.2510
  63        1.2511
  64        1.2638
  65        1.2639
  66        1.2639
  67        1.2643
  68        1.5317
  69        1.5318
  70        1.5318
  71        1.5318
  72        1.6228
  73        1.6228
  74        1.6229
  75        1.6230
  76        1.6440
  77        1.6440
  78        1.6440
  79        1.6440
  80        1.6682
  81        1.7114
  82        1.7114
  83        1.7114
  84        1.7114
  85        1.7605
  86        1.7605
  87        1.8024
  88        1.8024
  89        2.3186
  90        2.3187
  91        2.3187
  92        2.3187
  93        2.5643
  94        2.6033
  95        2.6034
  96        2.6034
  97        2.6034
  98        2.7352
  99        2.7352
 100        2.8251
 101        2.8311
 102        2.8311
 103        2.8311
 104        2.8335
 105        2.9377
 106        2.9377
 107        2.9377
 108        2.9378
 109        3.1471
 110        3.1471
 111        3.1471
 112        3.1471
 113        3.2877
 114        3.2877
 115        3.2887
 116        3.2887
 117        3.2911
 118        3.2913
 119        3.2921
 120        3.2921
 121        3.3246
 122        3.3247
 123        3.3248
 124        3.3248
 125        3.4437
 126        3.4493
 127        3.4494
 128        3.5192
 129        3.6059
 130        3.6059
 131        3.6682
 132        3.6682
 133        3.6682
 134        3.6683
 135        3.7583
 136        3.7583
 137        3.7584
 138        3.7584
 139        3.9726
 140        4.2168
 141        4.2168
 142        4.2168
 143        4.2168
 144        4.3231
 145        4.4115
 146        4.4115
 147        4.4115
 148        4.4115
 149        4.7782
 150        4.7782
 151        4.8313
 152        4.8386
 153        4.8386
 154        4.8386
 155        4.8386
 156        4.9009
 157        4.9009
 158        5.1838
 159        5.1838
 160        5.1838
 161        5.1838
 162        5.1886
 163        5.1886
 164        5.2837
 165        5.2842
 166        5.2863
 167        5.2868
 168        5.9462
 169        5.9462
 170        5.9462
 171        5.9463
 172        6.1506
 173        6.1506
 174        6.1506
 175        6.1506
 176        6.7655
 177        6.7655
 178        6.7655
 179        6.7655
 180        7.2100
 181        7.4791
 182        7.4791
 183        7.4791
 184        7.4791
 185        8.2047
 186        8.2047
 187       10.8301
 188       10.8301
 189       10.8301
 190       10.8301
 191       11.6287
 192       11.6288
 193       11.6288
 194       11.6288
 195       12.4185
 196       12.4185
 197       12.5266
 198       12.5266
 199       13.4818
 200       13.4819
 201       13.8246
 202       13.8246
 203       13.8246
 204       13.8246
 205       14.0290
 206       14.0290
 207       14.0290
 208       14.0290
 209       14.2865
 210       14.7037
 211       14.7037
 212       15.2294
 
  0.2500000E+00  0.0000000E+00  0.0000000E+00  0.1157407E-02
   1       -3.6674
   2       -2.2164
   3       -1.1336
   4       -1.1336
   5       -1.1335
   6       -1.1335
   7       -1.1280
   8       -1.1280
   9       -1.1279
  10       -1.1279
  11       -0.9583
  12       -0.8957
  13       -0.8956
  14       -0.7634
  15       -0.5986
  16       -0.5577
  17       -0.5577
  18       -0.2612
  19       -0.2612
  20       -0.2611
  21       -0.2611
  22       -0.2457
  23       -0.2456
  24       -0.2455
  25       -0.2455
  26       -0.0426
  27       -0.0426
  28       -0.0299
  29        0.3109
  30        0.3110
  31        0.3110
  32        0.3110
  33        0.3677
  34        0.3677
  35        0.4266
  36        0.4266
  37        0.4266
  38        0.4266
  39        0.4702
  40        0.4702
  41        0.4702
  42        0.4702
  43        0.8738
  44        0.8828
  45        0.8828
  46        0.8828
  47        0.8829
  48        1.0530
  49        1.0531
  50        1.0531
  51        1.0531
  52        1.1359
  53        1.1359
  54        1.1359
  55        1.1359
  56        1.1706
  57        1.1718
  58        1.1718
  59        1.1719
  60        1.1804
  61        1.1805
  62        1.1805
  63        1.1817
  64        1.3276
  65        1.3276
  66        1.3276
  67        1.3276
  68        1.5552
  69        1.5552
  70        1.5553
  71        1.5553
  72        1.6070
  73        1.6151
  74        1.6151
  75        1.6151
  76        1.6152
  77        1.7649
  78        1.7649
  79        1.7649
  80        1.7649
  81        1.8132
  82        1.8132
  83        1.8617
  84        1.8617
  85        1.8617
  86        1.8617
  87        2.1537
  88        2.1537
  89        2.1617
  90        2.1618
  91        2.1621
  92        2.1621
  93        2.4580
  94        2.4581
  95        2.4581
  96        2.4581
  97        2.5494
  98        2.5494
  99        2.6647
 100        2.9253
 101        2.9254
 102        2.9254
 103        2.9254
 104        3.0551
 105        3.0551
 106        3.0551
 107        3.0551
 108        3.1450
 109        3.1450
 110        3.1451
 111        3.1451
 112        3.1608
 113        3.2302
 114        3.2302
 115        3.2302
 116        3.2302
 117        3.3416
 118        3.3418
 119        3.3418
 120        3.3419
 121        3.3589
 122        3.3589
 123        3.3589
 124        3.3590
 125        3.3777
 126        3.5453
 127        3.6086
 128        3.6086
 129        3.8383
 130        3.8383
 131        3.8383
 132        3.8384
 133        3.8424
 134        3.8424
 135        3.8912
 136        3.9331
 137        3.9331
 138        3.9331
 139        3.9331
 140        4.0365
 141        4.0365
 142        4.0365
 143        4.0366
 144        4.3289
 145        4.3289
 146        4.3289
 147        4.3289
 148        4.4095
 149        4.5371
 150        4.5371
 151        4.6817
 152        4.6818
 153        4.7587
 154        4.7588
 155        4.7588
 156        4.7588
 157        4.8001
 158        5.0630
 159        5.0630
 160        5.0630
 161        5.0630
 162        5.0743
 163        5.0743
 164        5.2838
 165        5.2844
 166        5.2861
 167        5.2867
 168        5.8480
 169        5.8480
 170        5.8480
 171        5.8480
 172        6.1638
 173        6.1638
 174        6.1639
 175        6.1639
 176        6.6508
 177        6.7436
 178        6.7436
 179        6.7436
 180        6.7437
 181        7.8711
 182        7.8711
 183        7.8711
 184        7.8712
 185        8.6377
 186        8.6377
 187       11.0435
 188       11.0435
 189       11.0435
 190       11.0436
 191       11.1154
 192       11.1154
 193       11.1155
 194       11.1155
 195       11.9510
 196       11.9510
 197       12.4970
 198       12.4971
 199       13.3622
 200       13.3622
 201       14.0351
 202       14.0351
 203       14.0351
 204       14.0351
 205       14.2415
 206       14.2415
 207       14.2415
 208       14.2415
 209       14.5269
 210       14.5269
 211       14.5269
 212       14.5269
 
  0.3333333E+00  0.0000000E+00  0.0000000E+00  0.1157407E-02
   1       -3.5152
   2       -2.5320
   3       -1.0380
   4       -1.0380
   5       -1.0379
   6       -1.0379
   7       -1.0268
   8       -1.0268
   9       -1.0267
  10       -1.0267
  11       -0.9066
  12       -0.7931
  13       -0.7931
  14       -0.7323
  15       -0.5401
  16       -0.4671
  17       -0.4671
  18       -0.4502
  19       -0.4502
  20       -0.4501
  21       -0.4501
  22       -0.4109
  23       -0.4108
  24       -0.4108
  25       -0.4108
  26       -0.1977
  27       -0.1977
  28       -0.1575
  29        0.1509
  30        0.1509
  31        0.3830
  32        0.3831
  33        0.3831
  34        0.3831
  35        0.4964
  36        0.4964
  37        0.4964
  38        0.4964
  39        0.5188
  40        0.5188
  41        0.5188
  42        0.5188
  43        0.8035
  44        0.8035
  45        0.8035
  46        0.8035
  47        0.9858
  48        0.9859
  49        0.9859
  50        0.9860
  51        1.0109
  52        1.0109
  53        1.0109
  54        1.0110
  55        1.0251
  56        1.1779
  57        1.1788
  58        1.1788
  59        1.1788
  60        1.1910
  61        1.1911
  62        1.1911
  63        1.1920
  64        1.3838
  65        1.3838
  66        1.3838
  67        1.3838
  68        1.5240
  69        1.5772
  70        1.5773
  71        1.5773
  72        1.5774
  73        1.5951
  74        1.5951
  75        1.5951
  76        1.5953
  77        1.8388
  78        1.8388
  79        1.8388
  80        1.8389
  81        1.8868
  82        1.8868
  83        2.0082
  84        2.0082
  85        2.0083
  86        2.0083
  87        2.1681
  88        2.1681
  89        2.1681
  90        2.1681
  91        2.3105
  92        2.3106
  93        2.3106
  94        2.3106
  95        2.3799
  96        2.3799
  97        2.5246
  98        2.5246
  99        2.7888
 100        3.0377
 101        3.0377
 102        3.0378
 103        3.0378
 104        3.1438
 105        3.1438
 106        3.1438
 107        3.1439
 108        3.1660
 109        3.1660
 110        3.1660
 111        3.1660
 112        3.1904
 113        3.1904
 114        3.1904
 115        3.1904
 116        3.2884
 117        3.3522
 118        3.3523
 119        3.3523
 120        3.3523
 121        3.3708
 122        3.3708
 123        3.3708
 124        3.3709
 125        3.5816
 126        3.6033
 127        3.6477
 128        3.6477
 129        3.6477
 130        3.6477
 131        3.7992
 132        3.7994
 133        3.8150
 134        4.0184
 135        4.0184
 136        4.0184
 137        4.0185
 138        4.0793
 139        4.0793
 140        4.1238
 141        4.1238
 142        4.1240
 143        4.1240
 144        4.1361
 145        4.1361
 146        4.4924
 147        4.5039
 148        4.5039
 149        4.5039
 150        4.5039
 151        4.5505
 152        4.5506
 153        4.6508
 154        4.6508
 155        4.6508
 156        4.6508
 157        4.7573
 158        4.9068
 159        4.9068
 160        4.9069
 161        4.9069
 162        4.9225
 163        4.9225
 164        5.2840
 165        5.2846
 166        5.2859
 167        5.2866
 168        5.5517
 169        5.5517
 170        5.5517
 171        5.5517
 172        6.0188
 173        6.3430
 174        6.3431
 175        6.3431
 176        6.3431
 177        6.7090
 178        6.7090
 179        6.7090
 180        6.7091
 181        8.3018
 182        8.3018
 183        8.3018
 184        8.3019
 185        9.1348
 186        9.1348
 187       10.4408
 188       10.4408
 189       10.4408
 190       10.4408
 191       11.3724
 192       11.3724
 193       11.5037
 194       11.5037
 195       11.5037
 196       11.5037
 197       12.6044
 198       12.6044
 199       13.2140
 200       13.2140
 201       13.8280
 202       13.8280
 203       13.8280
 204       13.8280
 205       14.3165
 206       14.3165
 207       14.3165
 208       14.3165
 209       14.4142
 210       14.4142
 211       14.4143
 212       14.4143
 
  0.4166667E+00  0.0000000E+00  0.0000000E+00  0.1157407E-02
   1       -3.3223
   2       -2.8262
   3       -0.9235
   4       -0.9235
   5       -0.9235
   6       -0.9234
   7       -0.8955
   8       -0.8954
   9       -0.8954
  10       -0.8954
  11       -0.8487
  12       -0.7483
  13       -0.6665
  14       -0.6664
  15       -0.6271
  16       -0.6271
  17       -0.6270
  18       -0.6270
  19       -0.5801
  20       -0.5801
  21       -0.5801
  22       -0.5800
  23       -0.4659
  24       -0.3610
  25       -0.3610
  26       -0.3505
  27       -0.3505
  28       -0.2735
  29       -0.0413
  30       -0.0413
  31        0.4632
  32        0.4633
  33        0.4634
  34        0.4634
  35        0.5408
  36        0.5408
  37        0.5408
  38        0.5410
  39        0.5787
  40        0.5787
  41        0.5787
  42        0.5788
  43        0.7240
  44        0.7240
  45        0.7240
  46        0.7240
  47        0.9141
  48        0.9145
  49        0.9145
  50        0.9146
  51        0.9215
  52        0.9216
  53        0.9216
  54        0.9220
  55        1.1686
  56        1.1846
  57        1.1858
  58        1.1858
  59        1.1859
  60        1.1940
  61        1.1940
  62        1.1940
  63        1.1955
  64        1.4214
  65        1.4350
  66        1.4350
  67        1.4350
  68        1.4351
  69        1.5332
  70        1.5332
  71        1.5332
  72        1.5332
  73        1.6600
  74        1.6600
  75        1.6600
  76        1.6601
  77        1.8694
  78        1.8695
  79        1.8695
  80        1.8696
  81        1.9322
  82        1.9322
  83        1.9322
  84        1.9322
  85        1.9808
  86        1.9808
  87        2.1707
  88        2.1707
  89        2.1707
  90        2.1707
  91        2.2281
  92        2.2281
  93        2.5113
  94        2.5113
  95        2.5113
  96        2.5113
  97        2.9118
  98        2.9118
  99        2.9226
 100        3.1452
 101        3.1452
 102        3.1452
 103        3.1452
 104        3.1512
 105        3.1514
 106        3.1514
 107        3.1514
 108        3.1654
 109        3.1654
 110        3.1654
 111        3.1654
 112        3.1795
 113        3.2551
 114        3.2551
 115        3.2551
 116        3.2552
 117        3.2586
 118        3.2586
 119        3.2586
 120        3.2586
 121        3.3305
 122        3.3306
 123        3.3307
 124        3.3307
 125        3.3463
 126        3.3463
 127        3.3464
 128        3.3465
 129        3.6273
 130        3.7234
 131        3.7234
 132        3.7447
 133        4.0027
 134        4.0028
 135        4.1341
 136        4.1965
 137        4.1965
 138        4.1965
 139        4.1965
 140        4.3118
 141        4.3118
 142        4.3247
 143        4.3247
 144        4.3247
 145        4.3247
 146        4.3889
 147        4.3889
 148        4.5181
 149        4.5181
 150        4.5182
 151        4.5182
 152        4.5701
 153        4.7039
 154        4.7246
 155        4.7246
 156        4.7251
 157        4.7251
 158        4.7289
 159        4.7290
 160        4.7294
 161        4.7294
 162        4.7402
 163        4.7402
 164        5.2630
 165        5.2631
 166        5.2631
 167        5.2631
 168        5.2841
 169        5.2849
 170        5.2856
 171        5.2864
 172        5.3669
 173        6.4815
 174        6.4815
 175        6.4815
 176        6.4815
 177        6.6577
 178        6.6577
 179        6.6577
 180        6.6577
 181        8.7758
 182        8.7758
 183        8.7758
 184        8.7758
 185        9.6689
 186        9.6689
 187        9.8519
 188        9.8519
 189        9.8519
 190        9.8519
 191       10.7955
 192       10.7955
 193       11.9832
 194       11.9833
 195       11.9833
 196       11.9833
 197       12.7370
 198       12.7370
 199       13.0517
 200       13.0517
 201       13.1601
 202       13.1601
 203       13.1601
 204       13.1601
 205       14.5669
 206       14.5669
 207       14.5670
 208       14.5675
 209       14.6586
 210       14.6587
 211       14.6588
 212       14.6654
 
  0.5000000E+00  0.0000000E+00  0.0000000E+00  0.5787037E-03
   1       -3.0935
   2       -3.0894
   3       -0.7937
   4       -0.7912
   5       -0.7881
   6       -0.7881
   7       -0.7872
   8       -0.7870
   9       -0.7845
  10       -0.7844
  11       -0.7837
  12       -0.7837
  13       -0.7483
  14       -0.7457
  15       -0.7451
  16       -0.7451
  17       -0.7435
  18       -0.7435
  19       -0.7430
  20       -0.7402
  21       -0.5227
  22       -0.5214
  23       -0.5190
  24       -0.5177
  25       -0.3785
  26       -0.3750
  27       -0.2103
  28       -0.2103
  29       -0.2066
  30       -0.2066
  31        0.5251
  32        0.5289
  33        0.5289
  34        0.5290
  35        0.5291
  36        0.5292
  37        0.5292
  38        0.5329
  39        0.6455
  40        0.6462
  41        0.6462
  42        0.6476
  43        0.6485
  44        0.6498
  45        0.6498
  46        0.6505
  47        0.8827
  48        0.8835
  49        0.8835
  50        0.8845
  51        0.8846
  52        0.8856
  53        0.8856
  54        0.8865
  55        1.1878
  56        1.1907
  57        1.1907
  58        1.1912
  59        1.1919
  60        1.1925
  61        1.1925
  62        1.1952
  63        1.3015
  64        1.3027
  65        1.4839
  66        1.4845
  67        1.4845
  68        1.4846
  69        1.4855
  70        1.4855
  71        1.4856
  72        1.4862
  73        1.7505
  74        1.7505
  75        1.7507
  76        1.7517
  77        1.7526
  78        1.7535
  79        1.7538
  80        1.7538
  81        2.0404
  82        2.0412
  83        2.0412
  84        2.0431
  85        2.0440
  86        2.0458
  87        2.0458
  88        2.0466
  89        2.0931
  90        2.0931
  91        2.0965
  92        2.0965
  93        2.8758
  94        2.8765
  95        2.8770
  96        2.8770
  97        2.8778
  98        2.8778
  99        2.8783
 100        2.8790
 101        3.0543
 102        3.0566
 103        3.1505
 104        3.1505
 105        3.1510
 106        3.1514
 107        3.1516
 108        3.1519
 109        3.1523
 110        3.1523
 111        3.2507
 112        3.2523
 113        3.2523
 114        3.2525
 115        3.2535
 116        3.2539
 117        3.2539
 118        3.2554
 119        3.3113
 120        3.3113
 121        3.3135
 122        3.3135
 123        3.3137
 124        3.3142
 125        3.3155
 126        3.3155
 127        3.3165
 128        3.3165
 129        3.3167
 130        3.3173
 131        3.6804
 132        3.6835
 133        4.2028
 134        4.2029
 135        4.2036
 136        4.2037
 137        4.3632
 138        4.3640
 139        4.3640
 140        4.3644
 141        4.3657
 142        4.3661
 143        4.3661
 144        4.3670
 145        4.5254
 146        4.5254
 147        4.5275
 148        4.5276
 149        4.5283
 150        4.5284
 151        4.5298
 152        4.5298
 153        4.5338
 154        4.5338
 155        4.5353
 156        4.5353
 157        4.6409
 158        4.6413
 159        4.7292
 160        4.7306
 161        4.9845
 162        4.9855
 163        4.9855
 164        4.9860
 165        4.9865
 166        4.9870
 167        4.9870
 168        4.9880
 169        5.2842
 170        5.2852
 171        5.2853
 172        5.2864
 173        6.5824
 174        6.5827
 175        6.5834
 176        6.5834
 177        6.5849
 178        6.5849
 179        6.5856
 180        6.5858
 181        9.2907
 182        9.2907
 183        9.2927
 184        9.2932
 185        9.2944
 186        9.2948
 187        9.2967
 188        9.2967
 189       10.2237
 190       10.2237
 191       10.2273
 192       10.2273
 193       12.5369
 194       12.5369
 195       12.5390
 196       12.5395
 197       12.5409
 198       12.5414
 199       12.5436
 200       12.5436
 201       12.8886
 202       12.8888
 203       12.8889
 204       12.8891
 205       14.7181
 206       14.7181
 207       14.7184
 208       14.7185
 209       14.7195
 210       14.7198
 211       14.7198
 212       14.7274
 
  0.0000000E+00  0.8333333E-01  0.0000000E+00  0.2314815E-02
   1       -3.8437
   2       -1.5700
   3       -1.2630
   4       -1.2601
   5       -1.2600
   6       -1.2573
   7       -1.2321
   8       -1.2321
   9       -1.2320
  10       -1.2319
  11       -1.0331
  12       -1.0237
  13       -1.0169
  14       -1.0169
  15       -0.6662
  16       -0.6617
  17       -0.6617
  18        0.0392
  19        0.0416
  20        0.0417
  21        0.0442
  22        0.0870
  23        0.0881
  24        0.0884
  25        0.0895
  26        0.1779
  27        0.1781
  28        0.2196
  29        0.2216
  30        0.2216
  31        0.2237
  32        0.2535
  33        0.2554
  34        0.2575
  35        0.2575
  36        0.2597
  37        0.4103
  38        0.4127
  39        0.4127
  40        0.4151
  41        0.5611
  42        0.8733
  43        0.8733
  44        1.0236
  45        1.0259
  46        1.0259
  47        1.0282
  48        1.1250
  49        1.1277
  50        1.1278
  51        1.1298
  52        1.1417
  53        1.1418
  54        1.1441
  55        1.1446
  56        1.1463
  57        1.1477
  58        1.1491