       N       E                     dE             d eps       ncg     rms          rms(c)
DAV:   1     0.505316081016E+04    0.50532E+04   -0.21262E+05 83104   0.229E+03
DAV:   2     0.193375489185E+03   -0.48598E+04   -0.46757E+04 83104   0.599E+02
DAV:   3    -0.956589340715E+02   -0.28903E+03   -0.26742E+03 89684   0.163E+02
DAV:   4    -0.105284624477E+03   -0.96257E+01   -0.94796E+01 89432   0.273E+01
DAV:   5    -0.105457760377E+03   -0.17314E+00   -0.17254E+00 89968   0.306E+00    0.167E+01
DAV:   6    -0.984162696445E+02    0.70415E+01   -0.15399E+01 88076   0.144E+01    0.519E+00
DAV:   7    -0.975875749376E+02    0.82869E+00   -0.18580E+00 93580   0.442E+00    0.153E+00
DAV:   8    -0.974524139713E+02    0.13516E+00   -0.84818E-02 86384   0.104E+00    0.145E-01
DAV:   9    -0.974524111383E+02    0.28330E-05   -0.47034E-03 93536   0.222E-01    0.709E-02
DAV:  10    -0.974525440282E+02   -0.13289E-03   -0.34861E-04 86760   0.531E-02    0.109E-02
DAV:  11    -0.974525578563E+02   -0.13828E-04   -0.11858E-05 92072   0.148E-02    0.212E-03
DAV:  12    -0.974525644459E+02   -0.65897E-05   -0.64412E-07 87668   0.302E-03    0.104E-03
DAV:  13    -0.974525629347E+02    0.15113E-05   -0.45378E-08 80928   0.855E-04    0.463E-04
DAV:  14    -0.974525618057E+02    0.11290E-05   -0.14439E-08 53568   0.417E-04    0.953E-05
DAV:  15    -0.974525618816E+02   -0.75921E-07   -0.20054E-09 46560   0.187E-04    0.399E-05
DAV:  16    -0.974525618891E+02   -0.74433E-08   -0.21744E-10 45996   0.667E-05
   1 F= -.97452562E+02 E0= -.97452221E+02  d E =-.681907E-03
