 vasp.4.6.28 25Jul05 complex 
 executed on             LinuxIFC date 2017.01.10  08:53:53
 running on    4 nodes
 distr:  one band on    1 nodes,    4 groups


--------------------------------------------------------------------------------------------------------


 INCAR:
 POTCAR:   PAW_PBE Au 06Sep2000                   
 POTCAR:   PAW_PBE Au 06Sep2000                   
   VRHFIN =Au: s1d10                                                            
   LEXCH  = PE                                                                  
   EATOM  =   926.0567 eV,   68.0632 Ry                                         
                                                                                
   TITEL  = PAW_PBE Au 06Sep2000                                                
   LULTRA =        F    use ultrasoft PP ?                                      
   IUNSCR =        1    unscreen: 0-lin 1-nonlin 2-no                           
   RPACOR =    2.330    partial core radius                                     
   POMASS =  196.966; ZVAL   =   11.000    mass and valenz                      
   RCORE  =    2.500    outmost cutoff radius                                   
   RWIGS  =    2.840; RWIGS  =    1.503    wigner-seitz radius (au A)           
   ENMAX  =  229.948; ENMIN  =  172.461 eV                                      
   RCLOC  =    1.964    cutoff for local pot                                    
   LCOR   =        T    correct aug charges                                     
   LPAW   =        T    paw PP                                                  
   EAUG   =  356.670                                                            
   DEXC   =    -.025                                                            
   RMAX   =    3.041    core radius for proj-oper                               
   RAUG   =    1.300    factor for augmentation sphere                          
   RDEP   =    2.598    radius for radial grids                                 
   QCUT   =   -4.111; QGAM   =    8.222    optimization parameters              
                                                                                
   Description                                                                  
     l     E      TYP  RCUT    TYP  RCUT                                        
     2   .000     23  2.500                                                     
     2   .000     23  2.500                                                     
     0   .000     23  2.500                                                     
     0   .000     23  2.500                                                     
     1  -.200     23  2.500                                                     
     1   .000     23  2.500                                                     
     3   .000      7   .000                                                     
  local pseudopotential read in
  partial core-charges read in
  atomic valenz-charges read in
  non local Contribution for L=           2  read in
    real space projection operators read in
  non local Contribution for L=           2  read in
    real space projection operators read in
  non local Contribution for L=           0  read in
    real space projection operators read in
  non local Contribution for L=           0  read in
    real space projection operators read in
  non local Contribution for L=           1  read in
    real space projection operators read in
  non local Contribution for L=           1  read in
    real space projection operators read in
    PAW grid and wavefunctions read in
 
   number of l-projection  operators is LMAX  =           6
   number of lm-projection operators is LMMAX =          18
 

 ----------------------------------------------------------------------------- 
|                                                                             |
|  ADVICE TO THIS USER RUNNING 'VASP/VAMP'   (HEAR YOUR MASTER'S VOICE ...):  |
|                                                                             |
|      You have a (more or less) 'large supercell' and for larger cells       |
|      it might be more efficient to use real space projection operators      |
|      So try LREAL= Auto  in the INCAR   file.                               |
|      Mind: If you want to do an extremely accurate calculations keep the    |
|      reciprocal projection scheme          (i.e. LREAL=.FALSE.)             |
|                                                                             |
 ----------------------------------------------------------------------------- 

 PAW_PBE Au 06Sep2000                   :
 energy of atom  1       EATOM= -926.0567
 kinetic energy error for atom=    0.0008 (will be added to EATOM!!)
 
 EXHCAR: internal setup
 exchange correlation table for  LEXCH =        8
   RHO(1)=    0.500       N(1)  =     2000
   RHO(2)=  100.500       N(2)  =     4000
 
 POSCAR: Au                                      
  positions in direct lattice
  No initial velocities read in
 


--------------------------------------------------------------------------------------------------------


 ion  position               nearest neighbor table
   1  0.001  0.000  0.000-   9 2.80  11 2.80  17 2.80  21 2.80  25 2.80  27 2.80  29 2.80  31 2.80
                            10 2.81  18 2.81  12 2.81  22 2.81
   2  0.500  0.000  0.000-   9 2.80  10 2.80  11 2.80  12 2.80  17 2.80  18 2.80  21 2.80  22 2.80
                            26 2.80  28 2.80  30 2.80  32 2.80
   3  0.000  0.500  0.000-   9 2.80  10 2.80  11 2.80  12 2.80  19 2.80  20 2.80  23 2.80  24 2.80
                            25 2.80  27 2.80  29 2.80  31 2.80
   4  0.500  0.500  0.000-   9 2.80  10 2.80  11 2.80  12 2.80  19 2.80  20 2.80  23 2.80  24 2.80
                            26 2.80  28 2.80  30 2.80  32 2.80
   5  0.000  0.000  0.500-  13 2.80  14 2.80  15 2.80  16 2.80  17 2.80  18 2.80  21 2.80  22 2.80
                            25 2.80  27 2.80  29 2.80  31 2.80
   6  0.500  0.000  0.500-  13 2.80  14 2.80  15 2.80  16 2.80  17 2.80  18 2.80  21 2.80  22 2.80
                            26 2.80  28 2.80  30 2.80  32 2.80
   7  0.000  0.500  0.500-  13 2.80  14 2.80  15 2.80  16 2.80  19 2.80  20 2.80  23 2.80  24 2.80
                            25 2.80  27 2.80  29 2.80  31 2.80
   8  0.500  0.500  0.500-  13 2.80  14 2.80  15 2.80  16 2.80  19 2.80  20 2.80  23 2.80  24 2.80
                            26 2.80  28 2.80  30 2.80  32 2.80
   9  0.250  0.250  0.000-   1 2.80   2 2.80   3 2.80   4 2.80  17 2.80  19 2.80  21 2.80  23 2.80
                            25 2.80  26 2.80  29 2.80  30 2.80
  10  0.750  0.250  0.000-   2 2.80   3 2.80   4 2.80  18 2.80  20 2.80  22 2.80  24 2.80  25 2.80
                            26 2.80  29 2.80  30 2.80   1 2.81
  11  0.250  0.750  0.000-   1 2.80   2 2.80   3 2.80   4 2.80  17 2.80  19 2.80  21 2.80  23 2.80
                            27 2.80  28 2.80  31 2.80  32 2.80
  12  0.750  0.750  0.000-   2 2.80   3 2.80   4 2.80  18 2.80  20 2.80  22 2.80  24 2.80  27 2.80
                            28 2.80  31 2.80  32 2.80   1 2.81
  13  0.250  0.250  0.500-   5 2.80   6 2.80   7 2.80   8 2.80  17 2.80  19 2.80  21 2.80  23 2.80
                            25 2.80  26 2.80  29 2.80  30 2.80
  14  0.750  0.250  0.500-   5 2.80   6 2.80   7 2.80   8 2.80  18 2.80  20 2.80  22 2.80  24 2.80
                            25 2.80  26 2.80  29 2.80  30 2.80
  15  0.250  0.750  0.500-   5 2.80   6 2.80   7 2.80   8 2.80  17 2.80  19 2.80  21 2.80  23 2.80
                            27 2.80  28 2.80  31 2.80  32 2.80
  16  0.750  0.750  0.500-   5 2.80   6 2.80   7 2.80   8 2.80  18 2.80  20 2.80  22 2.80  24 2.80
                            27 2.80  28 2.80  31 2.80  32 2.80
  17  0.250  0.000  0.250-   1 2.80   2 2.80   5 2.80   6 2.80   9 2.80  11 2.80  13 2.80  15 2.80
                            25 2.80  26 2.80  27 2.80  28 2.80
  18  0.750  0.000  0.250-   2 2.80   5 2.80   6 2.80  10 2.80  12 2.80  14 2.80  16 2.80  25 2.80
                            26 2.80  27 2.80  28 2.80   1 2.81
  19  0.250  0.500  0.250-   3 2.80   4 2.80   7 2.80   8 2.80   9 2.80  11 2.80  13 2.80  15 2.80
                            25 2.80  26 2.80  27 2.80  28 2.80
  20  0.750  0.500  0.250-   3 2.80   4 2.80   7 2.80   8 2.80  10 2.80  12 2.80  14 2.80  16 2.80
                            25 2.80  26 2.80  27 2.80  28 2.80
  21  0.250  0.000  0.750-   1 2.80   2 2.80   5 2.80   6 2.80   9 2.80  11 2.80  13 2.80  15 2.80
                            29 2.80  30 2.80  31 2.80  32 2.80
  22  0.750  0.000  0.750-   2 2.80   5 2.80   6 2.80  10 2.80  12 2.80  14 2.80  16 2.80  29 2.80
                            30 2.80  31 2.80  32 2.80   1 2.81
  23  0.250  0.500  0.750-   3 2.80   4 2.80   7 2.80   8 2.80   9 2.80  11 2.80  13 2.80  15 2.80
                            29 2.80  30 2.80  31 2.80  32 2.80
  24  0.750  0.500  0.750-   3 2.80   4 2.80   7 2.80   8 2.80  10 2.80  12 2.80  14 2.80  16 2.80
                            29 2.80  30 2.80  31 2.80  32 2.80
  25  0.000  0.250  0.250-   3 2.80   5 2.80   7 2.80   9 2.80  10 2.80  13 2.80  14 2.80  17 2.80
                            18 2.80  19 2.80  20 2.80   1 2.80
  26  0.500  0.250  0.250-   2 2.80   4 2.80   6 2.80   8 2.80   9 2.80  10 2.80  13 2.80  14 2.80
                            17 2.80  18 2.80  19 2.80  20 2.80
  27  0.000  0.750  0.250-   3 2.80   5 2.80   7 2.80  11 2.80  12 2.80  15 2.80  16 2.80  17 2.80
                            18 2.80  19 2.80  20 2.80   1 2.80
  28  0.500  0.750  0.250-   2 2.80   4 2.80   6 2.80   8 2.80  11 2.80  12 2.80  15 2.80  16 2.80
                            17 2.80  18 2.80  19 2.80  20 2.80
  29  0.000  0.250  0.750-   3 2.80   5 2.80   7 2.80   9 2.80  10 2.80  13 2.80  14 2.80  21 2.80
                            22 2.80  23 2.80  24 2.80   1 2.80
  30  0.500  0.250  0.750-   2 2.80   4 2.80   6 2.80   8 2.80   9 2.80  10 2.80  13 2.80  14 2.80
                            21 2.80  22 2.80  23 2.80  24 2.80
  31  0.000  0.750  0.750-   3 2.80   5 2.80   7 2.80  11 2.80  12 2.80  15 2.80  16 2.80  21 2.80
                            22 2.80  23 2.80  24 2.80   1 2.80
  32  0.500  0.750  0.750-   2 2.80   4 2.80   6 2.80   8 2.80  11 2.80  12 2.80  15 2.80  16 2.80
                            21 2.80  22 2.80  23 2.80  24 2.80
 
  LATTYP: Found a simple cubic cell.
 ALAT       =     7.9284186144
  
  Lattice vectors:
  
 A1 = (   7.9284186144,   0.0000000000,   0.0000000000)
 A2 = (   0.0000000000,   7.9284186144,   0.0000000000)
 A3 = (   0.0000000000,   0.0000000000,   7.9284186144)
 Subroutine PRICEL returns:
 Original cell was already a primitive cell.
 

Analysis of symmetry for initial positions (statically):

 Routine SETGRP: Setting up the symmetry group for a 
 simple cubic supercell.


 Subroutine GETGRP returns: Found  8 space group operations
 (whereof  8 operations were pure point group operations)
 out of a pool of 48 trial point group operations.


The static configuration has the point symmetry C_4v.

Analysis of symmetry for dynamics (positions and initial velocities):

 Subroutine DYNSYM returns: Found  8 space group operations
 (whereof  8 operations were pure point group operations)
 out of a pool of  8 trial space group operations
 (whereof  8 operations were pure point group operations)
 and found also     1 'primitive' translations


The dynamic configuration has the point symmetry C_4v.
 
 
 KPOINTS: Automatic mesh                          

Automatic generation of k-mesh.
 
 Subroutine IBZKPT returns following result:
 ===========================================
 
 Found    196 irreducible k-points:
 
 Following reciprocal coordinates:
            Coordinates               Weight
  0.000000  0.000000  0.000000      1.000000
  0.083333  0.000000  0.000000      2.000000
  0.166667  0.000000  0.000000      2.000000
  0.250000  0.000000  0.000000      2.000000
  0.333333  0.000000  0.000000      2.000000
  0.416667  0.000000  0.000000      2.000000
  0.500000  0.000000  0.000000      1.000000
  0.000000  0.083333  0.000000      4.000000
  0.083333  0.083333  0.000000      8.000000
  0.166667  0.083333  0.000000      8.000000
  0.250000  0.083333  0.000000      8.000000
  0.333333  0.083333  0.000000      8.000000
  0.416667  0.083333  0.000000      8.000000
  0.500000  0.083333  0.000000      4.000000
  0.000000  0.166667  0.000000      4.000000
  0.083333  0.166667  0.000000      8.000000
  0.166667  0.166667  0.000000      8.000000
  0.250000  0.166667  0.000000      8.000000
  0.333333  0.166667  0.000000      8.000000
  0.416667  0.166667  0.000000      8.000000
  0.500000  0.166667  0.000000      4.000000
  0.000000  0.250000  0.000000      4.000000
  0.083333  0.250000  0.000000      8.000000
  0.166667  0.250000  0.000000      8.000000
  0.250000  0.250000  0.000000      8.000000
  0.333333  0.250000  0.000000      8.000000
  0.416667  0.250000  0.000000      8.000000
  0.500000  0.250000  0.000000      4.000000
  0.000000  0.333333  0.000000      4.000000
  0.083333  0.333333  0.000000      8.000000
  0.166667  0.333333  0.000000      8.000000
  0.250000  0.333333  0.000000      8.000000
  0.333333  0.333333  0.000000      8.000000
  0.416667  0.333333  0.000000      8.000000
  0.500000  0.333333  0.000000      4.000000
  0.000000  0.416667  0.000000      4.000000
  0.083333  0.416667  0.000000      8.000000
  0.166667  0.416667  0.000000      8.000000
  0.250000  0.416667  0.000000      8.000000
  0.333333  0.416667  0.000000      8.000000
  0.416667  0.416667  0.000000      8.000000
  0.500000  0.416667  0.000000      4.000000
  0.000000  0.500000  0.000000      2.000000
  0.083333  0.500000  0.000000      4.000000
  0.166667  0.500000  0.000000      4.000000
  0.250000  0.500000  0.000000      4.000000
  0.333333  0.500000  0.000000      4.000000
  0.416667  0.500000  0.000000      4.000000
  0.500000  0.500000  0.000000      2.000000
  0.000000  0.083333  0.083333      4.000000
  0.083333  0.083333  0.083333      8.000000
  0.166667  0.083333  0.083333      8.000000
  0.250000  0.083333  0.083333      8.000000
  0.333333  0.083333  0.083333      8.000000
  0.416667  0.083333  0.083333      8.000000
  0.500000  0.083333  0.083333      4.000000
  0.000000  0.166667  0.083333      8.000000
  0.083333  0.166667  0.083333     16.000000
  0.166667  0.166667  0.083333     16.000000
  0.250000  0.166667  0.083333     16.000000
  0.333333  0.166667  0.083333     16.000000
  0.416667  0.166667  0.083333     16.000000
  0.500000  0.166667  0.083333      8.000000
  0.000000  0.250000  0.083333      8.000000
  0.083333  0.250000  0.083333     16.000000
  0.166667  0.250000  0.083333     16.000000
  0.250000  0.250000  0.083333     16.000000
  0.333333  0.250000  0.083333     16.000000
  0.416667  0.250000  0.083333     16.000000
  0.500000  0.250000  0.083333      8.000000
  0.000000  0.333333  0.083333      8.000000
  0.083333  0.333333  0.083333     16.000000
  0.166667  0.333333  0.083333     16.000000
  0.250000  0.333333  0.083333     16.000000
  0.333333  0.333333  0.083333     16.000000
  0.416667  0.333333  0.083333     16.000000
  0.500000  0.333333  0.083333      8.000000
  0.000000  0.416667  0.083333      8.000000
  0.083333  0.416667  0.083333     16.000000
  0.166667  0.416667  0.083333     16.000000
  0.250000  0.416667  0.083333     16.000000
  0.333333  0.416667  0.083333     16.000000
  0.416667  0.416667  0.083333     16.000000
  0.500000  0.416667  0.083333      8.000000
  0.000000  0.500000  0.083333      4.000000
  0.083333  0.500000  0.083333      8.000000
  0.166667  0.500000  0.083333      8.000000
  0.250000  0.500000  0.083333      8.000000
  0.333333  0.500000  0.083333      8.000000
  0.416667  0.500000  0.083333      8.000000
  0.500000  0.500000  0.083333      4.000000
  0.000000  0.166667  0.166667      4.000000
  0.083333  0.166667  0.166667      8.000000
  0.166667  0.166667  0.166667      8.000000
  0.250000  0.166667  0.166667      8.000000
  0.333333  0.166667  0.166667      8.000000
  0.416667  0.166667  0.166667      8.000000
  0.500000  0.166667  0.166667      4.000000
  0.000000  0.250000  0.166667      8.000000
  0.083333  0.250000  0.166667     16.000000
  0.166667  0.250000  0.166667     16.000000
  0.250000  0.250000  0.166667     16.000000
  0.333333  0.250000  0.166667     16.000000
  0.416667  0.250000  0.166667     16.000000
  0.500000  0.250000  0.166667      8.000000
  0.000000  0.333333  0.166667      8.000000
  0.083333  0.333333  0.166667     16.000000
  0.166667  0.333333  0.166667     16.000000
  0.250000  0.333333  0.166667     16.000000
  0.333333  0.333333  0.166667     16.000000
  0.416667  0.333333  0.166667     16.000000
  0.500000  0.333333  0.166667      8.000000
  0.000000  0.416667  0.166667      8.000000
  0.083333  0.416667  0.166667     16.000000
  0.166667  0.416667  0.166667     16.000000
  0.250000  0.416667  0.166667     16.000000
  0.333333  0.416667  0.166667     16.000000
  0.416667  0.416667  0.166667     16.000000
  0.500000  0.416667  0.166667      8.000000
  0.000000  0.500000  0.166667      4.000000
  0.083333  0.500000  0.166667      8.000000
  0.166667  0.500000  0.166667      8.000000
  0.250000  0.500000  0.166667      8.000000
  0.333333  0.500000  0.166667      8.000000
  0.416667  0.500000  0.166667      8.000000
  0.500000  0.500000  0.166667      4.000000
  0.000000  0.250000  0.250000      4.000000
  0.083333  0.250000  0.250000      8.000000
  0.166667  0.250000  0.250000      8.000000
  0.250000  0.250000  0.250000      8.000000
  0.333333  0.250000  0.250000      8.000000
  0.416667  0.250000  0.250000      8.000000
  0.500000  0.250000  0.250000      4.000000
  0.000000  0.333333  0.250000      8.000000
  0.083333  0.333333  0.250000     16.000000
  0.166667  0.333333  0.250000     16.000000
  0.250000  0.333333  0.250000     16.000000
  0.333333  0.333333  0.250000     16.000000
  0.416667  0.333333  0.250000     16.000000
  0.500000  0.333333  0.250000      8.000000
  0.000000  0.416667  0.250000      8.000000
  0.083333  0.416667  0.250000     16.000000
  0.166667  0.416667  0.250000     16.000000
  0.250000  0.416667  0.250000     16.000000
  0.333333  0.416667  0.250000     16.000000
  0.416667  0.416667  0.250000     16.000000
  0.500000  0.416667  0.250000      8.000000
  0.000000  0.500000  0.250000      4.000000
  0.083333  0.500000  0.250000      8.000000
  0.166667  0.500000  0.250000      8.000000
  0.250000  0.500000  0.250000      8.000000
  0.333333  0.500000  0.250000      8.000000
  0.416667  0.500000  0.250000      8.000000
  0.500000  0.500000  0.250000      4.000000
  0.000000  0.333333  0.333333      4.000000
  0.083333  0.333333  0.333333      8.000000
  0.166667  0.333333  0.333333      8.000000
  0.250000  0.333333  0.333333      8.000000
  0.333333  0.333333  0.333333      8.000000
  0.416667  0.333333  0.333333      8.000000
  0.500000  0.333333  0.333333      4.000000
  0.000000  0.416667  0.333333      8.000000
  0.083333  0.416667  0.333333     16.000000
  0.166667  0.416667  0.333333     16.000000
  0.250000  0.416667  0.333333     16.000000
  0.333333  0.416667  0.333333     16.000000
  0.416667  0.416667  0.333333     16.000000
  0.500000  0.416667  0.333333      8.000000
  0.000000  0.500000  0.333333      4.000000
  0.083333  0.500000  0.333333      8.000000
  0.166667  0.500000  0.333333      8.000000
  0.250000  0.500000  0.333333      8.000000
  0.333333  0.500000  0.333333      8.000000
  0.416667  0.500000  0.333333      8.000000
  0.500000  0.500000  0.333333      4.000000
  0.000000  0.416667  0.416667      4.000000
  0.083333  0.416667  0.416667      8.000000
  0.166667  0.416667  0.416667      8.000000
  0.250000  0.416667  0.416667      8.000000
  0.333333  0.416667  0.416667      8.000000
  0.416667  0.416667  0.416667      8.000000
  0.500000  0.416667  0.416667      4.000000
  0.000000  0.500000  0.416667      4.000000
  0.083333  0.500000  0.416667      8.000000
  0.166667  0.500000  0.416667      8.000000
  0.250000  0.500000  0.416667      8.000000
  0.333333  0.500000  0.416667      8.000000
  0.416667  0.500000  0.416667      8.000000
  0.500000  0.500000  0.416667      4.000000
  0.000000  0.500000  0.500000      1.000000
  0.083333  0.500000  0.500000      2.000000
  0.166667  0.500000  0.500000      2.000000
  0.250000  0.500000  0.500000      2.000000
  0.333333  0.500000  0.500000      2.000000
  0.416667  0.500000  0.500000      2.000000
  0.500000  0.500000  0.500000      1.000000
 
 Following cartesian coordinates:
            Coordinates               Weight
  0.000000  0.000000  0.000000      1.000000
  0.010511  0.000000  0.000000      2.000000
  0.021021  0.000000  0.000000      2.000000
  0.031532  0.000000  0.000000      2.000000
  0.042043  0.000000  0.000000      2.000000
  0.052554  0.000000  0.000000      2.000000
  0.063064  0.000000  0.000000      1.000000
  0.000000  0.010511  0.000000      4.000000
  0.010511  0.010511  0.000000      8.000000
  0.021021  0.010511  0.000000      8.000000
  0.031532  0.010511  0.000000      8.000000
  0.042043  0.010511  0.000000      8.000000
  0.052554  0.010511  0.000000      8.000000
  0.063064  0.010511  0.000000      4.000000
  0.000000  0.021021  0.000000      4.000000
  0.010511  0.021021  0.000000      8.000000
  0.021021  0.021021  0.000000      8.000000
  0.031532  0.021021  0.000000      8.000000
  0.042043  0.021021  0.000000      8.000000
  0.052554  0.021021  0.000000      8.000000
  0.063064  0.021021  0.000000      4.000000
  0.000000  0.031532  0.000000      4.000000
  0.010511  0.031532  0.000000      8.000000
  0.021021  0.031532  0.000000      8.000000
  0.031532  0.031532  0.000000      8.000000
  0.042043  0.031532  0.000000      8.000000
  0.052554  0.031532  0.000000      8.000000
  0.063064  0.031532  0.000000      4.000000
  0.000000  0.042043  0.000000      4.000000
  0.010511  0.042043  0.000000      8.000000
  0.021021  0.042043  0.000000      8.000000
  0.031532  0.042043  0.000000      8.000000
  0.042043  0.042043  0.000000      8.000000
  0.052554  0.042043  0.000000      8.000000
  0.063064  0.042043  0.000000      4.000000
  0.000000  0.052554  0.000000      4.000000
  0.010511  0.052554  0.000000      8.000000
  0.021021  0.052554  0.000000      8.000000
  0.031532  0.052554  0.000000      8.000000
  0.042043  0.052554  0.000000      8.000000
  0.052554  0.052554  0.000000      8.000000
  0.063064  0.052554  0.000000      4.000000
  0.000000  0.063064  0.000000      2.000000
  0.010511  0.063064  0.000000      4.000000
  0.021021  0.063064  0.000000      4.000000
  0.031532  0.063064  0.000000      4.000000
  0.042043  0.063064  0.000000      4.000000
  0.052554  0.063064  0.000000      4.000000
  0.063064  0.063064  0.000000      2.000000
  0.000000  0.010511  0.010511      4.000000
  0.010511  0.010511  0.010511      8.000000
  0.021021  0.010511  0.010511      8.000000
  0.031532  0.010511  0.010511      8.000000
  0.042043  0.010511  0.010511      8.000000
  0.052554  0.010511  0.010511      8.000000
  0.063064  0.010511  0.010511      4.000000
  0.000000  0.021021  0.010511      8.000000
  0.010511  0.021021  0.010511     16.000000
  0.021021  0.021021  0.010511     16.000000
  0.031532  0.021021  0.010511     16.000000
  0.042043  0.021021  0.010511     16.000000
  0.052554  0.021021  0.010511     16.000000
  0.063064  0.021021  0.010511      8.000000
  0.000000  0.031532  0.010511      8.000000
  0.010511  0.031532  0.010511     16.000000
  0.021021  0.031532  0.010511     16.000000
  0.031532  0.031532  0.010511     16.000000
  0.042043  0.031532  0.010511     16.000000
  0.052554  0.031532  0.010511     16.000000
  0.063064  0.031532  0.010511      8.000000
  0.000000  0.042043  0.010511      8.000000
  0.010511  0.042043  0.010511     16.000000
  0.021021  0.042043  0.010511     16.000000
  0.031532  0.042043  0.010511     16.000000
  0.042043  0.042043  0.010511     16.000000
  0.052554  0.042043  0.010511     16.000000
  0.063064  0.042043  0.010511      8.000000
  0.000000  0.052554  0.010511      8.000000
  0.010511  0.052554  0.010511     16.000000
  0.021021  0.052554  0.010511     16.000000
  0.031532  0.052554  0.010511     16.000000
  0.042043  0.052554  0.010511     16.000000
  0.052554  0.052554  0.010511     16.000000
  0.063064  0.052554  0.010511      8.000000
  0.000000  0.063064  0.010511      4.000000
  0.010511  0.063064  0.010511      8.000000
  0.021021  0.063064  0.010511      8.000000
  0.031532  0.063064  0.010511      8.000000
  0.042043  0.063064  0.010511      8.000000
  0.052554  0.063064  0.010511      8.000000
  0.063064  0.063064  0.010511      4.000000
  0.000000  0.021021  0.021021      4.000000
  0.010511  0.021021  0.021021      8.000000
  0.021021  0.021021  0.021021      8.000000
  0.031532  0.021021  0.021021      8.000000
  0.042043  0.021021  0.021021      8.000000
  0.052554  0.021021  0.021021      8.000000
  0.063064  0.021021  0.021021      4.000000
  0.000000  0.031532  0.021021      8.000000
  0.010511  0.031532  0.021021     16.000000
  0.021021  0.031532  0.021021     16.000000
  0.031532  0.031532  0.021021     16.000000
  0.042043  0.031532  0.021021     16.000000
  0.052554  0.031532  0.021021     16.000000
  0.063064  0.031532  0.021021      8.000000
  0.000000  0.042043  0.021021      8.000000
  0.010511  0.042043  0.021021     16.000000
  0.021021  0.042043  0.021021     16.000000
  0.031532  0.042043  0.021021     16.000000
  0.042043  0.042043  0.021021     16.000000
  0.052554  0.042043  0.021021     16.000000
  0.063064  0.042043  0.021021      8.000000
  0.000000  0.052554  0.021021      8.000000
  0.010511  0.052554  0.021021     16.000000
  0.021021  0.052554  0.021021     16.000000
  0.031532  0.052554  0.021021     16.000000
  0.042043  0.052554  0.021021     16.000000
  0.052554  0.052554  0.021021     16.000000
  0.063064  0.052554  0.021021      8.000000
  0.000000  0.063064  0.021021      4.000000
  0.010511  0.063064  0.021021      8.000000
  0.021021  0.063064  0.021021      8.000000
  0.031532  0.063064  0.021021      8.000000
  0.042043  0.063064  0.021021      8.000000
  0.052554  0.063064  0.021021      8.000000
  0.063064  0.063064  0.021021      4.000000
  0.000000  0.031532  0.031532      4.000000
  0.010511  0.031532  0.031532      8.000000
  0.021021  0.031532  0.031532      8.000000
  0.031532  0.031532  0.031532      8.000000
  0.042043  0.031532  0.031532      8.000000
  0.052554  0.031532  0.031532      8.000000
  0.063064  0.031532  0.031532      4.000000
  0.000000  0.042043  0.031532      8.000000
  0.010511  0.042043  0.031532     16.000000
  0.021021  0.042043  0.031532     16.000000
  0.031532  0.042043  0.031532     16.000000
  0.042043  0.042043  0.031532     16.000000
  0.052554  0.042043  0.031532     16.000000
  0.063064  0.042043  0.031532      8.000000
  0.000000  0.052554  0.031532      8.000000
  0.010511  0.052554  0.031532     16.000000
  0.021021  0.052554  0.031532     16.000000
  0.031532  0.052554  0.031532     16.000000
  0.042043  0.052554  0.031532     16.000000
  0.052554  0.052554  0.031532     16.000000
  0.063064  0.052554  0.031532      8.000000
  0.000000  0.063064  0.031532      4.000000
  0.010511  0.063064  0.031532      8.000000
  0.021021  0.063064  0.031532      8.000000
  0.031532  0.063064  0.031532      8.000000
  0.042043  0.063064  0.031532      8.000000
  0.052554  0.063064  0.031532      8.000000
  0.063064  0.063064  0.031532      4.000000
  0.000000  0.042043  0.042043      4.000000
  0.010511  0.042043  0.042043      8.000000
  0.021021  0.042043  0.042043      8.000000
  0.031532  0.042043  0.042043      8.000000
  0.042043  0.042043  0.042043      8.000000
  0.052554  0.042043  0.042043      8.000000
  0.063064  0.042043  0.042043      4.000000
  0.000000  0.052554  0.042043      8.000000
  0.010511  0.052554  0.042043     16.000000
  0.021021  0.052554  0.042043     16.000000
  0.031532  0.052554  0.042043     16.000000
  0.042043  0.052554  0.042043     16.000000
  0.052554  0.052554  0.042043     16.000000
  0.063064  0.052554  0.042043      8.000000
  0.000000  0.063064  0.042043      4.000000
  0.010511  0.063064  0.042043      8.000000
  0.021021  0.063064  0.042043      8.000000
  0.031532  0.063064  0.042043      8.000000
  0.042043  0.063064  0.042043      8.000000
  0.052554  0.063064  0.042043      8.000000
  0.063064  0.063064  0.042043      4.000000
  0.000000  0.052554  0.052554      4.000000
  0.010511  0.052554  0.052554      8.000000
  0.021021  0.052554  0.052554      8.000000
  0.031532  0.052554  0.052554      8.000000
  0.042043  0.052554  0.052554      8.000000
  0.052554  0.052554  0.052554      8.000000
  0.063064  0.052554  0.052554      4.000000
  0.000000  0.063064  0.052554      4.000000
  0.010511  0.063064  0.052554      8.000000
  0.021021  0.063064  0.052554      8.000000
  0.031532  0.063064  0.052554      8.000000
  0.042043  0.063064  0.052554      8.000000
  0.052554  0.063064  0.052554      8.000000
  0.063064  0.063064  0.052554      4.000000
  0.000000  0.063064  0.063064      1.000000
  0.010511  0.063064  0.063064      2.000000
  0.021021  0.063064  0.063064      2.000000
  0.031532  0.063064  0.063064      2.000000
  0.042043  0.063064  0.063064      2.000000
  0.052554  0.063064  0.063064      2.000000
  0.063064  0.063064  0.063064      1.000000
 


--------------------------------------------------------------------------------------------------------




 Dimension of arrays:
   k-Points           NKPTS =    196   number of bands    NBANDS=    212
   number of dos      NEDOS =    301   number of ions     NIONS =     32
   non local maximal  LDIM  =      6   non local SUM 2l+1 LMDIM =     18
   total plane-waves  NPLWV = 373248
   max r-space proj   IRMAX =      1   max aug-charges    IRDMAX= 366549
   dimension x,y,z NGX =    72 NGY =   72 NGZ =   72
   dimension x,y,z NGXF=   144 NGYF=  144 NGZF=  144
   support grid    NGXF=   288 NGYF=  288 NGZF=  288
   ions per type =              32
 NGX,Y,Z   is equivalent  to a cutoff of  15.10, 15.10, 15.10 a.u.
 NGXF,Y,Z  is equivalent  to a cutoff of  30.19, 30.19, 30.19 a.u.


 I would recommend the setting:
   dimension x,y,z NGX =    71 NGY =   71 NGZ =   71
 SYSTEM =  unknown system                          
 POSCAR =  Au                                      

 Startparameter for this run:
   NWRITE =      2    write-flag & timer
   PREC   = accura    medium, high low
   ISTART =      0    job   : 0-new  1-cont  2-samecut
   ICHARG =      2    charge: 1-file 2-atom 10-const
   ISPIN  =      1    spin polarized calculation?
   LNONCOLLINEAR =      F non collinear calculations
   LSORBIT =      F    spin-orbit coupling
   INIWAV =      1    electr: 0-lowe 1-rand  2-diag
   LASPH  =      F    aspherical Exc in radial PAW
   METAGGA=      F    non-selfconsistent MetaGGA calc.

 Electronic Relaxation 1
   ENCUT  =  750.0 eV  55.12 Ry    7.42 a.u.  17.70 17.70 17.70*2*pi/ulx,y,z
   ENINI  =  750.0     initial cutoff
   ENAUG  =  356.7 eV  augmentation charge cutoff
   NELM   =     60;   NELMIN=  2; NELMDL=  0     # of ELM steps 
   EDIFF  = 0.1E-07   stopping-criterion for ELM
   LREAL  =      F    real-space projection
   LCOMPAT=      F    compatible to vasp.4.4
   LREAL_COMPAT= F    compatible to vasp.4.5.1-3
   GGA_COMPAT  = T    GGA compatible to vasp.4.4-vasp.4.6
   LMAXPAW     = -100 max onsite density
   LMAXMIX     =    2 max onsite mixed and CHGCAR
   VOSKOWN=      0    Vosko Wilk Nusair interpolation
   ROPT   =    0.00000
 Ionic relaxation
   EDIFFG = 0.1E-06   stopping-criterion for IOM
   NSW    =      0    number of steps for IOM
   NBLOCK =      1;   KBLOCK =      1    inner block; outer block 
   IBRION =     -1    ionic relax: 0-MD 1-quasi-New 2-CG
   NFREE  =      0    steps in history (QN), initial steepest desc. (CG)
   ISIF   =      2    stress and relaxation
   IWAVPR =     10    prediction:  0-non 1-charg 2-wave 3-comb
   ISYM   =      2    0-nonsym 1-usesym 2-fastsym
   LCORR  =      T    Harris-Foulkes like correction to forces

   POTIM  =   0.50    time-step for ionic-motion
   TEIN   =    0.0    initial temperature
   TEBEG  =    0.0;   TEEND  =   0.0 temperature during run
   SMASS  =  -3.00    Nose mass-parameter (am)
   estimated Nose-frequenzy (Omega)   =  0.10E-29 period in steps =****** mass=  -0.144E-26a.u.
   NPACO  =    256;   APACO  = 16.0  distance and # of slots for P.C.
   PSTRESS=    0.0 pullay stress

  Mass of Ions in am
   POMASS = 196.97
  Ionic Valenz
   ZVAL   =  11.00
  Atomic Wigner-Seitz radii
   RWIGS  =  -1.00
   NELECT =     352.0000    total number of electrons
   NUPDOWN=      -1.0000    fix difference up-down

 DOS related values:
   EMIN   =  10.00;   EMAX   =-10.00  energy-range for DOS
   ISMEAR =     0;   SIGMA  =   0.01  broadening in eV -4-tet -1-fermi 0-gaus

 Electronic relaxation 2 (details)
   IALGO  =     38    algorithm
   LDIAG  =      T    sub-space diagonalisation
   IMIX   =      4    mixing-type and parameters
     AMIX     =   0.40;   BMIX     =  1.00
     AMIX_MAG =   1.60;   BMIX_MAG =  1.00
     AMIN     =   0.10
     WC   =   100.;   INIMIX=   1;  MIXPRE=   1

 Intra band minimization:
   WEIMIN = 0.0000     energy-eigenvalue tresh-hold
   EBREAK =  0.12E-10  absolut break condition
   DEPER  =   0.30     relativ break condition  

   TIME   =   0.10     timestep for ELM

  volume/ion in A,a.u.               =      15.57       105.10
  Fermi-wavevector in a.u.,eV,Ry     =   1.457927 28.919883  2.125551

 Second variation
   LSECVAR=     F    do a second variation
 
 Write flags
   LWAVE  =      F    write WAVECAR
   LCHARG =      F    write CHGCAR
   LVTOT  =      F    write LOCPOT, local potential
   LELF   =      F    write electronic localiz. function (ELF)
   LORBIT =      0    0 simple, 1 ext, 2 COOP (PROOUT)


 Dipole corrections
   IDIPOL =      0    1-x, 2-y, 3-z
   LDIPOL =      F    correct potential



--------------------------------------------------------------------------------------------------------


 Static calculation
 charge density will be updated during run
 non-spin polarized calculation
 Variant of blocked Davidson
 Davidson routine will perform the subspace rotation
 performe sub-space diagonalisation
    after iterative eigenvector-optimisation
 modified Broyden-mixing scheme, WC =      100.0
 initial mixing is a Kerker type mixing with AMIX =  0.4000 and BMIX =      1.0000
 Hartree-type preconditioning will be used
 using additional bands           36
 reciprocal scheme for non local part
 use partial core corrections
 calculate Harris-corrections to forces 
   (improved forces if not selfconsistent)
 use gradient corrections 
 use of overlap-Matrix (Vanderbilt PP)
 Gauss-broadening in eV      SIGMA  =   0.01


--------------------------------------------------------------------------------------------------------


  energy-cutoff  :      750.00
  volume of cell :      498.38
      direct lattice vectors                 reciprocal lattice vectors
     7.928418614  0.000000000  0.000000000     0.126128557  0.000000000  0.000000000
     0.000000000  7.928418614  0.000000000     0.000000000  0.126128557  0.000000000
     0.000000000  0.000000000  7.928418614     0.000000000  0.000000000  0.126128557

  length of vectors
     7.928418614  7.928418614  7.928418614     0.126128557  0.126128557  0.126128557


 
 k-points in units of 2pi/SCALE and weight: Automatic mesh                          
   0.00000000  0.00000000  0.00000000       0.001
   0.01051071  0.00000000  0.00000000       0.001
   0.02102143  0.00000000  0.00000000       0.001
   0.03153214  0.00000000  0.00000000       0.001
   0.04204285  0.00000000  0.00000000       0.001
   0.05255357  0.00000000  0.00000000       0.001
   0.06306428  0.00000000  0.00000000       0.001
   0.00000000  0.01051071  0.00000000       0.002
   0.01051071  0.01051071  0.00000000       0.005
   0.02102143  0.01051071  0.00000000       0.005
   0.03153214  0.01051071  0.00000000       0.005
   0.04204285  0.01051071  0.00000000       0.005
   0.05255357  0.01051071  0.00000000       0.005
   0.06306428  0.01051071  0.00000000       0.002
   0.00000000  0.02102143  0.00000000       0.002
   0.01051071  0.02102143  0.00000000       0.005
   0.02102143  0.02102143  0.00000000       0.005
   0.03153214  0.02102143  0.00000000       0.005
   0.04204285  0.02102143  0.00000000       0.005
   0.05255357  0.02102143  0.00000000       0.005
   0.06306428  0.02102143  0.00000000       0.002
   0.00000000  0.03153214  0.00000000       0.002
   0.01051071  0.03153214  0.00000000       0.005
   0.02102143  0.03153214  0.00000000       0.005
   0.03153214  0.03153214  0.00000000       0.005
   0.04204285  0.03153214  0.00000000       0.005
   0.05255357  0.03153214  0.00000000       0.005
   0.06306428  0.03153214  0.00000000       0.002
   0.00000000  0.04204285  0.00000000       0.002
   0.01051071  0.04204285  0.00000000       0.005
   0.02102143  0.04204285  0.00000000       0.005
   0.03153214  0.04204285  0.00000000       0.005
   0.04204285  0.04204285  0.00000000       0.005
   0.05255357  0.04204285  0.00000000       0.005
   0.06306428  0.04204285  0.00000000       0.002
   0.00000000  0.05255357  0.00000000       0.002
   0.01051071  0.05255357  0.00000000       0.005
   0.02102143  0.05255357  0.00000000       0.005
   0.03153214  0.05255357  0.00000000       0.005
   0.04204285  0.05255357  0.00000000       0.005
   0.05255357  0.05255357  0.00000000       0.005
   0.06306428  0.05255357  0.00000000       0.002
   0.00000000  0.06306428  0.00000000       0.001
   0.01051071  0.06306428  0.00000000       0.002
   0.02102143  0.06306428  0.00000000       0.002
   0.03153214  0.06306428  0.00000000       0.002
   0.04204285  0.06306428  0.00000000       0.002
   0.05255357  0.06306428  0.00000000       0.002
   0.06306428  0.06306428  0.00000000       0.001
   0.00000000  0.01051071  0.01051071       0.002
   0.01051071  0.01051071  0.01051071       0.005
   0.02102143  0.01051071  0.01051071       0.005
   0.03153214  0.01051071  0.01051071       0.005
   0.04204285  0.01051071  0.01051071       0.005
   0.05255357  0.01051071  0.01051071       0.005
   0.06306428  0.01051071  0.01051071       0.002
   0.00000000  0.02102143  0.01051071       0.005
   0.01051071  0.02102143  0.01051071       0.009
   0.02102143  0.02102143  0.01051071       0.009
   0.03153214  0.02102143  0.01051071       0.009
   0.04204285  0.02102143  0.01051071       0.009
   0.05255357  0.02102143  0.01051071       0.009
   0.06306428  0.02102143  0.01051071       0.005
   0.00000000  0.03153214  0.01051071       0.005
   0.01051071  0.03153214  0.01051071       0.009
   0.02102143  0.03153214  0.01051071       0.009
   0.03153214  0.03153214  0.01051071       0.009
   0.04204285  0.03153214  0.01051071       0.009
   0.05255357  0.03153214  0.01051071       0.009
   0.06306428  0.03153214  0.01051071       0.005
   0.00000000  0.04204285  0.01051071       0.005
   0.01051071  0.04204285  0.01051071       0.009
   0.02102143  0.04204285  0.01051071       0.009
   0.03153214  0.04204285  0.01051071       0.009
   0.04204285  0.04204285  0.01051071       0.009
   0.05255357  0.04204285  0.01051071       0.009
   0.06306428  0.04204285  0.01051071       0.005
   0.00000000  0.05255357  0.01051071       0.005
   0.01051071  0.05255357  0.01051071       0.009
   0.02102143  0.05255357  0.01051071       0.009
   0.03153214  0.05255357  0.01051071       0.009
   0.04204285  0.05255357  0.01051071       0.009
   0.05255357  0.05255357  0.01051071       0.009
   0.06306428  0.05255357  0.01051071       0.005
   0.00000000  0.06306428  0.01051071       0.002
   0.01051071  0.06306428  0.01051071       0.005
   0.02102143  0.06306428  0.01051071       0.005
   0.03153214  0.06306428  0.01051071       0.005
   0.04204285  0.06306428  0.01051071       0.005
   0.05255357  0.06306428  0.01051071       0.005
   0.06306428  0.06306428  0.01051071       0.002
   0.00000000  0.02102143  0.02102143       0.002
   0.01051071  0.02102143  0.02102143       0.005
   0.02102143  0.02102143  0.02102143       0.005
   0.03153214  0.02102143  0.02102143       0.005
   0.04204285  0.02102143  0.02102143       0.005
   0.05255357  0.02102143  0.02102143       0.005
   0.06306428  0.02102143  0.02102143       0.002
   0.00000000  0.03153214  0.02102143       0.005
   0.01051071  0.03153214  0.02102143       0.009
   0.02102143  0.03153214  0.02102143       0.009
   0.03153214  0.03153214  0.02102143       0.009
   0.04204285  0.03153214  0.02102143       0.009
   0.05255357  0.03153214  0.02102143       0.009
   0.06306428  0.03153214  0.02102143       0.005
   0.00000000  0.04204285  0.02102143       0.005
   0.01051071  0.04204285  0.02102143       0.009
   0.02102143  0.04204285  0.02102143       0.009
   0.03153214  0.04204285  0.02102143       0.009
   0.04204285  0.04204285  0.02102143       0.009
   0.05255357  0.04204285  0.02102143       0.009
   0.06306428  0.04204285  0.02102143       0.005
   0.00000000  0.05255357  0.02102143       0.005
   0.01051071  0.05255357  0.02102143       0.009
   0.02102143  0.05255357  0.02102143       0.009
   0.03153214  0.05255357  0.02102143       0.009
   0.04204285  0.05255357  0.02102143       0.009
   0.05255357  0.05255357  0.02102143       0.009
   0.06306428  0.05255357  0.02102143       0.005
   0.00000000  0.06306428  0.02102143       0.002
   0.01051071  0.06306428  0.02102143       0.005
   0.02102143  0.06306428  0.02102143       0.005
   0.03153214  0.06306428  0.02102143       0.005
   0.04204285  0.06306428  0.02102143       0.005
   0.05255357  0.06306428  0.02102143       0.005
   0.06306428  0.06306428  0.02102143       0.002
   0.00000000  0.03153214  0.03153214       0.002
   0.01051071  0.03153214  0.03153214       0.005
   0.02102143  0.03153214  0.03153214       0.005
   0.03153214  0.03153214  0.03153214       0.005
   0.04204285  0.03153214  0.03153214       0.005
   0.05255357  0.03153214  0.03153214       0.005
   0.06306428  0.03153214  0.03153214       0.002
   0.00000000  0.04204285  0.03153214       0.005
   0.01051071  0.04204285  0.03153214       0.009
   0.02102143  0.04204285  0.03153214       0.009
   0.03153214  0.04204285  0.03153214       0.009
   0.04204285  0.04204285  0.03153214       0.009
   0.05255357  0.04204285  0.03153214       0.009
   0.06306428  0.04204285  0.03153214       0.005
   0.00000000  0.05255357  0.03153214       0.005
   0.01051071  0.05255357  0.03153214       0.009
   0.02102143  0.05255357  0.03153214       0.009
   0.03153214  0.05255357  0.03153214       0.009
   0.04204285  0.05255357  0.03153214       0.009
   0.05255357  0.05255357  0.03153214       0.009
   0.06306428  0.05255357  0.03153214       0.005
   0.00000000  0.06306428  0.03153214       0.002
   0.01051071  0.06306428  0.03153214       0.005
   0.02102143  0.06306428  0.03153214       0.005
   0.03153214  0.06306428  0.03153214       0.005
   0.04204285  0.06306428  0.03153214       0.005
   0.05255357  0.06306428  0.03153214       0.005
   0.06306428  0.06306428  0.03153214       0.002
   0.00000000  0.04204285  0.04204285       0.002
   0.01051071  0.04204285  0.04204285       0.005
   0.02102143  0.04204285  0.04204285       0.005
   0.03153214  0.04204285  0.04204285       0.005
   0.04204285  0.04204285  0.04204285       0.005
   0.05255357  0.04204285  0.04204285       0.005
   0.06306428  0.04204285  0.04204285       0.002
   0.00000000  0.05255357  0.04204285       0.005
   0.01051071  0.05255357  0.04204285       0.009
   0.02102143  0.05255357  0.04204285       0.009
   0.03153214  0.05255357  0.04204285       0.009
   0.04204285  0.05255357  0.04204285       0.009
   0.05255357  0.05255357  0.04204285       0.009
   0.06306428  0.05255357  0.04204285       0.005
   0.00000000  0.06306428  0.04204285       0.002
   0.01051071  0.06306428  0.04204285       0.005
   0.02102143  0.06306428  0.04204285       0.005
   0.03153214  0.06306428  0.04204285       0.005
   0.04204285  0.06306428  0.04204285       0.005
   0.05255357  0.06306428  0.04204285       0.005
   0.06306428  0.06306428  0.04204285       0.002
   0.00000000  0.05255357  0.05255357       0.002
   0.01051071  0.05255357  0.05255357       0.005
   0.02102143  0.05255357  0.05255357       0.005
   0.03153214  0.05255357  0.05255357       0.005
   0.04204285  0.05255357  0.05255357       0.005
   0.05255357  0.05255357  0.05255357       0.005
   0.06306428  0.05255357  0.05255357       0.002
   0.00000000  0.06306428  0.05255357       0.002
   0.01051071  0.06306428  0.05255357       0.005
   0.02102143  0.06306428  0.05255357       0.005
   0.03153214  0.06306428  0.05255357       0.005
   0.04204285  0.06306428  0.05255357       0.005
   0.05255357  0.06306428  0.05255357       0.005
   0.06306428  0.06306428  0.05255357       0.002
   0.00000000  0.06306428  0.06306428       0.001
   0.01051071  0.06306428  0.06306428       0.001
   0.02102143  0.06306428  0.06306428       0.001
   0.03153214  0.06306428  0.06306428       0.001
   0.04204285  0.06306428  0.06306428       0.001
   0.05255357  0.06306428  0.06306428       0.001
   0.06306428  0.06306428  0.06306428       0.001
 
 k-points in reciprocal lattice and weights: Automatic mesh                          
   0.00000000  0.00000000  0.00000000       0.001
   0.08333333  0.00000000  0.00000000       0.001
   0.16666667  0.00000000  0.00000000       0.001
   0.25000000  0.00000000  0.00000000       0.001
   0.33333333  0.00000000  0.00000000       0.001
   0.41666667  0.00000000  0.00000000       0.001
   0.50000000  0.00000000  0.00000000       0.001
   0.00000000  0.08333333  0.00000000       0.002
   0.08333333  0.08333333  0.00000000       0.005
   0.16666667  0.08333333  0.00000000       0.005
   0.25000000  0.08333333  0.00000000       0.005
   0.33333333  0.08333333  0.00000000       0.005
   0.41666667  0.08333333  0.00000000       0.005
   0.50000000  0.08333333  0.00000000       0.002
   0.00000000  0.16666667  0.00000000       0.002
   0.08333333  0.16666667  0.00000000       0.005
   0.16666667  0.16666667  0.00000000       0.005
   0.25000000  0.16666667  0.00000000       0.005
   0.33333333  0.16666667  0.00000000       0.005
   0.41666667  0.16666667  0.00000000       0.005
   0.50000000  0.16666667  0.00000000       0.002
   0.00000000  0.25000000  0.00000000       0.002
   0.08333333  0.25000000  0.00000000       0.005
   0.16666667  0.25000000  0.00000000       0.005
   0.25000000  0.25000000  0.00000000       0.005
   0.33333333  0.25000000  0.00000000       0.005
   0.41666667  0.25000000  0.00000000       0.005
   0.50000000  0.25000000  0.00000000       0.002
   0.00000000  0.33333333  0.00000000       0.002
   0.08333333  0.33333333  0.00000000       0.005
   0.16666667  0.33333333  0.00000000       0.005
   0.25000000  0.33333333  0.00000000       0.005
   0.33333333  0.33333333  0.00000000       0.005
   0.41666667  0.33333333  0.00000000       0.005
   0.50000000  0.33333333  0.00000000       0.002
   0.00000000  0.41666667  0.00000000       0.002
   0.08333333  0.41666667  0.00000000       0.005
   0.16666667  0.41666667  0.00000000       0.005
   0.25000000  0.41666667  0.00000000       0.005
   0.33333333  0.41666667  0.00000000       0.005
   0.41666667  0.41666667  0.00000000       0.005
   0.50000000  0.41666667  0.00000000       0.002
   0.00000000  0.50000000  0.00000000       0.001
   0.08333333  0.50000000  0.00000000       0.002
   0.16666667  0.50000000  0.00000000       0.002
   0.25000000  0.50000000  0.00000000       0.002
   0.33333333  0.50000000  0.00000000       0.002
   0.41666667  0.50000000  0.00000000       0.002
   0.50000000  0.50000000  0.00000000       0.001
   0.00000000  0.08333333  0.08333333       0.002
   0.08333333  0.08333333  0.08333333       0.005
   0.16666667  0.08333333  0.08333333       0.005
   0.25000000  0.08333333  0.08333333       0.005
   0.33333333  0.08333333  0.08333333       0.005
   0.41666667  0.08333333  0.08333333       0.005
   0.50000000  0.08333333  0.08333333       0.002
   0.00000000  0.16666667  0.08333333       0.005
   0.08333333  0.16666667  0.08333333       0.009
   0.16666667  0.16666667  0.08333333       0.009
   0.25000000  0.16666667  0.08333333       0.009
   0.33333333  0.16666667  0.08333333       0.009
   0.41666667  0.16666667  0.08333333       0.009
   0.50000000  0.16666667  0.08333333       0.005
   0.00000000  0.25000000  0.08333333       0.005
   0.08333333  0.25000000  0.08333333       0.009
   0.16666667  0.25000000  0.08333333       0.009
   0.25000000  0.25000000  0.08333333       0.009
   0.33333333  0.25000000  0.08333333       0.009
   0.41666667  0.25000000  0.08333333       0.009
   0.50000000  0.25000000  0.08333333       0.005
   0.00000000  0.33333333  0.08333333       0.005
   0.08333333  0.33333333  0.08333333       0.009
   0.16666667  0.33333333  0.08333333       0.009
   0.25000000  0.33333333  0.08333333       0.009
   0.33333333  0.33333333  0.08333333       0.009
   0.41666667  0.33333333  0.08333333       0.009
   0.50000000  0.33333333  0.08333333       0.005
   0.00000000  0.41666667  0.08333333       0.005
   0.08333333  0.41666667  0.08333333       0.009
   0.16666667  0.41666667  0.08333333       0.009
   0.25000000  0.41666667  0.08333333       0.009
   0.33333333  0.41666667  0.08333333       0.009
   0.41666667  0.41666667  0.08333333       0.009
   0.50000000  0.41666667  0.08333333       0.005
   0.00000000  0.50000000  0.08333333       0.002
   0.08333333  0.50000000  0.08333333       0.005
   0.16666667  0.50000000  0.08333333       0.005
   0.25000000  0.50000000  0.08333333       0.005
   0.33333333  0.50000000  0.08333333       0.005
   0.41666667  0.50000000  0.08333333       0.005
   0.50000000  0.50000000  0.08333333       0.002
   0.00000000  0.16666667  0.16666667       0.002
   0.08333333  0.16666667  0.16666667       0.005
   0.16666667  0.16666667  0.16666667       0.005
   0.25000000  0.16666667  0.16666667       0.005
   0.33333333  0.16666667  0.16666667       0.005
   0.41666667  0.16666667  0.16666667       0.005
   0.50000000  0.16666667  0.16666667       0.002
   0.00000000  0.25000000  0.16666667       0.005
   0.08333333  0.25000000  0.16666667       0.009
   0.16666667  0.25000000  0.16666667       0.009
   0.25000000  0.25000000  0.16666667       0.009
   0.33333333  0.25000000  0.16666667       0.009
   0.41666667  0.25000000  0.16666667       0.009
   0.50000000  0.25000000  0.16666667       0.005
   0.00000000  0.33333333  0.16666667       0.005
   0.08333333  0.33333333  0.16666667       0.009
   0.16666667  0.33333333  0.16666667       0.009
   0.25000000  0.33333333  0.16666667       0.009
   0.33333333  0.33333333  0.16666667       0.009
   0.41666667  0.33333333  0.16666667       0.009
   0.50000000  0.33333333  0.16666667       0.005
   0.00000000  0.41666667  0.16666667       0.005
   0.08333333  0.41666667  0.16666667       0.009
   0.16666667  0.41666667  0.16666667       0.009
   0.25000000  0.41666667  0.16666667       0.009
   0.33333333  0.41666667  0.16666667       0.009
   0.41666667  0.41666667  0.16666667       0.009
   0.50000000  0.41666667  0.16666667       0.005
   0.00000000  0.50000000  0.16666667       0.002
   0.08333333  0.50000000  0.16666667       0.005
   0.16666667  0.50000000  0.16666667       0.005
   0.25000000  0.50000000  0.16666667       0.005
   0.33333333  0.50000000  0.16666667       0.005
   0.41666667  0.50000000  0.16666667       0.005
   0.50000000  0.50000000  0.16666667       0.002
   0.00000000  0.25000000  0.25000000       0.002
   0.08333333  0.25000000  0.25000000       0.005
   0.16666667  0.25000000  0.25000000       0.005
   0.25000000  0.25000000  0.25000000       0.005
   0.33333333  0.25000000  0.25000000       0.005
   0.41666667  0.25000000  0.25000000       0.005
   0.50000000  0.25000000  0.25000000       0.002
   0.00000000  0.33333333  0.25000000       0.005
   0.08333333  0.33333333  0.25000000       0.009
   0.16666667  0.33333333  0.25000000       0.009
   0.25000000  0.33333333  0.25000000       0.009
   0.33333333  0.33333333  0.25000000       0.009
   0.41666667  0.33333333  0.25000000       0.009
   0.50000000  0.33333333  0.25000000       0.005
   0.00000000  0.41666667  0.25000000       0.005
   0.08333333  0.41666667  0.25000000       0.009
   0.16666667  0.41666667  0.25000000       0.009
   0.25000000  0.41666667  0.25000000       0.009
   0.33333333  0.41666667  0.25000000       0.009
   0.41666667  0.41666667  0.25000000       0.009
   0.50000000  0.41666667  0.25000000       0.005
   0.00000000  0.50000000  0.25000000       0.002
   0.08333333  0.50000000  0.25000000       0.005
   0.16666667  0.50000000  0.25000000       0.005
   0.25000000  0.50000000  0.25000000       0.005
   0.33333333  0.50000000  0.25000000       0.005
   0.41666667  0.50000000  0.25000000       0.005
   0.50000000  0.50000000  0.25000000       0.002
   0.00000000  0.33333333  0.33333333       0.002
   0.08333333  0.33333333  0.33333333       0.005
   0.16666667  0.33333333  0.33333333       0.005
   0.25000000  0.33333333  0.33333333       0.005
   0.33333333  0.33333333  0.33333333       0.005
   0.41666667  0.33333333  0.33333333       0.005
   0.50000000  0.33333333  0.33333333       0.002
   0.00000000  0.41666667  0.33333333       0.005
   0.08333333  0.41666667  0.33333333       0.009
   0.16666667  0.41666667  0.33333333       0.009
   0.25000000  0.41666667  0.33333333       0.009
   0.33333333  0.41666667  0.33333333       0.009
   0.41666667  0.41666667  0.33333333       0.009
   0.50000000  0.41666667  0.33333333       0.005
   0.00000000  0.50000000  0.33333333       0.002
   0.08333333  0.50000000  0.33333333       0.005
   0.16666667  0.50000000  0.33333333       0.005
   0.25000000  0.50000000  0.33333333       0.005
   0.33333333  0.50000000  0.33333333       0.005
   0.41666667  0.50000000  0.33333333       0.005
   0.50000000  0.50000000  0.33333333       0.002
   0.00000000  0.41666667  0.41666667       0.002
   0.08333333  0.41666667  0.41666667       0.005
   0.16666667  0.41666667  0.41666667       0.005
   0.25000000  0.41666667  0.41666667       0.005
   0.33333333  0.41666667  0.41666667       0.005
   0.41666667  0.41666667  0.41666667       0.005
   0.50000000  0.41666667  0.41666667       0.002
   0.00000000  0.50000000  0.41666667       0.002
   0.08333333  0.50000000  0.41666667       0.005
   0.16666667  0.50000000  0.41666667       0.005
   0.25000000  0.50000000  0.41666667       0.005
   0.33333333  0.50000000  0.41666667       0.005
   0.41666667  0.50000000  0.41666667       0.005
   0.50000000  0.50000000  0.41666667       0.002
   0.00000000  0.50000000  0.50000000       0.001
   0.08333333  0.50000000  0.50000000       0.001
   0.16666667  0.50000000  0.50000000       0.001
   0.25000000  0.50000000  0.50000000       0.001
   0.33333333  0.50000000  0.50000000       0.001
   0.41666667  0.50000000  0.50000000       0.001
   0.50000000  0.50000000  0.50000000       0.001
 
 position of ions in fractional coordinates (direct lattice) 
   0.00126129  0.00000000  0.00000000
   0.50000000  0.00000000  0.00000000
   0.00000000  0.50000000  0.00000000
   0.50000000  0.50000000  0.00000000
   0.00000000  0.00000000  0.50000000
   0.50000000  0.00000000  0.50000000
   0.00000000  0.50000000  0.50000000
   0.50000000  0.50000000  0.50000000
   0.25000000  0.25000000  0.00000000
   0.75000000  0.25000000  0.00000000
   0.25000000  0.75000000  0.00000000
   0.75000000  0.75000000  0.00000000
   0.25000000  0.25000000  0.50000000
   0.75000000  0.25000000  0.50000000
   0.25000000  0.75000000  0.50000000
   0.75000000  0.75000000  0.50000000
   0.25000000  0.00000000  0.25000000
   0.75000000  0.00000000  0.25000000
   0.25000000  0.50000000  0.25000000
   0.75000000  0.50000000  0.25000000
   0.25000000  0.00000000  0.75000000
   0.75000000  0.00000000  0.75000000
   0.25000000  0.50000000  0.75000000
   0.75000000  0.50000000  0.75000000
   0.00000000  0.25000000  0.25000000
   0.50000000  0.25000000  0.25000000
   0.00000000  0.75000000  0.25000000
   0.50000000  0.75000000  0.25000000
   0.00000000  0.25000000  0.75000000
   0.50000000  0.25000000  0.75000000
   0.00000000  0.75000000  0.75000000
   0.50000000  0.75000000  0.75000000
 
 position of ions in cartesian coordinates  (Angst):
   0.01000000  0.00000000  0.00000000
   3.96420931  0.00000000  0.00000000
   0.00000000  3.96420931  0.00000000
   3.96420931  3.96420931  0.00000000
   0.00000000  0.00000000  3.96420931
   3.96420931  0.00000000  3.96420931
   0.00000000  3.96420931  3.96420931
   3.96420931  3.96420931  3.96420931
   1.98210465  1.98210465  0.00000000
   5.94631396  1.98210465  0.00000000
   1.98210465  5.94631396  0.00000000
   5.94631396  5.94631396  0.00000000
   1.98210465  1.98210465  3.96420931
   5.94631396  1.98210465  3.96420931
   1.98210465  5.94631396  3.96420931
   5.94631396  5.94631396  3.96420931
   1.98210465  0.00000000  1.98210465
   5.94631396  0.00000000  1.98210465
   1.98210465  3.96420931  1.98210465
   5.94631396  3.96420931  1.98210465
   1.98210465  0.00000000  5.94631396
   5.94631396  0.00000000  5.94631396
   1.98210465  3.96420931  5.94631396
   5.94631396  3.96420931  5.94631396
   0.00000000  1.98210465  1.98210465
   3.96420931  1.98210465  1.98210465
   0.00000000  5.94631396  1.98210465
   3.96420931  5.94631396  1.98210465
   0.00000000  1.98210465  5.94631396
   3.96420931  1.98210465  5.94631396
   0.00000000  5.94631396  5.94631396
   3.96420931  5.94631396  5.94631396
 


--------------------------------------------------------------------------------------------------------


 k-point  1 :  0.00000.00000.0000  plane waves:  23127
 k-point  2 :  0.08330.00000.0000  plane waves:  23227
 k-point  3 :  0.16670.00000.0000  plane waves:  23275
 k-point  4 :  0.25000.00000.0000  plane waves:  23243
 k-point  5 :  0.33330.00000.0000  plane waves:  23188
 k-point  6 :  0.41670.00000.0000  plane waves:  23240
 k-point  7 :  0.50000.00000.0000  plane waves:  23316
 k-point  8 :  0.00000.08330.0000  plane waves:  23227
 k-point  9 :  0.08330.08330.0000  plane waves:  23245
 k-point 10 :  0.16670.08330.0000  plane waves:  23254
 k-point 11 :  0.25000.08330.0000  plane waves:  23239
 k-point 12 :  0.33330.08330.0000  plane waves:  23230
 k-point 13 :  0.41670.08330.0000  plane waves:  23235
 k-point 14 :  0.50000.08330.0000  plane waves:  23260
 k-point 15 :  0.00000.16670.0000  plane waves:  23275
 k-point 16 :  0.08330.16670.0000  plane waves:  23254
 k-point 17 :  0.16670.16670.0000  plane waves:  23257
 k-point 18 :  0.25000.16670.0000  plane waves:  23228
 k-point 19 :  0.33330.16670.0000  plane waves:  23233
 k-point 20 :  0.41670.16670.0000  plane waves:  23269
 k-point 21 :  0.50000.16670.0000  plane waves:  23260
 k-point 22 :  0.00000.25000.0000  plane waves:  23243
 k-point 23 :  0.08330.25000.0000  plane waves:  23239
 k-point 24 :  0.16670.25000.0000  plane waves:  23228
 k-point 25 :  0.25000.25000.0000  plane waves:  23225
 k-point 26 :  0.33330.25000.0000  plane waves:  23257
 k-point 27 :  0.41670.25000.0000  plane waves:  23269
 k-point 28 :  0.50000.25000.0000  plane waves:  23262
 k-point 29 :  0.00000.33330.0000  plane waves:  23188
 k-point 30 :  0.08330.33330.0000  plane waves:  23230
 k-point 31 :  0.16670.33330.0000  plane waves:  23233
 k-point 32 :  0.25000.33330.0000  plane waves:  23257
 k-point 33 :  0.33330.33330.0000  plane waves:  23227
 k-point 34 :  0.41670.33330.0000  plane waves:  23254
 k-point 35 :  0.50000.33330.0000  plane waves:  23284
 k-point 36 :  0.00000.41670.0000  plane waves:  23240
 k-point 37 :  0.08330.41670.0000  plane waves:  23235
 k-point 38 :  0.16670.41670.0000  plane waves:  23269
 k-point 39 :  0.25000.41670.0000  plane waves:  23269
 k-point 40 :  0.33330.41670.0000  plane waves:  23254
 k-point 41 :  0.41670.41670.0000  plane waves:  23243
 k-point 42 :  0.50000.41670.0000  plane waves:  23268
 k-point 43 :  0.00000.50000.0000  plane waves:  23316
 k-point 44 :  0.08330.50000.0000  plane waves:  23260
 k-point 45 :  0.16670.50000.0000  plane waves:  23260
 k-point 46 :  0.25000.50000.0000  plane waves:  23262
 k-point 47 :  0.33330.50000.0000  plane waves:  23284
 k-point 48 :  0.41670.50000.0000  plane waves:  23268
 k-point 49 :  0.50000.50000.0000  plane waves:  23236
 k-point 50 :  0.00000.08330.0833  plane waves:  23245
 k-point 51 :  0.08330.08330.0833  plane waves:  23271
 k-point 52 :  0.16670.08330.0833  plane waves:  23248
 k-point 53 :  0.25000.08330.0833  plane waves:  23233
 k-point 54 :  0.33330.08330.0833  plane waves:  23247
 k-point 55 :  0.41670.08330.0833  plane waves:  23255
 k-point 56 :  0.50000.08330.0833  plane waves:  23274
 k-point 57 :  0.00000.16670.0833  plane waves:  23254
 k-point 58 :  0.08330.16670.0833  plane waves:  23248
 k-point 59 :  0.16670.16670.0833  plane waves:  23244
 k-point 60 :  0.25000.16670.0833  plane waves:  23246
 k-point 61 :  0.33330.16670.0833  plane waves:  23231
 k-point 62 :  0.41670.16670.0833  plane waves:  23256
 k-point 63 :  0.50000.16670.0833  plane waves:  23270
 k-point 64 :  0.00000.25000.0833  plane waves:  23239
 k-point 65 :  0.08330.25000.0833  plane waves:  23233
 k-point 66 :  0.16670.25000.0833  plane waves:  23246
 k-point 67 :  0.25000.25000.0833  plane waves:  23218
 k-point 68 :  0.33330.25000.0833  plane waves:  23235
 k-point 69 :  0.41670.25000.0833  plane waves:  23272
 k-point 70 :  0.50000.25000.0833  plane waves:  23260
 k-point 71 :  0.00000.33330.0833  plane waves:  23230
 k-point 72 :  0.08330.33330.0833  plane waves:  23247
 k-point 73 :  0.16670.33330.0833  plane waves:  23231
 k-point 74 :  0.25000.33330.0833  plane waves:  23235
 k-point 75 :  0.33330.33330.0833  plane waves:  23240
 k-point 76 :  0.41670.33330.0833  plane waves:  23254
 k-point 77 :  0.50000.33330.0833  plane waves:  23264
 k-point 78 :  0.00000.41670.0833  plane waves:  23235
 k-point 79 :  0.08330.41670.0833  plane waves:  23255
 k-point 80 :  0.16670.41670.0833  plane waves:  23256
 k-point 81 :  0.25000.41670.0833  plane waves:  23272
 k-point 82 :  0.33330.41670.0833  plane waves:  23254
 k-point 83 :  0.41670.41670.0833  plane waves:  23259
 k-point 84 :  0.50000.41670.0833  plane waves:  23272
 k-point 85 :  0.00000.50000.0833  plane waves:  23260
 k-point 86 :  0.08330.50000.0833  plane waves:  23274
 k-point 87 :  0.16670.50000.0833  plane waves:  23270
 k-point 88 :  0.25000.50000.0833  plane waves:  23260
 k-point 89 :  0.33330.50000.0833  plane waves:  23264
 k-point 90 :  0.41670.50000.0833  plane waves:  23272
 k-point 91 :  0.50000.50000.0833  plane waves:  23252
 k-point 92 :  0.00000.16670.1667  plane waves:  23257
 k-point 93 :  0.08330.16670.1667  plane waves:  23244
 k-point 94 :  0.16670.16670.1667  plane waves:  23277
 k-point 95 :  0.25000.16670.1667  plane waves:  23223
 k-point 96 :  0.33330.16670.1667  plane waves:  23237
 k-point 97 :  0.41670.16670.1667  plane waves:  23263
 k-point 98 :  0.50000.16670.1667  plane waves:  23236
 k-point 99 :  0.00000.25000.1667  plane waves:  23228
 k-point ** :  0.08330.25000.1667  plane waves:  23246
 k-point ** :  0.16670.25000.1667  plane waves:  23223
 k-point ** :  0.25000.25000.1667  plane waves:  23229
 k-point ** :  0.33330.25000.1667  plane waves:  23248
 k-point ** :  0.41670.25000.1667  plane waves:  23269
 k-point ** :  0.50000.25000.1667  plane waves:  23262
 k-point ** :  0.00000.33330.1667  plane waves:  23233
 k-point ** :  0.08330.33330.1667  plane waves:  23231
 k-point ** :  0.16670.33330.1667  plane waves:  23237
 k-point ** :  0.25000.33330.1667  plane waves:  23248
 k-point ** :  0.33330.33330.1667  plane waves:  23224
 k-point ** :  0.41670.33330.1667  plane waves:  23235
 k-point ** :  0.50000.33330.1667  plane waves:  23252
 k-point ** :  0.00000.41670.1667  plane waves:  23269
 k-point ** :  0.08330.41670.1667  plane waves:  23256
 k-point ** :  0.16670.41670.1667  plane waves:  23263
 k-point ** :  0.25000.41670.1667  plane waves:  23269
 k-point ** :  0.33330.41670.1667  plane waves:  23235
 k-point ** :  0.41670.41670.1667  plane waves:  23237
 k-point ** :  0.50000.41670.1667  plane waves:  23226
 k-point ** :  0.00000.50000.1667  plane waves:  23260
 k-point ** :  0.08330.50000.1667  plane waves:  23270
 k-point ** :  0.16670.50000.1667  plane waves:  23236
 k-point ** :  0.25000.50000.1667  plane waves:  23262
 k-point ** :  0.33330.50000.1667  plane waves:  23252
 k-point ** :  0.41670.50000.1667  plane waves:  23226
 k-point ** :  0.50000.50000.1667  plane waves:  23260
 k-point ** :  0.00000.25000.2500  plane waves:  23225
 k-point ** :  0.08330.25000.2500  plane waves:  23218
 k-point ** :  0.16670.25000.2500  plane waves:  23229
 k-point ** :  0.25000.25000.2500  plane waves:  23234
 k-point ** :  0.33330.25000.2500  plane waves:  23227
 k-point ** :  0.41670.25000.2500  plane waves:  23224
 k-point ** :  0.50000.25000.2500  plane waves:  23266
 k-point ** :  0.00000.33330.2500  plane waves:  23257
 k-point ** :  0.08330.33330.2500  plane waves:  23235
 k-point ** :  0.16670.33330.2500  plane waves:  23248
 k-point ** :  0.25000.33330.2500  plane waves:  23227
 k-point ** :  0.33330.33330.2500  plane waves:  23235
 k-point ** :  0.41670.33330.2500  plane waves:  23228
 k-point ** :  0.50000.33330.2500  plane waves:  23260
 k-point ** :  0.00000.41670.2500  plane waves:  23269
 k-point ** :  0.08330.41670.2500  plane waves:  23272
 k-point ** :  0.16670.41670.2500  plane waves:  23269
 k-point ** :  0.25000.41670.2500  plane waves:  23224
 k-point ** :  0.33330.41670.2500  plane waves:  23228
 k-point ** :  0.41670.41670.2500  plane waves:  23233
 k-point ** :  0.50000.41670.2500  plane waves:  23226
 k-point ** :  0.00000.50000.2500  plane waves:  23262
 k-point ** :  0.08330.50000.2500  plane waves:  23260
 k-point ** :  0.16670.50000.2500  plane waves:  23262
 k-point ** :  0.25000.50000.2500  plane waves:  23266
 k-point ** :  0.33330.50000.2500  plane waves:  23260
 k-point ** :  0.41670.50000.2500  plane waves:  23226
 k-point ** :  0.50000.50000.2500  plane waves:  23208
 k-point ** :  0.00000.33330.3333  plane waves:  23227
 k-point ** :  0.08330.33330.3333  plane waves:  23240
 k-point ** :  0.16670.33330.3333  plane waves:  23224
 k-point ** :  0.25000.33330.3333  plane waves:  23235
 k-point ** :  0.33330.33330.3333  plane waves:  23258
 k-point ** :  0.41670.33330.3333  plane waves:  23232
 k-point ** :  0.50000.33330.3333  plane waves:  23220
 k-point ** :  0.00000.41670.3333  plane waves:  23254
 k-point ** :  0.08330.41670.3333  plane waves:  23254
 k-point ** :  0.16670.41670.3333  plane waves:  23235
 k-point ** :  0.25000.41670.3333  plane waves:  23228
 k-point ** :  0.33330.41670.3333  plane waves:  23232
 k-point ** :  0.41670.41670.3333  plane waves:  23212
 k-point ** :  0.50000.41670.3333  plane waves:  23218
 k-point ** :  0.00000.50000.3333  plane waves:  23284
 k-point ** :  0.08330.50000.3333  plane waves:  23264
 k-point ** :  0.16670.50000.3333  plane waves:  23252
 k-point ** :  0.25000.50000.3333  plane waves:  23260
 k-point ** :  0.33330.50000.3333  plane waves:  23220
 k-point ** :  0.41670.50000.3333  plane waves:  23218
 k-point ** :  0.50000.50000.3333  plane waves:  23188
 k-point ** :  0.00000.41670.4167  plane waves:  23243
 k-point ** :  0.08330.41670.4167  plane waves:  23259
 k-point ** :  0.16670.41670.4167  plane waves:  23237
 k-point ** :  0.25000.41670.4167  plane waves:  23233
 k-point ** :  0.33330.41670.4167  plane waves:  23212
 k-point ** :  0.41670.41670.4167  plane waves:  23222
 k-point ** :  0.50000.41670.4167  plane waves:  23210
 k-point ** :  0.00000.50000.4167  plane waves:  23268
 k-point ** :  0.08330.50000.4167  plane waves:  23272
 k-point ** :  0.16670.50000.4167  plane waves:  23226
 k-point ** :  0.25000.50000.4167  plane waves:  23226
 k-point ** :  0.33330.50000.4167  plane waves:  23218
 k-point ** :  0.41670.50000.4167  plane waves:  23210
 k-point ** :  0.50000.50000.4167  plane waves:  23196
 k-point ** :  0.00000.50000.5000  plane waves:  23236
 k-point ** :  0.08330.50000.5000  plane waves:  23252
 k-point ** :  0.16670.50000.5000  plane waves:  23260
 k-point ** :  0.25000.50000.5000  plane waves:  23208
 k-point ** :  0.33330.50000.5000  plane waves:  23188
 k-point ** :  0.41670.50000.5000  plane waves:  23196
 k-point ** :  0.50000.50000.5000  plane waves:  23240

 maximum and minimum number of plane-waves per node :  23316 23127

 maximum number of plane-waves:  23316
 maximal index in each direction: 
   IXMAX= 17   IYMAX= 17   IZMAX= 17
   IXMIN=-18   IYMIN=-18   IZMIN=-18

 NGX is ok and might be reduce to  72
 NGY is ok and might be reduce to  72
 NGZ is ok and might be reduce to  72

 parallel 3dFFT wavefunction:
    minimum data exchange during FFTs selected (reduces bandwidth)
 parallel 3dFFT charge:
    minimum data exchange during FFTs selected (reduces bandwidth)

 For storing wavefunctions ******* MBYTES are necessary
 For predicting wavefunctions  169.68 MBYTES are necessary
Broyden mixing: mesh for mixing (old mesh)
   NGX = 35   NGY = 35   NGZ = 35
  (NGX  =144   NGY  =144   NGZ  =144)
 gives a total of  42875 points
 initial charge density was supplied:
 charge density of overlapping atoms calculated
 number of electron  352.0000000 magnetization 
 keeping initial charge density in first step


--------------------------------------------------------------------------------------------------------


 Maximum index for augmentation-charges        88725 (set IRDMAX)


--------------------------------------------------------------------------------------------------------


 First call to EWALD:  gamma=   0.224
 Maximum number of real-space cells 3x 3x 3
 Maximum number of reciprocal cells 3x 3x 3

    FEWALD:  VPU time    0.00: CPU time    0.00


----------------------------------------- Iteration    1(   1)  ---------------------------------------


    POTLOK:  VPU time    1.10: CPU time    1.58
    SETDIJ:  VPU time    2.14: CPU time    2.88
    EDDAV :  VPU time 2008.31: CPU time 2032.99
    DOS   :  VPU time    0.00: CPU time   -0.00
    ------------------------------------------
      LOOP:  VPU time 2012.23: CPU time 2039.88

 eigenvalue-minimisations  : 83104
 total energy-change (2. order) : 0.5053161E+04  (-0.2126193E+05)
 number of electron  352.0000000 magnetization 
 augmentation part   352.0000000 magnetization 

 Free energy of the ion-electron system (eV)
  ---------------------------------------------------
  alpha Z        PSCENC =      3848.01158156
  Ewald energy   TEWEN  =    -32242.66048481
  -1/2 Hartree   DENC   =     -3601.38022449
  -V(xc)+E(xc)   XCENC  =       502.86302428
  PAW double counting   =     23920.39735419   -23172.13309131
  entropy T*S    EENTRO =        -0.00093159
  eigenvalues    EBANDS =      6164.27379043
  atomic energy  EATOM  =     29633.78979189
  ---------------------------------------------------
  free energy    TOTEN  =      5053.16081016 eV

  energy without entropy =     5053.16174175  energy(sigma->0) =     5053.16127595


--------------------------------------------------------------------------------------------------------




----------------------------------------- Iteration    1(   2)  ---------------------------------------


    EDDAV :  VPU time 1460.84: CPU time 1536.39
    DOS   :  VPU time   -0.00: CPU time   -0.06
    ------------------------------------------
      LOOP:  VPU time 1461.07: CPU time 1536.69

 eigenvalue-minimisations  : 83104
 total energy-change (2. order) :-0.4859785E+04  (-0.4675652E+04)
 number of electron  352.0000000 magnetization 
 augmentation part   352.0000000 magnetization 

 Free energy of the ion-electron system (eV)
  ---------------------------------------------------
  alpha Z        PSCENC =      3848.01158156
  Ewald energy   TEWEN  =    -32242.66048481
  -1/2 Hartree   DENC   =     -3601.38022449
  -V(xc)+E(xc)   XCENC  =       502.86302428
  PAW double counting   =     23920.39735419   -23172.13309131
  entropy T*S    EENTRO =        -0.00049270
  eigenvalues    EBANDS =      1304.48803057
  atomic energy  EATOM  =     29633.78979189
  ---------------------------------------------------
  free energy    TOTEN  =       193.37548918 eV

  energy without entropy =      193.37598189  energy(sigma->0) =      193.37573554


--------------------------------------------------------------------------------------------------------




----------------------------------------- Iteration    1(   3)  ---------------------------------------


    EDDAV :  VPU time 1358.73: CPU time 1372.97
    DOS   :  VPU time   -0.00: CPU time   -0.07
    ------------------------------------------
      LOOP:  VPU time 1358.96: CPU time 1373.27

 eigenvalue-minimisations  : 89684
 total energy-change (2. order) :-0.2890344E+03  (-0.2674224E+03)
 number of electron  352.0000000 magnetization 
 augmentation part   352.0000000 magnetization 

 Free energy of the ion-electron system (eV)
  ---------------------------------------------------
  alpha Z        PSCENC =      3848.01158156
  Ewald energy   TEWEN  =    -32242.66048481
  -1/2 Hartree   DENC   =     -3601.38022449
  -V(xc)+E(xc)   XCENC  =       502.86302428
  PAW double counting   =     23920.39735419   -23172.13309131
  entropy T*S    EENTRO =        -0.00045242
  eigenvalues    EBANDS =      1015.45356703
  atomic energy  EATOM  =     29633.78979189
  ---------------------------------------------------
  free energy    TOTEN  =       -95.65893407 eV

  energy without entropy =      -95.65848165  energy(sigma->0) =      -95.65870786


--------------------------------------------------------------------------------------------------------




----------------------------------------- Iteration    1(   4)  ---------------------------------------


    EDDAV :  VPU time 4483.99: CPU time 8248.10
    DOS   :  VPU time   -0.00: CPU time   -0.36
    ------------------------------------------
      LOOP:  VPU time 4507.28: CPU time 8313.72

 eigenvalue-minimisations  : 89432
 total energy-change (2. order) :-0.9625690E+01  (-0.9479575E+01)
 number of electron  352.0000000 magnetization 
 augmentation part   352.0000000 magnetization 

 Free energy of the ion-electron system (eV)
  ---------------------------------------------------
  alpha Z        PSCENC =      3848.01158156
  Ewald energy   TEWEN  =    -32242.66048481
  -1/2 Hartree   DENC   =     -3601.38022449
  -V(xc)+E(xc)   XCENC  =       502.86302428
  PAW double counting   =     23920.39735419   -23172.13309131
  entropy T*S    EENTRO =        -0.00042142
  eigenvalues    EBANDS =      1005.82784562
  atomic energy  EATOM  =     29633.78979189
  ---------------------------------------------------
  free energy    TOTEN  =      -105.28462448 eV

  energy without entropy =     -105.28420306  energy(sigma->0) =     -105.28441377


--------------------------------------------------------------------------------------------------------




----------------------------------------- Iteration    1(   5)  ---------------------------------------


    EDDAV :  VPU time 3537.74: CPU time 5676.35
    DOS   :  VPU time    0.00: CPU time   -0.00
    CHARGE:  VPU time  239.06: CPU time  716.58
    MIXING:  VPU time    0.44: CPU time    0.81
    ------------------------------------------
      LOOP:  VPU time 3777.72: CPU time 6394.42

 eigenvalue-minimisations  : 89968
 total energy-change (2. order) :-0.1731359E+00  (-0.1725416E+00)
 number of electron  352.0000007 magnetization 
 augmentation part   123.7043056 magnetization 

 Broyden mixing:
  rms(total) = 0.16730E+01    rms(broyden)= 0.16730E+01
  rms(prec ) = 0.25661E+01
  weight for this iteration     100.00

 Free energy of the ion-electron system (eV)
  ---------------------------------------------------
  alpha Z        PSCENC =      3848.01158156
  Ewald energy   TEWEN  =    -32242.66048481
  -1/2 Hartree   DENC   =     -3601.38022449
  -V(xc)+E(xc)   XCENC  =       502.86302428
  PAW double counting   =     23920.39735419   -23172.13309131
  entropy T*S    EENTRO =        -0.00042419
  eigenvalues    EBANDS =      1005.65471249
  atomic energy  EATOM  =     29633.78979189
  ---------------------------------------------------
  free energy    TOTEN  =      -105.45776038 eV

  energy without entropy =     -105.45733619  energy(sigma->0) =     -105.45754828


--------------------------------------------------------------------------------------------------------




----------------------------------------- Iteration    1(   6)  ---------------------------------------


    POTLOK:  VPU time   43.10: CPU time  120.35
    SETDIJ:  VPU time    6.96: CPU time   34.55
    EDDAV :  VPU time 2522.23: CPU time 3850.03
    DOS   :  VPU time    0.00: CPU time   -0.00
    CHARGE:  VPU time   68.33: CPU time   75.29
    MIXING:  VPU time    0.08: CPU time    0.43
    ------------------------------------------
      LOOP:  VPU time 2640.95: CPU time 4080.93

 eigenvalue-minimisations  : 88076
 total energy-change (2. order) : 0.7041491E+01  (-0.1539872E+01)
 number of electron  352.0000007 magnetization 
 augmentation part   127.2359390 magnetization 

 Broyden mixing:
  rms(total) = 0.51854E+00    rms(broyden)= 0.51854E+00
  rms(prec ) = 0.79315E+00
  weight for this iteration     100.00

 eigenvalues of (default mixing * dielectric matrix)
  average eigenvalue GAMMA=   1.3577
  1.3577

 Free energy of the ion-electron system (eV)
  ---------------------------------------------------
  alpha Z        PSCENC =      3848.01158156
  Ewald energy   TEWEN  =    -32242.66048481
  -1/2 Hartree   DENC   =     -3376.62250500
  -V(xc)+E(xc)   XCENC  =       493.06835590
  PAW double counting   =     24052.89872411   -23352.25813008
  entropy T*S    EENTRO =        -0.00030821
  eigenvalues    EBANDS =       845.35670499
  atomic energy  EATOM  =     29633.78979189
  ---------------------------------------------------
  free energy    TOTEN  =       -98.41626964 eV

  energy without entropy =      -98.41596143  energy(sigma->0) =      -98.41611554


--------------------------------------------------------------------------------------------------------




----------------------------------------- Iteration    1(   7)  ---------------------------------------


    POTLOK:  VPU time    0.74: CPU time    0.75
    SETDIJ:  VPU time    1.30: CPU time    1.33
    EDDAV :  VPU time 3505.26: CPU time 6923.59
    DOS   :  VPU time    0.00: CPU time   -0.00
    CHARGE:  VPU time  164.52: CPU time  261.92
    MIXING:  VPU time    0.26: CPU time    0.68
    ------------------------------------------
      LOOP:  VPU time 3672.30: CPU time 7188.58

 eigenvalue-minimisations  : 93580
 total energy-change (2. order) : 0.8286947E+00  (-0.1858033E+00)
 number of electron  352.0000007 magnetization 
 augmentation part   128.4692085 magnetization 

 Broyden mixing:
  rms(total) = 0.15280E+00    rms(broyden)= 0.15280E+00
  rms(prec ) = 0.18228E+00
  weight for this iteration     100.00

 eigenvalues of (default mixing * dielectric matrix)
  average eigenvalue GAMMA=   1.8642
  1.2966  2.4318

 Free energy of the ion-electron system (eV)
  ---------------------------------------------------
  alpha Z        PSCENC =      3848.01158156
  Ewald energy   TEWEN  =    -32242.66048481
  -1/2 Hartree   DENC   =     -3282.94446635
  -V(xc)+E(xc)   XCENC  =       488.96537611
  PAW double counting   =     24347.78328254   -23681.87669743
  entropy T*S    EENTRO =        -0.00069039
  eigenvalues    EBANDS =       791.34473194
  atomic energy  EATOM  =     29633.78979189
[...]
     68       2.0395      2.00000
     69       2.0404      2.00000
     70       2.0405      2.00000
     71       2.0406      2.00000
     72       2.0406      2.00000
     73       2.0412      2.00000
     74       2.0412      2.00000
     75       2.0413      2.00000
     76       2.0415      2.00000
     77       2.0423      2.00000
     78       2.0425      2.00000
     79       2.0430      2.00000
     80       2.0430      2.00000
     81       2.1017      2.00000
     82       2.1017      2.00000
     83       2.1034      2.00000
     84       2.1034      2.00000
     85       2.1057      2.00000
     86       2.1067      2.00000
     87       2.1068      2.00000
     88       2.1068      2.00000
     89       2.1069      2.00000
     90       2.1069      2.00000
     91       2.1070      2.00000
     92       2.1070      2.00000
     93       2.1072      2.00000
     94       2.1072      2.00000
     95       2.1073      2.00000
     96       2.1073      2.00000
     97       2.1074      2.00000
     98       2.1074      2.00000
     99       2.1075      2.00000
    100       2.1086      2.00000
    101       2.1110      2.00000
    102       2.1110      2.00000
    103       2.1129      2.00000
    104       2.1129      2.00000
    105       3.0812      2.00000
    106       3.0833      2.00000
    107       3.0833      2.00000
    108       3.0867      2.00000
    109       3.0870      2.00000
    110       3.0870      2.00000
    111       3.0870      2.00000
    112       3.0875      2.00000
    113       3.0877      2.00000
    114       3.0877      2.00000
    115       3.0877      2.00000
    116       3.0878      2.00000
    117       3.0879      2.00000
    118       3.0879      2.00000
    119       3.0879      2.00000
    120       3.0879      2.00000
    121       3.0882      2.00000
    122       3.0886      2.00000
    123       3.0886      2.00000
    124       3.0887      2.00000
    125       3.0890      2.00000
    126       3.0923      2.00000
    127       3.0923      2.00000
    128       3.0944      2.00000
    129       3.6791      2.00000
    130       3.6812      2.00000
    131       3.6815      2.00000
    132       3.6815      2.00000
    133       3.6831      2.00000
    134       3.6831      2.00000
    135       3.6834      2.00000
    136       3.6836      2.00000
    137       3.6837      2.00000
    138       3.6839      2.00000
    139       3.6842      2.00000
    140       3.6842      2.00000
    141       3.6859      2.00000
    142       3.6859      2.00000
    143       3.6861      2.00000
    144       3.6882      2.00000
    145       5.0086      2.00000
    146       5.0086      2.00000
    147       5.0091      2.00000
    148       5.0094      2.00000
    149       5.0094      2.00000
    150       5.0094      2.00000
    151       5.0094      2.00000
    152       5.0095      2.00000
    153       5.0097      2.00000
    154       5.0098      2.00000
    155       5.0098      2.00000
    156       5.0099      2.00000
    157       5.0101      2.00000
    158       5.0102      2.00000
    159       5.0102      2.00000
    160       5.0103      2.00000
    161       5.0105      2.00000
    162       5.0106      2.00000
    163       5.0106      2.00000
    164       5.0106      2.00000
    165       5.0106      2.00000
    166       5.0110      2.00000
    167       5.0114      2.00000
    168       5.0114      2.00000
    169       8.1351      0.00000
    170       8.1373      0.00000
    171       8.1373      0.00000
    172       8.1398      0.00000
    173       8.1407      0.00000
    174       8.1408      0.00000
    175       8.1409      0.00000
    176       8.1409      0.00000
    177       8.1410      0.00000
    178       8.1411      0.00000
    179       8.1413      0.00000
    180       8.1413      0.00000
    181       8.1415      0.00000
    182       8.1415      0.00000
    183       8.1417      0.00000
    184       8.1418      0.00000
    185       8.1419      0.00000
    186       8.1419      0.00000
    187       8.1420      0.00000
    188       8.1421      0.00000
    189       8.1430      0.00000
    190       8.1455      0.00000
    191       8.1455      0.00000
    192       8.1477      0.00000
    193      12.8183      0.00000
    194      12.8189      0.00000
    195      12.8223      0.00000
    196      12.8228      0.00000
    197      12.8236      0.00000
    198      12.8240      0.00000
    199      12.8244      0.00000
    200      12.8246      0.00000
    201      12.8247      0.00000
    202      12.8248      0.00000
    203      12.8248      0.00000
    204      12.8249      0.00000
    205      12.8249      0.00000
    206      12.8250      0.00000
    207      12.8253      0.00000
    208      12.8254      0.00000
    209      12.8259      0.00000
    210      12.8261      0.00000
    211      12.8264      0.00000
    212      12.8272      0.00000


--------------------------------------------------------------------------------------------------------


 soft charge-density along one line, spin component           1
         0         1         2         3         4         5         6         7         8         9
 total charge-density along one line
 
 pseudopotential strength for first ion, spin component:           1
 -9.401   0.000  -0.000   0.000   0.000  -0.161  -0.000   0.000
  0.000  -9.401   0.000   0.000   0.000  -0.000  -0.161  -0.000
 -0.000   0.000  -9.384   0.000  -0.000   0.000  -0.000  -0.163
  0.000   0.000   0.000  -9.401  -0.000  -0.000  -0.000  -0.000
  0.000   0.000  -0.000  -0.000  -9.384  -0.000  -0.000   0.000
 -0.161  -0.000   0.000  -0.000  -0.000   0.292   0.000  -0.000
 -0.000  -0.161  -0.000  -0.000  -0.000   0.000   0.292   0.000
  0.000  -0.000  -0.163  -0.000   0.000  -0.000   0.000   0.293
 -0.000  -0.000  -0.000  -0.161   0.000   0.000   0.000   0.000
 -0.000  -0.000   0.000   0.000  -0.163   0.000   0.000  -0.000
 -0.000   0.000   0.000   0.000  -0.000  -0.000   0.000  -0.000
  0.000  -0.000  -0.000  -0.000   0.000  -0.000   0.000   0.000
  0.000  -0.000   0.000  -0.000  -0.000   0.000   0.000  -0.000
 -0.000  -0.000   0.000   0.000  -0.000   0.000   0.000   0.000
 -0.000  -0.000  -0.000  -0.000   0.000   0.000   0.000  -0.000
 -0.000   0.000  -0.000   0.000   0.000  -0.000  -0.000   0.000
  0.000  -0.000  -0.000  -0.000   0.000  -0.000  -0.000   0.000
  0.000   0.000  -0.000   0.000   0.000  -0.000  -0.000   0.000
 total augmentation occupancy for first ion, spin component:           1
  1.902  -0.001  -0.004  -0.001  -0.001   0.003   0.000   0.001   0.001   0.001   0.007   0.001   0.001   0.000  -0.000   0.000
 -0.001   1.909  -0.001  -0.002  -0.003   0.000  -0.006   0.002   0.002   0.001   0.006   0.001   0.000   0.000  -0.000  -0.000
 -0.004  -0.001   1.965  -0.000  -0.004   0.001   0.002  -0.065   0.002   0.004   0.013   0.005   0.000  -0.000  -0.000  -0.000
 -0.001  -0.002  -0.000   1.917   0.001   0.001   0.002   0.002  -0.014   0.001   0.005   0.000   0.000   0.000  -0.000  -0.000
 -0.001  -0.003  -0.004   0.001   1.950   0.001   0.001   0.004   0.001  -0.052   0.008   0.003   0.000   0.000   0.000   0.000
  0.003   0.000   0.001   0.001   0.001   0.289   0.000   0.003  -0.001  -0.001  -0.003   0.002   0.003  -0.000   0.000  -0.000
  0.000  -0.006   0.002   0.002   0.001   0.000   0.297  -0.004  -0.002   0.002  -0.002   0.002  -0.000  -0.000   0.000   0.000
  0.001   0.002  -0.065   0.002   0.004   0.003  -0.004   0.239  -0.004  -0.002  -0.011  -0.002   0.000   0.000  -0.001   0.000
  0.001   0.002   0.002  -0.014   0.001  -0.001  -0.002  -0.004   0.305  -0.005  -0.001   0.002  -0.000   0.003   0.000   0.000
  0.001   0.001   0.004   0.001  -0.052  -0.001   0.002  -0.002  -0.005   0.232  -0.006  -0.001  -0.000  -0.000   0.001   0.000
  0.007   0.006   0.013   0.005   0.008  -0.003  -0.002  -0.011  -0.001  -0.006   1.131  -0.464   0.000  -0.000   0.003   0.000
  0.001   0.001   0.005   0.000   0.003   0.002   0.002  -0.002   0.002  -0.001  -0.464   0.334   0.000   0.000  -0.002   0.000
  0.001   0.000   0.000   0.000   0.000   0.003  -0.000   0.000  -0.000  -0.000   0.000   0.000   0.203   0.001   0.001  -0.015
  0.000   0.000  -0.000   0.000   0.000  -0.000  -0.000   0.000   0.003  -0.000  -0.000   0.000   0.001   0.202  -0.000  -0.000
 -0.000  -0.000  -0.000  -0.000   0.000   0.000   0.000  -0.001   0.000   0.001   0.003  -0.002   0.001  -0.000   0.202  -0.000
  0.000  -0.000  -0.000  -0.000   0.000  -0.000   0.000   0.000   0.000   0.000   0.000   0.000  -0.015  -0.000  -0.000   0.001
 -0.000  -0.000   0.000   0.000   0.000   0.000   0.000  -0.000  -0.000  -0.000   0.000   0.000  -0.000  -0.015  -0.000   0.000
  0.000  -0.000  -0.000   0.000   0.000  -0.000  -0.000   0.000  -0.000  -0.000  -0.000   0.000  -0.000  -0.000  -0.015   0.000


------------------------ aborting loop because EDIFF is reached ----------------------------------------




--------------------------------------------------------------------------------------------------------


    CHARGE:  VPU time   93.52: CPU time  625.79
    FORLOC:  VPU time    0.20: CPU time    0.21
    FORNL :  VPU time  839.56: CPU time 1105.86
    STRESS:  VPU time 1123.90: CPU time 1372.28
    FORCOR:  VPU time    6.10: CPU time    9.84
    FORHAR:  VPU time    0.65: CPU time    2.83
    MIXING:  VPU time    2.19: CPU time    3.08


--------------------------------------------------------------------------------------------------------



  FREE ENERGIE OF THE ION-ELECTRON SYSTEM (eV)
  ---------------------------------------------------
  free  energy   TOTEN  =       -97.452562 eV

  energy  without entropy=      -97.451880  energy(sigma->0) =      -97.452221
 

  FORCE on cell =-STRESS in cart. coord.  units (eV/reduce length):
  Direction    X        Y        Z        XY       YZ       ZX
  --------------------------------------------------------------------------------------
  Alpha Z   3848.01   3848.01   3848.01
  Ewald   -10747.63 -10747.58 -10747.58     -0.00      0.00      0.00
  Hartree   1085.82   1085.85   1085.85     -0.00     -0.00     -0.00
  E(xc)    -1604.37  -1604.37  -1604.37      0.00     -0.00      0.00
  Local     2718.63   2718.56   2718.56      0.00     -0.00      0.00
  n-local  -1496.23  -1502.29  -1490.17      4.70      3.93      3.18
  augment   1368.48   1368.48   1368.48     -0.00     -0.00     -0.00
  Kinetic   4930.58   4924.92   4936.23      0.78     -0.78     -2.34
  -------------------------------------------------------------------------------------
  Total      103.30    103.30    103.30     -0.00     -0.00      0.00
  in kB      332.07    332.07    332.07     -0.00     -0.00      0.00
  external pressure =      332.07 kB  Pullay stress =        0.00 kB


 VOLUME and BASIS-vectors are now :
 -----------------------------------------------------------------------------
  energy-cutoff  :      750.00
  volume of cell :      498.38
      direct lattice vectors                 reciprocal lattice vectors
     7.928418614  0.000000000  0.000000000     0.126128557  0.000000000  0.000000000
     0.000000000  7.928418614  0.000000000     0.000000000  0.126128557  0.000000000
     0.000000000  0.000000000  7.928418614     0.000000000  0.000000000  0.126128557

  length of vectors
     7.928418614  7.928418614  7.928418614     0.126128557  0.126128557  0.126128557


 FORCES acting on ions
    electron-ion (+dipol)            ewald-force                    non-local-force                 convergence-correction
 -----------------------------------------------------------------------------------------------
   0.445E+01 -.823E-13 0.208E-07   -.454E+01 -.355E-13 -.568E-13   -.369E-01 -.341E-19 -.280E-19   -.131E-04 0.836E-13 -.985E-13
   -.118E+01 -.435E-13 -.211E-07   0.120E+01 -.284E-13 0.568E-13   -.925E-02 0.180E-19 0.602E-20   0.805E-05 0.726E-13 -.185E-12
   0.376E+00 0.339E-12 0.101E-10   -.379E+00 0.000E+00 0.746E-13   0.249E-02 0.121E-20 -.271E-20   -.109E-04 -.102E-12 -.711E-13
   -.304E+00 0.313E-11 0.963E-11   0.298E+00 -.284E-13 0.568E-13   0.404E-02 -.556E-20 -.144E-20   0.795E-05 -.887E-13 -.124E-12
   0.376E+00 -.814E-13 -.317E-11   -.379E+00 -.142E-13 -.249E-13   0.249E-02 0.116E-20 0.959E-21   -.105E-04 0.718E-13 0.419E-13
   -.304E+00 -.851E-13 -.212E-11   0.298E+00 0.000E+00 0.568E-13   0.404E-02 -.110E-19 0.129E-19   0.785E-05 0.524E-13 0.960E-13
   0.157E+00 0.339E-12 -.177E-11   -.157E+00 -.249E-13 0.888E-13   -.491E-03 0.260E-20 -.318E-21   -.115E-04 -.897E-13 -.514E-14
   -.147E+00 -.247E-11 -.614E-12   0.146E+00 -.284E-13 0.171E-12   0.123E-03 0.340E-20 -.170E-20   0.123E-04 -.660E-13 0.182E-13
   -.562E+00 -.108E+01 0.917E-11   0.576E+00 0.111E+01 0.131E-12   0.475E-02 0.851E-03 -.145E-19   0.330E-05 0.154E-05 -.128E-12
   -.566E+00 0.108E+01 0.105E-10   0.579E+00 -.110E+01 0.131E-12   0.460E-02 -.727E-03 0.406E-20   0.275E-05 -.180E-05 -.983E-13
   -.562E+00 0.108E+01 0.923E-11   0.576E+00 -.111E+01 0.142E-12   0.475E-02 -.851E-03 0.761E-20   0.330E-05 -.154E-05 -.147E-12
   -.566E+00 -.108E+01 0.105E-10   0.579E+00 0.110E+01 0.284E-13   0.460E-02 0.727E-03 0.139E-19   0.275E-05 0.180E-05 -.105E-12
   -.166E-01 -.904E-01 0.636E-11   0.175E-01 0.909E-01 0.924E-13   -.912E-03 -.321E-03 -.625E-20   0.188E-07 -.128E-05 0.433E-13
   -.184E-01 0.902E-01 0.344E-11   0.193E-01 -.908E-01 0.924E-13   -.926E-03 0.324E-03 0.129E-19   0.131E-06 0.140E-05 0.122E-13
   -.166E-01 0.904E-01 0.635E-11   0.175E-01 -.909E-01 0.853E-13   -.912E-03 0.321E-03 -.135E-19   0.188E-07 0.128E-05 0.622E-13
   -.184E-01 -.902E-01 0.325E-11   0.193E-01 0.908E-01 0.142E-12   -.926E-03 -.324E-03 -.466E-20   0.131E-06 -.140E-05 0.296E-13
   -.562E+00 -.759E-13 -.108E+01   0.576E+00 -.391E-13 0.111E+01   0.475E-02 -.126E-19 0.851E-03   0.322E-05 0.745E-13 0.161E-05
   -.566E+00 -.114E-12 0.108E+01   0.579E+00 -.959E-13 -.110E+01   0.460E-02 0.182E-19 -.727E-03   0.268E-05 0.855E-13 -.187E-05
   -.166E-01 0.332E-12 -.904E-01   0.175E-01 -.391E-13 0.909E-01   -.912E-03 0.781E-20 -.321E-03   0.412E-07 -.892E-13 -.120E-05
   -.184E-01 -.368E-11 0.902E-01   0.193E-01 -.959E-13 -.908E-01   -.926E-03 -.371E-21 0.324E-03   0.154E-06 -.100E-12 0.132E-05
   -.562E+00 -.769E-13 0.108E+01   0.576E+00 -.853E-13 -.111E+01   0.475E-02 -.124E-19 -.851E-03   0.322E-05 0.569E-13 -.161E-05
   -.566E+00 -.824E-13 -.108E+01   0.579E+00 -.853E-13 0.110E+01   0.460E-02 -.168E-19 0.727E-03   0.268E-05 0.752E-13 0.187E-05
   -.166E-01 0.333E-12 0.904E-01   0.175E-01 -.284E-13 -.909E-01   -.912E-03 -.564E-20 0.321E-03   0.412E-07 -.714E-13 0.120E-05
   -.184E-01 -.387E-11 -.902E-01   0.193E-01 -.284E-13 0.908E-01   -.926E-03 -.115E-19 -.324E-03   0.154E-06 -.861E-13 -.132E-05
   0.706E+00 0.279E-02 0.279E-02   -.716E+00 -.284E-02 -.284E-02   0.416E-02 0.147E-04 0.147E-04   -.124E-04 0.150E-06 0.149E-06
   -.399E+00 -.832E-03 -.832E-03   0.402E+00 0.850E-03 0.850E-03   -.332E-02 -.170E-04 -.170E-04   0.868E-05 -.199E-06 -.199E-06
   0.706E+00 -.279E-02 0.279E-02   -.716E+00 0.284E-02 -.284E-02   0.416E-02 -.147E-04 0.147E-04   -.124E-04 -.150E-06 0.149E-06
   -.399E+00 0.832E-03 -.832E-03   0.402E+00 -.850E-03 0.850E-03   -.332E-02 0.170E-04 -.170E-04   0.868E-05 0.199E-06 -.199E-06
   0.706E+00 0.279E-02 -.279E-02   -.716E+00 -.284E-02 0.284E-02   0.416E-02 0.147E-04 -.147E-04   -.124E-04 0.150E-06 -.149E-06
   -.399E+00 -.832E-03 0.832E-03   0.402E+00 0.850E-03 -.850E-03   -.332E-02 -.170E-04 0.170E-04   0.868E-05 -.199E-06 0.199E-06
   0.706E+00 -.279E-02 -.279E-02   -.716E+00 0.284E-02 0.284E-02   0.416E-02 -.147E-04 -.147E-04   -.124E-04 -.150E-06 -.149E-06
   -.399E+00 0.832E-03 0.832E-03   0.402E+00 -.850E-03 -.850E-03   -.332E-02 0.170E-04 0.170E-04   0.868E-05 0.199E-06 0.199E-06
 -----------------------------------------------------------------------------------------------
   -.125E-05 -.138E-10 0.586E-10   0.437E-13 0.190E-12 0.337E-13   0.306E-05 0.271E-19 -.305E-19   -.296E-06 -.300E-12 -.934E-12
 
 
 POSITION                                       TOTAL-FORCE (eV/Angst)
 -----------------------------------------------------------------------------------
      0.01000      0.00000      0.00000        -0.124499      0.000000      0.000000
      3.96421      0.00000      0.00000         0.006217     -0.000000      0.000000
      0.00000      3.96421      0.00000        -0.001041     -0.000000      0.000000
      3.96421      3.96421      0.00000        -0.001806      0.000000      0.000000
      0.00000      0.00000      3.96421        -0.001041      0.000000      0.000000
      3.96421      0.00000      3.96421        -0.001806      0.000000      0.000000
      0.00000      3.96421      3.96421         0.000134      0.000000      0.000000
      3.96421      3.96421      3.96421         0.000077      0.000000     -0.000000
      1.98210      1.98210      0.00000         0.018367      0.022629      0.000000
      5.94631      1.98210      0.00000         0.017885     -0.021923      0.000000
      1.98210      5.94631      0.00000         0.018367     -0.022629     -0.000000
      5.94631      5.94631      0.00000         0.017885      0.021923     -0.000000
      1.98210      1.98210      3.96421         0.000016      0.000230      0.000000
      5.94631      1.98210      3.96421         0.000015     -0.000229     -0.000000
      1.98210      5.94631      3.96421         0.000016     -0.000230      0.000000
      5.94631      5.94631      3.96421         0.000015      0.000229     -0.000000
      1.98210      0.00000      1.98210         0.018367     -0.000000      0.022629
      5.94631      0.00000      1.98210         0.017885     -0.000000     -0.021923
      1.98210      3.96421      1.98210         0.000016     -0.000000      0.000230
      5.94631      3.96421      1.98210         0.000015      0.000000     -0.000229
      1.98210      0.00000      5.94631         0.018367      0.000000     -0.022629
      5.94631      0.00000      5.94631         0.017885     -0.000000      0.021923
      1.98210      3.96421      5.94631         0.000016      0.000000     -0.000230
      5.94631      3.96421      5.94631         0.000015      0.000000      0.000229
      0.00000      1.98210      1.98210        -0.005962     -0.000037     -0.000037
      3.96421      1.98210      1.98210         0.000620      0.000001      0.000001
      0.00000      5.94631      1.98210        -0.005962      0.000037     -0.000037
      3.96421      5.94631      1.98210         0.000620     -0.000001      0.000001
      0.00000      1.98210      5.94631        -0.005962     -0.000037      0.000037
      3.96421      1.98210      5.94631         0.000620      0.000001     -0.000001
      0.00000      5.94631      5.94631        -0.005962      0.000037      0.000037
      3.96421      5.94631      5.94631         0.000620     -0.000001     -0.000001
 -----------------------------------------------------------------------------------
    total drift:                                0.000002     -0.000000      0.000000


--------------------------------------------------------------------------------------------------------



 mean value of Nose-termostat <S>:     1.000 mean value of <T> :     0.000
 mean temperature <T/S>/<1/S>  :     0.000

     LOOP+:  VPU time42099.96: CPU time56589.98
  
  
 General timing and accounting informations for this job:
 ========================================================
  
                  Total CPU time used (sec):    42432.065
                            User time (sec):    35080.780
                          System time (sec):     7351.285
                         Elapsed time (sec):    57614.323
  
                   Maximum memory used (kb):     7320396.
                   Average memory used (kb):           0.
  
                          Minor page faults:      5556500
                          Major page faults:       412688
                 Voluntary context switches:       569866
