<?xml version="1.0" encoding="ISO-8859-1"?>
<modeling>
 <generator>
  <i name="program" type="string">vasp</i>
  <i name="version" type="string">4.6.28 </i>
  <i name="subversion" type="string">25Jul05 complex  parallel</i>
  <i name="platform" type="string">LinuxIFC</i>
  <i name="date" type="string">2017 01 10</i>
  <i name="time" type="string">08:53:53</i>
 </generator>
 <incar>
  <i type="string" name="PREC">accurate</i>
  <i type="int" name="IALGO">    38</i>
  <i type="logical" name="ADDGRID"> T  </i>
  <i name="EDIFF">      0.00000001</i>
  <i type="int" name="IBRION">    -1</i>
  <i name="ENCUT">    750.00000000</i>
  <i type="logical" name="LREAL"> F  </i>
  <i type="int" name="ISMEAR">     0</i>
  <i name="SIGMA">      0.01000000</i>
  <i type="logical" name="LWAVE"> F  </i>
  <i type="logical" name="LCHARG"> F  </i>
 </incar>
 <kpoints>
  <generation param="Gamma">
   <v type="int" name="divisions">      12      12      12</v>
   <v name="usershift">      0.00000000      0.00000000      0.00000000</v>
   <v name="genvec1">      0.08333333      0.00000000      0.00000000</v>
   <v name="genvec2">      0.00000000      0.08333333      0.00000000</v>
   <v name="genvec3">      0.00000000      0.00000000      0.08333333</v>
   <v name="shift">      0.00000000      0.00000000      0.00000000</v>
  </generation>
  <varray name="kpointlist" >
   <v>       0.00000000      0.00000000      0.00000000</v>
   <v>       0.08333333      0.00000000      0.00000000</v>
   <v>       0.16666667      0.00000000      0.00000000</v>
   <v>       0.25000000      0.00000000      0.00000000</v>
   <v>       0.33333333      0.00000000      0.00000000</v>
   <v>       0.41666667      0.00000000      0.00000000</v>
   <v>       0.50000000      0.00000000      0.00000000</v>
   <v>       0.00000000      0.08333333      0.00000000</v>
   <v>       0.08333333      0.08333333      0.00000000</v>
   <v>       0.16666667      0.08333333      0.00000000</v>
   <v>       0.25000000      0.08333333      0.00000000</v>
   <v>       0.33333333      0.08333333      0.00000000</v>
   <v>       0.41666667      0.08333333      0.00000000</v>
   <v>       0.50000000      0.08333333      0.00000000</v>
   <v>       0.00000000      0.16666667      0.00000000</v>
   <v>       0.08333333      0.16666667      0.00000000</v>
   <v>       0.16666667      0.16666667      0.00000000</v>
   <v>       0.25000000      0.16666667      0.00000000</v>
   <v>       0.33333333      0.16666667      0.00000000</v>
   <v>       0.41666667      0.16666667      0.00000000</v>
   <v>       0.50000000      0.16666667      0.00000000</v>
   <v>       0.00000000      0.25000000      0.00000000</v>
   <v>       0.08333333      0.25000000      0.00000000</v>
   <v>       0.16666667      0.25000000      0.00000000</v>
   <v>       0.25000000      0.25000000      0.00000000</v>
   <v>       0.33333333      0.25000000      0.00000000</v>
   <v>       0.41666667      0.25000000      0.00000000</v>
   <v>       0.50000000      0.25000000      0.00000000</v>
   <v>       0.00000000      0.33333333      0.00000000</v>
   <v>       0.08333333      0.33333333      0.00000000</v>
   <v>       0.16666667      0.33333333      0.00000000</v>
   <v>       0.25000000      0.33333333      0.00000000</v>
   <v>       0.33333333      0.33333333      0.00000000</v>
   <v>       0.41666667      0.33333333      0.00000000</v>
   <v>       0.50000000      0.33333333      0.00000000</v>
   <v>       0.00000000      0.41666667      0.00000000</v>
   <v>       0.08333333      0.41666667      0.00000000</v>
   <v>       0.16666667      0.41666667      0.00000000</v>
   <v>       0.25000000      0.41666667      0.00000000</v>
   <v>       0.33333333      0.41666667      0.00000000</v>
   <v>       0.41666667      0.41666667      0.00000000</v>
   <v>       0.50000000      0.41666667      0.00000000</v>
   <v>       0.00000000      0.50000000      0.00000000</v>
   <v>       0.08333333      0.50000000      0.00000000</v>
   <v>       0.16666667      0.50000000      0.00000000</v>
   <v>       0.25000000      0.50000000      0.00000000</v>
   <v>       0.33333333      0.50000000      0.00000000</v>
   <v>       0.41666667      0.50000000      0.00000000</v>
   <v>       0.50000000      0.50000000      0.00000000</v>
   <v>       0.00000000      0.08333333      0.08333333</v>
   <v>       0.08333333      0.08333333      0.08333333</v>
   <v>       0.16666667      0.08333333      0.08333333</v>
   <v>       0.25000000      0.08333333      0.08333333</v>
   <v>       0.33333333      0.08333333      0.08333333</v>
   <v>       0.41666667      0.08333333      0.08333333</v>
   <v>       0.50000000      0.08333333      0.08333333</v>
   <v>       0.00000000      0.16666667      0.08333333</v>
   <v>       0.08333333      0.16666667      0.08333333</v>
   <v>       0.16666667      0.16666667      0.08333333</v>
   <v>       0.25000000      0.16666667      0.08333333</v>
   <v>       0.33333333      0.16666667      0.08333333</v>
   <v>       0.41666667      0.16666667      0.08333333</v>
   <v>       0.50000000      0.16666667      0.08333333</v>
   <v>       0.00000000      0.25000000      0.08333333</v>
   <v>       0.08333333      0.25000000      0.08333333</v>
   <v>       0.16666667      0.25000000      0.08333333</v>
   <v>       0.25000000      0.25000000      0.08333333</v>
   <v>       0.33333333      0.25000000      0.08333333</v>
   <v>       0.41666667      0.25000000      0.08333333</v>
   <v>       0.50000000      0.25000000      0.08333333</v>
   <v>       0.00000000      0.33333333      0.08333333</v>
   <v>       0.08333333      0.33333333      0.08333333</v>
   <v>       0.16666667      0.33333333      0.08333333</v>
   <v>       0.25000000      0.33333333      0.08333333</v>
   <v>       0.33333333      0.33333333      0.08333333</v>
   <v>       0.41666667      0.33333333      0.08333333</v>
   <v>       0.50000000      0.33333333      0.08333333</v>
   <v>       0.00000000      0.41666667      0.08333333</v>
   <v>       0.08333333      0.41666667      0.08333333</v>
   <v>       0.16666667      0.41666667      0.08333333</v>
   <v>       0.25000000      0.41666667      0.08333333</v>
   <v>       0.33333333      0.41666667      0.08333333</v>
   <v>       0.41666667      0.41666667      0.08333333</v>
   <v>       0.50000000      0.41666667      0.08333333</v>
   <v>       0.00000000      0.50000000      0.08333333</v>
   <v>       0.08333333      0.50000000      0.08333333</v>
   <v>       0.16666667      0.50000000      0.08333333</v>
   <v>       0.25000000      0.50000000      0.08333333</v>
   <v>       0.33333333      0.50000000      0.08333333</v>
   <v>       0.41666667      0.50000000      0.08333333</v>
   <v>       0.50000000      0.50000000      0.08333333</v>
   <v>       0.00000000      0.16666667      0.16666667</v>
   <v>       0.08333333      0.16666667      0.16666667</v>
   <v>       0.16666667      0.16666667      0.16666667</v>
   <v>       0.25000000      0.16666667      0.16666667</v>
   <v>       0.33333333      0.16666667      0.16666667</v>
   <v>       0.41666667      0.16666667      0.16666667</v>
   <v>       0.50000000      0.16666667      0.16666667</v>
   <v>       0.00000000      0.25000000      0.16666667</v>
   <v>       0.08333333      0.25000000      0.16666667</v>
   <v>       0.16666667      0.25000000      0.16666667</v>
   <v>       0.25000000      0.25000000      0.16666667</v>
   <v>       0.33333333      0.25000000      0.16666667</v>
   <v>       0.41666667      0.25000000      0.16666667</v>
   <v>       0.50000000      0.25000000      0.16666667</v>
   <v>       0.00000000      0.33333333      0.16666667</v>
   <v>       0.08333333      0.33333333      0.16666667</v>
   <v>       0.16666667      0.33333333      0.16666667</v>
   <v>       0.25000000      0.33333333      0.16666667</v>
   <v>       0.33333333      0.33333333      0.16666667</v>
   <v>       0.41666667      0.33333333      0.16666667</v>
   <v>       0.50000000      0.33333333      0.16666667</v>
   <v>       0.00000000      0.41666667      0.16666667</v>
   <v>       0.08333333      0.41666667      0.16666667</v>
   <v>       0.16666667      0.41666667      0.16666667</v>
   <v>       0.25000000      0.41666667      0.16666667</v>
   <v>       0.33333333      0.41666667      0.16666667</v>
   <v>       0.41666667      0.41666667      0.16666667</v>
   <v>       0.50000000      0.41666667      0.16666667</v>
   <v>       0.00000000      0.50000000      0.16666667</v>
   <v>       0.08333333      0.50000000      0.16666667</v>
   <v>       0.16666667      0.50000000      0.16666667</v>
   <v>       0.25000000      0.50000000      0.16666667</v>
   <v>       0.33333333      0.50000000      0.16666667</v>
   <v>       0.41666667      0.50000000      0.16666667</v>
   <v>       0.50000000      0.50000000      0.16666667</v>
   <v>       0.00000000      0.25000000      0.25000000</v>
   <v>       0.08333333      0.25000000      0.25000000</v>
   <v>       0.16666667      0.25000000      0.25000000</v>
   <v>       0.25000000      0.25000000      0.25000000</v>
   <v>       0.33333333      0.25000000      0.25000000</v>
   <v>       0.41666667      0.25000000      0.25000000</v>
   <v>       0.50000000      0.25000000      0.25000000</v>
   <v>       0.00000000      0.33333333      0.25000000</v>
   <v>       0.08333333      0.33333333      0.25000000</v>
   <v>       0.16666667      0.33333333      0.25000000</v>
   <v>       0.25000000      0.33333333      0.25000000</v>
   <v>       0.33333333      0.33333333      0.25000000</v>
   <v>       0.41666667      0.33333333      0.25000000</v>
   <v>       0.50000000      0.33333333      0.25000000</v>
   <v>       0.00000000      0.41666667      0.25000000</v>
   <v>       0.08333333      0.41666667      0.25000000</v>
   <v>       0.16666667      0.41666667      0.25000000</v>
   <v>       0.25000000      0.41666667      0.25000000</v>
   <v>       0.33333333      0.41666667      0.25000000</v>
   <v>       0.41666667      0.41666667      0.25000000</v>
   <v>       0.50000000      0.41666667      0.25000000</v>
   <v>       0.00000000      0.50000000      0.25000000</v>
   <v>       0.08333333      0.50000000      0.25000000</v>
   <v>       0.16666667      0.50000000      0.25000000</v>
   <v>       0.25000000      0.50000000      0.25000000</v>
   <v>       0.33333333      0.50000000      0.25000000</v>
   <v>       0.41666667      0.50000000      0.25000000</v>
   <v>       0.50000000      0.50000000      0.25000000</v>
   <v>       0.00000000      0.33333333      0.33333333</v>
   <v>       0.08333333      0.33333333      0.33333333</v>
   <v>       0.16666667      0.33333333      0.33333333</v>
   <v>       0.25000000      0.33333333      0.33333333</v>
   <v>       0.33333333      0.33333333      0.33333333</v>
   <v>       0.41666667      0.33333333      0.33333333</v>
   <v>       0.50000000      0.33333333      0.33333333</v>
   <v>       0.00000000      0.41666667      0.33333333</v>
   <v>       0.08333333      0.41666667      0.33333333</v>
   <v>       0.16666667      0.41666667      0.33333333</v>
   <v>       0.25000000      0.41666667      0.33333333</v>
   <v>       0.33333333      0.41666667      0.33333333</v>
   <v>       0.41666667      0.41666667      0.33333333</v>
   <v>       0.50000000      0.41666667      0.33333333</v>
   <v>       0.00000000      0.50000000      0.33333333</v>
   <v>       0.08333333      0.50000000      0.33333333</v>
   <v>       0.16666667      0.50000000      0.33333333</v>
   <v>       0.25000000      0.50000000      0.33333333</v>
   <v>       0.33333333      0.50000000      0.33333333</v>
   <v>       0.41666667      0.50000000      0.33333333</v>
   <v>       0.50000000      0.50000000      0.33333333</v>
   <v>       0.00000000      0.41666667      0.41666667</v>
   <v>       0.08333333      0.41666667      0.41666667</v>
   <v>       0.16666667      0.41666667      0.41666667</v>
   <v>       0.25000000      0.41666667      0.41666667</v>
   <v>       0.33333333      0.41666667      0.41666667</v>
   <v>       0.41666667      0.41666667      0.41666667</v>
   <v>       0.50000000      0.41666667      0.41666667</v>
   <v>       0.00000000      0.50000000      0.41666667</v>
   <v>       0.08333333      0.50000000      0.41666667</v>
   <v>       0.16666667      0.50000000      0.41666667</v>
   <v>       0.25000000      0.50000000      0.41666667</v>
   <v>       0.33333333      0.50000000      0.41666667</v>
   <v>       0.41666667      0.50000000      0.41666667</v>
   <v>       0.50000000      0.50000000      0.41666667</v>
   <v>       0.00000000      0.50000000      0.50000000</v>
   <v>       0.08333333      0.50000000      0.50000000</v>
   <v>       0.16666667      0.50000000      0.50000000</v>
   <v>       0.25000000      0.50000000      0.50000000</v>
   <v>       0.33333333      0.50000000      0.50000000</v>
   <v>       0.41666667      0.50000000      0.50000000</v>
   <v>       0.50000000      0.50000000      0.50000000</v>
  </varray>
  <varray name="weights" >
   <v>       0.00057870</v>
   <v>       0.00115741</v>
   <v>       0.00115741</v>
   <v>       0.00115741</v>
   <v>       0.00115741</v>
   <v>       0.00115741</v>
   <v>       0.00057870</v>
   <v>       0.00231481</v>
   <v>       0.00462963</v>
   <v>       0.00462963</v>
   <v>       0.00462963</v>
   <v>       0.00462963</v>
   <v>       0.00462963</v>
   <v>       0.00231481</v>
   <v>       0.00231481</v>
   <v>       0.00462963</v>
   <v>       0.00462963</v>
   <v>       0.00462963</v>
   <v>       0.00462963</v>
   <v>       0.00462963</v>
   <v>       0.00231481</v>
   <v>       0.00231481</v>
   <v>       0.00462963</v>
   <v>       0.00462963</v>
   <v>       0.00462963</v>
   <v>       0.00462963</v>
   <v>       0.00462963</v>
   <v>       0.00231481</v>
   <v>       0.00231481</v>
   <v>       0.00462963</v>
   <v>       0.00462963</v>
   <v>       0.00462963</v>
   <v>       0.00462963</v>
   <v>       0.00462963</v>
   <v>       0.00231481</v>
   <v>       0.00231481</v>
   <v>       0.00462963</v>
   <v>       0.00462963</v>
   <v>       0.00462963</v>
   <v>       0.00462963</v>
   <v>       0.00462963</v>
   <v>       0.00231481</v>
   <v>       0.00115741</v>
   <v>       0.00231481</v>
   <v>       0.00231481</v>
   <v>       0.00231481</v>
   <v>       0.00231481</v>
   <v>       0.00231481</v>
   <v>       0.00115741</v>
   <v>       0.00231481</v>
   <v>       0.00462963</v>
   <v>       0.00462963</v>
   <v>       0.00462963</v>
   <v>       0.00462963</v>
   <v>       0.00462963</v>
   <v>       0.00231481</v>
   <v>       0.00462963</v>
   <v>       0.00925926</v>
   <v>       0.00925926</v>
   <v>       0.00925926</v>
   <v>       0.00925926</v>
   <v>       0.00925926</v>
   <v>       0.00462963</v>
   <v>       0.00462963</v>
   <v>       0.00925926</v>
   <v>       0.00925926</v>
   <v>       0.00925926</v>
   <v>       0.00925926</v>
   <v>       0.00925926</v>
   <v>       0.00462963</v>
   <v>       0.00462963</v>
   <v>       0.00925926</v>
   <v>       0.00925926</v>
   <v>       0.00925926</v>
   <v>       0.00925926</v>
   <v>       0.00925926</v>
   <v>       0.00462963</v>
   <v>       0.00462963</v>
   <v>       0.00925926</v>
   <v>       0.00925926</v>
   <v>       0.00925926</v>
   <v>       0.00925926</v>
   <v>       0.00925926</v>
   <v>       0.00462963</v>
   <v>       0.00231481</v>
   <v>       0.00462963</v>
   <v>       0.00462963</v>
   <v>       0.00462963</v>
   <v>       0.00462963</v>
   <v>       0.00462963</v>
   <v>       0.00231481</v>
   <v>       0.00231481</v>
   <v>       0.00462963</v>
   <v>       0.00462963</v>
   <v>       0.00462963</v>
   <v>       0.00462963</v>
   <v>       0.00462963</v>
   <v>       0.00231481</v>
   <v>       0.00462963</v>
   <v>       0.00925926</v>
   <v>       0.00925926</v>
   <v>       0.00925926</v>
   <v>       0.00925926</v>
   <v>       0.00925926</v>
   <v>       0.00462963</v>
   <v>       0.00462963</v>
   <v>       0.00925926</v>
   <v>       0.00925926</v>
   <v>       0.00925926</v>
   <v>       0.00925926</v>
   <v>       0.00925926</v>
   <v>       0.00462963</v>
   <v>       0.00462963</v>
   <v>       0.00925926</v>
   <v>       0.00925926</v>
   <v>       0.00925926</v>
   <v>       0.00925926</v>
   <v>       0.00925926</v>
   <v>       0.00462963</v>
   <v>       0.00231481</v>
   <v>       0.00462963</v>
   <v>       0.00462963</v>
   <v>       0.00462963</v>
   <v>       0.00462963</v>
   <v>       0.00462963</v>
   <v>       0.00231481</v>
   <v>       0.00231481</v>
   <v>       0.00462963</v>
   <v>       0.00462963</v>
   <v>       0.00462963</v>
   <v>       0.00462963</v>
   <v>       0.00462963</v>
   <v>       0.00231481</v>
   <v>       0.00462963</v>
   <v>       0.00925926</v>
   <v>       0.00925926</v>
   <v>       0.00925926</v>
   <v>       0.00925926</v>
   <v>       0.00925926</v>
   <v>       0.00462963</v>
   <v>       0.00462963</v>
   <v>       0.00925926</v>
   <v>       0.00925926</v>
   <v>       0.00925926</v>
   <v>       0.00925926</v>
   <v>       0.00925926</v>
   <v>       0.00462963</v>
   <v>       0.00231481</v>
   <v>       0.00462963</v>
   <v>       0.00462963</v>
   <v>       0.00462963</v>
   <v>       0.00462963</v>
   <v>       0.00462963</v>
   <v>       0.00231481</v>
   <v>       0.00231481</v>
   <v>       0.00462963</v>
   <v>       0.00462963</v>
   <v>       0.00462963</v>
   <v>       0.00462963</v>
   <v>       0.00462963</v>
   <v>       0.00231481</v>
   <v>       0.00462963</v>
   <v>       0.00925926</v>
   <v>       0.00925926</v>
   <v>       0.00925926</v>
   <v>       0.00925926</v>
   <v>       0.00925926</v>
   <v>       0.00462963</v>
   <v>       0.00231481</v>
   <v>       0.00462963</v>
   <v>       0.00462963</v>
   <v>       0.00462963</v>
   <v>       0.00462963</v>
   <v>       0.00462963</v>
   <v>       0.00231481</v>
   <v>       0.00231481</v>
   <v>       0.00462963</v>
   <v>       0.00462963</v>
   <v>       0.00462963</v>
   <v>       0.00462963</v>
   <v>       0.00462963</v>
   <v>       0.00231481</v>
   <v>       0.00231481</v>
   <v>       0.00462963</v>
   <v>       0.00462963</v>
   <v>       0.00462963</v>
   <v>       0.00462963</v>
   <v>       0.00462963</v>
   <v>       0.00231481</v>
   <v>       0.00057870</v>
   <v>       0.00115741</v>
   <v>       0.00115741</v>
   <v>       0.00115741</v>
   <v>       0.00115741</v>
   <v>       0.00115741</v>
   <v>       0.00057870</v>
  </varray>
 </kpoints>
 <parameters>
  <separator name="general" >
   <i type="string" name="SYSTEM">unknown system</i>
   <i type="logical" name="LCOMPAT"> F  </i>
  </separator>
  <separator name="electronic" >
   <i type="string" name="PREC">accura</i>
   <i name="ENMAX">    750.00000000</i>
   <i name="ENAUG">    356.67000000</i>
   <i name="EDIFF">      0.00000001</i>
   <i type="int" name="IALGO">    38</i>
   <i type="int" name="IWAVPR">    10</i>
   <i type="int" name="NBANDS">   211</i>
   <i name="NELECT">    352.00000000</i>
   <separator name="electronic smearing" >
    <i type="int" name="ISMEAR">     0</i>
    <i name="SIGMA">      0.01000000</i>
   </separator>
   <separator name="electronic projectors" >
    <i type="logical" name="LREAL"> F  </i>
    <v name="ROPT">      0.00000000</v>
    <i type="int" name="LMAXPAW">  -100</i>
    <i type="int" name="LMAXMIX">     2</i>
   </separator>
   <separator name="electronic startup" >
    <i type="int" name="ISTART">     0</i>
    <i type="int" name="ICHARG">     2</i>
    <i type="int" name="INIWAV">     1</i>
   </separator>
   <separator name="electronic spin" >
    <i type="int" name="ISPIN">     1</i>
    <i type="logical" name="LNONCOLLINEAR"> F  </i>
    <v name="MAGMOM">      1.00000000      1.00000000      1.00000000      1.00000000      1.00000000      1.00000000      1.00000000      1.00000000      1.00000000      1.00000000      1.00000000      1.00000000      1.00000000      1.00000000      1.00000000      1.00000000      1.00000000      1.00000000      1.00000000      1.00000000
      1.00000000      1.00000000      1.00000000      1.00000000      1.00000000      1.00000000      1.00000000      1.00000000      1.00000000      1.00000000      1.00000000      1.00000000</v>
    <i name="NUPDOWN">     -1.00000000</i>
    <i type="logical" name="LSORBIT"> F  </i>
    <v name="SAXIS">      0.00000000      0.00000000      1.00000000</v>
    <i type="logical" name="LSPIRAL"> F  </i>
    <v name="QSPIRAL">      0.00000000      0.00000000      0.00000000</v>
    <i type="logical" name="LZEROZ"> F  </i>
   </separator>
   <separator name="electronic exchange-correlation" >
    <i type="string" name="GGA">--</i>
    <i type="int" name="VOSKOWN">     0</i>
    <i type="logical" name="LASPH"> F  </i>
    <i type="logical" name="LMETAGGA"> F  </i>
    <i type="string" name="GGA2">--</i>
   </separator>
   <separator name="electronic convergence" >
    <i type="int" name="NELM">    60</i>
    <i type="int" name="NELMDL">     0</i>
    <i type="int" name="NELMIN">     2</i>
    <i name="ENINI">    750.00000000</i>
    <separator name="electronic convergence detail" >
     <i type="logical" name="LDIAG"> T  </i>
     <i name="WEIMIN">      0.00000000</i>
     <i name="EBREAK">      0.00000000</i>
     <i name="DEPER">      0.30000000</i>
     <i type="int" name="NRMM">     4</i>
     <i name="TIME">      0.10000000</i>
    </separator>
   </separator>
   <separator name="electronic mixer" >
    <i name="AMIX">      0.40000000</i>
    <i name="BMIX">      1.00000000</i>
    <i name="AMIN">      0.10000000</i>
    <i name="AMIX_MAG">      1.60000000</i>
    <i name="BMIX_MAG">      1.00000000</i>
    <separator name="electronic mixer details" >
     <i type="int" name="IMIX">     4</i>
     <i type="int" name="MAXMIX">   -45</i>
     <i name="WC">    100.00000000</i>
     <i type="int" name="INIMIX">     1</i>
     <i type="int" name="MIXPRE">     1</i>
     <i type="int" name="MREMOVE">     5</i>
    </separator>
   </separator>
   <separator name="electronic dipolcorrection" >
    <i type="int" name="IDIPOL">     0</i>
    <i type="logical" name="LDIPOL"> F  </i>
    <v name="DIPOL">   -100.00000000</v>
    <i name="EFIELD">      0.00000000</i>
   </separator>
  </separator>
  <separator name="grids" >
   <i type="int" name="NGX">    72</i>
   <i type="int" name="NGY">    72</i>
   <i type="int" name="NGZ">    72</i>
   <i type="int" name="NGXF">   144</i>
   <i type="int" name="NGYF">   144</i>
   <i type="int" name="NGZF">   144</i>
   <i type="logical" name="ADDGRID"> T  </i>
  </separator>
  <separator name="ionic" >
   <i type="int" name="NSW">     0</i>
   <i type="int" name="IBRION">    -1</i>
   <i type="int" name="ISIF">     2</i>
   <i name="PSTRESS">      0.00000000</i>
   <i name="EDIFFG">      0.00000010</i>
   <i type="int" name="NFREE">     0</i>
   <i name="POTIM">      0.50000000</i>
   <i name="SMASS">     -3.00000000</i>
  </separator>
  <separator name="ionic md" >
   <i name="TEBEG">      0.00010000</i>
   <i name="TEEND">      0.00010000</i>
   <i type="int" name="NBLOCK">     1</i>
   <i type="int" name="KBLOCK">     1</i>
   <i type="int" name="NPACO">   256</i>
   <i name="APACO">     16.00000000</i>
  </separator>
  <separator name="symmetry" >
   <i type="int" name="ISYM">     2</i>
   <i name="SYMPREC">      0.00001000</i>
  </separator>
  <separator name="dos" >
   <i type="logical" name="LORBIT"> F  </i>
   <v name="RWIGS">     -1.00000000</v>
   <i type="int" name="NEDOS">   301</i>
   <i name="EMIN">     10.00000000</i>
   <i name="EMAX">    -10.00000000</i>
  </separator>
  <separator name="writing" >
   <i type="int" name="NWRITE">     2</i>
   <i type="logical" name="LWAVE"> F  </i>
   <i type="logical" name="LCHARG"> F  </i>
   <i type="logical" name="LPARD"> F  </i>
   <i type="logical" name="LVTOT"> F  </i>
   <i type="logical" name="LELF"> F  </i>
   <i type="logical" name="LOPTICS"> F  </i>
   <i name="STM">      0.00000000</i>
  </separator>
  <separator name="performance" >
   <i type="int" name="NPAR">     4</i>
   <i type="int" name="NSIM">     4</i>
   <i type="int" name="NBLK">   256</i>
   <i type="logical" name="LPLANE"> T  </i>
   <i type="logical" name="LCRITICAL_MEM"> F  </i>
   <i type="logical" name="LSCALAPACK"> F  </i>
   <i type="logical" name="LSCALU"> F  </i>
   <i type="logical" name="LASYNC"> F  </i>
  </separator>
  <separator name="miscellaneous" >
   <i type="int" name="IDIOT">     3</i>
   <i type="logical" name="LMUSIC"> F  </i>
   <v name="POMASS">    196.96600000</v>
   <i type="logical" name="LCORR"> T  </i>
  </separator>
  <i type="logical" name="LREAL_COMPAT"> F  </i>
  <i type="logical" name="GGA_COMPAT"> T  </i>
  <i type="logical" name="LBERRY"> F  </i>
  <i type="int" name="ICORELEVEL">     0</i>
  <i type="logical" name="LDAU"> F  </i>
  <i type="int" name="I_CONSTRAINED_M">     0</i>
 </parameters>
 <atominfo>
  <atoms>      32</atoms>
  <types>       1</types>
  <array name="atoms" >
   <dimension dim="1">ion</dimension>
   <field type="string">element</field>
   <field type="int">atomtype</field>
   <set>
    <rc><c>Au</c><c>   1</c></rc>
    <rc><c>Au</c><c>   1</c></rc>
    <rc><c>Au</c><c>   1</c></rc>
    <rc><c>Au</c><c>   1</c></rc>
    <rc><c>Au</c><c>   1</c></rc>
    <rc><c>Au</c><c>   1</c></rc>
    <rc><c>Au</c><c>   1</c></rc>
    <rc><c>Au</c><c>   1</c></rc>
    <rc><c>Au</c><c>   1</c></rc>
    <rc><c>Au</c><c>   1</c></rc>
    <rc><c>Au</c><c>   1</c></rc>
    <rc><c>Au</c><c>   1</c></rc>
    <rc><c>Au</c><c>   1</c></rc>
    <rc><c>Au</c><c>   1</c></rc>
    <rc><c>Au</c><c>   1</c></rc>
    <rc><c>Au</c><c>   1</c></rc>
    <rc><c>Au</c><c>   1</c></rc>
    <rc><c>Au</c><c>   1</c></rc>
    <rc><c>Au</c><c>   1</c></rc>
    <rc><c>Au</c><c>   1</c></rc>
    <rc><c>Au</c><c>   1</c></rc>
    <rc><c>Au</c><c>   1</c></rc>
    <rc><c>Au</c><c>   1</c></rc>
    <rc><c>Au</c><c>   1</c></rc>
    <rc><c>Au</c><c>   1</c></rc>
    <rc><c>Au</c><c>   1</c></rc>
    <rc><c>Au</c><c>   1</c></rc>
    <rc><c>Au</c><c>   1</c></rc>
    <rc><c>Au</c><c>   1</c></rc>
    <rc><c>Au</c><c>   1</c></rc>
    <rc><c>Au</c><c>   1</c></rc>
    <rc><c>Au</c><c>   1</c></rc>
   </set>
  </array>
  <array name="atomtypes" >
   <dimension dim="1">type</dimension>
   <field type="int">atomspertype</field>
   <field type="string">element</field>
   <field>mass</field>
   <field>valence</field>
   <field type="string">pseudopotential</field>
   <set>
    <rc><c>  32</c><c>Au</c><c>    196.96600000</c><c>     11.00000000</c><c> PAW_PBE Au 06Sep2000                   </c></rc>
   </set>
  </array>
 </atominfo>
 <structure name="initialpos" >
  <crystal>
   <varray name="basis" >
    <v>       7.92841861      0.00000000      0.00000000</v>
    <v>       0.00000000      7.92841861      0.00000000</v>
    <v>       0.00000000      0.00000000      7.92841861</v>
   </varray>
   <i name="volume">    498.37898066</i>
   <varray name="rec_basis" >
    <v>       0.12612856      0.00000000      0.00000000</v>
    <v>       0.00000000      0.12612856      0.00000000</v>
    <v>       0.00000000      0.00000000      0.12612856</v>
   </varray>
  </crystal>
  <varray name="positions" >
   <v>       0.00126129      0.00000000      0.00000000</v>
   <v>       0.50000000      0.00000000      0.00000000</v>
   <v>       0.00000000      0.50000000      0.00000000</v>
   <v>       0.50000000      0.50000000      0.00000000</v>
   <v>       0.00000000      0.00000000      0.50000000</v>
   <v>       0.50000000      0.00000000      0.50000000</v>
   <v>       0.00000000      0.50000000      0.50000000</v>
   <v>       0.50000000      0.50000000      0.50000000</v>
   <v>       0.25000000      0.25000000      0.00000000</v>
   <v>       0.75000000      0.25000000      0.00000000</v>
   <v>       0.25000000      0.75000000      0.00000000</v>
   <v>       0.75000000      0.75000000      0.00000000</v>
   <v>       0.25000000      0.25000000      0.50000000</v>
   <v>       0.75000000      0.25000000      0.50000000</v>
   <v>       0.25000000      0.75000000      0.50000000</v>
   <v>       0.75000000      0.75000000      0.50000000</v>
   <v>       0.25000000      0.00000000      0.25000000</v>
   <v>       0.75000000      0.00000000      0.25000000</v>
   <v>       0.25000000      0.50000000      0.25000000</v>
   <v>       0.75000000      0.50000000      0.25000000</v>
   <v>       0.25000000      0.00000000      0.75000000</v>
   <v>       0.75000000      0.00000000      0.75000000</v>
   <v>       0.25000000      0.50000000      0.75000000</v>
   <v>       0.75000000      0.50000000      0.75000000</v>
   <v>       0.00000000      0.25000000      0.25000000</v>
   <v>       0.50000000      0.25000000      0.25000000</v>
   <v>       0.00000000      0.75000000      0.25000000</v>
   <v>       0.50000000      0.75000000      0.25000000</v>
   <v>       0.00000000      0.25000000      0.75000000</v>
   <v>       0.50000000      0.25000000      0.75000000</v>
   <v>       0.00000000      0.75000000      0.75000000</v>
   <v>       0.50000000      0.75000000      0.75000000</v>
  </varray>
 </structure>
 <calculation>
  <scstep>
   <time name="dav"> 2008.31 2032.99</time>
   <time name="total"> 2012.23 2039.88</time>
   <energy>
    <i name="alphaZ">   3848.01158156</i>
    <i name="ewald"> -32242.66048481</i>
    <i name="hartreedc">  -3601.38022449</i>
    <i name="XCdc">    502.86302428</i>
    <i name="pawpsdc">  23920.39735419</i>
    <i name="pawaedc"> -23172.13309131</i>
    <i name="eentropy">     -0.00093159</i>
    <i name="bandstr">   6164.27379043</i>
    <i name="atom">  29633.78979189</i>
    <i name="e_fr_energy">   5053.16081016</i>
    <i name="e_wo_entrp">   5053.16174175</i>
    <i name="e_0_energy">   5053.16127595</i>
   </energy>
  </scstep>
  <scstep>
   <time name="dav"> 1460.84 1536.39</time>
   <time name="total"> 1461.07 1536.69</time>
   <energy>
    <i name="e_fr_energy">    193.37548918</i>
    <i name="e_wo_entrp">    193.37598189</i>
    <i name="e_0_energy">    193.37573554</i>
   </energy>
  </scstep>
  <scstep>
   <time name="dav"> 1358.73 1372.97</time>
   <time name="total"> 1358.96 1373.27</time>
   <energy>
    <i name="e_fr_energy">    -95.65893407</i>
    <i name="e_wo_entrp">    -95.65848165</i>
    <i name="e_0_energy">    -95.65870786</i>
   </energy>
  </scstep>
  <scstep>
   <time name="dav"> 4483.99 8248.10</time>
   <time name="total"> 4507.28 8313.72</time>
   <energy>
    <i name="e_fr_energy">   -105.28462448</i>
    <i name="e_wo_entrp">   -105.28420306</i>
    <i name="e_0_energy">   -105.28441377</i>
   </energy>
  </scstep>
  <scstep>
   <time name="dav"> 3537.74 5676.35</time>
   <time name="total"> 3777.72 6394.42</time>
   <energy>
    <i name="e_fr_energy">   -105.45776038</i>
    <i name="e_wo_entrp">   -105.45733619</i>
    <i name="e_0_energy">   -105.45754828</i>
   </energy>
  </scstep>
  <scstep>
   <time name="dav"> 2522.23 3850.03</time>
   <time name="total"> 2640.95 4080.93</time>
   <energy>
    <i name="e_fr_energy">    -98.41626964</i>
    <i name="e_wo_entrp">    -98.41596143</i>
    <i name="e_0_energy">    -98.41611554</i>
   </energy>
  </scstep>
  <scstep>
   <time name="dav"> 3505.26 6923.59</time>
   <time name="total"> 3672.30 7188.58</time>
   <energy>
    <i name="e_fr_energy">    -97.58757494</i>
    <i name="e_wo_entrp">    -97.58688455</i>
    <i name="e_0_energy">    -97.58722974</i>
   </energy>
  </scstep>
  <scstep>
   <time name="dav"> 2215.76 3175.13</time>
   <time name="total"> 2298.40 3260.14</time>
   <energy>
    <i name="e_fr_energy">    -97.45241397</i>
    <i name="e_wo_entrp">    -97.45172479</i>
    <i name="e_0_energy">    -97.45206938</i>
   </energy>
  </scstep>
  <scstep>
   <time name="dav"> 1949.36 1956.65</time>
   <time name="total"> 2060.82 2070.35</time>
   <energy>
    <i name="e_fr_energy">    -97.45241114</i>
    <i name="e_wo_entrp">    -97.45173223</i>
    <i name="e_0_energy">    -97.45207168</i>
   </energy>
  </scstep>
  <scstep>
   <time name="dav"> 2537.12 2562.44</time>
   <time name="total"> 2660.68 2685.97</time>
   <energy>
    <i name="e_fr_energy">    -97.45254403</i>
    <i name="e_wo_entrp">    -97.45186249</i>
    <i name="e_0_energy">    -97.45220326</i>
   </energy>
  </scstep>
  <scstep>
   <time name="dav"> 2854.87 2858.75</time>
   <time name="total"> 2973.02 2987.48</time>
   <energy>
    <i name="e_fr_energy">    -97.45255786</i>
    <i name="e_wo_entrp">    -97.45187602</i>
    <i name="e_0_energy">    -97.45221694</i>
   </energy>
  </scstep>
  <scstep>
   <time name="dav"> 2504.29 2600.31</time>
   <time name="total"> 2632.43 2729.36</time>
   <energy>
    <i name="e_fr_energy">    -97.45256445</i>
    <i name="e_wo_entrp">    -97.45188260</i>
    <i name="e_0_energy">    -97.45222352</i>
   </energy>
  </scstep>
  <scstep>
   <time name="dav"> 2398.36 2543.95</time>
   <time name="total"> 2510.85 2670.52</time>
   <energy>
    <i name="e_fr_energy">    -97.45256293</i>
    <i name="e_wo_entrp">    -97.45188105</i>
    <i name="e_0_energy">    -97.45222199</i>
   </energy>
  </scstep>
  <scstep>
   <time name="dav"> 1832.40 1965.93</time>
   <time name="total"> 1941.22 2085.42</time>
   <energy>
    <i name="e_fr_energy">    -97.45256181</i>
    <i name="e_wo_entrp">    -97.45187990</i>
    <i name="e_0_energy">    -97.45222085</i>
   </energy>
  </scstep>
  <scstep>
   <time name="dav"> 1655.79 1819.22</time>
   <time name="total"> 1843.50 2139.66</time>
   <energy>
    <i name="e_fr_energy">    -97.45256188</i>
    <i name="e_wo_entrp">    -97.45187997</i>
    <i name="e_0_energy">    -97.45222093</i>
   </energy>
  </scstep>
  <scstep>
   <time name="dav"> 1679.80 1908.70</time>
   <time name="total"> 1682.01 1911.57</time>
   <energy>
    <i name="alphaZ">   3848.01158156</i>
    <i name="ewald"> -32242.66048481</i>
    <i name="hartreedc">  -3257.51999853</i>
    <i name="XCdc">    487.76599404</i>
    <i name="pawpsdc">  24725.49099251</i>
    <i name="pawaedc"> -24082.79392790</i>
    <i name="eentropy">     -0.00068191</i>
    <i name="bandstr">    790.46417124</i>
    <i name="atom">  29633.78979189</i>
    <i name="e_fr_energy">    -97.45256189</i>
    <i name="e_wo_entrp">    -97.45187998</i>
    <i name="e_0_energy">    -97.45222094</i>
   </energy>
  </scstep>
  <structure>
   <crystal>
    <varray name="basis" >
     <v>       7.92841861      0.00000000      0.00000000</v>
     <v>       0.00000000      7.92841861      0.00000000</v>
     <v>       0.00000000      0.00000000      7.92841861</v>
    </varray>
    <i name="volume">    498.37898066</i>
    <varray name="rec_basis" >
     <v>       0.12612856      0.00000000      0.00000000</v>
     <v>       0.00000000      0.12612856      0.00000000</v>
     <v>       0.00000000      0.00000000      0.12612856</v>
    </varray>
   </crystal>
   <varray name="positions" >
    <v>       0.00126129      0.00000000      0.00000000</v>
    <v>       0.50000000      0.00000000      0.00000000</v>
    <v>       0.00000000      0.50000000      0.00000000</v>
    <v>       0.50000000      0.50000000      0.00000000</v>
    <v>       0.00000000      0.00000000      0.50000000</v>
    <v>       0.50000000      0.00000000      0.50000000</v>
    <v>       0.00000000      0.50000000      0.50000000</v>
    <v>       0.50000000      0.50000000      0.50000000</v>
    <v>       0.25000000      0.25000000      0.00000000</v>
    <v>       0.75000000      0.25000000      0.00000000</v>
    <v>       0.25000000      0.75000000      0.00000000</v>
    <v>       0.75000000      0.75000000      0.00000000</v>
    <v>       0.25000000      0.25000000      0.50000000</v>
    <v>       0.75000000      0.25000000      0.50000000</v>
    <v>       0.25000000      0.75000000      0.50000000</v>
    <v>       0.75000000      0.75000000      0.50000000</v>
    <v>       0.25000000      0.00000000      0.25000000</v>
    <v>       0.75000000      0.00000000      0.25000000</v>
    <v>       0.25000000      0.50000000      0.25000000</v>
    <v>       0.75000000      0.50000000      0.25000000</v>
    <v>       0.25000000      0.00000000      0.75000000</v>
    <v>       0.75000000      0.00000000      0.75000000</v>
    <v>       0.25000000      0.50000000      0.75000000</v>
    <v>       0.75000000      0.50000000      0.75000000</v>
    <v>       0.00000000      0.25000000      0.25000000</v>
    <v>       0.50000000      0.25000000      0.25000000</v>
    <v>       0.00000000      0.75000000      0.25000000</v>
    <v>       0.50000000      0.75000000      0.25000000</v>
    <v>       0.00000000      0.25000000      0.75000000</v>
    <v>       0.50000000      0.25000000      0.75000000</v>
    <v>       0.00000000      0.75000000      0.75000000</v>
    <v>       0.50000000      0.75000000      0.75000000</v>
   </varray>
  </structure>
  <varray name="forces" >
   <v>      -0.12449867      0.00000000      0.00000000</v>
   <v>       0.00621713     -0.00000000      0.00000000</v>
   <v>      -0.00104078     -0.00000000      0.00000000</v>
   <v>      -0.00180635      0.00000000      0.00000000</v>
   <v>      -0.00104078      0.00000000      0.00000000</v>
   <v>      -0.00180635      0.00000000      0.00000000</v>
   <v>       0.00013423      0.00000000      0.00000000</v>
   <v>       0.00007651      0.00000000     -0.00000000</v>
   <v>       0.01836700      0.02262917      0.00000000</v>
   <v>       0.01788514     -0.02192259      0.00000000</v>
   <v>       0.01836700     -0.02262917     -0.00000000</v>
   <v>       0.01788514      0.02192259     -0.00000000</v>
   <v>       0.00001642      0.00023019      0.00000000</v>
   <v>       0.00001539     -0.00022901     -0.00000000</v>
   <v>       0.00001642     -0.00023019      0.00000000</v>
   <v>       0.00001539      0.00022901     -0.00000000</v>
   <v>       0.01836700     -0.00000000      0.02262917</v>
   <v>       0.01788514     -0.00000000     -0.02192259</v>
   <v>       0.00001642     -0.00000000      0.00023019</v>
   <v>       0.00001539      0.00000000     -0.00022901</v>
   <v>       0.01836700      0.00000000     -0.02262917</v>
   <v>       0.01788514     -0.00000000      0.02192259</v>
   <v>       0.00001642      0.00000000     -0.00023019</v>
   <v>       0.00001539      0.00000000      0.00022901</v>
   <v>      -0.00596248     -0.00003710     -0.00003710</v>
   <v>       0.00061979      0.00000067      0.00000067</v>
   <v>      -0.00596248      0.00003710     -0.00003710</v>
   <v>       0.00061979     -0.00000067      0.00000067</v>
   <v>      -0.00596248     -0.00003710      0.00003710</v>
   <v>       0.00061979      0.00000067     -0.00000067</v>
   <v>      -0.00596248      0.00003710      0.00003710</v>
   <v>       0.00061979     -0.00000067     -0.00000067</v>
  </varray>
  <varray name="stress" >
   <v>     332.07462910      0.00000000      0.00000000</v>
   <v>      -0.00000000    332.07447289     -0.00000000</v>
   <v>      -0.00000000     -0.00000000    332.07447289</v>
  </varray>
  <energy>
   <i name="e_fr_energy">    -97.45256189</i>
   <i name="e_wo_entrp">    -97.45222094</i>
   <i name="e_0_energy">     -0.00068191</i>
  </energy>
  <eigenvalues>
   <array>
    <dimension dim="1">band</dimension>
    <dimension dim="2">kpoint</dimension>
    <dimension dim="3">spin</dimension>
    <field>eigene</field>
    <field>occ</field>
    <set>
     <set comment="spin 1">
      <set comment="kpoint 1">
       <r>  -3.8659  1.0000</r>
       <r>  -1.2801  1.0000</r>
       <r>  -1.2762  1.0000</r>
       <r>  -1.2762  1.0000</r>
       <r>  -1.2762  1.0000</r>
       <r>  -1.2762  1.0000</r>
       <r>  -1.2724  1.0000</r>
       <r>  -1.2451  1.0000</r>
       <r>  -1.2451  1.0000</r>
       <r>  -1.2451  1.0000</r>
       <r>  -1.2450  1.0000</r>
       <r>  -1.0324  1.0000</r>
       <r>  -1.0324  1.0000</r>
       <r>  -1.0324  1.0000</r>
       <r>  -0.6747  1.0000</r>
       <r>  -0.6747  1.0000</r>
       <r>  -0.6747  1.0000</r>
       <r>   0.1535  1.0000</r>
       <r>   0.1550  1.0000</r>
       <r>   0.1550  1.0000</r>
       <r>   0.1572  1.0000</r>
       <r>   0.1575  1.0000</r>
       <r>   0.1575  1.0000</r>
       <r>   0.1575  1.0000</r>
       <r>   0.1575  1.0000</r>
       <r>   0.1578  1.0000</r>
       <r>   0.1600  1.0000</r>
       <r>   0.1600  1.0000</r>
       <r>   0.1615  1.0000</r>
       <r>   0.2071  1.0000</r>
       <r>   0.2100  1.0000</r>
       <r>   0.2100  1.0000</r>
       <r>   0.2100  1.0000</r>
       <r>   0.2101  1.0000</r>
       <r>   0.2129  1.0000</r>
       <r>   0.4024  1.0000</r>
       <r>   0.4054  1.0000</r>
       <r>   0.4054  1.0000</r>
       <r>   0.4054  1.0000</r>
       <r>   0.4054  1.0000</r>
       <r>   0.4084  1.0000</r>
       <r>   1.0775  1.0000</r>
       <r>   1.0814  1.0000</r>
       <r>   1.0814  1.0000</r>
       <r>   1.0830  1.0000</r>
       <r>   1.0830  1.0000</r>
       <r>   1.0830  1.0000</r>
       <r>   1.0830  1.0000</r>
       <r>   1.0830  1.0000</r>
       <r>   1.0831  1.0000</r>
       <r>   1.0845  1.0000</r>
       <r>   1.0845  1.0000</r>
       <r>   1.0881  1.0000</r>
       <r>   1.1579  1.0000</r>
       <r>   1.1579  1.0000</r>
       <r>   1.1609  1.0000</r>
       <r>   1.1609  1.0000</r>
       <r>   1.1609  1.0000</r>
       <r>   1.1610  1.0000</r>
       <r>   1.1610  1.0000</r>
       <r>   1.1611  1.0000</r>
       <r>   1.1611  1.0000</r>
       <r>   1.1614  1.0000</r>
       <r>   1.1642  1.0000</r>
       <r>   1.1642  1.0000</r>
       <r>   1.4536  1.0000</r>
       <r>   1.4588  1.0000</r>
       <r>   1.4588  1.0000</r>
       <r>   1.4588  1.0000</r>
       <r>   1.4591  1.0000</r>
       <r>   1.4591  1.0000</r>
       <r>   1.4592  1.0000</r>
       <r>   1.4592  1.0000</r>
       <r>   1.4594  1.0000</r>
       <r>   1.4596  1.0000</r>
       <r>   1.4596  1.0000</r>
       <r>   1.4646  1.0000</r>
       <r>   1.6682  1.0000</r>
       <r>   1.6682  1.0000</r>
       <r>   1.6682  1.0000</r>
       <r>   1.6682  1.0000</r>
       <r>   1.6683  1.0000</r>
       <r>   1.6683  1.0000</r>
       <r>   1.6683  1.0000</r>
       <r>   1.6683  1.0000</r>
       <r>   1.7181  1.0000</r>
       <r>   1.7181  1.0000</r>
       <r>   1.7182  1.0000</r>
       <r>   2.5110  1.0000</r>
       <r>   2.5139  1.0000</r>
       <r>   2.5140  1.0000</r>
       <r>   2.5140  1.0000</r>
       <r>   2.5140  1.0000</r>
       <r>   2.5170  1.0000</r>
       <r>   2.7730  1.0000</r>
       <r>   2.7741  1.0000</r>
       <r>   2.7757  1.0000</r>
       <r>   2.7757  1.0000</r>
       <r>   2.7766  1.0000</r>
       <r>   2.7766  1.0000</r>
       <r>   2.7766  1.0000</r>
       <r>   2.7766  1.0000</r>
       <r>   2.7775  1.0000</r>
       <r>   2.7775  1.0000</r>
       <r>   2.7793  1.0000</r>
       <r>   2.7801  1.0000</r>
       <r>   3.1455  1.0000</r>
       <r>   3.1455  1.0000</r>
       <r>   3.1491  1.0000</r>
       <r>   3.1491  1.0000</r>
       <r>   3.1495  1.0000</r>
       <r>   3.1495  1.0000</r>
       <r>   3.1495  1.0000</r>
       <r>   3.1495  1.0000</r>
       <r>   3.1498  1.0000</r>
       <r>   3.1498  1.0000</r>
       <r>   3.1533  1.0000</r>
       <r>   3.1533  1.0000</r>
       <r>   3.3013  1.0000</r>
       <r>   3.3038  1.0000</r>
       <r>   3.3038  1.0000</r>
       <r>   3.3038  1.0000</r>
       <r>   3.3038  1.0000</r>
       <r>   3.3064  1.0000</r>
       <r>   3.4700  1.0000</r>
       <r>   3.4700  1.0000</r>
       <r>   3.4736  1.0000</r>
       <r>   3.4741  1.0000</r>
       <r>   3.4741  1.0000</r>
       <r>   3.4742  1.0000</r>
       <r>   3.4742  1.0000</r>
       <r>   3.4742  1.0000</r>
       <r>   3.4744  1.0000</r>
       <r>   3.4749  1.0000</r>
       <r>   3.4787  1.0000</r>
       <r>   3.4787  1.0000</r>
       <r>   3.4981  1.0000</r>
       <r>   3.4983  1.0000</r>
       <r>   4.1439  1.0000</r>
       <r>   4.1457  1.0000</r>
       <r>   4.1457  1.0000</r>
       <r>   4.1457  1.0000</r>
       <r>   4.1457  1.0000</r>
       <r>   4.1476  1.0000</r>
       <r>   4.8568  1.0000</r>
       <r>   4.8568  1.0000</r>
       <r>   4.8568  1.0000</r>
       <r>   4.9040  1.0000</r>
       <r>   4.9041  1.0000</r>
       <r>   4.9041  1.0000</r>
       <r>   4.9041  1.0000</r>
       <r>   4.9041  1.0000</r>
       <r>   4.9041  1.0000</r>
       <r>   4.9041  1.0000</r>
       <r>   4.9041  1.0000</r>
       <r>   5.2836  1.0000</r>
       <r>   5.2840  1.0000</r>
       <r>   5.2840  1.0000</r>
       <r>   5.2840  1.0000</r>
       <r>   5.2840  1.0000</r>
       <r>   5.2840  1.0000</r>
       <r>   5.2864  1.0000</r>
       <r>   5.2865  1.0000</r>
       <r>   5.2865  1.0000</r>
       <r>   5.2865  1.0000</r>
       <r>   5.2866  1.0000</r>
       <r>   5.2869  1.0000</r>
       <r>   5.5837  1.0000</r>
       <r>   5.5837  1.0000</r>
       <r>   5.5837  1.0000</r>
       <r>   5.5837  1.0000</r>
       <r>   6.7796  1.0000</r>
       <r>   6.7799  1.0000</r>
       <r>   6.7799  1.0000</r>
       <r>   6.7808  1.0000</r>
       <r>   6.7814  1.0000</r>
       <r>   6.7815  1.0000</r>
       <r>   6.7815  1.0000</r>
       <r>   6.7815  1.0000</r>
       <r>   6.7821  1.0000</r>
       <r>   6.7831  1.0000</r>
       <r>   6.7831  1.0000</r>
       <r>   6.7833  1.0000</r>
       <r>   7.7657  0.0000</r>
       <r>   7.7657  0.0000</r>
       <r>   7.7658  0.0000</r>
       <r>  10.5977  0.0000</r>
       <r>  10.5977  0.0000</r>
       <r>  10.5977  0.0000</r>
       <r>  10.5977  0.0000</r>
       <r>  12.3542  0.0000</r>
       <r>  12.3546  0.0000</r>
       <r>  12.3547  0.0000</r>
       <r>  12.3547  0.0000</r>
       <r>  12.3547  0.0000</r>
       <r>  12.3551  0.0000</r>
       <r>  13.5865  0.0000</r>
       <r>  13.5869  0.0000</r>
       <r>  13.5869  0.0000</r>
       <r>  13.6455  0.0000</r>
       <r>  13.6455  0.0000</r>
       <r>  13.6492  0.0000</r>
       <r>  13.6492  0.0000</r>
       <r>  13.6499  0.0000</r>
       <r>  13.6499  0.0000</r>
       <r>  13.6499  0.0000</r>
       <r>  13.6503  0.0000</r>
       <r>  13.6506  0.0000</r>
       <r>  13.6506  0.0000</r>
       <r>  13.6542  0.0000</r>
       <r>  13.6542  0.0000</r>
       <r>  16.1799  0.0000</r>
      </set>
      <set comment="kpoint 2">
       <r>  -3.8437  1.0000</r>
       <r>  -1.5700  1.0000</r>
       <r>  -1.2601  1.0000</r>
       <r>  -1.2601  1.0000</r>
       <r>  -1.2601  1.0000</r>
       <r>  -1.2600  1.0000</r>
       <r>  -1.2320  1.0000</r>
       <r>  -1.2320  1.0000</r>
       <r>  -1.2320  1.0000</r>
       <r>  -1.2320  1.0000</r>
       <r>  -1.0332  1.0000</r>
       <r>  -1.0237  1.0000</r>
       <r>  -1.0169  1.0000</r>
       <r>  -1.0169  1.0000</r>
       <r>  -0.6662  1.0000</r>
       <r>  -0.6617  1.0000</r>
       <r>  -0.6617  1.0000</r>
       <r>   0.0417  1.0000</r>
       <r>   0.0417  1.0000</r>
       <r>   0.0417  1.0000</r>
       <r>   0.0417  1.0000</r>
       <r>   0.0882  1.0000</r>
       <r>   0.0882  1.0000</r>
       <r>   0.0882  1.0000</r>
       <r>   0.0882  1.0000</r>
       <r>   0.1779  1.0000</r>
       <r>   0.1781  1.0000</r>
       <r>   0.2216  1.0000</r>
       <r>   0.2216  1.0000</r>
       <r>   0.2216  1.0000</r>
       <r>   0.2217  1.0000</r>
       <r>   0.2535  1.0000</r>
       <r>   0.2575  1.0000</r>
       <r>   0.2575  1.0000</r>
       <r>   0.2575  1.0000</r>
       <r>   0.2576  1.0000</r>
       <r>   0.4127  1.0000</r>
       <r>   0.4127  1.0000</r>
       <r>   0.4127  1.0000</r>
       <r>   0.4127  1.0000</r>
       <r>   0.5611  1.0000</r>
       <r>   0.8733  1.0000</r>
       <r>   0.8733  1.0000</r>
       <r>   1.0257  1.0000</r>
       <r>   1.0259  1.0000</r>
       <r>   1.0259  1.0000</r>
       <r>   1.0259  1.0000</r>
       <r>   1.1270  1.0000</r>
       <r>   1.1277  1.0000</r>
       <r>   1.1277  1.0000</r>
       <r>   1.1278  1.0000</r>
       <r>   1.1432  1.0000</r>
       <r>   1.1434  1.0000</r>
       <r>   1.1434  1.0000</r>
       <r>   1.1437  1.0000</r>
       <r>   1.1477  1.0000</r>
       <r>   1.1479  1.0000</r>
       <r>   1.1479  1.0000</r>
       <r>   1.1480  1.0000</r>
       <r>   1.1623  1.0000</r>
       <r>   1.1624  1.0000</r>
       <r>   1.1624  1.0000</r>
       <r>   1.1631  1.0000</r>
       <r>   1.3763  1.0000</r>
       <r>   1.3764  1.0000</r>
       <r>   1.3764  1.0000</r>
       <r>   1.3764  1.0000</r>
       <r>   1.4710  1.0000</r>
       <r>   1.4710  1.0000</r>
       <r>   1.4929  1.0000</r>
       <r>   1.4936  1.0000</r>
       <r>   1.4936  1.0000</r>
       <r>   1.4936  1.0000</r>
       <r>   1.5070  1.0000</r>
       <r>   1.5070  1.0000</r>
       <r>   1.5070  1.0000</r>
       <r>   1.5078  1.0000</r>
       <r>   1.6621  1.0000</r>
       <r>   1.6621  1.0000</r>
       <r>   1.6621  1.0000</r>
       <r>   1.6621  1.0000</r>
       <r>   1.6790  1.0000</r>
       <r>   1.6790  1.0000</r>
       <r>   1.6790  1.0000</r>
       <r>   1.6791  1.0000</r>
       <r>   1.7056  1.0000</r>
       <r>   1.7287  1.0000</r>
       <r>   1.7287  1.0000</r>
       <r>   2.4540  1.0000</r>
       <r>   2.4541  1.0000</r>
       <r>   2.4541  1.0000</r>
       <r>   2.4541  1.0000</r>
       <r>   2.5061  1.0000</r>
       <r>   2.6141  1.0000</r>
       <r>   2.7245  1.0000</r>
       <r>   2.7246  1.0000</r>
       <r>   2.7246  1.0000</r>
       <r>   2.7247  1.0000</r>
       <r>   2.7756  1.0000</r>
       <r>   2.7756  1.0000</r>
       <r>   2.7756  1.0000</r>
       <r>   2.7756  1.0000</r>
       <r>   2.8364  1.0000</r>
       <r>   2.8364  1.0000</r>
       <r>   2.8365  1.0000</r>
       <r>   2.8365  1.0000</r>
       <r>   2.9358  1.0000</r>
       <r>   2.9358  1.0000</r>
       <r>   3.1487  1.0000</r>
       <r>   3.1487  1.0000</r>
       <r>   3.1488  1.0000</r>
       <r>   3.1489  1.0000</r>
       <r>   3.1980  1.0000</r>
       <r>   3.1980  1.0000</r>
       <r>   3.1980  1.0000</r>
       <r>   3.1980  1.0000</r>
       <r>   3.3095  1.0000</r>
       <r>   3.3096  1.0000</r>
       <r>   3.3096  1.0000</r>
       <r>   3.3097  1.0000</r>
       <r>   3.3419  1.0000</r>
       <r>   3.3422  1.0000</r>
       <r>   3.3683  1.0000</r>
       <r>   3.3683  1.0000</r>
       <r>   3.3693  1.0000</r>
       <r>   3.3693  1.0000</r>
       <r>   3.3748  1.0000</r>
       <r>   3.3748  1.0000</r>
       <r>   3.4844  1.0000</r>
       <r>   3.5031  1.0000</r>
       <r>   3.5315  1.0000</r>
       <r>   3.5315  1.0000</r>
       <r>   3.5315  1.0000</r>
       <r>   3.5318  1.0000</r>
       <r>   3.6043  1.0000</r>
       <r>   3.6043  1.0000</r>
       <r>   3.6044  1.0000</r>
       <r>   3.6044  1.0000</r>
       <r>   4.0579  1.0000</r>
       <r>   4.1614  1.0000</r>
       <r>   4.1614  1.0000</r>
       <r>   4.1614  1.0000</r>
       <r>   4.1614  1.0000</r>
       <r>   4.2346  1.0000</r>
       <r>   4.7401  1.0000</r>
       <r>   4.7402  1.0000</r>
       <r>   4.7402  1.0000</r>
       <r>   4.7402  1.0000</r>
       <r>   4.8370  1.0000</r>
       <r>   4.8370  1.0000</r>
       <r>   4.8504  1.0000</r>
       <r>   4.8876  1.0000</r>
       <r>   4.8876  1.0000</r>
       <r>   4.8876  1.0000</r>
       <r>   4.8876  1.0000</r>
       <r>   5.1762  1.0000</r>
       <r>   5.1762  1.0000</r>
       <r>   5.2598  1.0000</r>
       <r>   5.2598  1.0000</r>
       <r>   5.2603  1.0000</r>
       <r>   5.2603  1.0000</r>
       <r>   5.2603  1.0000</r>
       <r>   5.2603  1.0000</r>
       <r>   5.2836  1.0000</r>
       <r>   5.2840  1.0000</r>
       <r>   5.2864  1.0000</r>
       <r>   5.2869  1.0000</r>
       <r>   5.7147  1.0000</r>
       <r>   5.7148  1.0000</r>
       <r>   5.7148  1.0000</r>
       <r>   5.7148  1.0000</r>
       <r>   6.4607  1.0000</r>
       <r>   6.4607  1.0000</r>
       <r>   6.4607  1.0000</r>
       <r>   6.4607  1.0000</r>
       <r>   6.7776  1.0000</r>
       <r>   6.7776  1.0000</r>
       <r>   6.7776  1.0000</r>
       <r>   6.7776  1.0000</r>
       <r>   7.1185  0.0000</r>
       <r>   7.1185  0.0000</r>
       <r>   7.1185  0.0000</r>
       <r>   7.1185  0.0000</r>
       <r>   7.6144  0.0000</r>
       <r>   7.8875  0.0000</r>
       <r>   7.8875  0.0000</r>
       <r>  10.6561  0.0000</r>
       <r>  10.6561  0.0000</r>
       <r>  10.6561  0.0000</r>
       <r>  10.6561  0.0000</r>
       <r>  12.1265  0.0000</r>
       <r>  12.1266  0.0000</r>
       <r>  12.1266  0.0000</r>
       <r>  12.1266  0.0000</r>
       <r>  12.3707  0.0000</r>
       <r>  12.3707  0.0000</r>
       <r>  13.0944  0.0000</r>
       <r>  13.0944  0.0000</r>
       <r>  13.5598  0.0000</r>
       <r>  13.5598  0.0000</r>
       <r>  13.6941  0.0000</r>
       <r>  13.6941  0.0000</r>
       <r>  13.6941  0.0000</r>
       <r>  13.6941  0.0000</r>
       <r>  13.7731  0.0000</r>
       <r>  13.7869  0.0000</r>
       <r>  13.7869  0.0000</r>
       <r>  13.7870  0.0000</r>
       <r>  13.7881  0.0000</r>
       <r>  14.1880  0.0000</r>
       <r>  14.1880  0.0000</r>
       <r>  15.8541  0.0000</r>
      </set>
      <set comment="kpoint 3">
       <r>  -3.7773  1.0000</r>
       <r>  -1.8905  1.0000</r>
       <r>  -1.2121  1.0000</r>
       <r>  -1.2121  1.0000</r>
       <r>  -1.2121  1.0000</r>
       <r>  -1.2120  1.0000</r>
       <r>  -1.1929  1.0000</r>
       <r>  -1.1929  1.0000</r>
       <r>  -1.1929  1.0000</r>
       <r>  -1.1929  1.0000</r>
       <r>  -0.9984  1.0000</r>
       <r>  -0.9710  1.0000</r>
       <r>  -0.9709  1.0000</r>
       <r>  -0.8602  1.0000</r>
       <r>  -0.6408  1.0000</r>
       <r>  -0.6227  1.0000</r>
       <r>  -0.6227  1.0000</r>
       <r>  -0.0931  1.0000</r>
       <r>  -0.0931  1.0000</r>
       <r>  -0.0930  1.0000</r>
       <r>  -0.0930  1.0000</r>
       <r>  -0.0719  1.0000</r>
       <r>  -0.0719  1.0000</r>
       <r>  -0.0718  1.0000</r>
       <r>  -0.0718  1.0000</r>
       <r>   0.0886  1.0000</r>
       <r>   0.0887  1.0000</r>
       <r>   0.1077  1.0000</r>
       <r>   0.2558  1.0000</r>
       <r>   0.2559  1.0000</r>
       <r>   0.2559  1.0000</r>
       <r>   0.2559  1.0000</r>
       <r>   0.3462  1.0000</r>
       <r>   0.3462  1.0000</r>
       <r>   0.3462  1.0000</r>
       <r>   0.3463  1.0000</r>
       <r>   0.4345  1.0000</r>
       <r>   0.4345  1.0000</r>
       <r>   0.4345  1.0000</r>
       <r>   0.4345  1.0000</r>
       <r>   0.6087  1.0000</r>
       <r>   0.6087  1.0000</r>
       <r>   0.7182  1.0000</r>
       <r>   0.9581  1.0000</r>
       <r>   0.9582  1.0000</r>
       <r>   0.9582  1.0000</r>
       <r>   0.9582  1.0000</r>
       <r>   1.1098  1.0000</r>
       <r>   1.1098  1.0000</r>
       <r>   1.1098  1.0000</r>
       <r>   1.1099  1.0000</r>
       <r>   1.1583  1.0000</r>
       <r>   1.1598  1.0000</r>
       <r>   1.1598  1.0000</r>
       <r>   1.1599  1.0000</r>
       <r>   1.1661  1.0000</r>
       <r>   1.1662  1.0000</r>
       <r>   1.1662  1.0000</r>
       <r>   1.1677  1.0000</r>
       <r>   1.2505  1.0000</r>
       <r>   1.2510  1.0000</r>
       <r>   1.2510  1.0000</r>
       <r>   1.2511  1.0000</r>
       <r>   1.2638  1.0000</r>
       <r>   1.2639  1.0000</r>
       <r>   1.2639  1.0000</r>
       <r>   1.2643  1.0000</r>
       <r>   1.5317  1.0000</r>
       <r>   1.5318  1.0000</r>
       <r>   1.5318  1.0000</r>
       <r>   1.5318  1.0000</r>
       <r>   1.6228  1.0000</r>
       <r>   1.6228  1.0000</r>
       <r>   1.6229  1.0000</r>
       <r>   1.6230  1.0000</r>
       <r>   1.6440  1.0000</r>
       <r>   1.6440  1.0000</r>
       <r>   1.6440  1.0000</r>
       <r>   1.6440  1.0000</r>
       <r>   1.6682  1.0000</r>
       <r>   1.7114  1.0000</r>
       <r>   1.7114  1.0000</r>
       <r>   1.7114  1.0000</r>
       <r>   1.7114  1.0000</r>
       <r>   1.7605  1.0000</r>
       <r>   1.7605  1.0000</r>
       <r>   1.8024  1.0000</r>
       <r>   1.8024  1.0000</r>
       <r>   2.3186  1.0000</r>
       <r>   2.3187  1.0000</r>
       <r>   2.3187  1.0000</r>
       <r>   2.3187  1.0000</r>
       <r>   2.5643  1.0000</r>
       <r>   2.6033  1.0000</r>
       <r>   2.6034  1.0000</r>
       <r>   2.6034  1.0000</r>
       <r>   2.6034  1.0000</r>
       <r>   2.7352  1.0000</r>
       <r>   2.7352  1.0000</r>
       <r>   2.8251  1.0000</r>
       <r>   2.8311  1.0000</r>
       <r>   2.8311  1.0000</r>
       <r>   2.8311  1.0000</r>
       <r>   2.8335  1.0000</r>
       <r>   2.9377  1.0000</r>
       <r>   2.9377  1.0000</r>
       <r>   2.9377  1.0000</r>
       <r>   2.9378  1.0000</r>
       <r>   3.1471  1.0000</r>
       <r>   3.1471  1.0000</r>
       <r>   3.1471  1.0000</r>
       <r>   3.1471  1.0000</r>
       <r>   3.2877  1.0000</r>
       <r>   3.2877  1.0000</r>
       <r>   3.2887  1.0000</r>
       <r>   3.2887  1.0000</r>
       <r>   3.2911  1.0000</r>
       <r>   3.2913  1.0000</r>
       <r>   3.2921  1.0000</r>
       <r>   3.2921  1.0000</r>
       <r>   3.3246  1.0000</r>
       <r>   3.3247  1.0000</r>
       <r>   3.3248  1.0000</r>
       <r>   3.3248  1.0000</r>
       <r>   3.4437  1.0000</r>
       <r>   3.4493  1.0000</r>
       <r>   3.4494  1.0000</r>
       <r>   3.5192  1.0000</r>
       <r>   3.6059  1.0000</r>
       <r>   3.6059  1.0000</r>
       <r>   3.6682  1.0000</r>
       <r>   3.6682  1.0000</r>
       <r>   3.6682  1.0000</r>
       <r>   3.6683  1.0000</r>
       <r>   3.7583  1.0000</r>
       <r>   3.7583  1.0000</r>
       <r>   3.7584  1.0000</r>
       <r>   3.7584  1.0000</r>
       <r>   3.9726  1.0000</r>
       <r>   4.2168  1.0000</r>
       <r>   4.2168  1.0000</r>
       <r>   4.2168  1.0000</r>
       <r>   4.2168  1.0000</r>
       <r>   4.3231  1.0000</r>
       <r>   4.4115  1.0000</r>
       <r>   4.4115  1.0000</r>
       <r>   4.4115  1.0000</r>
       <r>   4.4115  1.0000</r>
       <r>   4.7782  1.0000</r>
       <r>   4.7782  1.0000</r>
       <r>   4.8313  1.0000</r>
       <r>   4.8386  1.0000</r>
       <r>   4.8386  1.0000</r>
       <r>   4.8386  1.0000</r>
       <r>   4.8386  1.0000</r>
       <r>   4.9009  1.0000</r>
       <r>   4.9009  1.0000</r>
       <r>   5.1838  1.0000</r>
       <r>   5.1838  1.0000</r>
       <r>   5.1838  1.0000</r>
       <r>   5.1838  1.0000</r>
       <r>   5.1886  1.0000</r>
       <r>   5.1886  1.0000</r>
       <r>   5.2837  1.0000</r>
       <r>   5.2842  1.0000</r>
       <r>   5.2863  1.0000</r>
       <r>   5.2868  1.0000</r>
       <r>   5.9462  1.0000</r>
       <r>   5.9462  1.0000</r>
       <r>   5.9462  1.0000</r>
       <r>   5.9463  1.0000</r>
       <r>   6.1506  1.0000</r>
       <r>   6.1506  1.0000</r>
       <r>   6.1506  1.0000</r>
       <r>   6.1506  1.0000</r>
       <r>   6.7655  1.0000</r>
       <r>   6.7655  1.0000</r>
       <r>   6.7655  1.0000</r>
       <r>   6.7655  1.0000</r>
       <r>   7.2100  0.0000</r>
       <r>   7.4791  0.0000</r>
       <r>   7.4791  0.0000</r>
       <r>   7.4791  0.0000</r>
       <r>   7.4791  0.0000</r>
       <r>   8.2047  0.0000</r>
       <r>   8.2047  0.0000</r>
       <r>  10.8301  0.0000</r>
       <r>  10.8301  0.0000</r>
       <r>  10.8301  0.0000</r>
       <r>  10.8301  0.0000</r>
       <r>  11.6287  0.0000</r>
       <r>  11.6288  0.0000</r>
       <r>  11.6288  0.0000</r>
       <r>  11.6288  0.0000</r>
       <r>  12.4185  0.0000</r>
       <r>  12.4185  0.0000</r>
       <r>  12.5266  0.0000</r>
       <r>  12.5266  0.0000</r>
       <r>  13.4818  0.0000</r>
       <r>  13.4819  0.0000</r>
       <r>  13.8246  0.0000</r>
       <r>  13.8246  0.0000</r>
       <r>  13.8246  0.0000</r>
       <r>  13.8246  0.0000</r>
       <r>  14.0290  0.0000</r>
       <r>  14.0290  0.0000</r>
       <r>  14.0290  0.0000</r>
       <r>  14.0290  0.0000</r>
       <r>  14.2865  0.0000</r>
       <r>  14.7037  0.0000</r>
       <r>  14.7037  0.0000</r>
       <r>  15.2294  0.0000</r>
      </set>
      <set comment="kpoint 4">
       <r>  -3.6674  1.0000</r>
       <r>  -2.2164  1.0000</r>
       <r>  -1.1336  1.0000</r>
       <r>  -1.1336  1.0000</r>
       <r>  -1.1335  1.0000</r>
       <r>  -1.1335  1.0000</r>
       <r>  -1.1280  1.0000</r>
       <r>  -1.1280  1.0000</r>
       <r>  -1.1279  1.0000</r>
       <r>  -1.1279  1.0000</r>
       <r>  -0.9583  1.0000</r>
       <r>  -0.8957  1.0000</r>
       <r>  -0.8956  1.0000</r>
       <r>  -0.7634  1.0000</r>
       <r>  -0.5986  1.0000</r>
       <r>  -0.5577  1.0000</r>
       <r>  -0.5577  1.0000</r>
       <r>  -0.2612  1.0000</r>
       <r>  -0.2612  1.0000</r>
       <r>  -0.2611  1.0000</r>
       <r>  -0.2611  1.0000</r>
       <r>  -0.2457  1.0000</r>
       <r>  -0.2456  1.0000</r>
       <r>  -0.2455  1.0000</r>
       <r>  -0.2455  1.0000</r>
       <r>  -0.0426  1.0000</r>
       <r>  -0.0426  1.0000</r>
       <r>  -0.0299  1.0000</r>
       <r>   0.3109  1.0000</r>
       <r>   0.3110  1.0000</r>
       <r>   0.3110  1.0000</r>
       <r>   0.3110  1.0000</r>
       <r>   0.3677  1.0000</r>
       <r>   0.3677  1.0000</r>
       <r>   0.4266  1.0000</r>
       <r>   0.4266  1.0000</r>
       <r>   0.4266  1.0000</r>
       <r>   0.4266  1.0000</r>
       <r>   0.4702  1.0000</r>
       <r>   0.4702  1.0000</r>
       <r>   0.4702  1.0000</r>
       <r>   0.4702  1.0000</r>
       <r>   0.8738  1.0000</r>
       <r>   0.8828  1.0000</r>
       <r>   0.8828  1.0000</r>
       <r>   0.8828  1.0000</r>
       <r>   0.8829  1.0000</r>
       <r>   1.0530  1.0000</r>
       <r>   1.0531  1.0000</r>
       <r>   1.0531  1.0000</r>
       <r>   1.0531  1.0000</r>
       <r>   1.1359  1.0000</r>
       <r>   1.1359  1.0000</r>
       <r>   1.1359  1.0000</r>
       <r>   1.1359  1.0000</r>
       <r>   1.1706  1.0000</r>
       <r>   1.1718  1.0000</r>
       <r>   1.1718  1.0000</r>
       <r>   1.1719  1.0000</r>
       <r>   1.1804  1.0000</r>
       <r>   1.1805  1.0000</r>
       <r>   1.1805  1.0000</r>
       <r>   1.1817  1.0000</r>
       <r>   1.3276  1.0000</r>
       <r>   1.3276  1.0000</r>
       <r>   1.3276  1.0000</r>
       <r>   1.3276  1.0000</r>
       <r>   1.5552  1.0000</r>
       <r>   1.5552  1.0000</r>
       <r>   1.5553  1.0000</r>
       <r>   1.5553  1.0000</r>
       <r>   1.6070  1.0000</r>
       <r>   1.6151  1.0000</r>
       <r>   1.6151  1.0000</r>
       <r>   1.6151  1.0000</r>
       <r>   1.6152  1.0000</r>
       <r>   1.7649  1.0000</r>
       <r>   1.7649  1.0000</r>
       <r>   1.7649  1.0000</r>
       <r>   1.7649  1.0000</r>
       <r>   1.8132  1.0000</r>
       <r>   1.8132  1.0000</r>
       <r>   1.8617  1.0000</r>
       <r>   1.8617  1.0000</r>
       <r>   1.8617  1.0000</r>
       <r>   1.8617  1.0000</r>
       <r>   2.1537  1.0000</r>
       <r>   2.1537  1.0000</r>
       <r>   2.1617  1.0000</r>
       <r>   2.1618  1.0000</r>
       <r>   2.1621  1.0000</r>
       <r>   2.1621  1.0000</r>
       <r>   2.4580  1.0000</r>
       <r>   2.4581  1.0000</r>
       <r>   2.4581  1.0000</r>
       <r>   2.4581  1.0000</r>
       <r>   2.5494  1.0000</r>
       <r>   2.5494  1.0000</r>
       <r>   2.6647  1.0000</r>
       <r>   2.9253  1.0000</r>
       <r>   2.9254  1.0000</r>
       <r>   2.9254  1.0000</r>
       <r>   2.9254  1.0000</r>
       <r>   3.0551  1.0000</r>
       <r>   3.0551  1.0000</r>
       <r>   3.0551  1.0000</r>
       <r>   3.0551  1.0000</r>
       <r>   3.1450  1.0000</r>
       <r>   3.1450  1.0000</r>
       <r>   3.1451  1.0000</r>
       <r>   3.1451  1.0000</r>
       <r>   3.1608  1.0000</r>
       <r>   3.2302  1.0000</r>
       <r>   3.2302  1.0000</r>
       <r>   3.2302  1.0000</r>
       <r>   3.2302  1.0000</r>
       <r>   3.3416  1.0000</r>
       <r>   3.3418  1.0000</r>
       <r>   3.3418  1.0000</r>
       <r>   3.3419  1.0000</r>
       <r>   3.3589  1.0000</r>
       <r>   3.3589  1.0000</r>
       <r>   3.3589  1.0000</r>
       <r>   3.3590  1.0000</r>
       <r>   3.3777  1.0000</r>
       <r>   3.5453  1.0000</r>
       <r>   3.6086  1.0000</r>
       <r>   3.6086  1.0000</r>
       <r>   3.8383  1.0000</r>
       <r>   3.8383  1.0000</r>
       <r>   3.8383  1.0000</r>
       <r>   3.8384  1.0000</r>
       <r>   3.8424  1.0000</r>
       <r>   3.8424  1.0000</r>
       <r>   3.8912  1.0000</r>
       <r>   3.9331  1.0000</r>
       <r>   3.9331  1.0000</r>
       <r>   3.9331  1.0000</r>
       <r>   3.9331  1.0000</r>
       <r>   4.0365  1.0000</r>
       <r>   4.0365  1.0000</r>
       <r>   4.0365  1.0000</r>
       <r>   4.0366  1.0000</r>
       <r>   4.3289  1.0000</r>
       <r>   4.3289  1.0000</r>
       <r>   4.3289  1.0000</r>
       <r>   4.3289  1.0000</r>
       <r>   4.4095  1.0000</r>
       <r>   4.5371  1.0000</r>
       <r>   4.5371  1.0000</r>
       <r>   4.6817  1.0000</r>
       <r>   4.6818  1.0000</r>
       <r>   4.7587  1.0000</r>
       <r>   4.7588  1.0000</r>
       <r>   4.7588  1.0000</r>
       <r>   4.7588  1.0000</r>
       <r>   4.8001  1.0000</r>
       <r>   5.0630  1.0000</r>
       <r>   5.0630  1.0000</r>
       <r>   5.0630  1.0000</r>
       <r>   5.0630  1.0000</r>
       <r>   5.0743  1.0000</r>
       <r>   5.0743  1.0000</r>
       <r>   5.2838  1.0000</r>
       <r>   5.2844  1.0000</r>
       <r>   5.2861  1.0000</r>
       <r>   5.2867  1.0000</r>
       <r>   5.8480  1.0000</r>
       <r>   5.8480  1.0000</r>
       <r>   5.8480  1.0000</r>
       <r>   5.8480  1.0000</r>
       <r>   6.1638  1.0000</r>
       <r>   6.1638  1.0000</r>
       <r>   6.1639  1.0000</r>
       <r>   6.1639  1.0000</r>
       <r>   6.6508  1.0000</r>
       <r>   6.7436  1.0000</r>
       <r>   6.7436  1.0000</r>
       <r>   6.7436  1.0000</r>
       <r>   6.7437  1.0000</r>
       <r>   7.8711  0.0000</r>
       <r>   7.8711  0.0000</r>
       <r>   7.8711  0.0000</r>
       <r>   7.8712  0.0000</r>
       <r>   8.6377  0.0000</r>
       <r>   8.6377  0.0000</r>
       <r>  11.0435  0.0000</r>
       <r>  11.0435  0.0000</r>
       <r>  11.0435  0.0000</r>
       <r>  11.0436  0.0000</r>
       <r>  11.1154  0.0000</r>
       <r>  11.1154  0.0000</r>
       <r>  11.1155  0.0000</r>
       <r>  11.1155  0.0000</r>
       <r>  11.9510  0.0000</r>
       <r>  11.9510  0.0000</r>
       <r>  12.4970  0.0000</r>
       <r>  12.4971  0.0000</r>
       <r>  13.3622  0.0000</r>
       <r>  13.3622  0.0000</r>
       <r>  14.0351  0.0000</r>
       <r>  14.0351  0.0000</r>
       <r>  14.0351  0.0000</r>
       <r>  14.0351  0.0000</r>
       <r>  14.2415  0.0000</r>
       <r>  14.2415  0.0000</r>
       <r>  14.2415  0.0000</r>
       <r>  14.2415  0.0000</r>
       <r>  14.5269  0.0000</r>
       <r>  14.5269  0.0000</r>
       <r>  14.5269  0.0000</r>
       <r>  14.5269  0.0000</r>
      </set>
      <set comment="kpoint 5">
       <r>  -3.5152  1.0000</r>
       <r>  -2.5320  1.0000</r>
       <r>  -1.0380  1.0000</r>
       <r>  -1.0380  1.0000</r>
       <r>  -1.0379  1.0000</r>
       <r>  -1.0379  1.0000</r>
       <r>  -1.0268  1.0000</r>
       <r>  -1.0268  1.0000</r>
       <r>  -1.0267  1.0000</r>
       <r>  -1.0267  1.0000</r>
       <r>  -0.9066  1.0000</r>
       <r>  -0.7931  1.0000</r>
       <r>  -0.7931  1.0000</r>
       <r>  -0.7323  1.0000</r>
       <r>  -0.5401  1.0000</r>
       <r>  -0.4671  1.0000</r>
       <r>  -0.4671  1.0000</r>
       <r>  -0.4502  1.0000</r>
       <r>  -0.4502  1.0000</r>
       <r>  -0.4501  1.0000</r>
       <r>  -0.4501  1.0000</r>
       <r>  -0.4109  1.0000</r>
       <r>  -0.4108  1.0000</r>
       <r>  -0.4108  1.0000</r>
       <r>  -0.4108  1.0000</r>
       <r>  -0.1977  1.0000</r>
       <r>  -0.1977  1.0000</r>
       <r>  -0.1575  1.0000</r>
       <r>   0.1509  1.0000</r>
       <r>   0.1509  1.0000</r>
       <r>   0.3830  1.0000</r>
       <r>   0.3831  1.0000</r>
       <r>   0.3831  1.0000</r>
       <r>   0.3831  1.0000</r>
       <r>   0.4964  1.0000</r>
       <r>   0.4964  1.0000</r>
       <r>   0.4964  1.0000</r>
       <r>   0.4964  1.0000</r>
       <r>   0.5188  1.0000</r>
       <r>   0.5188  1.0000</r>
       <r>   0.5188  1.0000</r>
       <r>   0.5188  1.0000</r>
       <r>   0.8035  1.0000</r>
       <r>   0.8035  1.0000</r>
       <r>   0.8035  1.0000</r>
       <r>   0.8035  1.0000</r>
       <r>   0.9858  1.0000</r>
       <r>   0.9859  1.0000</r>
       <r>   0.9859  1.0000</r>
       <r>   0.9860  1.0000</r>
       <r>   1.0109  1.0000</r>
       <r>   1.0109  1.0000</r>
       <r>   1.0109  1.0000</r>
       <r>   1.0110  1.0000</r>
       <r>   1.0251  1.0000</r>
       <r>   1.1779  1.0000</r>
       <r>   1.1788  1.0000</r>
       <r>   1.1788  1.0000</r>
       <r>   1.1788  1.0000</r>
       <r>   1.1910  1.0000</r>
       <r>   1.1911  1.0000</r>
       <r>   1.1911  1.0000</r>
       <r>   1.1920  1.0000</r>
       <r>   1.3838  1.0000</r>
       <r>   1.3838  1.0000</r>
       <r>   1.3838  1.0000</r>
       <r>   1.3838  1.0000</r>
       <r>   1.5240  1.0000</r>
       <r>   1.5772  1.0000</r>
       <r>   1.5773  1.0000</r>
       <r>   1.5773  1.0000</r>
       <r>   1.5774  1.0000</r>
       <r>   1.5951  1.0000</r>
       <r>   1.5951  1.0000</r>
       <r>   1.5951  1.0000</r>
       <r>   1.5953  1.0000</r>
       <r>   1.8388  1.0000</r>
       <r>   1.8388  1.0000</r>
       <r>   1.8388  1.0000</r>
       <r>   1.8389  1.0000</r>
       <r>   1.8868  1.0000</r>
       <r>   1.8868  1.0000</r>
       <r>   2.0082  1.0000</r>
       <r>   2.0082  1.0000</r>
       <r>   2.0083  1.0000</r>
       <r>   2.0083  1.0000</r>
       <r>   2.1681  1.0000</r>
       <r>   2.1681  1.0000</r>
       <r>   2.1681  1.0000</r>
       <r>   2.1681  1.0000</r>
       <r>   2.3105  1.0000</r>
       <r>   2.3106  1.0000</r>
       <r>   2.3106  1.0000</r>
       <r>   2.3106  1.0000</r>
       <r>   2.3799  1.0000</r>
       <r>   2.3799  1.0000</r>
       <r>   2.5246  1.0000</r>
       <r>   2.5246  1.0000</r>
       <r>   2.7888  1.0000</r>
       <r>   3.0377  1.0000</r>
       <r>   3.0377  1.0000</r>
       <r>   3.0378  1.0000</r>
       <r>   3.0378  1.0000</r>
       <r>   3.1438  1.0000</r>
       <r>   3.1438  1.0000</r>
       <r>   3.1438  1.0000</r>
       <r>   3.1439  1.0000</r>
       <r>   3.1660  1.0000</r>
       <r>   3.1660  1.0000</r>
       <r>   3.1660  1.0000</r>
       <r>   3.1660  1.0000</r>
       <r>   3.1904  1.0000</r>
       <r>   3.1904  1.0000</r>
       <r>   3.1904  1.0000</r>
       <r>   3.1904  1.0000</r>
       <r>   3.2884  1.0000</r>
       <r>   3.3522  1.0000</r>
       <r>   3.3523  1.0000</r>
       <r>   3.3523  1.0000</r>
       <r>   3.3523  1.0000</r>
       <r>   3.3708  1.0000</r>
       <r>   3.3708  1.0000</r>
       <r>   3.3708  1.0000</r>
       <r>   3.3709  1.0000</r>
       <r>   3.5816  1.0000</r>
       <r>   3.6033  1.0000</r>
       <r>   3.6477  1.0000</r>
       <r>   3.6477  1.0000</r>
       <r>   3.6477  1.0000</r>
       <r>   3.6477  1.0000</r>
       <r>   3.7992  1.0000</r>
       <r>   3.7994  1.0000</r>
       <r>   3.8150  1.0000</r>
       <r>   4.0184  1.0000</r>
       <r>   4.0184  1.0000</r>
       <r>   4.0184  1.0000</r>
       <r>   4.0185  1.0000</r>
       <r>   4.0793  1.0000</r>
       <r>   4.0793  1.0000</r>
       <r>   4.1238  1.0000</r>
       <r>   4.1238  1.0000</r>
       <r>   4.1240  1.0000</r>
       <r>   4.1240  1.0000</r>
       <r>   4.1361  1.0000</r>
       <r>   4.1361  1.0000</r>
       <r>   4.4924  1.0000</r>
       <r>   4.5039  1.0000</r>
       <r>   4.5039  1.0000</r>
       <r>   4.5039  1.0000</r>
       <r>   4.5039  1.0000</r>
       <r>   4.5505  1.0000</r>
       <r>   4.5506  1.0000</r>
       <r>   4.6508  1.0000</r>
       <r>   4.6508  1.0000</r>
       <r>   4.6508  1.0000</r>
       <r>   4.6508  1.0000</r>
       <r>   4.7573  1.0000</r>
       <r>   4.9068  1.0000</r>
       <r>   4.9068  1.0000</r>
       <r>   4.9069  1.0000</r>
       <r>   4.9069  1.0000</r>
       <r>   4.9225  1.0000</r>
       <r>   4.9225  1.0000</r>
       <r>   5.2840  1.0000</r>
       <r>   5.2846  1.0000</r>
       <r>   5.2859  1.0000</r>
       <r>   5.2866  1.0000</r>
       <r>   5.5517  1.0000</r>
       <r>   5.5517  1.0000</r>
       <r>   5.5517  1.0000</r>
       <r>   5.5517  1.0000</r>
       <r>   6.0188  1.0000</r>
       <r>   6.3430  1.0000</r>
       <r>   6.3431  1.0000</r>
       <r>   6.3431  1.0000</r>
       <r>   6.3431  1.0000</r>
       <r>   6.7090  1.0000</r>
       <r>   6.7090  1.0000</r>
       <r>   6.7090  1.0000</r>
       <r>   6.7091  1.0000</r>
       <r>   8.3018  0.0000</r>
       <r>   8.3018  0.0000</r>
       <r>   8.3018  0.0000</r>
       <r>   8.3019  0.0000</r>
       <r>   9.1348  0.0000</r>
       <r>   9.1348  0.0000</r>
       <r>  10.4408  0.0000</r>
       <r>  10.4408  0.0000</r>
       <r>  10.4408  0.0000</r>
       <r>  10.4408  0.0000</r>
       <r>  11.3724  0.0000</r>
       <r>  11.3724  0.0000</r>
       <r>  11.5037  0.0000</r>
       <r>  11.5037  0.0000</r>
       <r>  11.5037  0.0000</r>
       <r>  11.5037  0.0000</r>
       <r>  12.6044  0.0000</r>
       <r>  12.6044  0.0000</r>
       <r>  13.2140  0.0000</r>
       <r>  13.2140  0.0000</r>
       <r>  13.8280  0.0000</r>
       <r>  13.8280  0.0000</r>
       <r>  13.8280  0.0000</r>
       <r>  13.8280  0.0000</r>
       <r>  14.3165  0.0000</r>
       <r>  14.3165  0.0000</r>
       <r>  14.3165  0.0000</r>
       <r>  14.3165  0.0000</r>
       <r>  14.4142  0.0000</r>
       <r>  14.4142  0.0000</r>
       <r>  14.4143  0.0000</r>
       <r>  14.4143  0.0000</r>
      </set>
      <set comment="kpoint 6">
       <r>  -3.3223  1.0000</r>
       <r>  -2.8262  1.0000</r>
       <r>  -0.9235  1.0000</r>
       <r>  -0.9235  1.0000</r>
       <r>  -0.9235  1.0000</r>
       <r>  -0.9234  1.0000</r>
       <r>  -0.8955  1.0000</r>
       <r>  -0.8954  1.0000</r>
       <r>  -0.8954  1.0000</r>
       <r>  -0.8954  1.0000</r>
       <r>  -0.8487  1.0000</r>
       <r>  -0.7483  1.0000</r>
       <r>  -0.6665  1.0000</r>
       <r>  -0.6664  1.0000</r>
       <r>  -0.6271  1.0000</r>
       <r>  -0.6271  1.0000</r>
       <r>  -0.6270  1.0000</r>
       <r>  -0.6270  1.0000</r>
       <r>  -0.5801  1.0000</r>
       <r>  -0.5801  1.0000</r>
       <r>  -0.5801  1.0000</r>
       <r>  -0.5800  1.0000</r>
       <r>  -0.4659  1.0000</r>
       <r>  -0.3610  1.0000</r>
       <r>  -0.3610  1.0000</r>
       <r>  -0.3505  1.0000</r>
       <r>  -0.3505  1.0000</r>
       <r>  -0.2735  1.0000</r>
       <r>  -0.0413  1.0000</r>
       <r>  -0.0413  1.0000</r>
       <r>   0.4632  1.0000</r>
       <r>   0.4633  1.0000</r>
       <r>   0.4634  1.0000</r>
       <r>   0.4634  1.0000</r>
       <r>   0.5408  1.0000</r>
       <r>   0.5408  1.0000</r>
       <r>   0.5408  1.0000</r>
       <r>   0.5410  1.0000</r>
       <r>   0.5787  1.0000</r>
       <r>   0.5787  1.0000</r>
       <r>   0.5787  1.0000</r>
       <r>   0.5788  1.0000</r>
       <r>   0.7240  1.0000</r>
       <r>   0.7240  1.0000</r>
       <r>   0.7240  1.0000</r>
       <r>   0.7240  1.0000</r>
       <r>   0.9141  1.0000</r>
       <r>   0.9145  1.0000</r>
       <r>   0.9145  1.0000</r>
       <r>   0.9146  1.0000</r>
       <r>   0.9215  1.0000</r>
       <r>   0.9216  1.0000</r>
       <r>   0.9216  1.0000</r>
       <r>   0.9220  1.0000</r>
       <r>   1.1686  1.0000</r>
       <r>   1.1846  1.0000</r>
       <r>   1.1858  1.0000</r>
       <r>   1.1858  1.0000</r>
       <r>   1.1859  1.0000</r>
       <r>   1.1940  1.0000</r>
       <r>   1.1940  1.0000</r>
       <r>   1.1940  1.0000</r>
       <r>   1.1955  1.0000</r>
       <r>   1.4214  1.0000</r>
       <r>   1.4350  1.0000</r>
       <r>   1.4350  1.0000</r>
       <r>   1.4350  1.0000</r>
       <r>   1.4351  1.0000</r>
       <r>   1.5332  1.0000</r>
       <r>   1.5332  1.0000</r>
       <r>   1.5332  1.0000</r>
       <r>   1.5332  1.0000</r>
       <r>   1.6600  1.0000</r>
       <r>   1.6600  1.0000</r>
       <r>   1.6600  1.0000</r>
       <r>   1.6601  1.0000</r>
       <r>   1.8694  1.0000</r>
       <r>   1.8695  1.0000</r>
       <r>   1.8695  1.0000</r>
       <r>   1.8696  1.0000</r>
       <r>   1.9322  1.0000</r>
       <r>   1.9322  1.0000</r>
       <r>   1.9322  1.0000</r>
       <r>   1.9322  1.0000</r>
       <r>   1.9808  1.0000</r>
       <r>   1.9808  1.0000</r>
       <r>   2.1707  1.0000</r>
       <r>   2.1707  1.0000</r>
       <r>   2.1707  1.0000</r>
       <r>   2.1707  1.0000</r>
       <r>   2.2281  1.0000</r>
       <r>   2.2281  1.0000</r>
       <r>   2.5113  1.0000</r>
       <r>   2.5113  1.0000</r>
       <r>   2.5113  1.0000</r>
       <r>   2.5113  1.0000</r>
       <r>   2.9118  1.0000</r>
       <r>   2.9118  1.0000</r>
       <r>   2.9226  1.0000</r>
       <r>   3.1452  1.0000</r>
       <r>   3.1452  1.0000</r>
       <r>   3.1452  1.0000</r>
       <r>   3.1452  1.0000</r>
       <r>   3.1512  1.0000</r>
       <r>   3.1514  1.0000</r>
       <r>   3.1514  1.0000</r>
       <r>   3.1514  1.0000</r>
       <r>   3.1654  1.0000</r>
       <r>   3.1654  1.0000</r>
       <r>   3.1654  1.0000</r>
       <r>   3.1654  1.0000</r>
       <r>   3.1795  1.0000</r>
       <r>   3.2551  1.0000</r>
       <r>   3.2551  1.0000</r>
       <r>   3.2551  1.0000</r>
       <r>   3.2552  1.0000</r>
       <r>   3.2586  1.0000</r>
       <r>   3.2586  1.0000</r>
       <r>   3.2586  1.0000</r>
       <r>   3.2586  1.0000</r>
       <r>   3.3305  1.0000</r>
       <r>   3.3306  1.0000</r>
       <r>   3.3307  1.0000</r>
       <r>   3.3307  1.0000</r>
       <r>   3.3463  1.0000</r>
       <r>   3.3463  1.0000</r>
       <r>   3.3464  1.0000</r>
       <r>   3.3465  1.0000</r>
       <r>   3.6273  1.0000</r>
       <r>   3.7234  1.0000</r>
       <r>   3.7234  1.0000</r>
       <r>   3.7447  1.0000</r>
       <r>   4.0027  1.0000</r>
       <r>   4.0028  1.0000</r>
       <r>   4.1341  1.0000</r>
       <r>   4.1965  1.0000</r>
       <r>   4.1965  1.0000</r>
       <r>   4.1965  1.0000</r>
       <r>   4.1965  1.0000</r>
       <r>   4.3118  1.0000</r>
       <r>   4.3118  1.0000</r>
       <r>   4.3247  1.0000</r>
       <r>   4.3247  1.0000</r>
       <r>   4.3247  1.0000</r>
       <r>   4.3247  1.0000</r>
       <r>   4.3889  1.0000</r>
       <r>   4.3889  1.0000</r>
       <r>   4.5181  1.0000</r>
       <r>   4.5181  1.0000</r>
       <r>   4.5182  1.0000</r>
       <r>   4.5182  1.0000</r>
       <r>   4.5701  1.0000</r>
       <r>   4.7039  1.0000</r>
       <r>   4.7246  1.0000</r>
       <r>   4.7246  1.0000</r>
       <r>   4.7251  1.0000</r>
       <r>   4.7251  1.0000</r>
       <r>   4.7289  1.0000</r>
       <r>   4.7290  1.0000</r>
       <r>   4.7294  1.0000</r>
       <r>   4.7294  1.0000</r>
       <r>   4.7402  1.0000</r>
       <r>   4.7402  1.0000</r>
       <r>   5.2630  1.0000</r>
       <r>   5.2631  1.0000</r>
       <r>   5.2631  1.0000</r>
       <r>   5.2631  1.0000</r>
       <r>   5.2841  1.0000</r>
       <r>   5.2849  1.0000</r>
       <r>   5.2856  1.0000</r>
       <r>   5.2864  1.0000</r>
       <r>   5.3669  1.0000</r>
       <r>   6.4815  1.0000</r>
       <r>   6.4815  1.0000</r>
       <r>   6.4815  1.0000</r>
       <r>   6.4815  1.0000</r>
       <r>   6.6577  1.0000</r>
       <r>   6.6577  1.0000</r>
       <r>   6.6577  1.0000</r>
       <r>   6.6577  1.0000</r>
       <r>   8.7758  0.0000</r>
       <r>   8.7758  0.0000</r>
       <r>   8.7758  0.0000</r>
       <r>   8.7758  0.0000</r>
       <r>   9.6689  0.0000</r>
       <r>   9.6689  0.0000</r>
       <r>   9.8519  0.0000</r>
       <r>   9.8519  0.0000</r>
       <r>   9.8519  0.0000</r>
       <r>   9.8519  0.0000</r>
       <r>  10.7955  0.0000</r>
[...]
       <r>   2.2235  1.0000</r>
       <r>   2.2236  1.0000</r>
       <r>   2.2250  1.0000</r>
       <r>   2.2250  1.0000</r>
       <r>   2.3786  1.0000</r>
       <r>   2.3786  1.0000</r>
       <r>   2.3786  1.0000</r>
       <r>   2.3786  1.0000</r>
       <r>   2.7736  1.0000</r>
       <r>   2.7736  1.0000</r>
       <r>   2.7736  1.0000</r>
       <r>   2.7736  1.0000</r>
       <r>   2.8869  1.0000</r>
       <r>   2.8869  1.0000</r>
       <r>   2.8875  1.0000</r>
       <r>   2.8875  1.0000</r>
       <r>   2.8876  1.0000</r>
       <r>   2.8876  1.0000</r>
       <r>   2.8882  1.0000</r>
       <r>   2.8882  1.0000</r>
       <r>   3.3693  1.0000</r>
       <r>   3.3699  1.0000</r>
       <r>   3.3699  1.0000</r>
       <r>   3.3700  1.0000</r>
       <r>   3.4113  1.0000</r>
       <r>   3.4115  1.0000</r>
       <r>   3.4115  1.0000</r>
       <r>   3.4121  1.0000</r>
       <r>   3.4125  1.0000</r>
       <r>   3.4125  1.0000</r>
       <r>   3.4130  1.0000</r>
       <r>   3.4130  1.0000</r>
       <r>   3.4130  1.0000</r>
       <r>   3.4143  1.0000</r>
       <r>   3.4143  1.0000</r>
       <r>   3.4146  1.0000</r>
       <r>   3.7336  1.0000</r>
       <r>   3.7337  1.0000</r>
       <r>   3.7337  1.0000</r>
       <r>   3.7337  1.0000</r>
       <r>   3.7648  1.0000</r>
       <r>   3.7648  1.0000</r>
       <r>   3.7648  1.0000</r>
       <r>   3.7650  1.0000</r>
       <r>   4.0192  1.0000</r>
       <r>   4.0192  1.0000</r>
       <r>   4.0192  1.0000</r>
       <r>   4.0192  1.0000</r>
       <r>   4.9197  1.0000</r>
       <r>   4.9197  1.0000</r>
       <r>   4.9201  1.0000</r>
       <r>   4.9201  1.0000</r>
       <r>   4.9201  1.0000</r>
       <r>   4.9201  1.0000</r>
       <r>   4.9205  1.0000</r>
       <r>   4.9205  1.0000</r>
       <r>   4.9450  1.0000</r>
       <r>   4.9450  1.0000</r>
       <r>   4.9450  1.0000</r>
       <r>   4.9450  1.0000</r>
       <r>   4.9769  1.0000</r>
       <r>   4.9769  1.0000</r>
       <r>   4.9774  1.0000</r>
       <r>   4.9774  1.0000</r>
       <r>   4.9774  1.0000</r>
       <r>   4.9774  1.0000</r>
       <r>   4.9778  1.0000</r>
       <r>   4.9778  1.0000</r>
       <r>   4.9803  1.0000</r>
       <r>   4.9804  1.0000</r>
       <r>   4.9804  1.0000</r>
       <r>   4.9804  1.0000</r>
       <r>   6.8347  1.0000</r>
       <r>   6.8347  1.0000</r>
       <r>   6.8347  1.0000</r>
       <r>   6.8347  1.0000</r>
       <r>   7.6344  0.0000</r>
       <r>   7.6344  0.0000</r>
       <r>   7.6350  0.0000</r>
       <r>   7.6350  0.0000</r>
       <r>   7.6350  0.0000</r>
       <r>   7.6350  0.0000</r>
       <r>   7.6355  0.0000</r>
       <r>   7.6355  0.0000</r>
       <r>   8.7289  0.0000</r>
       <r>   8.7289  0.0000</r>
       <r>   8.7302  0.0000</r>
       <r>   8.7302  0.0000</r>
       <r>   8.7302  0.0000</r>
       <r>   8.7302  0.0000</r>
       <r>   8.7316  0.0000</r>
       <r>   8.7316  0.0000</r>
       <r>   9.5493  0.0000</r>
       <r>   9.5493  0.0000</r>
       <r>   9.5493  0.0000</r>
       <r>   9.5494  0.0000</r>
       <r>  11.8116  0.0000</r>
       <r>  11.8116  0.0000</r>
       <r>  11.8120  0.0000</r>
       <r>  11.8120  0.0000</r>
       <r>  11.8120  0.0000</r>
       <r>  11.8120  0.0000</r>
       <r>  11.8124  0.0000</r>
       <r>  11.8124  0.0000</r>
       <r>  12.1166  0.0000</r>
       <r>  12.1166  0.0000</r>
       <r>  12.1166  0.0000</r>
       <r>  12.1166  0.0000</r>
       <r>  13.7045  0.0000</r>
       <r>  13.7045  0.0000</r>
       <r>  13.7045  0.0000</r>
       <r>  13.7045  0.0000</r>
       <r>  13.9948  0.0000</r>
       <r>  13.9951  0.0000</r>
       <r>  13.9952  0.0000</r>
       <r>  13.9956  0.0000</r>
      </set>
      <set comment="kpoint 195">
       <r>  -2.0763  1.0000</r>
       <r>  -2.0762  1.0000</r>
       <r>  -2.0762  1.0000</r>
       <r>  -2.0762  1.0000</r>
       <r>  -1.7916  1.0000</r>
       <r>  -1.7916  1.0000</r>
       <r>  -1.7916  1.0000</r>
       <r>  -1.7916  1.0000</r>
       <r>  -0.3440  1.0000</r>
       <r>  -0.3438  1.0000</r>
       <r>  -0.3438  1.0000</r>
       <r>  -0.3438  1.0000</r>
       <r>  -0.3249  1.0000</r>
       <r>  -0.3249  1.0000</r>
       <r>  -0.3246  1.0000</r>
       <r>  -0.3246  1.0000</r>
       <r>  -0.3245  1.0000</r>
       <r>  -0.3242  1.0000</r>
       <r>  -0.3242  1.0000</r>
       <r>  -0.3242  1.0000</r>
       <r>  -0.2965  1.0000</r>
       <r>  -0.2961  1.0000</r>
       <r>  -0.2961  1.0000</r>
       <r>  -0.2960  1.0000</r>
       <r>  -0.2811  1.0000</r>
       <r>  -0.2811  1.0000</r>
       <r>  -0.2804  1.0000</r>
       <r>  -0.2804  1.0000</r>
       <r>  -0.2803  1.0000</r>
       <r>  -0.2799  1.0000</r>
       <r>  -0.2795  1.0000</r>
       <r>  -0.2795  1.0000</r>
       <r>   0.5582  1.0000</r>
       <r>   0.5582  1.0000</r>
       <r>   0.5589  1.0000</r>
       <r>   0.5589  1.0000</r>
       <r>   0.5590  1.0000</r>
       <r>   0.5590  1.0000</r>
       <r>   0.5598  1.0000</r>
       <r>   0.5598  1.0000</r>
       <r>   0.5957  1.0000</r>
       <r>   0.5959  1.0000</r>
       <r>   0.5959  1.0000</r>
       <r>   0.5959  1.0000</r>
       <r>   0.8229  1.0000</r>
       <r>   0.8229  1.0000</r>
       <r>   0.8230  1.0000</r>
       <r>   0.8237  1.0000</r>
       <r>   0.8237  1.0000</r>
       <r>   0.8237  1.0000</r>
       <r>   0.8242  1.0000</r>
       <r>   0.8242  1.0000</r>
       <r>   0.8247  1.0000</r>
       <r>   0.8248  1.0000</r>
       <r>   0.8248  1.0000</r>
       <r>   0.8253  1.0000</r>
       <r>   1.4745  1.0000</r>
       <r>   1.4746  1.0000</r>
       <r>   1.4746  1.0000</r>
       <r>   1.4746  1.0000</r>
       <r>   1.6131  1.0000</r>
       <r>   1.6131  1.0000</r>
       <r>   1.6132  1.0000</r>
       <r>   1.6132  1.0000</r>
       <r>   1.9785  1.0000</r>
       <r>   1.9786  1.0000</r>
       <r>   1.9786  1.0000</r>
       <r>   1.9787  1.0000</r>
       <r>   2.0243  1.0000</r>
       <r>   2.0243  1.0000</r>
       <r>   2.0245  1.0000</r>
       <r>   2.0246  1.0000</r>
       <r>   2.0365  1.0000</r>
       <r>   2.0366  1.0000</r>
       <r>   2.0366  1.0000</r>
       <r>   2.0369  1.0000</r>
       <r>   2.0469  1.0000</r>
       <r>   2.0469  1.0000</r>
       <r>   2.0489  1.0000</r>
       <r>   2.0490  1.0000</r>
       <r>   2.0491  1.0000</r>
       <r>   2.0491  1.0000</r>
       <r>   2.0511  1.0000</r>
       <r>   2.0511  1.0000</r>
       <r>   2.0575  1.0000</r>
       <r>   2.0575  1.0000</r>
       <r>   2.0577  1.0000</r>
       <r>   2.0578  1.0000</r>
       <r>   2.0604  1.0000</r>
       <r>   2.0609  1.0000</r>
       <r>   2.0610  1.0000</r>
       <r>   2.0610  1.0000</r>
       <r>   2.1686  1.0000</r>
       <r>   2.1686  1.0000</r>
       <r>   2.1703  1.0000</r>
       <r>   2.1703  1.0000</r>
       <r>   2.1704  1.0000</r>
       <r>   2.1705  1.0000</r>
       <r>   2.1722  1.0000</r>
       <r>   2.1722  1.0000</r>
       <r>   2.2442  1.0000</r>
       <r>   2.2442  1.0000</r>
       <r>   2.2442  1.0000</r>
       <r>   2.2442  1.0000</r>
       <r>   2.9272  1.0000</r>
       <r>   2.9272  1.0000</r>
       <r>   2.9272  1.0000</r>
       <r>   2.9273  1.0000</r>
       <r>   2.9745  1.0000</r>
       <r>   2.9745  1.0000</r>
       <r>   2.9753  1.0000</r>
       <r>   2.9753  1.0000</r>
       <r>   2.9753  1.0000</r>
       <r>   2.9754  1.0000</r>
       <r>   2.9761  1.0000</r>
       <r>   2.9761  1.0000</r>
       <r>   3.2322  1.0000</r>
       <r>   3.2322  1.0000</r>
       <r>   3.2331  1.0000</r>
       <r>   3.2332  1.0000</r>
       <r>   3.2332  1.0000</r>
       <r>   3.2332  1.0000</r>
       <r>   3.2342  1.0000</r>
       <r>   3.2342  1.0000</r>
       <r>   3.2512  1.0000</r>
       <r>   3.2513  1.0000</r>
       <r>   3.2513  1.0000</r>
       <r>   3.2513  1.0000</r>
       <r>   3.5218  1.0000</r>
       <r>   3.5218  1.0000</r>
       <r>   3.5218  1.0000</r>
       <r>   3.5218  1.0000</r>
       <r>   3.6809  1.0000</r>
       <r>   3.6811  1.0000</r>
       <r>   3.6811  1.0000</r>
       <r>   3.6811  1.0000</r>
       <r>   3.7179  1.0000</r>
       <r>   3.7179  1.0000</r>
       <r>   3.7179  1.0000</r>
       <r>   3.7181  1.0000</r>
       <r>   3.8508  1.0000</r>
       <r>   3.8509  1.0000</r>
       <r>   3.8509  1.0000</r>
       <r>   3.8509  1.0000</r>
       <r>   4.9752  1.0000</r>
       <r>   4.9752  1.0000</r>
       <r>   4.9754  1.0000</r>
       <r>   4.9754  1.0000</r>
       <r>   4.9754  1.0000</r>
       <r>   4.9755  1.0000</r>
       <r>   4.9756  1.0000</r>
       <r>   4.9756  1.0000</r>
       <r>   4.9879  1.0000</r>
       <r>   4.9879  1.0000</r>
       <r>   4.9880  1.0000</r>
       <r>   4.9880  1.0000</r>
       <r>   5.0078  1.0000</r>
       <r>   5.0078  1.0000</r>
       <r>   5.0079  1.0000</r>
       <r>   5.0080  1.0000</r>
       <r>   5.0133  1.0000</r>
       <r>   5.0133  1.0000</r>
       <r>   5.0134  1.0000</r>
       <r>   5.0134  1.0000</r>
       <r>   5.0135  1.0000</r>
       <r>   5.0135  1.0000</r>
       <r>   5.0137  1.0000</r>
       <r>   5.0137  1.0000</r>
       <r>   7.4707  0.0000</r>
       <r>   7.4707  0.0000</r>
       <r>   7.4707  0.0000</r>
       <r>   7.4707  0.0000</r>
       <r>   7.8719  0.0000</r>
       <r>   7.8719  0.0000</r>
       <r>   7.8726  0.0000</r>
       <r>   7.8726  0.0000</r>
       <r>   7.8726  0.0000</r>
       <r>   7.8726  0.0000</r>
       <r>   7.8734  0.0000</r>
       <r>   7.8734  0.0000</r>
       <r>   8.4293  0.0000</r>
       <r>   8.4293  0.0000</r>
       <r>   8.4304  0.0000</r>
       <r>   8.4304  0.0000</r>
       <r>   8.4304  0.0000</r>
       <r>   8.4304  0.0000</r>
       <r>   8.4315  0.0000</r>
       <r>   8.4315  0.0000</r>
       <r>   8.8386  0.0000</r>
       <r>   8.8386  0.0000</r>
       <r>   8.8386  0.0000</r>
       <r>   8.8386  0.0000</r>
       <r>  12.2960  0.0000</r>
       <r>  12.2960  0.0000</r>
       <r>  12.2964  0.0000</r>
       <r>  12.2964  0.0000</r>
       <r>  12.2964  0.0000</r>
       <r>  12.2965  0.0000</r>
       <r>  12.2968  0.0000</r>
       <r>  12.2968  0.0000</r>
       <r>  12.4436  0.0000</r>
       <r>  12.4436  0.0000</r>
       <r>  12.4436  0.0000</r>
       <r>  12.4436  0.0000</r>
       <r>  13.2484  0.0000</r>
       <r>  13.2484  0.0000</r>
       <r>  13.2484  0.0000</r>
       <r>  13.2484  0.0000</r>
       <r>  13.3932  0.0000</r>
       <r>  13.3933  0.0000</r>
       <r>  13.3935  0.0000</r>
       <r>  13.3938  0.0000</r>
      </set>
      <set comment="kpoint 196">
       <r>  -1.9473  1.0000</r>
       <r>  -1.9434  1.0000</r>
       <r>  -1.9434  1.0000</r>
       <r>  -1.9428  1.0000</r>
       <r>  -1.9423  1.0000</r>
       <r>  -1.9416  1.0000</r>
       <r>  -1.9416  1.0000</r>
       <r>  -1.9378  1.0000</r>
       <r>  -0.3127  1.0000</r>
       <r>  -0.3126  1.0000</r>
       <r>  -0.3125  1.0000</r>
       <r>  -0.3125  1.0000</r>
       <r>  -0.3113  1.0000</r>
       <r>  -0.3104  1.0000</r>
       <r>  -0.3094  1.0000</r>
       <r>  -0.3094  1.0000</r>
       <r>  -0.3094  1.0000</r>
       <r>  -0.3093  1.0000</r>
       <r>  -0.3093  1.0000</r>
       <r>  -0.3091  1.0000</r>
       <r>  -0.3090  1.0000</r>
       <r>  -0.3088  1.0000</r>
       <r>  -0.3088  1.0000</r>
       <r>  -0.3088  1.0000</r>
       <r>  -0.3088  1.0000</r>
       <r>  -0.3087  1.0000</r>
       <r>  -0.3077  1.0000</r>
       <r>  -0.3068  1.0000</r>
       <r>  -0.3057  1.0000</r>
       <r>  -0.3057  1.0000</r>
       <r>  -0.3056  1.0000</r>
       <r>  -0.3055  1.0000</r>
       <r>   0.6929  1.0000</r>
       <r>   0.6976  1.0000</r>
       <r>   0.6985  1.0000</r>
       <r>   0.6986  1.0000</r>
       <r>   0.6986  1.0000</r>
       <r>   0.6995  1.0000</r>
       <r>   0.7000  1.0000</r>
       <r>   0.7000  1.0000</r>
       <r>   0.7003  1.0000</r>
       <r>   0.7004  1.0000</r>
       <r>   0.7004  1.0000</r>
       <r>   0.7004  1.0000</r>
       <r>   0.7005  1.0000</r>
       <r>   0.7006  1.0000</r>
       <r>   0.7006  1.0000</r>
       <r>   0.7006  1.0000</r>
       <r>   0.7009  1.0000</r>
       <r>   0.7009  1.0000</r>
       <r>   0.7014  1.0000</r>
       <r>   0.7023  1.0000</r>
       <r>   0.7023  1.0000</r>
       <r>   0.7024  1.0000</r>
       <r>   0.7032  1.0000</r>
       <r>   0.7079  1.0000</r>
       <r>   1.5480  1.0000</r>
       <r>   1.5506  1.0000</r>
       <r>   1.5513  1.0000</r>
       <r>   1.5513  1.0000</r>
       <r>   1.5514  1.0000</r>
       <r>   1.5514  1.0000</r>
       <r>   1.5521  1.0000</r>
       <r>   1.5546  1.0000</r>
       <r>   2.0384  1.0000</r>
       <r>   2.0384  1.0000</r>
       <r>   2.0391  1.0000</r>
       <r>   2.0395  1.0000</r>
       <r>   2.0404  1.0000</r>
       <r>   2.0405  1.0000</r>
       <r>   2.0406  1.0000</r>
       <r>   2.0406  1.0000</r>
       <r>   2.0412  1.0000</r>
       <r>   2.0412  1.0000</r>
       <r>   2.0413  1.0000</r>
       <r>   2.0415  1.0000</r>
       <r>   2.0423  1.0000</r>
       <r>   2.0425  1.0000</r>
       <r>   2.0430  1.0000</r>
       <r>   2.0430  1.0000</r>
       <r>   2.1017  1.0000</r>
       <r>   2.1017  1.0000</r>
       <r>   2.1034  1.0000</r>
       <r>   2.1034  1.0000</r>
       <r>   2.1057  1.0000</r>
       <r>   2.1067  1.0000</r>
       <r>   2.1068  1.0000</r>
       <r>   2.1068  1.0000</r>
       <r>   2.1069  1.0000</r>
       <r>   2.1069  1.0000</r>
       <r>   2.1070  1.0000</r>
       <r>   2.1070  1.0000</r>
       <r>   2.1072  1.0000</r>
       <r>   2.1072  1.0000</r>
       <r>   2.1073  1.0000</r>
       <r>   2.1073  1.0000</r>
       <r>   2.1074  1.0000</r>
       <r>   2.1074  1.0000</r>
       <r>   2.1075  1.0000</r>
       <r>   2.1086  1.0000</r>
       <r>   2.1110  1.0000</r>
       <r>   2.1110  1.0000</r>
       <r>   2.1129  1.0000</r>
       <r>   2.1129  1.0000</r>
       <r>   3.0812  1.0000</r>
       <r>   3.0833  1.0000</r>
       <r>   3.0833  1.0000</r>
       <r>   3.0867  1.0000</r>
       <r>   3.0870  1.0000</r>
       <r>   3.0870  1.0000</r>
       <r>   3.0870  1.0000</r>
       <r>   3.0875  1.0000</r>
       <r>   3.0877  1.0000</r>
       <r>   3.0877  1.0000</r>
       <r>   3.0877  1.0000</r>
       <r>   3.0878  1.0000</r>
       <r>   3.0879  1.0000</r>
       <r>   3.0879  1.0000</r>
       <r>   3.0879  1.0000</r>
       <r>   3.0879  1.0000</r>
       <r>   3.0882  1.0000</r>
       <r>   3.0886  1.0000</r>
       <r>   3.0886  1.0000</r>
       <r>   3.0887  1.0000</r>
       <r>   3.0890  1.0000</r>
       <r>   3.0923  1.0000</r>
       <r>   3.0923  1.0000</r>
       <r>   3.0944  1.0000</r>
       <r>   3.6791  1.0000</r>
       <r>   3.6812  1.0000</r>
       <r>   3.6815  1.0000</r>
       <r>   3.6815  1.0000</r>
       <r>   3.6831  1.0000</r>
       <r>   3.6831  1.0000</r>
       <r>   3.6834  1.0000</r>
       <r>   3.6836  1.0000</r>
       <r>   3.6837  1.0000</r>
       <r>   3.6839  1.0000</r>
       <r>   3.6842  1.0000</r>
       <r>   3.6842  1.0000</r>
       <r>   3.6859  1.0000</r>
       <r>   3.6859  1.0000</r>
       <r>   3.6861  1.0000</r>
       <r>   3.6882  1.0000</r>
       <r>   5.0086  1.0000</r>
       <r>   5.0086  1.0000</r>
       <r>   5.0091  1.0000</r>
       <r>   5.0094  1.0000</r>
       <r>   5.0094  1.0000</r>
       <r>   5.0094  1.0000</r>
       <r>   5.0094  1.0000</r>
       <r>   5.0095  1.0000</r>
       <r>   5.0097  1.0000</r>
       <r>   5.0098  1.0000</r>
       <r>   5.0098  1.0000</r>
       <r>   5.0099  1.0000</r>
       <r>   5.0101  1.0000</r>
       <r>   5.0102  1.0000</r>
       <r>   5.0102  1.0000</r>
       <r>   5.0103  1.0000</r>
       <r>   5.0105  1.0000</r>
       <r>   5.0106  1.0000</r>
       <r>   5.0106  1.0000</r>
       <r>   5.0106  1.0000</r>
       <r>   5.0106  1.0000</r>
       <r>   5.0110  1.0000</r>
       <r>   5.0114  1.0000</r>
       <r>   5.0114  1.0000</r>
       <r>   8.1351  0.0000</r>
       <r>   8.1373  0.0000</r>
       <r>   8.1373  0.0000</r>
       <r>   8.1398  0.0000</r>
       <r>   8.1407  0.0000</r>
       <r>   8.1408  0.0000</r>
       <r>   8.1409  0.0000</r>
       <r>   8.1409  0.0000</r>
       <r>   8.1410  0.0000</r>
       <r>   8.1411  0.0000</r>
       <r>   8.1413  0.0000</r>
       <r>   8.1413  0.0000</r>
       <r>   8.1415  0.0000</r>
       <r>   8.1415  0.0000</r>
       <r>   8.1417  0.0000</r>
       <r>   8.1418  0.0000</r>
       <r>   8.1419  0.0000</r>
       <r>   8.1419  0.0000</r>
       <r>   8.1420  0.0000</r>
       <r>   8.1421  0.0000</r>
       <r>   8.1430  0.0000</r>
       <r>   8.1455  0.0000</r>
       <r>   8.1455  0.0000</r>
       <r>   8.1477  0.0000</r>
       <r>  12.8183  0.0000</r>
       <r>  12.8189  0.0000</r>
       <r>  12.8223  0.0000</r>
       <r>  12.8228  0.0000</r>
       <r>  12.8236  0.0000</r>
       <r>  12.8240  0.0000</r>
       <r>  12.8244  0.0000</r>
       <r>  12.8246  0.0000</r>
       <r>  12.8247  0.0000</r>
       <r>  12.8248  0.0000</r>
       <r>  12.8248  0.0000</r>
       <r>  12.8249  0.0000</r>
       <r>  12.8249  0.0000</r>
       <r>  12.8250  0.0000</r>
       <r>  12.8253  0.0000</r>
       <r>  12.8254  0.0000</r>
       <r>  12.8259  0.0000</r>
       <r>  12.8261  0.0000</r>
       <r>  12.8264  0.0000</r>
       <r>  12.8272  0.0000</r>
      </set>
     </set>
    </set>
   </array>
  </eigenvalues>
 </calculation>
 <structure name="finalpos" >
  <crystal>
   <varray name="basis" >
    <v>       7.92841861      0.00000000      0.00000000</v>
    <v>       0.00000000      7.92841861      0.00000000</v>
    <v>       0.00000000      0.00000000      7.92841861</v>
   </varray>
   <i name="volume">    498.37898066</i>
   <varray name="rec_basis" >
    <v>       0.12612856      0.00000000      0.00000000</v>
    <v>       0.00000000      0.12612856      0.00000000</v>
    <v>       0.00000000      0.00000000      0.12612856</v>
   </varray>
  </crystal>
  <varray name="positions" >
   <v>       0.00126129      0.00000000      0.00000000</v>
   <v>       0.50000000      0.00000000      0.00000000</v>
   <v>       0.00000000      0.50000000      0.00000000</v>
   <v>       0.50000000      0.50000000      0.00000000</v>
   <v>       0.00000000      0.00000000      0.50000000</v>
   <v>       0.50000000      0.00000000      0.50000000</v>
   <v>       0.00000000      0.50000000      0.50000000</v>
   <v>       0.50000000      0.50000000      0.50000000</v>
   <v>       0.25000000      0.25000000      0.00000000</v>
   <v>       0.75000000      0.25000000      0.00000000</v>
   <v>       0.25000000      0.75000000      0.00000000</v>
   <v>       0.75000000      0.75000000      0.00000000</v>
   <v>       0.25000000      0.25000000      0.50000000</v>
   <v>       0.75000000      0.25000000      0.50000000</v>
   <v>       0.25000000      0.75000000      0.50000000</v>
   <v>       0.75000000      0.75000000      0.50000000</v>
   <v>       0.25000000      0.00000000      0.25000000</v>
   <v>       0.75000000      0.00000000      0.25000000</v>
   <v>       0.25000000      0.50000000      0.25000000</v>
   <v>       0.75000000      0.50000000      0.25000000</v>
   <v>       0.25000000      0.00000000      0.75000000</v>
   <v>       0.75000000      0.00000000      0.75000000</v>
   <v>       0.25000000      0.50000000      0.75000000</v>
   <v>       0.75000000      0.50000000      0.75000000</v>
   <v>       0.00000000      0.25000000      0.25000000</v>
   <v>       0.50000000      0.25000000      0.25000000</v>
   <v>       0.00000000      0.75000000      0.25000000</v>
   <v>       0.50000000      0.75000000      0.25000000</v>
   <v>       0.00000000      0.25000000      0.75000000</v>
   <v>       0.50000000      0.25000000      0.75000000</v>
   <v>       0.00000000      0.75000000      0.75000000</v>
   <v>       0.50000000      0.75000000      0.75000000</v>
  </varray>
 </structure>
</modeling>
