32   
1    

1    
  0.0100000000000000   0.0000000000000000   0.0000000000000000
  -0.0744885800   -0.0000000000   -0.0000000000
   0.0025298600    0.0000000000    0.0000000000
  -0.0001679900   -0.0000000000   -0.0000000000
   0.0007008400   -0.0000000000   -0.0000000000
  -0.0001679900   -0.0000000000    0.0000000000
   0.0007008400    0.0000000000    0.0000000000
   0.0007273500   -0.0000000000   -0.0000000000
  -0.0006476900   -0.0000000000    0.0000000000
  -0.0013198500    0.0000351600   -0.0000351600
  -0.0004057900   -0.0000024900    0.0000024900
  -0.0013198500   -0.0000351600   -0.0000351600
  -0.0004057900    0.0000024900    0.0000024900
  -0.0013198500    0.0000351600    0.0000351600
  -0.0004057900   -0.0000024900   -0.0000024900
  -0.0013198500   -0.0000351600    0.0000351600
  -0.0004057900    0.0000024900   -0.0000024900
   0.0096088400    0.0000000000   -0.0103114600
   0.0098196700    0.0000000000    0.0106191600
  -0.0000023100   -0.0000000000    0.0000096300
   0.0000027900    0.0000000000   -0.0000053700
   0.0096088400    0.0000000000    0.0103114600
   0.0098196700    0.0000000000   -0.0106191600
  -0.0000023100   -0.0000000000   -0.0000096300
   0.0000027900   -0.0000000000    0.0000053700
   0.0096088400    0.0103114600   -0.0000000000
   0.0098196700   -0.0106191600    0.0000000000
   0.0096088400   -0.0103114600    0.0000000000
   0.0098196700    0.0106191600    0.0000000000
  -0.0000023100   -0.0000096300   -0.0000000000
   0.0000027900    0.0000053700   -0.0000000000
  -0.0000023100    0.0000096300    0.0000000000
   0.0000027900   -0.0000053700   -0.0000000000
