mesh: [    48,    48,    48 ]
nqpoint: 2600   
reciprocal_lattice:
- [   0.25801031,   0.00000000,   0.00000000 ] # a*
- [   0.00000000,   0.25801031,   0.00000000 ] # b*
- [   0.00000000,   0.00000000,   0.25801031 ] # c*
natom:   4      
lattice:
- [     3.875814114885902,     0.000000000000000,     0.000000000000000 ] # a
- [     0.000000000000000,     3.875814114885902,     0.000000000000000 ] # b
- [     0.000000000000000,     0.000000000000000,     3.875814114885902 ] # c
points:
- symbol: Al # 1
  coordinates: [  0.500000000000000,  0.500000000000000,  0.000000000000000 ]
  mass: 26.981539
- symbol: Al # 2
  coordinates: [  0.500000000000000,  0.000000000000000,  0.500000000000000 ]
  mass: 26.981539
- symbol: Al # 3
  coordinates: [  0.000000000000000,  0.500000000000000,  0.500000000000000 ]
  mass: 26.981539
- symbol: Al # 4
  coordinates: [  0.000000000000000,  0.000000000000000,  0.000000000000000 ]
  mass: 26.981539
phonon:
- q-position: [    0.0104167,    0.0104167,    0.0104167 ]
  weight: 8    
  band:
  - # 1
    frequency:     0.1834953180
  - # 2
    frequency:     0.1834953180
  - # 3
    frequency:     0.3941596924
  - # 4
    frequency:     7.6071508266
  - # 5
    frequency:     7.6071508266
  - # 6
    frequency:     7.6071508266
  - # 7
    frequency:     7.6124786693
  - # 8
    frequency:     7.6124786693
  - # 9
    frequency:     7.6124786693
  - # 10
    frequency:    11.8623169504
  - # 11
    frequency:    11.8623169504
  - # 12
    frequency:    11.8623169504

- q-position: [    0.0312500,    0.0104167,    0.0104167 ]
  weight: 24   
  band:
  - # 1
    frequency:     0.3694411386
  - # 2
    frequency:     0.4086348746
  - # 3
    frequency:     0.7160214712
  - # 4
    frequency:     7.5996313703
  - # 5
    frequency:     7.6049436544
  - # 6
    frequency:     7.6096624799
  - # 7
    frequency:     7.6096624799
  - # 8
    frequency:     7.6271919508
  - # 9
    frequency:     7.6271919508
  - # 10
    frequency:    11.8507158464
  - # 11
    frequency:    11.8552470985
  - # 12
    frequency:    11.8552470985

- q-position: [    0.0520833,    0.0104167,    0.0104167 ]
  weight: 24   
  band:
  - # 1
    frequency:     0.6251833596
  - # 2
    frequency:     0.6579618626
  - # 3
    frequency:     1.0845181720
  - # 4
    frequency:     7.5845943533
  - # 5
    frequency:     7.5898755394
  - # 6
    frequency:     7.6184001897
  - # 7
    frequency:     7.6184001897
  - # 8
    frequency:     7.6526903451
  - # 9
    frequency:     7.6526903451
  - # 10
    frequency:    11.8275153441
  - # 11
    frequency:    11.8411199627
  - # 12
    frequency:    11.8411199627

- q-position: [    0.0729167,    0.0104167,    0.0104167 ]
  weight: 24   
  band:
  - # 1
    frequency:     0.8852607047
  - # 2
    frequency:     0.9110897991
  - # 3
    frequency:     1.4676857726
  - # 4
    frequency:     7.5620436282
  - # 5
    frequency:     7.5672782155
  - # 6
    frequency:     7.6324509441
  - # 7
    frequency:     7.6324509441
  - # 8
    frequency:     7.6894649089
  - # 9
    frequency:     7.6894649089
  - # 10
    frequency:    11.7927189661
  - # 11
    frequency:    11.8199607708
  - # 12
    frequency:    11.8199607708

- q-position: [    0.0937500,    0.0104167,    0.0104167 ]
  weight: 24   
  band:
  - # 1
    frequency:     1.1439320547
  - # 2
    frequency:     1.1646619684
  - # 3
    frequency:     1.8562494720
  - # 4
    frequency:     7.5319851275
  - # 5
    frequency:     7.5371576706
  - # 6
    frequency:     7.6512142252
  - # 7
    frequency:     7.6512142252
  - # 8
    frequency:     7.7374968553
  - # 9
    frequency:     7.7374968553
  - # 10
    frequency:    11.7463322715
  - # 11
    frequency:    11.7918075944
  - # 12
    frequency:    11.7918075944

- q-position: [    0.1145833,    0.0104167,    0.0104167 ]
  weight: 24   
  band:
  - # 1
    frequency:     1.4004730605
  - # 2
    frequency:     1.4174810578
  - # 3
    frequency:     2.2462335901
  - # 4
    frequency:     7.4944270451
  - # 5
    frequency:     7.4995221703
  - # 6
    frequency:     7.6741935639
  - # 7
    frequency:     7.6741935639
  - # 8
    frequency:     7.7964815096
  - # 9
    frequency:     7.7964815096
  - # 10
    frequency:    11.6883631830
  - # 11
    frequency:    11.7567116231
  - # 12
    frequency:    11.7567116231

- q-position: [    0.1354167,    0.0104167,    0.0104167 ]
  weight: 24   
  band:
  - # 1
    frequency:     1.6546826012
  - # 2
    frequency:     1.6688819546
  - # 3
    frequency:     2.6355273504
  - # 4
    frequency:     7.4493800757
  - # 5
    frequency:     7.4543824932
  - # 6
    frequency:     7.7008956757
  - # 7
    frequency:     7.7008956757
  - # 8
    frequency:     7.8659485425
  - # 9
    frequency:     7.8659485425
  - # 10
    frequency:    11.6188224154
  - # 11
    frequency:    11.7147375298
  - # 12
    frequency:    11.7147375298

- q-position: [    0.1562500,    0.0104167,    0.0104167 ]
  weight: 24   
  band:
  - # 1
    frequency:     1.9063810546
  - # 2
    frequency:     1.9183845326
  - # 3
    frequency:     3.0227985493
  - # 4
    frequency:     7.3968577069
  - # 5
    frequency:     7.4017522208
  - # 6
    frequency:     7.7307962516
  - # 7
    frequency:     7.7307962516
  - # 8
    frequency:     7.9453184570
  - # 9
    frequency:     7.9453184570
  - # 10
    frequency:    11.5377240018
  - # 11
    frequency:    11.6659639227
  - # 12
    frequency:    11.6659639227

- q-position: [    0.1770833,    0.0104167,    0.0104167 ]
  weight: 24   
  band:
  - # 1
    frequency:     2.1553573202
  - # 2
    frequency:     2.1655893486
  - # 3
    frequency:     3.4070841048
  - # 4
    frequency:     7.3368765622
  - # 5
    frequency:     7.3416480762
  - # 6
    frequency:     7.7633333046
  - # 7
    frequency:     7.7633333046
  - # 8
    frequency:     8.0339334203
  - # 9
    frequency:     8.0339334203
  - # 10
    frequency:    11.4450859091
  - # 11
    frequency:    11.6104838865
  - # 12
    frequency:    11.6104838865

- q-position: [    0.1979167,    0.0104167,    0.0104167 ]
  weight: 24   
  band:
  - # 1
    frequency:     2.4013747555
  - # 2
    frequency:     2.4101391566
  - # 3
    frequency:     3.7876159056
  - # 4
    frequency:     7.2694567897
  - # 5
    frequency:     7.2740903078
  - # 6
    frequency:     7.7979114146
  - # 7
    frequency:     7.7979114146
  - # 8
    frequency:     8.1310781148
  - # 9
    frequency:     8.1310781148
  - # 10
    frequency:    11.3409307360
  - # 11
    frequency:    11.5484056061
  - # 12
    frequency:    11.5484056061

- q-position: [    0.2187500,    0.0104167,    0.0104167 ]
  weight: 24   
  band:
  - # 1
    frequency:     2.6441817880
  - # 2
    frequency:     2.6517026765
  - # 3
    frequency:     4.1637394410
  - # 4
    frequency:     7.1946224908
  - # 5
    frequency:     7.1991031135
  - # 6
    frequency:     7.8339103762
  - # 7
    frequency:     7.8339103762
  - # 8
    frequency:     8.2359962090
  - # 9
    frequency:     8.2359962090
  - # 10
    frequency:    11.2252864852
  - # 11
    frequency:    11.4798530740
  - # 12
    frequency:    11.4798530740

- q-position: [    0.2395833,    0.0104167,    0.0104167 ]
  weight: 24   
  band:
  - # 1
    frequency:     2.8835199986
  - # 2
    frequency:     2.8899671265
  - # 3
    frequency:     4.5348728630
  - # 4
    frequency:     7.1124021850
  - # 5
    frequency:     7.1167150987
  - # 6
    frequency:     7.8706955623
  - # 7
    frequency:     7.8706955623
  - # 8
    frequency:     8.3479043742
  - # 9
    frequency:     8.3479043742
  - # 10
    frequency:    11.0981873980
  - # 11
    frequency:    11.4049668773
  - # 12
    frequency:    11.4049668773

- q-position: [    0.2604167,    0.0104167,    0.0104167 ]
  weight: 24   
  band:
  - # 1
    frequency:     3.1191296388
  - # 2
    frequency:     3.1246346056
  - # 3
    frequency:     4.9004851657
  - # 4
    frequency:     7.0228293033
  - # 5
    frequency:     7.0269597636
  - # 6
    frequency:     7.9076287690
  - # 7
    frequency:     7.9076287690
  - # 8
    frequency:     8.4660044787
  - # 9
    frequency:     8.4660044787
  - # 10
    frequency:    10.9596748436
  - # 11
    frequency:    11.3239050604
  - # 12
    frequency:    11.3239050604

- q-position: [    0.2812500,    0.0104167,    0.0104167 ]
  weight: 24   
  band:
  - # 1
    frequency:     3.3507533639
  - # 2
    frequency:     3.3554203084
  - # 3
    frequency:     5.2600840213
  - # 4
    frequency:     6.9259427054
  - # 5
    frequency:     6.9298760122
  - # 6
    frequency:     7.9440788994
  - # 7
    frequency:     7.9440788994
  - # 8
    frequency:     8.5894941638
  - # 9
    frequency:     8.5894941638
  - # 10
    frequency:    10.8097982501
  - # 11
    frequency:    11.2368440613
  - # 12
    frequency:    11.2368440613

- q-position: [    0.3020833,    0.0104167,    0.0104167 ]
  weight: 24   
  band:
  - # 1
    frequency:     3.5781388064
  - # 2
    frequency:     3.5820516635
  - # 3
    frequency:     5.6132087650
  - # 4
    frequency:     6.8217872132
  - # 5
    frequency:     6.8255086775
  - # 6
    frequency:     7.9794321230
  - # 7
    frequency:     7.9794321230
  - # 8
    frequency:     8.7175758800
  - # 9
    frequency:     8.7175758800
  - # 10
    frequency:    10.6486160673
  - # 11
    frequency:    11.1439797170
  - # 12
    frequency:    11.1439797170

- q-position: [    0.3229167,    0.0104167,    0.0104167 ]
  weight: 24   
  band:
  - # 1
    frequency:     3.8010403962
  - # 2
    frequency:     3.8042679499
  - # 3
    frequency:     5.9594262401
  - # 4
    frequency:     6.7104141544
  - # 5
    frequency:     6.7139090555
  - # 6
    frequency:     8.0131012992
  - # 7
    frequency:     8.0131012992
  - # 8
    frequency:     8.8494644514
  - # 9
    frequency:     8.8494644514
  - # 10
    frequency:    10.4761967488
  - # 11
    frequency:    11.0455283331
  - # 12
    frequency:    11.0455283331

- q-position: [    0.3437500,    0.0104167,    0.0104167 ]
  weight: 24   
  band:
  - # 1
    frequency:     4.0192206773
  - # 2
    frequency:     4.0218201630
  - # 3
    frequency:     6.2983282843
  - # 4
    frequency:     6.5918819089
  - # 5
    frequency:     6.5951354407
  - # 6
    frequency:     8.0445345387
  - # 7
    frequency:     8.0445345387
  - # 8
    frequency:     8.9843932528
  - # 9
    frequency:     8.9843932528
  - # 10
    frequency:    10.2926197422
  - # 11
    frequency:    10.9417278145
  - # 12
    frequency:    10.9417278145

- q-position: [    0.3645833,    0.0104167,    0.0104167 ]
  weight: 24   
  band:
  - # 1
    frequency:     4.2324512773
  - # 2
    frequency:     4.2344710025
  - # 3
    frequency:     6.4662564527
  - # 4
    frequency:     6.4692536575
  - # 5
    frequency:     6.6295301739
  - # 6
    frequency:     8.0732228434
  - # 7
    frequency:     8.0732228434
  - # 8
    frequency:     9.1216191090
  - # 9
    frequency:     9.1216191090
  - # 10
    frequency:    10.0979764763
  - # 11
    frequency:    10.8328388534
  - # 12
    frequency:    10.8328388534

- q-position: [    0.3854167,    0.0104167,    0.0104167 ]
  weight: 24   
  band:
  - # 1
    frequency:     4.4405136237
  - # 2
    frequency:     4.4419949128
  - # 3
    frequency:     6.3336118909
  - # 4
    frequency:     6.3363375789
  - # 5
    frequency:     6.9526696296
  - # 6
    frequency:     8.0987068012
  - # 7
    frequency:     8.0987068012
  - # 8
    frequency:     9.2604260354
  - # 9
    frequency:     9.2604260354
  - # 10
    frequency:     9.8923713332
  - # 11
    frequency:    10.7191461768
  - # 12
    frequency:    10.7191461768

- q-position: [    0.4062500,    0.0104167,    0.0104167 ]
  weight: 24   
  band:
  - # 1
    frequency:     4.6431994693
  - # 2
    frequency:     4.6441781299
  - # 3
    frequency:     6.1940309744
  - # 4
    frequency:     6.1964696268
  - # 5
    frequency:     7.2674061452
  - # 6
    frequency:     8.1205823432
  - # 7
    frequency:     8.1205823432
  - # 8
    frequency:     9.4001279318
  - # 9
    frequency:     9.4001279318
  - # 10
    frequency:     9.6759225960
  - # 11
    frequency:    10.6009598702
  - # 12
    frequency:    10.6009598702

- q-position: [    0.4270833,    0.0104167,    0.0104167 ]
  weight: 24   
  band:
  - # 1
    frequency:     4.8403112654
  - # 2
    frequency:     4.8408187120
  - # 3
    frequency:     6.0476055935
  - # 4
    frequency:     6.0497412463
  - # 5
    frequency:     7.5734204928
  - # 6
    frequency:     8.1385055856
  - # 7
    frequency:     8.1385055856
  - # 8
    frequency:     9.4487633606
  - # 9
    frequency:     9.5400702721
  - # 10
    frequency:     9.5400702721
  - # 11
    frequency:    10.4786168629
  - # 12
    frequency:    10.4786168629

- q-position: [    0.4479167,    0.0104167,    0.0104167 ]
  weight: 24   
  band:
  - # 1
    frequency:     5.0316624088
  - # 2
    frequency:     5.0317265364
  - # 3
    frequency:     5.8944372438
  - # 4
    frequency:     5.8962533483
  - # 5
    frequency:     7.8704143106
  - # 6
    frequency:     8.1521967909
  - # 7
    frequency:     8.1521967909
  - # 8
    frequency:     9.2110424036
  - # 9
    frequency:     9.6796305243
  - # 10
    frequency:     9.6796305243
  - # 11
    frequency:    10.3524829582
  - # 12
    frequency:    10.3524829582

- q-position: [    0.4687500,    0.0104167,    0.0104167 ]
  weight: 24   
  band:
  - # 1
    frequency:     5.2167232521
  - # 2
    frequency:     5.2170773813
  - # 3
    frequency:     5.7346374567
  - # 4
    frequency:     5.7361167127
  - # 5
    frequency:     8.1581097146
  - # 6
    frequency:     8.1614434822
  - # 7
    frequency:     8.1614434822
  - # 8
    frequency:     8.9629249983
  - # 9
    frequency:     9.8182148644
  - # 10
    frequency:     9.8182148644
  - # 11
    frequency:    10.2229579490
  - # 12
    frequency:    10.2229579490

- q-position: [    0.4895833,    0.0104167,    0.0104167 ]
  weight: 24   
  band:
  - # 1
    frequency:     5.3956421854
  - # 2
    frequency:     5.3963917940
  - # 3
    frequency:     5.5683281918
  - # 4
    frequency:     5.5694523470
  - # 5
    frequency:     8.1661027448
  - # 6
    frequency:     8.1661027448
  - # 7
    frequency:     8.4362488944
  - # 8
    frequency:     8.7045936710
  - # 9
    frequency:     9.9552079032
  - # 10
    frequency:     9.9552079032
  - # 11
    frequency:    10.0905271858
  - # 12
    frequency:    10.0905271858

- q-position: [    0.0312500,    0.0312500,    0.0104167 ]
  weight: 24   
  band:
  - # 1
    frequency:     0.4120565176
  - # 2
    frequency:     0.5405456484
  - # 3
    frequency:     0.9729430349
  - # 4
    frequency:     7.6021261017
  - # 5
    frequency:     7.6021261017
  - # 6
    frequency:     7.6030988846
  - # 7
    frequency:     7.6196327432
  - # 8
    frequency:     7.6196327432
  - # 9
    frequency:     7.6508049817
  - # 10
    frequency:    11.8437239353
  - # 11
    frequency:    11.8437239353
  - # 12
    frequency:    11.8481770723

- q-position: [    0.0520833,    0.0312500,    0.0104167 ]
  weight: 48   
  band:
  - # 1
    frequency:     0.5954095576
  - # 2
    frequency:     0.7468012693
  - # 3
    frequency:     1.2954333760
  - # 4
    frequency:     7.5870549521
  - # 5
    frequency:     7.6036792139
  - # 6
    frequency:     7.6045166682
  - # 7
    frequency:     7.6107961995
  - # 8
    frequency:     7.6451164207
  - # 9
    frequency:     7.6841134808
  - # 10
    frequency:    11.8206792897
  - # 11
    frequency:    11.8297528717
  - # 12
    frequency:    11.8340495923

- q-position: [    0.0729167,    0.0312500,    0.0104167 ]
  weight: 48   
  band:
  - # 1
    frequency:     0.8362350329
  - # 2
    frequency:     0.9772238449
  - # 3
    frequency:     1.6434792774
  - # 4
    frequency:     7.5644522999
  - # 5
    frequency:     7.5818484729
  - # 6
    frequency:     7.6111740391
  - # 7
    frequency:     7.6247272805
  - # 8
    frequency:     7.6818869179
  - # 9
    frequency:     7.7269321658
  - # 10
    frequency:    11.7861166381
  - # 11
    frequency:    11.8088282642
  - # 12
    frequency:    11.8128898950

- q-position: [    0.0937500,    0.0312500,    0.0104167 ]
  weight: 48   
  band:
  - # 1
    frequency:     1.0922157435
  - # 2
    frequency:     1.2171990653
  - # 3
    frequency:     2.0048869116
  - # 4
    frequency:     7.5343231838
  - # 5
    frequency:     7.5516354416
  - # 6
    frequency:     7.6249350015
  - # 7
    frequency:     7.6433213326
  - # 8
    frequency:     7.7299226470
  - # 9
    frequency:     7.7793004711
  - # 10
    frequency:    11.7400414798
  - # 11
    frequency:    11.7809887537
  - # 12
    frequency:    11.7847360656

- q-position: [    0.1145833,    0.0312500,    0.0104167 ]
  weight: 48   
  band:
  - # 1
    frequency:     1.3511976849
  - # 2
    frequency:     1.4610817785
  - # 3
    frequency:     2.3736187938
  - # 4
    frequency:     7.4966745740
  - # 5
    frequency:     7.5138875908
  - # 6
    frequency:     7.6442545938
  - # 7
    frequency:     7.6660839583
  - # 8
    frequency:     7.7889164709
  - # 9
    frequency:     7.8411377496
  - # 10
    frequency:    11.6824616751
  - # 11
    frequency:    11.7462862860
  - # 12
    frequency:    11.7496393122

- q-position: [    0.1354167,    0.0312500,    0.0104167 ]
  weight: 48   
  band:
  - # 1
    frequency:     1.6093173848
  - # 2
    frequency:     1.7062097187
  - # 3
    frequency:     2.7460102185
  - # 4
    frequency:     7.4515155843
  - # 5
    frequency:     7.4686179237
  - # 6
    frequency:     7.6684048726
  - # 7
    frequency:     7.6925230493
  - # 8
    frequency:     7.8583963984
  - # 9
    frequency:     7.9122233074
  - # 10
    frequency:    11.6133878894
  - # 11
    frequency:    11.7047864736
  - # 12
    frequency:    11.7076643313

- q-position: [    0.1562500,    0.0312500,    0.0104167 ]
  weight: 48   
  band:
  - # 1
    frequency:     1.8651409777
  - # 2
    frequency:     1.9510939128
  - # 3
    frequency:     3.1195972810
  - # 4
    frequency:     7.3988577341
  - # 5
    frequency:     7.4158427402
  - # 6
    frequency:     7.6966481603
  - # 7
    frequency:     7.7221148604
  - # 8
    frequency:     7.9377817895
  - # 9
    frequency:     7.9922073168
  - # 10
    frequency:    11.5328341379
  - # 11
    frequency:    11.6565690439
  - # 12
    frequency:    11.6588897617

- q-position: [    0.1770833,    0.0312500,    0.0104167 ]
  weight: 48   
  band:
  - # 1
    frequency:     2.1180279165
  - # 2
    frequency:     2.1947758133
  - # 3
    frequency:     3.4926070112
  - # 4
    frequency:     7.3387152576
  - # 5
    frequency:     7.3555819980
  - # 6
    frequency:     7.7282417661
  - # 7
    frequency:     7.7542975868
  - # 8
    frequency:     8.0264139572
  - # 9
    frequency:     8.0806296211
  - # 10
    frequency:    11.4408184243
  - # 11
    frequency:    11.6017283743
  - # 12
    frequency:    11.6034087257

- q-position: [    0.1979167,    0.0312500,    0.0104167 ]
  weight: 48   
  band:
  - # 1
    frequency:     2.3676136952
  - # 2
    frequency:     2.4365651510
  - # 3
    frequency:     3.8636922324
  - # 4
    frequency:     7.2711054596
  - # 5
    frequency:     7.2878597159
  - # 6
    frequency:     7.7624417022
  - # 7
    frequency:     7.7884757358
  - # 8
    frequency:     8.1235768915
  - # 9
    frequency:     8.1769405138
  - # 10
    frequency:    11.3373634668
  - # 11
    frequency:    11.5403741087
  - # 12
    frequency:    11.5413294561

- q-position: [    0.2187500,    0.0312500,    0.0104167 ]
  weight: 48   
  band:
  - # 1
    frequency:     2.6136314408
  - # 2
    frequency:     2.6759206913
  - # 3
    frequency:     4.2317809407
  - # 4
    frequency:     7.1960491168
  - # 5
    frequency:     7.2127044106
  - # 6
    frequency:     7.7985070574
  - # 7
    frequency:     7.8240288383
  - # 8
    frequency:     8.2285136680
  - # 9
    frequency:     8.2805209674
  - # 10
    frequency:    11.2224975011
  - # 11
    frequency:    11.4726318555
  - # 12
    frequency:    11.4727760066

- q-position: [    0.2395833,    0.0312500,    0.0104167 ]
  weight: 48   
  band:
  - # 1
    frequency:     2.8558476110
  - # 2
    frequency:     2.9123911314
  - # 3
    frequency:     4.5959864352
  - # 4
    frequency:     7.1135709255
  - # 5
    frequency:     7.1301495558
  - # 6
    frequency:     7.8357054531
  - # 7
    frequency:     7.8603218472
  - # 8
    frequency:     8.3404404297
  - # 9
    frequency:     8.3907011398
  - # 10
    frequency:    11.0962551529
  - # 11
    frequency:    11.3978890440
  - # 12
    frequency:    11.3986439627

- q-position: [    0.2604167,    0.0312500,    0.0104167 ]
  weight: 48   
  band:
  - # 1
    frequency:     3.0940389846
  - # 2
    frequency:     3.1455837495
  - # 3
    frequency:     4.9555518834
  - # 4
    frequency:     7.0236999968
  - # 5
    frequency:     7.0402340517
  - # 6
    frequency:     7.8733194563
  - # 7
    frequency:     7.8967160047
  - # 8
    frequency:     8.4585585598
  - # 9
    frequency:     8.5067766887
  - # 10
    frequency:    10.9586783681
  - # 11
    frequency:    11.3168267201
  - # 12
    frequency:    11.3185703671

- q-position: [    0.2812500,    0.0312500,    0.0104167 ]
  weight: 48   
  band:
  - # 1
    frequency:     3.3279852389
  - # 2
    frequency:     3.3751468510
  - # 3
    frequency:     5.3098152127
  - # 4
    frequency:     6.9264703997
  - # 5
    frequency:     6.9430026886
  - # 6
    frequency:     7.9106536034
  - # 7
    frequency:     7.9325795472
  - # 8
    frequency:     8.5820652364
  - # 9
    frequency:     8.6280227930
  - # 10
    frequency:    10.8098173931
  - # 11
    frequency:    11.2297656217
  - # 12
    frequency:    11.2325895157

- q-position: [    0.3020833,    0.0312500,    0.0104167 ]
  weight: 48   
  band:
  - # 1
    frequency:     3.5574674628
  - # 2
    frequency:     3.6007595014
  - # 3
    frequency:     5.6581863620
  - # 4
    frequency:     6.8219217532
  - # 5
    frequency:     6.8385065954
  - # 6
    frequency:     7.9470416550
  - # 7
    frequency:     7.9672978907
  - # 8
    frequency:     8.7101624418
  - # 9
    frequency:     8.7537059656
  - # 10
    frequency:    10.6497317913
  - # 11
    frequency:    11.1369017992
  - # 12
    frequency:    11.1408993574

- q-position: [    0.3229167,    0.0312500,    0.0104167 ]
  weight: 48   
  band:
  - # 1
    frequency:     3.7822688369
  - # 2
    frequency:     3.8221253023
  - # 3
    frequency:     6.0001322323
  - # 4
    frequency:     6.7100998639
  - # 5
    frequency:     6.7268036600
  - # 6
    frequency:     7.9818537455
  - # 7
    frequency:     8.0002830850
  - # 8
    frequency:     8.8420644841
  - # 9
    frequency:     8.8830938200
  - # 10
    frequency:    10.4784914886
  - # 11
    frequency:    11.0384518780
  - # 12
    frequency:    11.0437184044

- q-position: [    0.3437500,    0.0312500,    0.0104167 ]
  weight: 48   
  band:
  - # 1
    frequency:     4.0021759839
  - # 2
    frequency:     4.0389684999
  - # 3
    frequency:     6.3351665336
  - # 4
    frequency:     6.5910573971
  - # 5
    frequency:     6.6079589197
  - # 6
    frequency:     8.0145031695
  - # 7
    frequency:     8.0309824184
  - # 8
    frequency:     8.9770041024
  - # 9
    frequency:     9.0154629821
  - # 10
    frequency:    10.2961778358
  - # 11
    frequency:    10.9346542632
  - # 12
    frequency:    10.9412868753

- q-position: [    0.3645833,    0.0312500,    0.0104167 ]
  weight: 48   
  band:
  - # 1
    frequency:     4.2169803987
  - # 2
    frequency:     4.2510314811
  - # 3
    frequency:     6.4648545669
  - # 4
    frequency:     6.4820449254
  - # 5
    frequency:     6.6628428005
  - # 6
    frequency:     8.0444526209
  - # 7
    frequency:     8.0588861102
  - # 8
    frequency:     9.1142372313
  - # 9
    frequency:     9.1501053205
  - # 10
    frequency:    10.1028846785
  - # 11
    frequency:    10.8257704722
  - # 12
    frequency:    10.8338679415

- q-position: [    0.3854167,    0.0312500,    0.0104167 ]
  weight: 48   
  band:
  - # 1
    frequency:     4.4264797434
  - # 2
    frequency:     4.4580731091
  - # 3
    frequency:     6.3315598158
  - # 4
    frequency:     6.3491420933
  - # 5
    frequency:     6.9827494855
  - # 6
    frequency:     8.0712197707
  - # 7
    frequency:     8.0835340733
  - # 8
    frequency:     9.2530464684
  - # 9
    frequency:     9.2863326052
  - # 10
    frequency:     9.8987194267
  - # 11
    frequency:    10.7120866882
  - # 12
    frequency:    10.7217491575

- q-position: [    0.4062500,    0.0312500,    0.0104167 ]
  weight: 48   
  band:
  - # 1
    frequency:     4.6304789423
  - # 2
    frequency:     4.6598675736
  - # 3
    frequency:     6.1912504513
  - # 4
    frequency:     6.2093390627
  - # 5
    frequency:     7.2945064320
  - # 6
    frequency:     8.0943821187
  - # 7
    frequency:     8.1045217541
  - # 8
    frequency:     9.3927431440
  - # 9
    frequency:     9.4234795083
  - # 10
    frequency:     9.6838041154
  - # 11
    frequency:    10.5939158049
  - # 12
    frequency:    10.6052442987

- q-position: [    0.4270833,    0.0312500,    0.0104167 ]
  weight: 48   
  band:
  - # 1
    frequency:     4.8287910744
  - # 2
    frequency:     4.8562035504
  - # 3
    frequency:     6.0440132065
  - # 4
    frequency:     6.0627330823
  - # 5
    frequency:     7.5977622654
  - # 6
    frequency:     8.1135810901
  - # 7
    frequency:     8.1215050758
  - # 8
    frequency:     9.4582764506
  - # 9
    frequency:     9.5326673553
  - # 10
    frequency:     9.5609041820
  - # 11
    frequency:    10.4716008977
  - # 12
    frequency:    10.4846963705

- q-position: [    0.4479167,    0.0312500,    0.0104167 ]
  weight: 48   
  band:
  - # 1
    frequency:     5.0212380858
  - # 2
    frequency:     5.0468835423
  - # 3
    frequency:     5.8899446957
  - # 4
    frequency:     5.9094304407
  - # 5
    frequency:     7.8921923982
  - # 6
    frequency:     8.1285253749
  - # 7
    frequency:     8.1342045207
  - # 8
    frequency:     9.2222908368
  - # 9
    frequency:     9.6721829040
  - # 10
    frequency:     9.6979825187
  - # 11
    frequency:    10.3455241642
  - # 12
    frequency:    10.3604849638

- q-position: [    0.4687500,    0.0312500,    0.0104167 ]
  weight: 48   
  band:
  - # 1
    frequency:     5.2076513441
  - # 2
    frequency:     5.2317233147
  - # 3
    frequency:     5.7291517482
  - # 4
    frequency:     5.7495469451
  - # 5
    frequency:     8.1389935193
  - # 6
    frequency:     8.1424083896
  - # 7
    frequency:     8.1774974403
  - # 8
    frequency:     8.9760193854
  - # 9
    frequency:     9.8106478856
  - # 10
    frequency:     9.8340694552
  - # 11
    frequency:    10.2161480942
  - # 12
    frequency:    10.2330573080

- q-position: [    0.4895833,    0.0312500,    0.0104167 ]
  weight: 48   
  band:
  - # 1
    frequency:     5.3878720633
  - # 2
    frequency:     5.4105513728
  - # 3
    frequency:     5.5617516163
  - # 4
    frequency:     5.5832084435
  - # 5
    frequency:     8.1448357824
  - # 6
    frequency:     8.1459752752
  - # 7
    frequency:     8.4534018754
  - # 8
    frequency:     8.7196529038
  - # 9
    frequency:     9.9470761057
  - # 10
    frequency:     9.9679086059
  - # 11
    frequency:    10.0846076897
  - # 12
    frequency:    10.1032679292

- q-position: [    0.0520833,    0.0520833,    0.0104167 ]
  weight: 24   
  band:
  - # 1
    frequency:     0.6647133057
  - # 2
    frequency:     0.9074635267
  - # 3
    frequency:     1.5820190000
  - # 4
    frequency:     7.5949056975
  - # 5
    frequency:     7.5955891923
  - # 6
    frequency:     7.5955891923
  - # 7
    frequency:     7.6299718512
  - # 8
    frequency:     7.6299718512
  - # 9
    frequency:     7.7260885264
  - # 10
    frequency:    11.8070202888
  - # 11
    frequency:    11.8070202888
  - # 12
    frequency:    11.8199214324

- q-position: [    0.0729167,    0.0520833,    0.0104167 ]
  weight: 48   
  band:
  - # 1
    frequency:     0.8342432604
  - # 2
    frequency:     1.1051111379
  - # 3
    frequency:     1.8999389996
  - # 4
    frequency:     7.5727811896
  - # 5
    frequency:     7.5933591864
  - # 6
    frequency:     7.6072632365
  - # 7
    frequency:     7.6092804598
  - # 8
    frequency:     7.6667352185
  - # 9
    frequency:     7.7769353428
  - # 10
    frequency:    11.7729255340
  - # 11
    frequency:    11.7865646461
  - # 12
    frequency:    11.7987607376

- q-position: [    0.0937500,    0.0520833,    0.0104167 ]
  weight: 48   
  band:
  - # 1
    frequency:     1.0555010859
  - # 2
    frequency:     1.3223501727
  - # 3
    frequency:     2.2349741563
  - # 4
    frequency:     7.5423754117
  - # 5
    frequency:     7.5770005792
  - # 6
    frequency:     7.5987967456
  - # 7
    frequency:     7.6275360246
  - # 8
    frequency:     7.7147794102
  - # 9
    frequency:     7.8363081916
  - # 10
    frequency:    11.7274738900
  - # 11
    frequency:    11.7593520391
  - # 12
    frequency:    11.7706056199

- q-position: [    0.1145833,    0.0520833,    0.0104167 ]
  weight: 48   
  band:
  - # 1
    frequency:     1.2988848726
  - # 2
    frequency:     1.5500713247
  - # 3
    frequency:     2.5804097520
  - # 4
    frequency:     7.5043765056
  - # 5
    frequency:     7.5391974006
  - # 6
    frequency:     7.6107179368
  - # 7
    frequency:     7.6498657650
  - # 8
    frequency:     7.7737923722
  - # 9
    frequency:     7.9039447298
  - # 10
    frequency:    11.6706729617
  - # 11
    frequency:    11.7254357821
  - # 12
    frequency:    11.7355073244

- q-position: [    0.1354167,    0.0520833,    0.0104167 ]
  weight: 48   
  band:
  - # 1
    frequency:     1.5509389270
  - # 2