<?xml version="1.0" encoding="ISO-8859-1"?>
<modeling>
 <generator>
  <i name="program" type="string">vasp</i>
  <i name="version" type="string">4.6.28 </i>
  <i name="subversion" type="string">25Jul05 complex  parallel</i>
  <i name="platform" type="string">LinuxIFC</i>
  <i name="date" type="string">2016 11 12</i>
  <i name="time" type="string">15:04:56</i>
 </generator>
 <incar>
  <i type="string" name="PREC">accurate</i>
  <i type="int" name="IALGO">    38</i>
  <i type="logical" name="ADDGRID"> T  </i>
  <i name="EDIFF">      0.00000001</i>
  <i type="int" name="IBRION">    -1</i>
  <i name="ENCUT">    750.00000000</i>
  <i type="logical" name="LREAL"> F  </i>
  <i type="int" name="ISMEAR">     0</i>
  <i name="SIGMA">      0.01000000</i>
  <i type="logical" name="LWAVE"> F  </i>
  <i type="logical" name="LCHARG"> F  </i>
 </incar>
 <kpoints>
  <generation param="Gamma">
   <v type="int" name="divisions">      12      12      12</v>
   <v name="usershift">      0.00000000      0.00000000      0.00000000</v>
   <v name="genvec1">      0.08333333      0.00000000      0.00000000</v>
   <v name="genvec2">      0.00000000      0.08333333      0.00000000</v>
   <v name="genvec3">      0.00000000      0.00000000      0.08333333</v>
   <v name="shift">      0.00000000      0.00000000      0.00000000</v>
  </generation>
  <varray name="kpointlist" >
   <v>       0.00000000      0.00000000      0.00000000</v>
   <v>       0.08333333      0.00000000      0.00000000</v>
   <v>       0.16666667      0.00000000      0.00000000</v>
   <v>       0.25000000      0.00000000      0.00000000</v>
   <v>       0.33333333      0.00000000      0.00000000</v>
   <v>       0.41666667      0.00000000      0.00000000</v>
   <v>       0.50000000      0.00000000      0.00000000</v>
   <v>       0.00000000      0.08333333      0.00000000</v>
   <v>       0.08333333      0.08333333      0.00000000</v>
   <v>       0.16666667      0.08333333      0.00000000</v>
   <v>       0.25000000      0.08333333      0.00000000</v>
   <v>       0.33333333      0.08333333      0.00000000</v>
   <v>       0.41666667      0.08333333      0.00000000</v>
   <v>       0.50000000      0.08333333      0.00000000</v>
   <v>       0.00000000      0.16666667      0.00000000</v>
   <v>       0.08333333      0.16666667      0.00000000</v>
   <v>       0.16666667      0.16666667      0.00000000</v>
   <v>       0.25000000      0.16666667      0.00000000</v>
   <v>       0.33333333      0.16666667      0.00000000</v>
   <v>       0.41666667      0.16666667      0.00000000</v>
   <v>       0.50000000      0.16666667      0.00000000</v>
   <v>       0.00000000      0.25000000      0.00000000</v>
   <v>       0.08333333      0.25000000      0.00000000</v>
   <v>       0.16666667      0.25000000      0.00000000</v>
   <v>       0.25000000      0.25000000      0.00000000</v>
   <v>       0.33333333      0.25000000      0.00000000</v>
   <v>       0.41666667      0.25000000      0.00000000</v>
   <v>       0.50000000      0.25000000      0.00000000</v>
   <v>       0.00000000      0.33333333      0.00000000</v>
   <v>       0.08333333      0.33333333      0.00000000</v>
   <v>       0.16666667      0.33333333      0.00000000</v>
   <v>       0.25000000      0.33333333      0.00000000</v>
   <v>       0.33333333      0.33333333      0.00000000</v>
   <v>       0.41666667      0.33333333      0.00000000</v>
   <v>       0.50000000      0.33333333      0.00000000</v>
   <v>       0.00000000      0.41666667      0.00000000</v>
   <v>       0.08333333      0.41666667      0.00000000</v>
   <v>       0.16666667      0.41666667      0.00000000</v>
   <v>       0.25000000      0.41666667      0.00000000</v>
   <v>       0.33333333      0.41666667      0.00000000</v>
   <v>       0.41666667      0.41666667      0.00000000</v>
   <v>       0.50000000      0.41666667      0.00000000</v>
   <v>       0.00000000      0.50000000      0.00000000</v>
   <v>       0.08333333      0.50000000      0.00000000</v>
   <v>       0.16666667      0.50000000      0.00000000</v>
   <v>       0.25000000      0.50000000      0.00000000</v>
   <v>       0.33333333      0.50000000      0.00000000</v>
   <v>       0.41666667      0.50000000      0.00000000</v>
   <v>       0.50000000      0.50000000      0.00000000</v>
   <v>       0.00000000      0.08333333      0.08333333</v>
   <v>       0.08333333      0.08333333      0.08333333</v>
   <v>       0.16666667      0.08333333      0.08333333</v>
   <v>       0.25000000      0.08333333      0.08333333</v>
   <v>       0.33333333      0.08333333      0.08333333</v>
   <v>       0.41666667      0.08333333      0.08333333</v>
   <v>       0.50000000      0.08333333      0.08333333</v>
   <v>       0.00000000      0.16666667      0.08333333</v>
   <v>       0.08333333      0.16666667      0.08333333</v>
   <v>       0.16666667      0.16666667      0.08333333</v>
   <v>       0.25000000      0.16666667      0.08333333</v>
   <v>       0.33333333      0.16666667      0.08333333</v>
   <v>       0.41666667      0.16666667      0.08333333</v>
   <v>       0.50000000      0.16666667      0.08333333</v>
   <v>       0.00000000      0.25000000      0.08333333</v>
   <v>       0.08333333      0.25000000      0.08333333</v>
   <v>       0.16666667      0.25000000      0.08333333</v>
   <v>       0.25000000      0.25000000      0.08333333</v>
   <v>       0.33333333      0.25000000      0.08333333</v>
   <v>       0.41666667      0.25000000      0.08333333</v>
   <v>       0.50000000      0.25000000      0.08333333</v>
   <v>       0.00000000      0.33333333      0.08333333</v>
   <v>       0.08333333      0.33333333      0.08333333</v>
   <v>       0.16666667      0.33333333      0.08333333</v>
   <v>       0.25000000      0.33333333      0.08333333</v>
   <v>       0.33333333      0.33333333      0.08333333</v>
   <v>       0.41666667      0.33333333      0.08333333</v>
   <v>       0.50000000      0.33333333      0.08333333</v>
   <v>       0.00000000      0.41666667      0.08333333</v>
   <v>       0.08333333      0.41666667      0.08333333</v>
   <v>       0.16666667      0.41666667      0.08333333</v>
   <v>       0.25000000      0.41666667      0.08333333</v>
   <v>       0.33333333      0.41666667      0.08333333</v>
   <v>       0.41666667      0.41666667      0.08333333</v>
   <v>       0.50000000      0.41666667      0.08333333</v>
   <v>       0.00000000      0.50000000      0.08333333</v>
   <v>       0.08333333      0.50000000      0.08333333</v>
   <v>       0.16666667      0.50000000      0.08333333</v>
   <v>       0.25000000      0.50000000      0.08333333</v>
   <v>       0.33333333      0.50000000      0.08333333</v>
   <v>       0.41666667      0.50000000      0.08333333</v>
   <v>       0.50000000      0.50000000      0.08333333</v>
   <v>       0.00000000      0.16666667      0.16666667</v>
   <v>       0.08333333      0.16666667      0.16666667</v>
   <v>       0.16666667      0.16666667      0.16666667</v>
   <v>       0.25000000      0.16666667      0.16666667</v>
   <v>       0.33333333      0.16666667      0.16666667</v>
   <v>       0.41666667      0.16666667      0.16666667</v>
   <v>       0.50000000      0.16666667      0.16666667</v>
   <v>       0.00000000      0.25000000      0.16666667</v>
   <v>       0.08333333      0.25000000      0.16666667</v>
   <v>       0.16666667      0.25000000      0.16666667</v>
   <v>       0.25000000      0.25000000      0.16666667</v>
   <v>       0.33333333      0.25000000      0.16666667</v>
   <v>       0.41666667      0.25000000      0.16666667</v>
   <v>       0.50000000      0.25000000      0.16666667</v>
   <v>       0.00000000      0.33333333      0.16666667</v>
   <v>       0.08333333      0.33333333      0.16666667</v>
   <v>       0.16666667      0.33333333      0.16666667</v>
   <v>       0.25000000      0.33333333      0.16666667</v>
   <v>       0.33333333      0.33333333      0.16666667</v>
   <v>       0.41666667      0.33333333      0.16666667</v>
   <v>       0.50000000      0.33333333      0.16666667</v>
   <v>       0.00000000      0.41666667      0.16666667</v>
   <v>       0.08333333      0.41666667      0.16666667</v>
   <v>       0.16666667      0.41666667      0.16666667</v>
   <v>       0.25000000      0.41666667      0.16666667</v>
   <v>       0.33333333      0.41666667      0.16666667</v>
   <v>       0.41666667      0.41666667      0.16666667</v>
   <v>       0.50000000      0.41666667      0.16666667</v>
   <v>       0.00000000      0.50000000      0.16666667</v>
   <v>       0.08333333      0.50000000      0.16666667</v>
   <v>       0.16666667      0.50000000      0.16666667</v>
   <v>       0.25000000      0.50000000      0.16666667</v>
   <v>       0.33333333      0.50000000      0.16666667</v>
   <v>       0.41666667      0.50000000      0.16666667</v>
   <v>       0.50000000      0.50000000      0.16666667</v>
   <v>       0.00000000      0.25000000      0.25000000</v>
   <v>       0.08333333      0.25000000      0.25000000</v>
   <v>       0.16666667      0.25000000      0.25000000</v>
   <v>       0.25000000      0.25000000      0.25000000</v>
   <v>       0.33333333      0.25000000      0.25000000</v>
   <v>       0.41666667      0.25000000      0.25000000</v>
   <v>       0.50000000      0.25000000      0.25000000</v>
   <v>       0.00000000      0.33333333      0.25000000</v>
   <v>       0.08333333      0.33333333      0.25000000</v>
   <v>       0.16666667      0.33333333      0.25000000</v>
   <v>       0.25000000      0.33333333      0.25000000</v>
   <v>       0.33333333      0.33333333      0.25000000</v>
   <v>       0.41666667      0.33333333      0.25000000</v>
   <v>       0.50000000      0.33333333      0.25000000</v>
   <v>       0.00000000      0.41666667      0.25000000</v>
   <v>       0.08333333      0.41666667      0.25000000</v>
   <v>       0.16666667      0.41666667      0.25000000</v>
   <v>       0.25000000      0.41666667      0.25000000</v>
   <v>       0.33333333      0.41666667      0.25000000</v>
   <v>       0.41666667      0.41666667      0.25000000</v>
   <v>       0.50000000      0.41666667      0.25000000</v>
   <v>       0.00000000      0.50000000      0.25000000</v>
   <v>       0.08333333      0.50000000      0.25000000</v>
   <v>       0.16666667      0.50000000      0.25000000</v>
   <v>       0.25000000      0.50000000      0.25000000</v>
   <v>       0.33333333      0.50000000      0.25000000</v>
   <v>       0.41666667      0.50000000      0.25000000</v>
   <v>       0.50000000      0.50000000      0.25000000</v>
   <v>       0.00000000      0.33333333      0.33333333</v>
   <v>       0.08333333      0.33333333      0.33333333</v>
   <v>       0.16666667      0.33333333      0.33333333</v>
   <v>       0.25000000      0.33333333      0.33333333</v>
   <v>       0.33333333      0.33333333      0.33333333</v>
   <v>       0.41666667      0.33333333      0.33333333</v>
   <v>       0.50000000      0.33333333      0.33333333</v>
   <v>       0.00000000      0.41666667      0.33333333</v>
   <v>       0.08333333      0.41666667      0.33333333</v>
   <v>       0.16666667      0.41666667      0.33333333</v>
   <v>       0.25000000      0.41666667      0.33333333</v>
   <v>       0.33333333      0.41666667      0.33333333</v>
   <v>       0.41666667      0.41666667      0.33333333</v>
   <v>       0.50000000      0.41666667      0.33333333</v>
   <v>       0.00000000      0.50000000      0.33333333</v>
   <v>       0.08333333      0.50000000      0.33333333</v>
   <v>       0.16666667      0.50000000      0.33333333</v>
   <v>       0.25000000      0.50000000      0.33333333</v>
   <v>       0.33333333      0.50000000      0.33333333</v>
   <v>       0.41666667      0.50000000      0.33333333</v>
   <v>       0.50000000      0.50000000      0.33333333</v>
   <v>       0.00000000      0.41666667      0.41666667</v>
   <v>       0.08333333      0.41666667      0.41666667</v>
   <v>       0.16666667      0.41666667      0.41666667</v>
   <v>       0.25000000      0.41666667      0.41666667</v>
   <v>       0.33333333      0.41666667      0.41666667</v>
   <v>       0.41666667      0.41666667      0.41666667</v>
   <v>       0.50000000      0.41666667      0.41666667</v>
   <v>       0.00000000      0.50000000      0.41666667</v>
   <v>       0.08333333      0.50000000      0.41666667</v>
   <v>       0.16666667      0.50000000      0.41666667</v>
   <v>       0.25000000      0.50000000      0.41666667</v>
   <v>       0.33333333      0.50000000      0.41666667</v>
   <v>       0.41666667      0.50000000      0.41666667</v>
   <v>       0.50000000      0.50000000      0.41666667</v>
   <v>       0.00000000      0.50000000      0.50000000</v>
   <v>       0.08333333      0.50000000      0.50000000</v>
   <v>       0.16666667      0.50000000      0.50000000</v>
   <v>       0.25000000      0.50000000      0.50000000</v>
   <v>       0.33333333      0.50000000      0.50000000</v>
   <v>       0.41666667      0.50000000      0.50000000</v>
   <v>       0.50000000      0.50000000      0.50000000</v>
  </varray>
  <varray name="weights" >
   <v>       0.00057870</v>
   <v>       0.00115741</v>
   <v>       0.00115741</v>
   <v>       0.00115741</v>
   <v>       0.00115741</v>
   <v>       0.00115741</v>
   <v>       0.00057870</v>
   <v>       0.00231481</v>
   <v>       0.00462963</v>
   <v>       0.00462963</v>
   <v>       0.00462963</v>
   <v>       0.00462963</v>
   <v>       0.00462963</v>
   <v>       0.00231481</v>
   <v>       0.00231481</v>
   <v>       0.00462963</v>
   <v>       0.00462963</v>
   <v>       0.00462963</v>
   <v>       0.00462963</v>
   <v>       0.00462963</v>
   <v>       0.00231481</v>
   <v>       0.00231481</v>
   <v>       0.00462963</v>
   <v>       0.00462963</v>
   <v>       0.00462963</v>
   <v>       0.00462963</v>
   <v>       0.00462963</v>
   <v>       0.00231481</v>
   <v>       0.00231481</v>
   <v>       0.00462963</v>
   <v>       0.00462963</v>
   <v>       0.00462963</v>
   <v>       0.00462963</v>
   <v>       0.00462963</v>
   <v>       0.00231481</v>
   <v>       0.00231481</v>
   <v>       0.00462963</v>
   <v>       0.00462963</v>
   <v>       0.00462963</v>
   <v>       0.00462963</v>
   <v>       0.00462963</v>
   <v>       0.00231481</v>
   <v>       0.00115741</v>
   <v>       0.00231481</v>
   <v>       0.00231481</v>
   <v>       0.00231481</v>
   <v>       0.00231481</v>
   <v>       0.00231481</v>
   <v>       0.00115741</v>
   <v>       0.00231481</v>
   <v>       0.00462963</v>
   <v>       0.00462963</v>
   <v>       0.00462963</v>
   <v>       0.00462963</v>
   <v>       0.00462963</v>
   <v>       0.00231481</v>
   <v>       0.00462963</v>
   <v>       0.00925926</v>
   <v>       0.00925926</v>
   <v>       0.00925926</v>
   <v>       0.00925926</v>
   <v>       0.00925926</v>
   <v>       0.00462963</v>
   <v>       0.00462963</v>
   <v>       0.00925926</v>
   <v>       0.00925926</v>
   <v>       0.00925926</v>
   <v>       0.00925926</v>
   <v>       0.00925926</v>
   <v>       0.00462963</v>
   <v>       0.00462963</v>
   <v>       0.00925926</v>
   <v>       0.00925926</v>
   <v>       0.00925926</v>
   <v>       0.00925926</v>
   <v>       0.00925926</v>
   <v>       0.00462963</v>
   <v>       0.00462963</v>
   <v>       0.00925926</v>
   <v>       0.00925926</v>
   <v>       0.00925926</v>
   <v>       0.00925926</v>
   <v>       0.00925926</v>
   <v>       0.00462963</v>
   <v>       0.00231481</v>
   <v>       0.00462963</v>
   <v>       0.00462963</v>
   <v>       0.00462963</v>
   <v>       0.00462963</v>
   <v>       0.00462963</v>
   <v>       0.00231481</v>
   <v>       0.00231481</v>
   <v>       0.00462963</v>
   <v>       0.00462963</v>
   <v>       0.00462963</v>
   <v>       0.00462963</v>
   <v>       0.00462963</v>
   <v>       0.00231481</v>
   <v>       0.00462963</v>
   <v>       0.00925926</v>
   <v>       0.00925926</v>
   <v>       0.00925926</v>
   <v>       0.00925926</v>
   <v>       0.00925926</v>
   <v>       0.00462963</v>
   <v>       0.00462963</v>
   <v>       0.00925926</v>
   <v>       0.00925926</v>
   <v>       0.00925926</v>
   <v>       0.00925926</v>
   <v>       0.00925926</v>
   <v>       0.00462963</v>
   <v>       0.00462963</v>
   <v>       0.00925926</v>
   <v>       0.00925926</v>
   <v>       0.00925926</v>
   <v>       0.00925926</v>
   <v>       0.00925926</v>
   <v>       0.00462963</v>
   <v>       0.00231481</v>
   <v>       0.00462963</v>
   <v>       0.00462963</v>
   <v>       0.00462963</v>
   <v>       0.00462963</v>
   <v>       0.00462963</v>
   <v>       0.00231481</v>
   <v>       0.00231481</v>
   <v>       0.00462963</v>
   <v>       0.00462963</v>
   <v>       0.00462963</v>
   <v>       0.00462963</v>
   <v>       0.00462963</v>
   <v>       0.00231481</v>
   <v>       0.00462963</v>
   <v>       0.00925926</v>
   <v>       0.00925926</v>
   <v>       0.00925926</v>
   <v>       0.00925926</v>
   <v>       0.00925926</v>
   <v>       0.00462963</v>
   <v>       0.00462963</v>
   <v>       0.00925926</v>
   <v>       0.00925926</v>
   <v>       0.00925926</v>
   <v>       0.00925926</v>
   <v>       0.00925926</v>
   <v>       0.00462963</v>
   <v>       0.00231481</v>
   <v>       0.00462963</v>
   <v>       0.00462963</v>
   <v>       0.00462963</v>
   <v>       0.00462963</v>
   <v>       0.00462963</v>
   <v>       0.00231481</v>
   <v>       0.00231481</v>
   <v>       0.00462963</v>
   <v>       0.00462963</v>
   <v>       0.00462963</v>
   <v>       0.00462963</v>
   <v>       0.00462963</v>
   <v>       0.00231481</v>
   <v>       0.00462963</v>
   <v>       0.00925926</v>
   <v>       0.00925926</v>
   <v>       0.00925926</v>
   <v>       0.00925926</v>
   <v>       0.00925926</v>
   <v>       0.00462963</v>
   <v>       0.00231481</v>
   <v>       0.00462963</v>
   <v>       0.00462963</v>
   <v>       0.00462963</v>
   <v>       0.00462963</v>
   <v>       0.00462963</v>
   <v>       0.00231481</v>
   <v>       0.00231481</v>
   <v>       0.00462963</v>
   <v>       0.00462963</v>
   <v>       0.00462963</v>
   <v>       0.00462963</v>
   <v>       0.00462963</v>
   <v>       0.00231481</v>
   <v>       0.00231481</v>
   <v>       0.00462963</v>
   <v>       0.00462963</v>
   <v>       0.00462963</v>
   <v>       0.00462963</v>
   <v>       0.00462963</v>
   <v>       0.00231481</v>
   <v>       0.00057870</v>
   <v>       0.00115741</v>
   <v>       0.00115741</v>
   <v>       0.00115741</v>
   <v>       0.00115741</v>
   <v>       0.00115741</v>
   <v>       0.00057870</v>
  </varray>
 </kpoints>
 <parameters>
  <separator name="general" >
   <i type="string" name="SYSTEM">unknown system</i>
   <i type="logical" name="LCOMPAT"> F  </i>
  </separator>
  <separator name="electronic" >
   <i type="string" name="PREC">accura</i>
   <i name="ENMAX">    750.00000000</i>
   <i name="ENAUG">    291.05200000</i>
   <i name="EDIFF">      0.00000001</i>
   <i type="int" name="IALGO">    38</i>
   <i type="int" name="IWAVPR">    10</i>
   <i type="int" name="NBANDS">    65</i>
   <i name="NELECT">     96.00000000</i>
   <separator name="electronic smearing" >
    <i type="int" name="ISMEAR">     0</i>
    <i name="SIGMA">      0.01000000</i>
   </separator>
   <separator name="electronic projectors" >
    <i type="logical" name="LREAL"> F  </i>
    <v name="ROPT">      0.00000000</v>
    <i type="int" name="LMAXPAW">  -100</i>
    <i type="int" name="LMAXMIX">     2</i>
   </separator>
   <separator name="electronic startup" >
    <i type="int" name="ISTART">     0</i>
    <i type="int" name="ICHARG">     2</i>
    <i type="int" name="INIWAV">     1</i>
   </separator>
   <separator name="electronic spin" >
    <i type="int" name="ISPIN">     1</i>
    <i type="logical" name="LNONCOLLINEAR"> F  </i>
    <v name="MAGMOM">      1.00000000      1.00000000      1.00000000      1.00000000      1.00000000      1.00000000      1.00000000      1.00000000      1.00000000      1.00000000      1.00000000      1.00000000      1.00000000      1.00000000      1.00000000      1.00000000      1.00000000      1.00000000      1.00000000      1.00000000
      1.00000000      1.00000000      1.00000000      1.00000000      1.00000000      1.00000000      1.00000000      1.00000000      1.00000000      1.00000000      1.00000000      1.00000000</v>
    <i name="NUPDOWN">     -1.00000000</i>
    <i type="logical" name="LSORBIT"> F  </i>
    <v name="SAXIS">      0.00000000      0.00000000      1.00000000</v>
    <i type="logical" name="LSPIRAL"> F  </i>
    <v name="QSPIRAL">      0.00000000      0.00000000      0.00000000</v>
    <i type="logical" name="LZEROZ"> F  </i>
   </separator>
   <separator name="electronic exchange-correlation" >
    <i type="string" name="GGA">--</i>
    <i type="int" name="VOSKOWN">     0</i>
    <i type="logical" name="LASPH"> F  </i>
    <i type="logical" name="LMETAGGA"> F  </i>
    <i type="string" name="GGA2">--</i>
   </separator>
   <separator name="electronic convergence" >
    <i type="int" name="NELM">    60</i>
    <i type="int" name="NELMDL">    -5</i>
    <i type="int" name="NELMIN">     2</i>
    <i name="ENINI">    750.00000000</i>
    <separator name="electronic convergence detail" >
     <i type="logical" name="LDIAG"> T  </i>
     <i name="WEIMIN">      0.00000000</i>
     <i name="EBREAK">      0.00000000</i>
     <i name="DEPER">      0.30000000</i>
     <i type="int" name="NRMM">     4</i>
     <i name="TIME">      0.10000000</i>
    </separator>
   </separator>
   <separator name="electronic mixer" >
    <i name="AMIX">      0.40000000</i>
    <i name="BMIX">      1.00000000</i>
    <i name="AMIN">      0.10000000</i>
    <i name="AMIX_MAG">      1.60000000</i>
    <i name="BMIX_MAG">      1.00000000</i>
    <separator name="electronic mixer details" >
     <i type="int" name="IMIX">     4</i>
     <i type="int" name="MAXMIX">   -45</i>
     <i name="WC">    100.00000000</i>
     <i type="int" name="INIMIX">     1</i>
     <i type="int" name="MIXPRE">     1</i>
     <i type="int" name="MREMOVE">     5</i>
    </separator>
   </separator>
   <separator name="electronic dipolcorrection" >
    <i type="int" name="IDIPOL">     0</i>
    <i type="logical" name="LDIPOL"> F  </i>
    <v name="DIPOL">   -100.00000000</v>
    <i name="EFIELD">      0.00000000</i>
   </separator>
  </separator>
  <separator name="grids" >
   <i type="int" name="NGX">    70</i>
   <i type="int" name="NGY">    70</i>
   <i type="int" name="NGZ">    70</i>
   <i type="int" name="NGXF">   140</i>
   <i type="int" name="NGYF">   140</i>
   <i type="int" name="NGZF">   140</i>
   <i type="logical" name="ADDGRID"> T  </i>
  </separator>
  <separator name="ionic" >
   <i type="int" name="NSW">     0</i>
   <i type="int" name="IBRION">    -1</i>
   <i type="int" name="ISIF">     2</i>
   <i name="PSTRESS">      0.00000000</i>
   <i name="EDIFFG">      0.00000010</i>
   <i type="int" name="NFREE">     0</i>
   <i name="POTIM">      0.50000000</i>
   <i name="SMASS">     -3.00000000</i>
  </separator>
  <separator name="ionic md" >
   <i name="TEBEG">      0.00010000</i>
   <i name="TEEND">      0.00010000</i>
   <i type="int" name="NBLOCK">     1</i>
   <i type="int" name="KBLOCK">     1</i>
   <i type="int" name="NPACO">   256</i>
   <i name="APACO">     16.00000000</i>
  </separator>
  <separator name="symmetry" >
   <i type="int" name="ISYM">     2</i>
   <i name="SYMPREC">      0.00001000</i>
  </separator>
  <separator name="dos" >
   <i type="logical" name="LORBIT"> F  </i>
   <v name="RWIGS">     -1.00000000</v>
   <i type="int" name="NEDOS">   301</i>
   <i name="EMIN">     10.00000000</i>
   <i name="EMAX">    -10.00000000</i>
  </separator>
  <separator name="writing" >
   <i type="int" name="NWRITE">     2</i>
   <i type="logical" name="LWAVE"> F  </i>
   <i type="logical" name="LCHARG"> F  </i>
   <i type="logical" name="LPARD"> F  </i>
   <i type="logical" name="LVTOT"> F  </i>
   <i type="logical" name="LELF"> F  </i>
   <i type="logical" name="LOPTICS"> F  </i>
   <i name="STM">      0.00000000</i>
  </separator>
  <separator name="performance" >
   <i type="int" name="NPAR">     4</i>
   <i type="int" name="NSIM">     4</i>
   <i type="int" name="NBLK">   256</i>
   <i type="logical" name="LPLANE"> T  </i>
   <i type="logical" name="LCRITICAL_MEM"> F  </i>
   <i type="logical" name="LSCALAPACK"> F  </i>
   <i type="logical" name="LSCALU"> F  </i>
   <i type="logical" name="LASYNC"> F  </i>
  </separator>
  <separator name="miscellaneous" >
   <i type="int" name="IDIOT">     3</i>
   <i type="logical" name="LMUSIC"> F  </i>
   <v name="POMASS">     26.98200000</v>
   <i type="logical" name="LCORR"> T  </i>
  </separator>
  <i type="logical" name="LREAL_COMPAT"> F  </i>
  <i type="logical" name="GGA_COMPAT"> T  </i>
  <i type="logical" name="LBERRY"> F  </i>
  <i type="int" name="ICORELEVEL">     0</i>
  <i type="logical" name="LDAU"> F  </i>
  <i type="int" name="I_CONSTRAINED_M">     0</i>
 </parameters>
 <atominfo>
  <atoms>      32</atoms>
  <types>       1</types>
  <array name="atoms" >
   <dimension dim="1">ion</dimension>
   <field type="string">element</field>
   <field type="int">atomtype</field>
   <set>
    <rc><c>Al</c><c>   1</c></rc>
    <rc><c>Al</c><c>   1</c></rc>
    <rc><c>Al</c><c>   1</c></rc>
    <rc><c>Al</c><c>   1</c></rc>
    <rc><c>Al</c><c>   1</c></rc>
    <rc><c>Al</c><c>   1</c></rc>
    <rc><c>Al</c><c>   1</c></rc>
    <rc><c>Al</c><c>   1</c></rc>
    <rc><c>Al</c><c>   1</c></rc>
    <rc><c>Al</c><c>   1</c></rc>
    <rc><c>Al</c><c>   1</c></rc>
    <rc><c>Al</c><c>   1</c></rc>
    <rc><c>Al</c><c>   1</c></rc>
    <rc><c>Al</c><c>   1</c></rc>
    <rc><c>Al</c><c>   1</c></rc>
    <rc><c>Al</c><c>   1</c></rc>
    <rc><c>Al</c><c>   1</c></rc>
    <rc><c>Al</c><c>   1</c></rc>
    <rc><c>Al</c><c>   1</c></rc>
    <rc><c>Al</c><c>   1</c></rc>
    <rc><c>Al</c><c>   1</c></rc>
    <rc><c>Al</c><c>   1</c></rc>
    <rc><c>Al</c><c>   1</c></rc>
    <rc><c>Al</c><c>   1</c></rc>
    <rc><c>Al</c><c>   1</c></rc>
    <rc><c>Al</c><c>   1</c></rc>
    <rc><c>Al</c><c>   1</c></rc>
    <rc><c>Al</c><c>   1</c></rc>
    <rc><c>Al</c><c>   1</c></rc>
    <rc><c>Al</c><c>   1</c></rc>
    <rc><c>Al</c><c>   1</c></rc>
    <rc><c>Al</c><c>   1</c></rc>
   </set>
  </array>
  <array name="atomtypes" >
   <dimension dim="1">type</dimension>
   <field type="int">atomspertype</field>
   <field type="string">element</field>
   <field>mass</field>
   <field>valence</field>
   <field type="string">pseudopotential</field>
   <set>
    <rc><c>  32</c><c>Al</c><c>     26.98200000</c><c>      3.00000000</c><c> PAW_PBE Al 04Jan2001                   </c></rc>
   </set>
  </array>
 </atominfo>
 <structure name="initialpos" >
  <crystal>
   <varray name="basis" >
    <v>       7.75162823      0.00000000      0.00000000</v>
    <v>       0.00000000      7.75162823      0.00000000</v>
    <v>       0.00000000      0.00000000      7.75162823</v>
   </varray>
   <i name="volume">    465.77782330</i>
   <varray name="rec_basis" >
    <v>       0.12900515      0.00000000      0.00000000</v>
    <v>       0.00000000      0.12900515      0.00000000</v>
    <v>       0.00000000      0.00000000      0.12900515</v>
   </varray>
  </crystal>
  <varray name="positions" >
   <v>       0.25129005      0.25000000      0.00000000</v>
   <v>       0.75000000      0.25000000      0.00000000</v>
   <v>       0.25000000      0.75000000      0.00000000</v>
   <v>       0.75000000      0.75000000      0.00000000</v>
   <v>       0.25000000      0.25000000      0.50000000</v>
   <v>       0.75000000      0.25000000      0.50000000</v>
   <v>       0.25000000      0.75000000      0.50000000</v>
   <v>       0.75000000      0.75000000      0.50000000</v>
   <v>       0.25000000      0.00000000      0.25000000</v>
   <v>       0.75000000      0.00000000      0.25000000</v>
   <v>       0.25000000      0.50000000      0.25000000</v>
   <v>       0.75000000      0.50000000      0.25000000</v>
   <v>       0.25000000      0.00000000      0.75000000</v>
   <v>       0.75000000      0.00000000      0.75000000</v>
   <v>       0.25000000      0.50000000      0.75000000</v>
   <v>       0.75000000      0.50000000      0.75000000</v>
   <v>       0.00000000      0.25000000      0.25000000</v>
   <v>       0.50000000      0.25000000      0.25000000</v>
   <v>       0.00000000      0.75000000      0.25000000</v>
   <v>       0.50000000      0.75000000      0.25000000</v>
   <v>       0.00000000      0.25000000      0.75000000</v>
   <v>       0.50000000      0.25000000      0.75000000</v>
   <v>       0.00000000      0.75000000      0.75000000</v>
   <v>       0.50000000      0.75000000      0.75000000</v>
   <v>       0.00000000      0.00000000      0.00000000</v>
   <v>       0.50000000      0.00000000      0.00000000</v>
   <v>       0.00000000      0.50000000      0.00000000</v>
   <v>       0.50000000      0.50000000      0.00000000</v>
   <v>       0.00000000      0.00000000      0.50000000</v>
   <v>       0.50000000      0.00000000      0.50000000</v>
   <v>       0.00000000      0.50000000      0.50000000</v>
   <v>       0.50000000      0.50000000      0.50000000</v>
  </varray>
 </structure>
 <calculation>
  <scstep>
   <time name="dav"> 1523.92 1524.66</time>
   <time name="total"> 1528.10 1528.84</time>
   <energy>
    <i name="alphaZ">     -7.38425772</i>
    <i name="ewald">  -2452.91010324</i>
    <i name="hartreedc">     -2.22650109</i>
    <i name="XCdc">   -832.28823517</i>
    <i name="pawpsdc">   1137.73615723</i>
    <i name="pawaedc">   -115.16745734</i>
    <i name="eentropy">     -0.00020154</i>
    <i name="bandstr">    761.77827626</i>
    <i name="atom">   1713.23509266</i>
    <i name="e_fr_energy">    202.77277004</i>
    <i name="e_wo_entrp">    202.77297158</i>
    <i name="e_0_energy">    202.77287081</i>
   </energy>
  </scstep>
  <scstep>
   <time name="dav"> 1697.28 1698.09</time>
   <time name="total"> 1697.34 1698.15</time>
   <energy>
    <i name="e_fr_energy">    -99.81763282</i>
    <i name="e_wo_entrp">    -99.81712380</i>
    <i name="e_0_energy">    -99.81737831</i>
   </energy>
  </scstep>
  <scstep>
   <time name="dav"> 1790.27 1813.02</time>
   <time name="total"> 1790.33 1813.09</time>
   <energy>
    <i name="e_fr_energy">   -118.05057070</i>
    <i name="e_wo_entrp">   -118.05014724</i>
    <i name="e_0_energy">   -118.05035897</i>
   </energy>
  </scstep>
  <scstep>
   <time name="dav"> 1722.28 1742.36</time>
   <time name="total"> 1722.34 1742.41</time>
   <energy>
    <i name="e_fr_energy">   -118.47785980</i>
    <i name="e_wo_entrp">   -118.47735847</i>
    <i name="e_0_energy">   -118.47760913</i>
   </energy>
  </scstep>
  <scstep>
   <time name="dav"> 1728.35 1749.72</time>
   <time name="total"> 1843.01 1865.65</time>
   <energy>
    <i name="e_fr_energy">   -118.48312852</i>
    <i name="e_wo_entrp">   -118.48262962</i>
    <i name="e_0_energy">   -118.48287907</i>
   </energy>
  </scstep>
  <scstep>
   <time name="dav"> 1688.17 1689.47</time>
   <time name="total"> 1803.76 1805.15</time>
   <energy>
    <i name="e_fr_energy">   -118.00712933</i>
    <i name="e_wo_entrp">   -118.00663030</i>
    <i name="e_0_energy">   -118.00687981</i>
   </energy>
  </scstep>
  <scstep>
   <time name="dav"> 1636.39 1638.34</time>
   <time name="total"> 1752.54 1755.07</time>
   <energy>
    <i name="e_fr_energy">   -117.66262841</i>
    <i name="e_wo_entrp">   -117.66204195</i>
    <i name="e_0_energy">   -117.66233518</i>
   </energy>
  </scstep>
  <scstep>
   <time name="dav"> 1743.06 1751.66</time>
   <time name="total"> 1859.76 1868.94</time>
   <energy>
    <i name="e_fr_energy">   -117.66284615</i>
    <i name="e_wo_entrp">   -117.66225569</i>
    <i name="e_0_energy">   -117.66255092</i>
   </energy>
  </scstep>
  <scstep>
   <time name="dav"> 1695.77 1702.83</time>
   <time name="total"> 1816.38 1823.73</time>
   <energy>
    <i name="e_fr_energy">   -117.66288523</i>
    <i name="e_wo_entrp">   -117.66229235</i>
    <i name="e_0_energy">   -117.66258879</i>
   </energy>
  </scstep>
  <scstep>
   <time name="dav"> 1608.44 1620.96</time>
   <time name="total"> 1702.31 1715.78</time>
   <energy>
    <i name="e_fr_energy">   -117.66288865</i>
    <i name="e_wo_entrp">   -117.66229536</i>
    <i name="e_0_energy">   -117.66259200</i>
   </energy>
  </scstep>
  <scstep>
   <time name="dav"> 1054.74 1056.78</time>
   <time name="total"> 1098.14 1100.22</time>
   <energy>
    <i name="e_fr_energy">   -117.66288734</i>
    <i name="e_wo_entrp">   -117.66229411</i>
    <i name="e_0_energy">   -117.66259072</i>
   </energy>
  </scstep>
  <scstep>
   <time name="dav">  617.24  617.38</time>
   <time name="total">  659.33  659.48</time>
   <energy>
    <i name="e_fr_energy">   -117.66288675</i>
    <i name="e_wo_entrp">   -117.66229349</i>
    <i name="e_0_energy">   -117.66259012</i>
   </energy>
  </scstep>
  <scstep>
   <time name="dav">  556.46  556.58</time>
   <time name="total">  598.57  598.71</time>
   <energy>
    <i name="e_fr_energy">   -117.66288662</i>
    <i name="e_wo_entrp">   -117.66229336</i>
    <i name="e_0_energy">   -117.66258999</i>
   </energy>
  </scstep>
  <scstep>
   <time name="dav">  548.94  549.32</time>
   <time name="total">  590.74  591.59</time>
   <energy>
    <i name="e_fr_energy">   -117.66288661</i>
    <i name="e_wo_entrp">   -117.66229335</i>
    <i name="e_0_energy">   -117.66258998</i>
   </energy>
  </scstep>
  <scstep>
   <time name="dav">  539.99  545.99</time>
   <time name="total">  542.30  548.33</time>
   <energy>
    <i name="alphaZ">     -7.38425772</i>
    <i name="ewald">  -2452.91010324</i>
    <i name="hartreedc">     -4.29993213</i>
    <i name="XCdc">   -827.86774275</i>
    <i name="pawpsdc">   1156.21628681</i>
    <i name="pawaedc">   -134.83009551</i>
    <i name="eentropy">     -0.00059325</i>
    <i name="bandstr">    440.17845852</i>
    <i name="atom">   1713.23509266</i>
    <i name="e_fr_energy">   -117.66288661</i>
    <i name="e_wo_entrp">   -117.66229335</i>
    <i name="e_0_energy">   -117.66258998</i>
   </energy>
  </scstep>
  <structure>
   <crystal>
    <varray name="basis" >
     <v>       7.75162823      0.00000000      0.00000000</v>
     <v>       0.00000000      7.75162823      0.00000000</v>
     <v>       0.00000000      0.00000000      7.75162823</v>
    </varray>
    <i name="volume">    465.77782330</i>
    <varray name="rec_basis" >
     <v>       0.12900515      0.00000000      0.00000000</v>
     <v>       0.00000000      0.12900515      0.00000000</v>
     <v>       0.00000000      0.00000000      0.12900515</v>
    </varray>
   </crystal>
   <varray name="positions" >
    <v>       0.25129005      0.25000000      0.00000000</v>
    <v>       0.75000000      0.25000000      0.00000000</v>
    <v>       0.25000000      0.75000000      0.00000000</v>
    <v>       0.75000000      0.75000000      0.00000000</v>
    <v>       0.25000000      0.25000000      0.50000000</v>
    <v>       0.75000000      0.25000000      0.50000000</v>
    <v>       0.25000000      0.75000000      0.50000000</v>
    <v>       0.75000000      0.75000000      0.50000000</v>
    <v>       0.25000000      0.00000000      0.25000000</v>
    <v>       0.75000000      0.00000000      0.25000000</v>
    <v>       0.25000000      0.50000000      0.25000000</v>
    <v>       0.75000000      0.50000000      0.25000000</v>
    <v>       0.25000000      0.00000000      0.75000000</v>
    <v>       0.75000000      0.00000000      0.75000000</v>
    <v>       0.25000000      0.50000000      0.75000000</v>
    <v>       0.75000000      0.50000000      0.75000000</v>
    <v>       0.00000000      0.25000000      0.25000000</v>
    <v>       0.50000000      0.25000000      0.25000000</v>
    <v>       0.00000000      0.75000000      0.25000000</v>
    <v>       0.50000000      0.75000000      0.25000000</v>
    <v>       0.00000000      0.25000000      0.75000000</v>
    <v>       0.50000000      0.25000000      0.75000000</v>
    <v>       0.00000000      0.75000000      0.75000000</v>
    <v>       0.50000000      0.75000000      0.75000000</v>
    <v>       0.00000000      0.00000000      0.00000000</v>
    <v>       0.50000000      0.00000000      0.00000000</v>
    <v>       0.00000000      0.50000000      0.00000000</v>
    <v>       0.50000000      0.50000000      0.00000000</v>
    <v>       0.00000000      0.00000000      0.50000000</v>
    <v>       0.50000000      0.00000000      0.50000000</v>
    <v>       0.00000000      0.50000000      0.50000000</v>
    <v>       0.50000000      0.50000000      0.50000000</v>
   </varray>
  </structure>
  <varray name="forces" >
   <v>      -0.07448858     -0.00000000     -0.00000000</v>
   <v>       0.00252986      0.00000000      0.00000000</v>
   <v>      -0.00016799     -0.00000000     -0.00000000</v>
   <v>       0.00070084     -0.00000000     -0.00000000</v>
   <v>      -0.00016799     -0.00000000      0.00000000</v>
   <v>       0.00070084      0.00000000      0.00000000</v>
   <v>       0.00072735     -0.00000000     -0.00000000</v>
   <v>      -0.00064769     -0.00000000      0.00000000</v>
   <v>      -0.00131985      0.00003516     -0.00003516</v>
   <v>      -0.00040579     -0.00000249      0.00000249</v>
   <v>      -0.00131985     -0.00003516     -0.00003516</v>
   <v>      -0.00040579      0.00000249      0.00000249</v>
   <v>      -0.00131985      0.00003516      0.00003516</v>
   <v>      -0.00040579     -0.00000249     -0.00000249</v>
   <v>      -0.00131985     -0.00003516      0.00003516</v>
   <v>      -0.00040579      0.00000249     -0.00000249</v>
   <v>       0.00960884      0.00000000     -0.01031146</v>
   <v>       0.00981967      0.00000000      0.01061916</v>
   <v>      -0.00000231     -0.00000000      0.00000963</v>
   <v>       0.00000279      0.00000000     -0.00000537</v>
   <v>       0.00960884      0.00000000      0.01031146</v>
   <v>       0.00981967      0.00000000     -0.01061916</v>
   <v>      -0.00000231     -0.00000000     -0.00000963</v>
   <v>       0.00000279     -0.00000000      0.00000537</v>
   <v>       0.00960884      0.01031146     -0.00000000</v>
   <v>       0.00981967     -0.01061916      0.00000000</v>
   <v>       0.00960884     -0.01031146      0.00000000</v>
   <v>       0.00981967      0.01061916      0.00000000</v>
   <v>      -0.00000231     -0.00000963     -0.00000000</v>
   <v>       0.00000279      0.00000537     -0.00000000</v>
   <v>      -0.00000231      0.00000963      0.00000000</v>
   <v>       0.00000279     -0.00000537     -0.00000000</v>
  </varray>
  <varray name="stress" >
   <v>     127.42123493     -0.00000000      0.00000000</v>
   <v>       0.00000000    127.42077850      0.00000000</v>
   <v>       0.00000000      0.00000000    127.42077850</v>
  </varray>
  <energy>
   <i name="e_fr_energy">   -117.66288661</i>
   <i name="e_wo_entrp">   -117.66258998</i>
   <i name="e_0_energy">     -0.00059325</i>
  </energy>
  <eigenvalues>
   <array>
    <dimension dim="1">band</dimension>
    <dimension dim="2">kpoint</dimension>
    <dimension dim="3">spin</dimension>
    <field>eigene</field>
    <field>occ</field>
    <set>
     <set comment="spin 1">
      <set comment="kpoint 1">
       <r>  -2.6572  1.0000</r>
       <r>  -0.2235  1.0000</r>
       <r>  -0.2194  1.0000</r>
       <r>  -0.2194  1.0000</r>
       <r>  -0.2194  1.0000</r>
       <r>  -0.2194  1.0000</r>
       <r>  -0.2154  1.0000</r>
       <r>   2.1636  1.0000</r>
       <r>   2.1681  1.0000</r>
       <r>   2.1681  1.0000</r>
       <r>   2.1700  1.0000</r>
       <r>   2.1701  1.0000</r>
       <r>   2.1701  1.0000</r>
       <r>   2.1701  1.0000</r>
       <r>   2.1701  1.0000</r>
       <r>   2.1703  1.0000</r>
       <r>   2.1722  1.0000</r>
       <r>   2.1722  1.0000</r>
       <r>   2.1767  1.0000</r>
       <r>   4.2680  1.0000</r>
       <r>   4.2680  1.0000</r>
       <r>   4.2680  1.0000</r>
       <r>   4.2680  1.0000</r>
       <r>   4.8151  1.0000</r>
       <r>   4.8151  1.0000</r>
       <r>   4.8151  1.0000</r>
       <r>   4.8151  1.0000</r>
       <r>   6.1457  1.0000</r>
       <r>   6.1457  1.0000</r>
       <r>   6.1457  1.0000</r>
       <r>   7.7200  1.0000</r>
       <r>   7.7200  1.0000</r>
       <r>   7.7200  1.0000</r>
       <r>   8.3629  1.0000</r>
       <r>   8.3629  1.0000</r>
       <r>   8.3676  1.0000</r>
       <r>   8.3676  1.0000</r>
       <r>   8.3678  1.0000</r>
       <r>   8.3678  1.0000</r>
       <r>   8.3678  1.0000</r>
       <r>   8.3679  1.0000</r>
       <r>   8.3680  1.0000</r>
       <r>   8.3680  1.0000</r>
       <r>   8.3727  1.0000</r>
       <r>   8.3727  1.0000</r>
       <r>   9.3032  1.0000</r>
       <r>   9.3078  1.0000</r>
       <r>   9.3078  1.0000</r>
       <r>   9.3078  1.0000</r>
       <r>   9.3078  1.0000</r>
       <r>   9.3124  1.0000</r>
       <r>  10.5993  0.0000</r>
       <r>  10.5993  0.0000</r>
       <r>  10.6007  0.0000</r>
       <r>  10.6035  0.0000</r>
       <r>  10.6036  0.0000</r>
       <r>  10.6036  0.0000</r>
       <r>  10.6036  0.0000</r>
       <r>  10.6037  0.0000</r>
       <r>  10.6038  0.0000</r>
       <r>  10.6066  0.0000</r>
       <r>  10.6079  0.0000</r>
       <r>  10.6079  0.0000</r>
       <r>  11.2155  0.0000</r>
       <r>  11.2167  0.0000</r>
       <r>  11.2167  0.0000</r>
       <r>  11.2167  0.0000</r>
       <r>  11.2179  0.0000</r>
      </set>
      <set comment="kpoint 2">
       <r>  -2.6401  1.0000</r>
       <r>  -0.6055  1.0000</r>
       <r>  -0.2027  1.0000</r>
       <r>  -0.2027  1.0000</r>
       <r>  -0.2027  1.0000</r>
       <r>  -0.2027  1.0000</r>
       <r>   0.1987  1.0000</r>
       <r>   1.7918  1.0000</r>
       <r>   1.7918  1.0000</r>
       <r>   1.7918  1.0000</r>
       <r>   1.7918  1.0000</r>
       <r>   2.1865  1.0000</r>
       <r>   2.1865  1.0000</r>
       <r>   2.1865  1.0000</r>
       <r>   2.1865  1.0000</r>
       <r>   2.5798  1.0000</r>
       <r>   2.5798  1.0000</r>
       <r>   2.5798  1.0000</r>
       <r>   2.5799  1.0000</r>
       <r>   4.0808  1.0000</r>
       <r>   4.0808  1.0000</r>
       <r>   4.0809  1.0000</r>
       <r>   4.0809  1.0000</r>
       <r>   5.0335  1.0000</r>
       <r>   5.0335  1.0000</r>
       <r>   5.0335  1.0000</r>
       <r>   5.0335  1.0000</r>
       <r>   5.8435  1.0000</r>
       <r>   6.1611  1.0000</r>
       <r>   6.1611  1.0000</r>
       <r>   7.7357  1.0000</r>
       <r>   7.7358  1.0000</r>
       <r>   8.0121  1.0000</r>
       <r>   8.0121  1.0000</r>
       <r>   8.0505  1.0000</r>
       <r>   8.0575  1.0000</r>
       <r>   8.0576  1.0000</r>
       <r>   8.0576  1.0000</r>
       <r>   8.0580  1.0000</r>
       <r>   8.3833  1.0000</r>
       <r>   8.3833  1.0000</r>
       <r>   8.3833  1.0000</r>
       <r>   8.3833  1.0000</r>
       <r>   8.7546  1.0000</r>
       <r>   8.7546  1.0000</r>
       <r>   9.2451  1.0000</r>
       <r>   9.2451  1.0000</r>
       <r>   9.5406  0.0000</r>
       <r>   9.5406  0.0000</r>
       <r>   9.5406  0.0000</r>
       <r>   9.5406  0.0000</r>
       <r>  10.2460  0.0000</r>
       <r>  10.2460  0.0000</r>
       <r>  10.2460  0.0000</r>
       <r>  10.2460  0.0000</r>
       <r>  10.3540  0.0000</r>
       <r>  10.3541  0.0000</r>
       <r>  10.3541  0.0000</r>
       <r>  10.3541  0.0000</r>
       <r>  10.9925  0.0000</r>
       <r>  10.9925  0.0000</r>
       <r>  10.9925  0.0000</r>
       <r>  10.9925  0.0000</r>
       <r>  11.3080  0.0000</r>
       <r>  11.3103  0.0000</r>
       <r>  11.3391  0.0000</r>
       <r>  11.3391  0.0000</r>
       <r>  11.3391  0.0000</r>
      </set>
      <set comment="kpoint 3">
       <r>  -2.5889  1.0000</r>
       <r>  -0.9591  1.0000</r>
       <r>  -0.1524  1.0000</r>
       <r>  -0.1524  1.0000</r>
       <r>  -0.1524  1.0000</r>
       <r>  -0.1524  1.0000</r>
       <r>   0.6486  1.0000</r>
       <r>   1.4452  1.0000</r>
       <r>   1.4452  1.0000</r>
       <r>   1.4452  1.0000</r>
       <r>   1.4452  1.0000</r>
       <r>   2.2357  1.0000</r>
       <r>   2.2357  1.0000</r>
       <r>   2.2357  1.0000</r>
       <r>   2.2357  1.0000</r>
       <r>   3.0203  1.0000</r>
       <r>   3.0203  1.0000</r>
       <r>   3.0203  1.0000</r>
       <r>   3.0203  1.0000</r>
       <r>   3.7779  1.0000</r>
       <r>   3.7779  1.0000</r>
       <r>   3.7779  1.0000</r>
       <r>   3.7779  1.0000</r>
       <r>   5.2545  1.0000</r>
       <r>   5.4301  1.0000</r>
       <r>   5.4301  1.0000</r>
       <r>   5.4301  1.0000</r>
       <r>   5.4301  1.0000</r>
       <r>   6.2073  1.0000</r>
       <r>   6.2073  1.0000</r>
       <r>   7.4884  1.0000</r>
       <r>   7.4884  1.0000</r>
       <r>   7.4884  1.0000</r>
       <r>   7.4884  1.0000</r>
       <r>   7.6876  1.0000</r>
       <r>   7.6876  1.0000</r>
       <r>   7.7829  1.0000</r>
       <r>   7.7829  1.0000</r>
       <r>   8.4298  1.0000</r>
       <r>   8.4298  1.0000</r>
       <r>   8.4298  1.0000</r>
       <r>   8.4298  1.0000</r>
       <r>   8.7261  1.0000</r>
       <r>   9.0861  1.0000</r>
       <r>   9.0861  1.0000</r>
       <r>   9.1727  1.0000</r>
       <r>   9.1727  1.0000</r>
       <r>   9.8249  0.0000</r>
       <r>   9.8250  0.0000</r>
       <r>   9.8250  0.0000</r>
       <r>   9.8251  0.0000</r>
       <r>   9.8746  0.0000</r>
       <r>   9.8746  0.0000</r>
       <r>   9.8746  0.0000</r>
       <r>   9.8748  0.0000</r>
       <r>   9.9196  0.0000</r>
       <r>   9.9196  0.0000</r>
       <r>   9.9198  0.0000</r>
       <r>   9.9198  0.0000</r>
       <r>  11.4127  0.0000</r>
       <r>  11.4127  0.0000</r>
       <r>  11.4127  0.0000</r>
       <r>  11.4127  0.0000</r>
       <r>  11.5526  0.0000</r>
       <r>  11.5526  0.0000</r>
       <r>  11.7088  0.0000</r>
       <r>  11.7089  0.0000</r>
       <r>  11.7096  0.0000</r>
      </set>
      <set comment="kpoint 4">
       <r>  -2.5034  1.0000</r>
       <r>  -1.2799  1.0000</r>
       <r>  -0.0687  1.0000</r>
       <r>  -0.0687  1.0000</r>
       <r>  -0.0687  1.0000</r>
       <r>  -0.0687  1.0000</r>
       <r>   1.1276  1.0000</r>
       <r>   1.1307  1.0000</r>
       <r>   1.1307  1.0000</r>
       <r>   1.1307  1.0000</r>
       <r>   1.1329  1.0000</r>
       <r>   2.3177  1.0000</r>
       <r>   2.3177  1.0000</r>
       <r>   2.3177  1.0000</r>
       <r>   2.3177  1.0000</r>
       <r>   3.4811  1.0000</r>
       <r>   3.4818  1.0000</r>
       <r>   3.4818  1.0000</r>
       <r>   3.4821  1.0000</r>
       <r>   3.4911  1.0000</r>
       <r>   3.4913  1.0000</r>
       <r>   3.4913  1.0000</r>
       <r>   3.4921  1.0000</r>
       <r>   4.6125  1.0000</r>
       <r>   5.8818  1.0000</r>
       <r>   5.8818  1.0000</r>
       <r>   5.8818  1.0000</r>
       <r>   5.8818  1.0000</r>
       <r>   6.2842  1.0000</r>
       <r>   6.2842  1.0000</r>
       <r>   6.8734  1.0000</r>
       <r>   6.8734  1.0000</r>
       <r>   6.8734  1.0000</r>
       <r>   6.8734  1.0000</r>
       <r>   7.3942  1.0000</r>
       <r>   7.3942  1.0000</r>
       <r>   7.8611  1.0000</r>
       <r>   7.8611  1.0000</r>
       <r>   8.5073  1.0000</r>
       <r>   8.5073  1.0000</r>
       <r>   8.5073  1.0000</r>
       <r>   8.5073  1.0000</r>
       <r>   8.8814  1.0000</r>
       <r>   8.8815  1.0000</r>
       <r>   9.2231  1.0000</r>
       <r>   9.2231  1.0000</r>
       <r>   9.2231  1.0000</r>
       <r>   9.2231  1.0000</r>
       <r>   9.5117  0.0000</r>
       <r>   9.6204  0.0000</r>
       <r>   9.6204  0.0000</r>
       <r>   9.6245  0.0000</r>
       <r>   9.6245  0.0000</r>
       <r>   9.6260  0.0000</r>
       <r>   9.6260  0.0000</r>
       <r>  10.1324  0.0000</r>
       <r>  10.1324  0.0000</r>
       <r>  10.1324  0.0000</r>
       <r>  10.1324  0.0000</r>
       <r>  11.5097  0.0000</r>
       <r>  11.5097  0.0000</r>
       <r>  11.5097  0.0000</r>
       <r>  11.5097  0.0000</r>
       <r>  11.8641  0.0000</r>
       <r>  11.8641  0.0000</r>
       <r>  11.8641  0.0000</r>
       <r>  11.8660  0.0000</r>
       <r>  11.8989  0.0000</r>
      </set>
      <set comment="kpoint 5">
       <r>  -2.3840  1.0000</r>
       <r>  -1.5677  1.0000</r>
       <r>   0.0484  1.0000</r>
       <r>   0.0484  1.0000</r>
       <r>   0.0484  1.0000</r>
       <r>   0.0484  1.0000</r>
       <r>   0.8486  1.0000</r>
       <r>   0.8486  1.0000</r>
       <r>   0.8486  1.0000</r>
       <r>   0.8486  1.0000</r>
       <r>   1.6414  1.0000</r>
       <r>   2.4322  1.0000</r>
       <r>   2.4322  1.0000</r>
       <r>   2.4322  1.0000</r>
       <r>   2.4322  1.0000</r>
       <r>   3.2110  1.0000</r>
       <r>   3.2110  1.0000</r>
       <r>   3.2110  1.0000</r>
       <r>   3.2110  1.0000</r>
       <r>   3.9727  1.0000</r>
       <r>   3.9913  1.0000</r>
       <r>   3.9913  1.0000</r>
       <r>   3.9913  1.0000</r>
       <r>   3.9914  1.0000</r>
       <r>   6.2575  1.0000</r>
       <r>   6.2575  1.0000</r>
       <r>   6.2576  1.0000</r>
       <r>   6.2576  1.0000</r>
       <r>   6.3704  1.0000</r>
       <r>   6.3704  1.0000</r>
       <r>   6.3705  1.0000</r>
       <r>   6.3705  1.0000</r>
       <r>   6.3921  1.0000</r>
       <r>   6.3921  1.0000</r>
       <r>   7.1319  1.0000</r>
       <r>   7.1319  1.0000</r>
       <r>   7.9695  1.0000</r>
       <r>   7.9695  1.0000</r>
       <r>   8.6115  1.0000</r>
       <r>   8.6115  1.0000</r>
       <r>   8.6125  1.0000</r>
       <r>   8.6129  1.0000</r>
       <r>   8.6158  1.0000</r>
       <r>   8.6163  1.0000</r>
       <r>   8.6172  1.0000</r>
       <r>   8.6172  1.0000</r>
       <r>   8.6663  1.0000</r>
       <r>   8.6664  1.0000</r>
       <r>   9.3605  0.9998</r>
       <r>   9.3605  0.9998</r>
       <r>   9.3605  0.9998</r>
       <r>   9.3605  0.9998</r>
       <r>  10.1024  0.0000</r>
       <r>  10.1024  0.0000</r>
       <r>  10.3410  0.0000</r>
       <r>  10.3410  0.0000</r>
       <r>  10.3410  0.0000</r>
       <r>  10.3410  0.0000</r>
       <r>  10.3524  0.0000</r>
       <r>  11.2297  0.0000</r>
       <r>  11.2297  0.0000</r>
       <r>  11.2297  0.0000</r>
       <r>  11.2297  0.0000</r>
       <r>  12.3146  0.0000</r>
       <r>  12.3162  0.0000</r>
       <r>  12.3382  0.0000</r>
       <r>  12.3414  0.0000</r>
       <r>  12.3469  0.0000</r>
      </set>
      <set comment="kpoint 6">
       <r>  -2.2305  1.0000</r>
       <r>  -1.8222  1.0000</r>
       <r>   0.1988  1.0000</r>
       <r>   0.1989  1.0000</r>
       <r>   0.1989  1.0000</r>
       <r>   0.1989  1.0000</r>
       <r>   0.5991  1.0000</r>
       <r>   0.5991  1.0000</r>
       <r>   0.5991  1.0000</r>
       <r>   0.5992  1.0000</r>
       <r>   2.1830  1.0000</r>
       <r>   2.5792  1.0000</r>
       <r>   2.5792  1.0000</r>
       <r>   2.5792  1.0000</r>
       <r>   2.5792  1.0000</r>
       <r>   2.9693  1.0000</r>
       <r>   2.9693  1.0000</r>
       <r>   2.9693  1.0000</r>
       <r>   2.9693  1.0000</r>
       <r>   3.3510  1.0000</r>
       <r>   4.5200  1.0000</r>
       <r>   4.5200  1.0000</r>
       <r>   4.5200  1.0000</r>
       <r>   4.5200  1.0000</r>
       <r>   5.6561  1.0000</r>
       <r>   5.6561  1.0000</r>
       <r>   5.6561  1.0000</r>
       <r>   5.6561  1.0000</r>
       <r>   6.5306  1.0000</r>
       <r>   6.5306  1.0000</r>
       <r>   6.8906  1.0000</r>
       <r>   6.8906  1.0000</r>
       <r>   6.8910  1.0000</r>
       <r>   6.8910  1.0000</r>
       <r>   6.9009  1.0000</r>
       <r>   6.9009  1.0000</r>
       <r>   8.0158  1.0000</r>
       <r>   8.0158  1.0000</r>
       <r>   8.0158  1.0000</r>
       <r>   8.0158  1.0000</r>
       <r>   8.1069  1.0000</r>
       <r>   8.1069  1.0000</r>
       <r>   8.4597  1.0000</r>
       <r>   8.4597  1.0000</r>
       <r>   8.7553  1.0000</r>
       <r>   8.7553  1.0000</r>
       <r>   8.7553  1.0000</r>
       <r>   8.7554  1.0000</r>
       <r>   9.1277  1.0000</r>
       <r>   9.1277  1.0000</r>
       <r>   9.1277  1.0000</r>
       <r>   9.1277  1.0000</r>
       <r>  10.5392  0.0000</r>
       <r>  10.5392  0.0000</r>
       <r>  10.5392  0.0000</r>
       <r>  10.5392  0.0000</r>
       <r>  10.6139  0.0000</r>
       <r>  10.6139  0.0000</r>
       <r>  10.9764  0.0000</r>
       <r>  10.9764  0.0000</r>
       <r>  10.9764  0.0000</r>
       <r>  10.9764  0.0000</r>
       <r>  11.2323  0.0000</r>
       <r>  11.7289  0.0000</r>
       <r>  11.7289  0.0000</r>
       <r>  12.7651  0.0000</r>
       <r>  12.7660  0.0000</r>
       <r>  12.8608  0.0000</r>
      </set>
      <set comment="kpoint 7">
       <r>  -2.0447  1.0000</r>
       <r>  -2.0417  1.0000</r>
       <r>   0.3783  1.0000</r>
       <r>   0.3816  1.0000</r>
       <r>   0.3816  1.0000</r>
       <r>   0.3824  1.0000</r>
       <r>   0.3826  1.0000</r>
       <r>   0.3834  1.0000</r>
       <r>   0.3834  1.0000</r>
       <r>   0.3867  1.0000</r>
       <r>   2.7507  1.0000</r>
       <r>   2.7535  1.0000</r>
       <r>   2.7569  1.0000</r>
       <r>   2.7571  1.0000</r>
       <r>   2.7571  1.0000</r>
       <r>   2.7579  1.0000</r>
       <r>   2.7589  1.0000</r>
       <r>   2.7597  1.0000</r>
       <r>   2.7597  1.0000</r>
       <r>   2.7625  1.0000</r>
       <r>   5.0747  1.0000</r>
       <r>   5.0747  1.0000</r>
       <r>   5.0754  1.0000</r>
       <r>   5.0755  1.0000</r>
       <r>   5.0758  1.0000</r>
       <r>   5.0759  1.0000</r>
       <r>   5.0766  1.0000</r>
       <r>   5.0766  1.0000</r>
       <r>   6.6984  1.0000</r>
       <r>   6.6984  1.0000</r>
       <r>   6.7018  1.0000</r>
       <r>   6.7018  1.0000</r>
       <r>   7.4394  1.0000</r>
       <r>   7.4394  1.0000</r>
       <r>   7.4397  1.0000</r>
       <r>   7.4403  1.0000</r>
       <r>   7.4404  1.0000</r>
       <r>   7.4411  1.0000</r>
       <r>   7.4413  1.0000</r>
       <r>   7.4413  1.0000</r>
       <r>   8.2692  1.0000</r>
       <r>   8.2705  1.0000</r>
       <r>   8.2722  1.0000</r>
       <r>   8.2735  1.0000</r>
       <r>   8.9234  1.0000</r>
       <r>   8.9234  1.0000</r>
       <r>   8.9243  1.0000</r>
       <r>   8.9259  1.0000</r>
       <r>   8.9260  1.0000</r>
       <r>   8.9276  1.0000</r>
       <r>   8.9285  1.0000</r>
       <r>   8.9285  1.0000</r>
       <r>  10.7454  0.0000</r>
       <r>  10.7463  0.0000</r>
       <r>  10.7463  0.0000</r>
       <r>  10.7464  0.0000</r>
       <r>  10.7490  0.0000</r>
       <r>  10.7491  0.0000</r>
       <r>  10.7491  0.0000</r>
       <r>  10.7500  0.0000</r>
       <r>  11.1550  0.0000</r>
       <r>  11.1550  0.0000</r>
       <r>  11.1573  0.0000</r>
       <r>  11.1573  0.0000</r>
       <r>  12.1447  0.0000</r>
       <r>  12.1456  0.0000</r>
       <r>  13.2482  0.0000</r>
       <r>  13.2497  0.0000</r>
      </set>
      <set comment="kpoint 8">
       <r>  -2.6401  1.0000</r>
       <r>  -0.6055  1.0000</r>
       <r>  -0.2058  1.0000</r>
       <r>  -0.2027  1.0000</r>
       <r>  -0.2027  1.0000</r>
       <r>  -0.1996  1.0000</r>
       <r>   0.1987  1.0000</r>
       <r>   1.7887  1.0000</r>
       <r>   1.7918  1.0000</r>
       <r>   1.7918  1.0000</r>
       <r>   1.7949  1.0000</r>
       <r>   2.1844  1.0000</r>
       <r>   2.1853  1.0000</r>
       <r>   2.1878  1.0000</r>
       <r>   2.1887  1.0000</r>
       <r>   2.5767  1.0000</r>
       <r>   2.5798  1.0000</r>
       <r>   2.5798  1.0000</r>
       <r>   2.5829  1.0000</r>
       <r>   4.0791  1.0000</r>
       <r>   4.0798  1.0000</r>
       <r>   4.0819  1.0000</r>
       <r>   4.0826  1.0000</r>
       <r>   5.0317  1.0000</r>
       <r>   5.0324  1.0000</r>
       <r>   5.0345  1.0000</r>
       <r>   5.0353  1.0000</r>
       <r>   5.8435  1.0000</r>
       <r>   6.1611  1.0000</r>
       <r>   6.1611  1.0000</r>
       <r>   7.7357  1.0000</r>
       <r>   7.7358  1.0000</r>
       <r>   8.0120  1.0000</r>
       <r>   8.0121  1.0000</r>
       <r>   8.0509  1.0000</r>
       <r>   8.0541  1.0000</r>
       <r>   8.0575  1.0000</r>
       <r>   8.0575  1.0000</r>
       <r>   8.0611  1.0000</r>
       <r>   8.3804  1.0000</r>
       <r>   8.3833  1.0000</r>
       <r>   8.3833  1.0000</r>
       <r>   8.3862  1.0000</r>
       <r>   8.7546  1.0000</r>
       <r>   8.7546  1.0000</r>
       <r>   9.2451  1.0000</r>
       <r>   9.2451  1.0000</r>
       <r>   9.5374  0.0000</r>
       <r>   9.5406  0.0000</r>
       <r>   9.5406  0.0000</r>
       <r>   9.5438  0.0000</r>
       <r>  10.2430  0.0000</r>
       <r>  10.2460  0.0000</r>
       <r>  10.2460  0.0000</r>
       <r>  10.2490  0.0000</r>
       <r>  10.3512  0.0000</r>
       <r>  10.3528  0.0000</r>
       <r>  10.3553  0.0000</r>
       <r>  10.3569  0.0000</r>
       <r>  10.9895  0.0000</r>
       <r>  10.9925  0.0000</r>
       <r>  10.9925  0.0000</r>
       <r>  10.9956  0.0000</r>
       <r>  11.3080  0.0000</r>
       <r>  11.3082  0.0000</r>
       <r>  11.3381  0.0000</r>
       <r>  11.3391  0.0000</r>
       <r>  11.3399  0.0000</r>
      </set>
      <set comment="kpoint 9">
       <r>  -2.6230  1.0000</r>
       <r>  -0.5900  1.0000</r>
       <r>  -0.5874  1.0000</r>
       <r>  -0.1859  1.0000</r>
       <r>  -0.1859  1.0000</r>
       <r>   0.2141  1.0000</r>
       <r>   0.2167  1.0000</r>
       <r>   1.4122  1.0000</r>
       <r>   1.8065  1.0000</r>
       <r>   1.8075  1.0000</r>
       <r>   1.8091  1.0000</r>
       <r>   1.8101  1.0000</r>
       <r>   2.2024  1.0000</r>
       <r>   2.2033  1.0000</r>
       <r>   2.5943  1.0000</r>
       <r>   2.5953  1.0000</r>
       <r>   2.5969  1.0000</r>
       <r>   2.5979  1.0000</r>
       <r>   2.9879  1.0000</r>
       <r>   3.7458  1.0000</r>
       <r>   3.7458  1.0000</r>
       <r>   4.2993  1.0000</r>
       <r>   4.2993  1.0000</r>
       <r>   4.8481  1.0000</r>
       <r>   4.8481  1.0000</r>
       <r>   5.3980  1.0000</r>
       <r>   5.3980  1.0000</r>
       <r>   5.8587  1.0000</r>
       <r>   5.8594  1.0000</r>
       <r>   6.1765  1.0000</r>
       <r>   7.7109  1.0000</r>
       <r>   7.7133  1.0000</r>
       <r>   7.7515  1.0000</r>
       <r>   7.9750  1.0000</r>
       <r>   7.9751  1.0000</r>
       <r>   8.0261  1.0000</r>
       <r>   8.0291  1.0000</r>
       <r>   8.0661  1.0000</r>
       <r>   8.0668  1.0000</r>
       <r>   8.1965  1.0000</r>
       <r>   8.1965  1.0000</r>
       <r>   8.4162  1.0000</r>
       <r>   8.4183  1.0000</r>
       <r>   8.7687  1.0000</r>
       <r>   8.7716  1.0000</r>
       <r>   9.4544  0.0000</r>
       <r>   9.4570  0.0000</r>
       <r>   9.5135  0.0000</r>
       <r>   9.5166  0.0000</r>
       <r>   9.7644  0.0000</r>
       <r>   9.7645  0.0000</r>
       <r>   9.8886  0.0000</r>
       <r>   9.9934  0.0000</r>
       <r>   9.9944  0.0000</r>
       <r>   9.9959  0.0000</r>
       <r>   9.9969  0.0000</r>
       <r>  10.6337  0.0000</r>
       <r>  10.6355  0.0000</r>
       <r>  10.7426  0.0000</r>
       <r>  10.7436  0.0000</r>
       <r>  10.7443  0.0000</r>
       <r>  10.7453  0.0000</r>
       <r>  11.3816  0.0000</r>
       <r>  11.3829  0.0000</r>
       <r>  11.3836  0.0000</r>
       <r>  11.4449  0.0000</r>
       <r>  11.4539  0.0000</r>
       <r>  11.4798  0.0000</r>
      </set>
      <set comment="kpoint 10">
       <r>  -2.5718  1.0000</r>
       <r>  -0.9423  1.0000</r>
       <r>  -0.5383  1.0000</r>
       <r>  -0.1357  1.0000</r>
       <r>  -0.1357  1.0000</r>
       <r>   0.2655  1.0000</r>
       <r>   0.6652  1.0000</r>
       <r>   1.0645  1.0000</r>
       <r>   1.4617  1.0000</r>
       <r>   1.4617  1.0000</r>
       <r>   1.8569  1.0000</r>
       <r>   1.8577  1.0000</r>
       <r>   1.8583  1.0000</r>
       <r>   2.6443  1.0000</r>
       <r>   2.6451  1.0000</r>
       <r>   2.6457  1.0000</r>
       <r>   3.0365  1.0000</r>
       <r>   3.0365  1.0000</r>
       <r>   3.4174  1.0000</r>
       <r>   3.4174  1.0000</r>
       <r>   3.4266  1.0000</r>
       <r>   4.1444  1.0000</r>
       <r>   4.1444  1.0000</r>
       <r>   5.0984  1.0000</r>
       <r>   5.0984  1.0000</r>
       <r>   5.2703  1.0000</r>
       <r>   5.8182  1.0000</r>
       <r>   5.8182  1.0000</r>
       <r>   5.9058  1.0000</r>
       <r>   6.2227  1.0000</r>
       <r>   7.1410  1.0000</r>
       <r>   7.3917  1.0000</r>
       <r>   7.4848  1.0000</r>
       <r>   7.4848  1.0000</r>
       <r>   7.7031  1.0000</r>
       <r>   7.7984  1.0000</r>
       <r>   7.8545  1.0000</r>
       <r>   8.0741  1.0000</r>
       <r>   8.1130  1.0000</r>
       <r>   8.1795  1.0000</r>
       <r>   8.1795  1.0000</r>
       <r>   8.7368  1.0000</r>
       <r>   8.7415  1.0000</r>
       <r>   8.8167  1.0000</r>
       <r>   9.1882  1.0000</r>
       <r>   9.3606  0.9998</r>
       <r>   9.3812  0.7385</r>
       <r>   9.4644  0.0000</r>
       <r>   9.4644  0.0000</r>
       <r>   9.5625  0.0000</r>
       <r>   9.6673  0.0000</r>
       <r>   9.6673  0.0000</r>
       <r>   9.6901  0.0000</r>
       <r>   9.9719  0.0000</r>
       <r>  10.1190  0.0000</r>
       <r>  10.1190  0.0000</r>
       <r>  10.2166  0.0000</r>
       <r>  10.2167  0.0000</r>
       <r>  10.3080  0.0000</r>
       <r>  11.0546  0.0000</r>
       <r>  11.1648  0.0000</r>
       <r>  11.1648  0.0000</r>
       <r>  11.4561  0.0000</r>
       <r>  11.5983  0.0000</r>
       <r>  11.6319  0.0000</r>
       <r>  11.7596  0.0000</r>
       <r>  11.7786  0.0000</r>
       <r>  11.7861  0.0000</r>
      </set>
      <set comment="kpoint 11">
       <r>  -2.4864  1.0000</r>
       <r>  -1.2630  1.0000</r>
       <r>  -0.4543  1.0000</r>
       <r>  -0.0520  1.0000</r>
       <r>  -0.0519  1.0000</r>
       <r>   0.3490  1.0000</r>
       <r>   0.7490  1.0000</r>
       <r>   1.1449  1.0000</r>
       <r>   1.1473  1.0000</r>
       <r>   1.1487  1.0000</r>
       <r>   1.5442  1.0000</r>
       <r>   1.9400  1.0000</r>
       <r>   1.9400  1.0000</r>
       <r>   2.7266  1.0000</r>
       <r>   2.7266  1.0000</r>
       <r>   3.1129  1.0000</r>
       <r>   3.1136  1.0000</r>
       <r>   3.1183  1.0000</r>
       <r>   3.5072  1.0000</r>
       <r>   3.5072  1.0000</r>
       <r>   3.8741  1.0000</r>
       <r>   3.8742  1.0000</r>
       <r>   3.8955  1.0000</r>
       <r>   4.6285  1.0000</r>
       <r>   5.5263  1.0000</r>
       <r>   5.5263  1.0000</r>
       <r>   5.9836  1.0000</r>
       <r>   6.2760  1.0000</r>
       <r>   6.2761  1.0000</r>
       <r>   6.2997  1.0000</r>
       <r>   6.5200  1.0000</r>
       <r>   6.8820  1.0000</r>
       <r>   6.8820  1.0000</r>
       <r>   7.0996  1.0000</r>
       <r>   7.2503  1.0000</r>
       <r>   7.4097  1.0000</r>
       <r>   7.8761  1.0000</r>
       <r>   8.1515  1.0000</r>
       <r>   8.1900  1.0000</r>
       <r>   8.2501  1.0000</r>
       <r>   8.2501  1.0000</r>
       <r>   8.8062  1.0000</r>
       <r>   8.8610  1.0000</r>
       <r>   8.8610  1.0000</r>
       <r>   8.8943  1.0000</r>
       <r>   9.1897  1.0000</r>
       <r>   9.2676  1.0000</r>
       <r>   9.3707  0.9834</r>
       <r>   9.3707  0.9832</r>
       <r>   9.5159  0.0000</r>
       <r>   9.5264  0.0000</r>
       <r>   9.6161  0.0000</r>
       <r>   9.6161  0.0000</r>
       <r>   9.6375  0.0000</r>
       <r>   9.8692  0.0000</r>
       <r>  10.0126  0.0000</r>
       <r>  10.3572  0.0000</r>
       <r>  10.3994  0.0000</r>
       <r>  10.3994  0.0000</r>
       <r>  11.1502  0.0000</r>
       <r>  11.5058  0.0000</r>
       <r>  11.6164  0.0000</r>
       <r>  11.6164  0.0000</r>
       <r>  11.7915  0.0000</r>
       <r>  11.7915  0.0000</r>
       <r>  11.8957  0.0000</r>
       <r>  11.9301  0.0000</r>
       <r>  12.1209  0.0000</r>
      </set>
      <set comment="kpoint 12">
       <r>  -2.3669  1.0000</r>
       <r>  -1.5508  1.0000</r>
       <r>  -0.3368  1.0000</r>
       <r>   0.0651  1.0000</r>
       <r>   0.0652  1.0000</r>
       <r>   0.4652  1.0000</r>
       <r>   0.4664  1.0000</r>
       <r>   0.8652  1.0000</r>
       <r>   0.8652  1.0000</r>
       <r>   1.2631  1.0000</r>
       <r>   1.6579  1.0000</r>
       <r>   2.0550  1.0000</r>
       <r>   2.0550  1.0000</r>
       <r>   2.8386  1.0000</r>
       <r>   2.8389  1.0000</r>
       <r>   2.8406  1.0000</r>
       <r>   2.8409  1.0000</r>
       <r>   3.6112  1.0000</r>
       <r>   3.6112  1.0000</r>
       <r>   3.6198  1.0000</r>
       <r>   3.9888  1.0000</r>
       <r>   4.0072  1.0000</r>
       <r>   4.0072  1.0000</r>
       <r>   4.3932  1.0000</r>
       <r>   5.8988  1.0000</r>
       <r>   6.0086  1.0000</r>
       <r>   6.0086  1.0000</r>
       <r>   6.0925  1.0000</r>
       <r>   6.2702  1.0000</r>
       <r>   6.2702  1.0000</r>
       <r>   6.4074  1.0000</r>
       <r>   6.6428  1.0000</r>
       <r>   6.7666  1.0000</r>
       <r>   6.7666  1.0000</r>
       <r>   6.8371  1.0000</r>
       <r>   7.1473  1.0000</r>
       <r>   7.9837  1.0000</r>
       <r>   8.2495  1.0000</r>
       <r>   8.2498  1.0000</r>
       <r>   8.2602  1.0000</r>
       <r>   8.2969  1.0000</r>
       <r>   8.3572  1.0000</r>
       <r>   8.3572  1.0000</r>
       <r>   8.6536  1.0000</r>
       <r>   8.9816  1.0000</r>
       <r>   9.0019  1.0000</r>
       <r>   9.0041  1.0000</r>
       <r>   9.0073  1.0000</r>
       <r>   9.0080  1.0000</r>
       <r>   9.1053  1.0000</r>
       <r>   9.1053  1.0000</r>
       <r>   9.7484  0.0000</r>
       <r>   9.9220  0.0000</r>
       <r>  10.0339  0.0000</r>
       <r>  10.1180  0.0000</r>
       <r>  10.3666  0.0000</r>
       <r>  10.6192  0.0000</r>
       <r>  10.6193  0.0000</r>
       <r>  10.6444  0.0000</r>
       <r>  10.8730  0.0000</r>
       <r>  11.5127  0.0000</r>
       <r>  11.5127  0.0000</r>
       <r>  11.6120  0.0000</r>
       <r>  11.9882  0.0000</r>
       <r>  12.0959  0.0000</r>
       <r>  12.0986  0.0000</r>
       <r>  12.0991  0.0000</r>
       <r>  12.3358  0.0000</r>
      </set>
      <set comment="kpoint 13">
       <r>  -2.2135  1.0000</r>
       <r>  -1.8052  1.0000</r>
       <r>  -0.1859  1.0000</r>
       <r>   0.2141  1.0000</r>
       <r>   0.2156  1.0000</r>
       <r>   0.2171  1.0000</r>
       <r>   0.6142  1.0000</r>
       <r>   0.6158  1.0000</r>
       <r>   0.6172  1.0000</r>
       <r>   1.0145  1.0000</r>
       <r>   2.1989  1.0000</r>
       <r>   2.2027  1.0000</r>
       <r>   2.2033  1.0000</r>
       <r>   2.5951  1.0000</r>
       <r>   2.5951  1.0000</r>
       <r>   2.9866  1.0000</r>
       <r>   2.9866  1.0000</r>
       <r>   3.3669  1.0000</r>
       <r>   3.3732  1.0000</r>
       <r>   3.3735  1.0000</r>
       <r>   4.1508  1.0000</r>
       <r>   4.5356  1.0000</r>
       <r>   4.5356  1.0000</r>
       <r>   4.9191  1.0000</r>
       <r>   5.2931  1.0000</r>
       <r>   5.6704  1.0000</r>
       <r>   5.6704  1.0000</r>
       <r>   6.0472  1.0000</r>
       <r>   6.2324  1.0000</r>
       <r>   6.5271  1.0000</r>
       <r>   6.5272  1.0000</r>
       <r>   6.5461  1.0000</r>
       <r>   6.6049  1.0000</r>
       <r>   6.9159  1.0000</r>
       <r>   7.2874  1.0000</r>
       <r>   7.2874  1.0000</r>
       <r>   7.6519  1.0000</r>
       <r>   7.6519  1.0000</r>
       <r>   8.1197  1.0000</r>
       <r>   8.3992  1.0000</r>
       <r>   8.4110  1.0000</r>
       <r>   8.4112  1.0000</r>
       <r>   8.4323  1.0000</r>
       <r>   8.4636  1.0000</r>
       <r>   8.4969  1.0000</r>
       <r>   8.4969  1.0000</r>
       <r>   8.7713  1.0000</r>
       <r>   8.7794  1.0000</r>
       <r>   8.8711  1.0000</r>
       <r>   8.8711  1.0000</r>
       <r>   9.1426  1.0000</r>
       <r>   9.5153  0.0000</r>
       <r>  10.2084  0.0000</r>
       <r>  10.4093  0.0000</r>
       <r>  10.6244  0.0000</r>
       <r>  10.6295  0.0000</r>
       <r>  10.8218  0.0000</r>
       <r>  10.8218  0.0000</r>
       <r>  10.8829  0.0000</r>
       <r>  11.2457  0.0000</r>
       <r>  11.2602  0.0000</r>
       <r>  11.2603  0.0000</r>
       <r>  11.3523  0.0000</r>
       <r>  11.5034  0.0000</r>
       <r>  11.7446  0.0000</r>
       <r>  12.5020  0.0000</r>
       <r>  12.6110  0.0000</r>
       <r>  12.6110  0.0000</r>
      </set>
      <set comment="kpoint 14">
       <r>  -2.0277  1.0000</r>
       <r>  -2.0247  1.0000</r>
       <r>  -0.0032  1.0000</r>
       <r>  -0.0001  1.0000</r>
       <r>   0.3970  1.0000</r>
       <r>   0.3982  1.0000</r>
       <r>   0.4001  1.0000</r>
       <r>   0.4013  1.0000</r>
       <r>   0.7970  1.0000</r>
       <r>   0.8001  1.0000</r>
       <r>   2.3806  1.0000</r>
       <r>   2.3819  1.0000</r>
       <r>   2.3838  1.0000</r>
       <r>   2.3850  1.0000</r>
       <r>   2.7692  1.0000</r>
       <r>   2.7704  1.0000</r>
       <r>   3.1622  1.0000</r>
       <r>   3.1635  1.0000</r>
       <r>   3.1653  1.0000</r>
       <r>   3.1666  1.0000</r>
       <r>   4.7087  1.0000</r>
       <r>   4.7098  1.0000</r>
       <r>   5.0899  1.0000</r>
       <r>   5.0906  1.0000</r>
       <r>   5.0910  1.0000</r>
       <r>   5.0917  1.0000</r>
       <r>   5.4707  1.0000</r>
       <r>   5.4718  1.0000</r>
       <r>   6.4016  1.0000</r>
       <r>   6.4048  1.0000</r>
       <r>   6.7138  1.0000</r>
       <r>   6.7172  1.0000</r>
       <r>   7.0754  1.0000</r>
       <r>   7.0757  1.0000</r>
       <r>   7.0766  1.0000</r>
       <r>   7.0770  1.0000</r>
       <r>   7.8356  1.0000</r>
       <r>   7.8360  1.0000</r>
       <r>   7.8369  1.0000</r>
       <r>   7.8373  1.0000</r>
       <r>   8.2799  1.0000</r>
       <r>   8.2829  1.0000</r>
       <r>   8.5680  1.0000</r>
       <r>   8.5714  1.0000</r>
       <r>   8.5927  1.0000</r>
       <r>   8.5958  1.0000</r>
       <r>   8.6659  1.0000</r>
       <r>   8.6674  1.0000</r>
       <r>   8.6692  1.0000</r>
       <r>   8.6707  1.0000</r>
       <r>   9.3117  1.0000</r>
       <r>   9.3151  1.0000</r>
       <r>  10.4020  0.0000</r>
       <r>  10.4052  0.0000</r>
       <r>  10.9385  0.0000</r>
       <r>  10.9406  0.0000</r>
       <r>  11.0297  0.0000</r>
       <r>  11.0303  0.0000</r>
       <r>  11.0330  0.0000</r>
       <r>  11.0336  0.0000</r>
       <r>  11.1106  0.0000</r>
       <r>  11.1139  0.0000</r>
       <r>  11.1707  0.0000</r>
       <r>  11.1730  0.0000</r>
       <r>  12.1571  0.0000</r>
       <r>  12.1580  0.0000</r>
       <r>  13.0476  0.0000</r>
       <r>  13.0695  0.0000</r>
      </set>
      <set comment="kpoint 15">
       <r>  -2.5889  1.0000</r>
       <r>  -0.9591  1.0000</r>
       <r>  -0.1555  1.0000</r>
       <r>  -0.1524  1.0000</r>
       <r>  -0.1524  1.0000</r>
       <r>  -0.1493  1.0000</r>
       <r>   0.6486  1.0000</r>
       <r>   1.4421  1.0000</r>
       <r>   1.4452  1.0000</r>
       <r>   1.4452  1.0000</r>
       <r>   1.4483  1.0000</r>
       <r>   2.2336  1.0000</r>
       <r>   2.2345  1.0000</r>
       <r>   2.2370  1.0000</r>
       <r>   2.2379  1.0000</r>
       <r>   3.0172  1.0000</r>
       <r>   3.0203  1.0000</r>
       <r>   3.0203  1.0000</r>
       <r>   3.0234  1.0000</r>
       <r>   3.7759  1.0000</r>
       <r>   3.7767  1.0000</r>
       <r>   3.7791  1.0000</r>
       <r>   3.7800  1.0000</r>
       <r>   5.2545  1.0000</r>
       <r>   5.4280  1.0000</r>
       <r>   5.4288  1.0000</r>
       <r>   5.4313  1.0000</r>
       <r>   5.4322  1.0000</r>
       <r>   6.2073  1.0000</r>
       <r>   6.2073  1.0000</r>
       <r>   7.4850  1.0000</r>
       <r>   7.4884  1.0000</r>
       <r>   7.4884  1.0000</r>
       <r>   7.4918  1.0000</r>
       <r>   7.6876  1.0000</r>
       <r>   7.6877  1.0000</r>
       <r>   7.7829  1.0000</r>
       <r>   7.7829  1.0000</r>
       <r>   8.4269  1.0000</r>
       <r>   8.4298  1.0000</r>
       <r>   8.4298  1.0000</r>
       <r>   8.4327  1.0000</r>
       <r>   8.7261  1.0000</r>
       <r>   9.0860  1.0000</r>
       <r>   9.0861  1.0000</r>
       <r>   9.1727  1.0000</r>
       <r>   9.1727  1.0000</r>
       <r>   9.8224  0.0000</r>
       <r>   9.8238  0.0000</r>
       <r>   9.8264  0.0000</r>
       <r>   9.8277  0.0000</r>
       <r>   9.8716  0.0000</r>
       <r>   9.8746  0.0000</r>
       <r>   9.8746  0.0000</r>
       <r>   9.8776  0.0000</r>
       <r>   9.9167  0.0000</r>
       <r>   9.9196  0.0000</r>
       <r>   9.9197  0.0000</r>
       <r>   9.9227  0.0000</r>
       <r>  11.4096  0.0000</r>
       <r>  11.4127  0.0000</r>
       <r>  11.4127  0.0000</r>
       <r>  11.4157  0.0000</r>
       <r>  11.5526  0.0000</r>
       <r>  11.5526  0.0000</r>
       <r>  11.7078  0.0000</r>
       <r>  11.7100  0.0000</r>
       <r>  11.7109  0.0000</r>
      </set>
      <set comment="kpoint 16">
       <r>  -2.5718  1.0000</r>
       <r>  -0.9423  1.0000</r>
       <r>  -0.5383  1.0000</r>
       <r>  -0.1357  1.0000</r>
       <r>  -0.1357  1.0000</r>
       <r>   0.2655  1.0000</r>
       <r>   0.6652  1.0000</r>
       <r>   1.0645  1.0000</r>
       <r>   1.4617  1.0000</r>
       <r>   1.4617  1.0000</r>
       <r>   1.8562  1.0000</r>
       <r>   1.8577  1.0000</r>
       <r>   1.8590  1.0000</r>
       <r>   2.6436  1.0000</r>
       <r>   2.6451  1.0000</r>
       <r>   2.6464  1.0000</r>
       <r>   3.0365  1.0000</r>
       <r>   3.0365  1.0000</r>
       <r>   3.4174  1.0000</r>
       <r>   3.4174  1.0000</r>
       <r>   3.4266  1.0000</r>
       <r>   4.1444  1.0000</r>
       <r>   4.1444  1.0000</r>
       <r>   5.0984  1.0000</r>
       <r>   5.0984  1.0000</r>
       <r>   5.2703  1.0000</r>
       <r>   5.8182  1.0000</r>
       <r>   5.8182  1.0000</r>
       <r>   5.9058  1.0000</r>
       <r>   6.2227  1.0000</r>
       <r>   7.1410  1.0000</r>
       <r>   7.3917  1.0000</r>
       <r>   7.4848  1.0000</r>
       <r>   7.4848  1.0000</r>
       <r>   7.7031  1.0000</r>
       <r>   7.7984  1.0000</r>
       <r>   7.8545  1.0000</r>
       <r>   8.0740  1.0000</r>
       <r>   8.1129  1.0000</r>
       <r>   8.1795  1.0000</r>
       <r>   8.1795  1.0000</r>
       <r>   8.7367  1.0000</r>
       <r>   8.7416  1.0000</r>
       <r>   8.8167  1.0000</r>
       <r>   9.1882  1.0000</r>
       <r>   9.3606  0.9998</r>
       <r>   9.3812  0.7386</r>
       <r>   9.4644  0.0000</r>
       <r>   9.4644  0.0000</r>
       <r>   9.5625  0.0000</r>
       <r>   9.6673  0.0000</r>
       <r>   9.6674  0.0000</r>
       <r>   9.6900  0.0000</r>
       <r>   9.9719  0.0000</r>
       <r>  10.1190  0.0000</r>
       <r>  10.1190  0.0000</r>
       <r>  10.2166  0.0000</r>
       <r>  10.2166  0.0000</r>
       <r>  10.3080  0.0000</r>
       <r>  11.0545  0.0000</r>
       <r>  11.1648  0.0000</r>
       <r>  11.1648  0.0000</r>
       <r>  11.4561  0.0000</r>
       <r>  11.5983  0.0000</r>
       <r>  11.6319  0.0000</r>
       <r>  11.7634  0.0000</r>
       <r>  11.7786  0.0000</r>
       <r>  11.7921  0.0000</r>
      </set>
      <set comment="kpoint 17">
       <r>  -2.5205  1.0000</r>
       <r>  -0.8930  1.0000</r>
       <r>  -0.8904  1.0000</r>
       <r>  -0.0854  1.0000</r>
       <r>  -0.0854  1.0000</r>
       <r>   0.7134  1.0000</r>
       <r>   0.7154  1.0000</r>
       <r>   0.7173  1.0000</r>
       <r>   1.5095  1.0000</r>
       <r>   1.5105  1.0000</r>
       <r>   1.5121  1.0000</r>
       <r>   1.5131  1.0000</r>
       <r>   2.3006  1.0000</r>
       <r>   2.3015  1.0000</r>
       <r>   3.0804  1.0000</r>
       <r>   3.0809  1.0000</r>
       <r>   3.0839  1.0000</r>
       <r>   3.0845  1.0000</r>
       <r>   3.0861  1.0000</r>
       <r>   3.0873  1.0000</r>
       <r>   3.8633  1.0000</r>
       <r>   4.3932  1.0000</r>
       <r>   4.3932  1.0000</r>
       <r>   4.9469  1.0000</r>
       <r>   4.9469  1.0000</r>
       <r>   5.3173  1.0000</r>
       <r>   5.3181  1.0000</r>
       <r>   6.2445  1.0000</r>
       <r>   6.2445  1.0000</r>
       <r>   6.2689  1.0000</r>
       <r>   6.8176  1.0000</r>
       <r>   6.8201  1.0000</r>
       <r>   7.3722  1.0000</r>
       <r>   7.3722  1.0000</r>
       <r>   7.7480  1.0000</r>
       <r>   7.7509  1.0000</r>
       <r>   7.7944  1.0000</r>
       <r>   7.7945  1.0000</r>
       <r>   7.8446  1.0000</r>
       <r>   8.2185  1.0000</r>
       <r>   8.2208  1.0000</r>
       <r>   8.7862  1.0000</r>
       <r>   8.7871  1.0000</r>
       <r>   9.1329  1.0000</r>
       <r>   9.1340  1.0000</r>
       <r>   9.1356  1.0000</r>
       <r>   9.1366  1.0000</r>
       <r>   9.2328  1.0000</r>
       <r>   9.2354  1.0000</r>
       <r>   9.2381  1.0000</r>
       <r>   9.4949  0.0000</r>
       <r>   9.4967  0.0000</r>
       <r>   9.9344  0.0000</r>
       <r>   9.9374  0.0000</r>
       <r>  10.5589  0.0000</r>
       <r>  10.5590  0.0000</r>
       <r>  10.6376  0.0000</r>
       <r>  10.6385  0.0000</r>
       <r>  10.6391  0.0000</r>
       <r>  10.6401  0.0000</r>
       <r>  10.7268  0.0000</r>
       <r>  10.7286  0.0000</r>
       <r>  11.1230  0.0000</r>
       <r>  11.7507  0.0000</r>
       <r>  11.7514  0.0000</r>
       <r>  12.0173  0.0000</r>
       <r>  12.0173  0.0000</r>
       <r>  12.2232  0.0000</r>
      </set>
      <set comment="kpoint 18">
       <r>  -2.4352  1.0000</r>
       <r>  -1.2123  1.0000</r>
       <r>  -0.8074  1.0000</r>
       <r>  -0.0018  1.0000</r>
       <r>  -0.0017  1.0000</r>
       <r>   0.3993  1.0000</r>
       <r>   0.7983  1.0000</r>
       <r>   1.1946  1.0000</r>
       <r>   1.1970  1.0000</r>
       <r>   1.1984  1.0000</r>
       <r>   1.5939  1.0000</r>
       <r>   1.5939  1.0000</r>
       <r>   1.9889  1.0000</r>
       <r>   2.7725  1.0000</r>
       <r>   2.7737  1.0000</r>
       <r>   2.7764  1.0000</r>
       <r>   3.1661  1.0000</r>
       <r>   3.1661  1.0000</r>
       <r>   3.5554  1.0000</r>
       <r>   3.5554  1.0000</r>
       <r>   4.2714  1.0000</r>
       <r>   4.2714  1.0000</r>
       <r>   4.3297  1.0000</r>
       <r>   4.6763  1.0000</r>
       <r>   5.2280  1.0000</r>
       <r>   5.2280  1.0000</r>
       <r>   5.3966  1.0000</r>
       <r>   6.1936  1.0000</r>
       <r>   6.3458  1.0000</r>
       <r>   6.5247  1.0000</r>
       <r>   6.7042  1.0000</r>
       <r>   6.7042  1.0000</r>
       <r>   6.8947  1.0000</r>
       <r>   6.8947  1.0000</r>
       <r>   7.4560  1.0000</r>
       <r>   7.6426  1.0000</r>
       <r>   7.7424  1.0000</r>
       <r>   7.7424  1.0000</r>
       <r>   7.8268  1.0000</r>
       <r>   7.9209  1.0000</r>
       <r>   8.5124  1.0000</r>
       <r>   8.5301  1.0000</r>
       <r>   8.5301  1.0000</r>
       <r>   8.8365  1.0000</r>
       <r>   8.8365  1.0000</r>
       <r>   8.8618  1.0000</r>
       <r>   8.9420  1.0000</r>
       <r>   9.3125  1.0000</r>
       <r>   9.3988  0.0324</r>
       <r>   9.5705  0.0000</r>
       <r>   9.6138  0.0000</r>
       <r>   9.6842  0.0000</r>
       <r>   9.7983  0.0000</r>
       <r>  10.0396  0.0000</r>
       <r>  10.0397  0.0000</r>
       <r>  10.4320  0.0000</r>
       <r>  10.4770  0.0000</r>
       <r>  10.8188  0.0000</r>
       <r>  10.9317  0.0000</r>
       <r>  10.9317  0.0000</r>
       <r>  11.0913  0.0000</r>
       <r>  11.0913  0.0000</r>
       <r>  11.1786  0.0000</r>
       <r>  12.0308  0.0000</r>
       <r>  12.0593  0.0000</r>
       <r>  12.1932  0.0000</r>
       <r>  12.3064  0.0000</r>
       <r>  12.4109  0.0000</r>
      </set>
      <set comment="kpoint 19">
       <r>  -2.3157  1.0000</r>
       <r>  -1.5000  1.0000</r>
       <r>  -0.6896  1.0000</r>
       <r>   0.1139  1.0000</r>
       <r>   0.1153  1.0000</r>
       <r>   0.1168  1.0000</r>
       <r>   0.9133  1.0000</r>
       <r>   0.9151  1.0000</r>
       <r>   0.9163  1.0000</r>
       <r>   1.7061  1.0000</r>
       <r>   1.7089  1.0000</r>
       <r>   1.7093  1.0000</r>
       <r>   1.7107  1.0000</r>
       <r>   2.4970  1.0000</r>
       <r>   2.4970  1.0000</r>
       <r>   3.2785  1.0000</r>
       <r>   3.2792  1.0000</r>
       <r>   3.2799  1.0000</r>
[...]
       <r>   3.3605  1.0000</r>
       <r>   3.7395  1.0000</r>
       <r>   3.7413  1.0000</r>
       <r>   3.7431  1.0000</r>
       <r>   3.7435  1.0000</r>
       <r>   3.7436  1.0000</r>
       <r>   3.7440  1.0000</r>
       <r>   3.7459  1.0000</r>
       <r>   3.7476  1.0000</r>
       <r>   4.1244  1.0000</r>
       <r>   4.1262  1.0000</r>
       <r>   4.1280  1.0000</r>
       <r>   4.1284  1.0000</r>
       <r>   4.1286  1.0000</r>
       <r>   4.1290  1.0000</r>
       <r>   4.1308  1.0000</r>
       <r>   4.1326  1.0000</r>
       <r>   4.5060  1.0000</r>
       <r>   4.5086  1.0000</r>
       <r>   4.5091  1.0000</r>
       <r>   4.5118  1.0000</r>
       <r>   8.0054  1.0000</r>
       <r>   8.0071  1.0000</r>
       <r>   8.0094  1.0000</r>
       <r>   8.0096  1.0000</r>
       <r>   8.0097  1.0000</r>
       <r>   8.0100  1.0000</r>
       <r>   8.0122  1.0000</r>
       <r>   8.0139  1.0000</r>
       <r>   8.3705  1.0000</r>
       <r>   8.3718  1.0000</r>
       <r>   8.3720  1.0000</r>
       <r>   8.3733  1.0000</r>
       <r>   8.7583  1.0000</r>
       <r>   8.7597  1.0000</r>
       <r>   8.7598  1.0000</r>
       <r>   8.7611  1.0000</r>
       <r>   9.1123  1.0000</r>
       <r>   9.1143  1.0000</r>
       <r>   9.1165  1.0000</r>
       <r>   9.1168  1.0000</r>
       <r>   9.1169  1.0000</r>
       <r>   9.1171  1.0000</r>
       <r>   9.1194  1.0000</r>
       <r>   9.1213  1.0000</r>
       <r>  12.4537  0.0000</r>
       <r>  12.4561  0.0000</r>
       <r>  12.4569  0.0000</r>
       <r>  12.4593  0.0000</r>
       <r>  12.5307  0.0000</r>
       <r>  12.5322  0.0000</r>
       <r>  12.5324  0.0000</r>
       <r>  12.5338  0.0000</r>
       <r>  13.1769  0.0000</r>
       <r>  13.1779  0.0000</r>
       <r>  13.1795  0.0000</r>
       <r>  13.1801  0.0000</r>
      </set>
      <set comment="kpoint 190">
       <r>  -1.4323  1.0000</r>
       <r>  -1.4322  1.0000</r>
       <r>  -1.4322  1.0000</r>
       <r>  -1.4322  1.0000</r>
       <r>   0.9762  1.0000</r>
       <r>   0.9808  1.0000</r>
       <r>   0.9808  1.0000</r>
       <r>   0.9814  1.0000</r>
       <r>   0.9816  1.0000</r>
       <r>   0.9822  1.0000</r>
       <r>   0.9822  1.0000</r>
       <r>   0.9868  1.0000</r>
       <r>   3.3395  1.0000</r>
       <r>   3.3395  1.0000</r>
       <r>   3.3395  1.0000</r>
       <r>   3.3395  1.0000</r>
       <r>   3.3395  1.0000</r>
       <r>   3.3395  1.0000</r>
       <r>   3.3395  1.0000</r>
       <r>   3.3395  1.0000</r>
       <r>   5.3929  1.0000</r>
       <r>   5.3929  1.0000</r>
       <r>   5.3945  1.0000</r>
       <r>   5.3945  1.0000</r>
       <r>   5.3945  1.0000</r>
       <r>   5.3945  1.0000</r>
       <r>   5.3961  1.0000</r>
       <r>   5.3961  1.0000</r>
       <r>   5.9760  1.0000</r>
       <r>   5.9760  1.0000</r>
       <r>   5.9780  1.0000</r>
       <r>   5.9780  1.0000</r>
       <r>   5.9780  1.0000</r>
       <r>   5.9780  1.0000</r>
       <r>   5.9800  1.0000</r>
       <r>   5.9800  1.0000</r>
       <r>   7.2555  1.0000</r>
       <r>   7.2555  1.0000</r>
       <r>   7.2555  1.0000</r>
       <r>   7.2555  1.0000</r>
       <r>   7.7622  1.0000</r>
       <r>   7.7622  1.0000</r>
       <r>   7.7622  1.0000</r>
       <r>   7.7622  1.0000</r>
       <r>   9.2098  1.0000</r>
       <r>   9.2099  1.0000</r>
       <r>   9.2099  1.0000</r>
       <r>   9.2099  1.0000</r>
       <r>  10.2652  0.0000</r>
       <r>  10.2652  0.0000</r>
       <r>  10.2654  0.0000</r>
       <r>  10.2670  0.0000</r>
       <r>  10.2683  0.0000</r>
       <r>  10.2698  0.0000</r>
       <r>  10.2700  0.0000</r>
       <r>  10.2700  0.0000</r>
       <r>  11.7188  0.0000</r>
       <r>  11.7188  0.0000</r>
       <r>  11.7188  0.0000</r>
       <r>  11.7189  0.0000</r>
       <r>  11.7189  0.0000</r>
       <r>  11.7189  0.0000</r>
       <r>  11.7189  0.0000</r>
       <r>  11.7189  0.0000</r>
       <r>  12.4384  0.0000</r>
       <r>  12.4384  0.0000</r>
       <r>  12.4384  0.0000</r>
       <r>  12.4385  0.0000</r>
      </set>
      <set comment="kpoint 191">
       <r>  -1.4153  1.0000</r>
       <r>  -1.4153  1.0000</r>
       <r>  -1.4153  1.0000</r>
       <r>  -1.4153  1.0000</r>
       <r>   0.5992  1.0000</r>
       <r>   0.5993  1.0000</r>
       <r>   0.5993  1.0000</r>
       <r>   0.5993  1.0000</r>
       <r>   1.3954  1.0000</r>
       <r>   1.3954  1.0000</r>
       <r>   1.3954  1.0000</r>
       <r>   1.3955  1.0000</r>
       <r>   3.3557  1.0000</r>
       <r>   3.3557  1.0000</r>
       <r>   3.3557  1.0000</r>
       <r>   3.3558  1.0000</r>
       <r>   3.3558  1.0000</r>
       <r>   3.3558  1.0000</r>
       <r>   3.3558  1.0000</r>
       <r>   3.3558  1.0000</r>
       <r>   5.2174  1.0000</r>
       <r>   5.2174  1.0000</r>
       <r>   5.2182  1.0000</r>
       <r>   5.2183  1.0000</r>
       <r>   5.2183  1.0000</r>
       <r>   5.2183  1.0000</r>
       <r>   5.2192  1.0000</r>
       <r>   5.2192  1.0000</r>
       <r>   6.1838  1.0000</r>
       <r>   6.1838  1.0000</r>
       <r>   6.1850  1.0000</r>
       <r>   6.1850  1.0000</r>
       <r>   6.1851  1.0000</r>
       <r>   6.1851  1.0000</r>
       <r>   6.1863  1.0000</r>
       <r>   6.1863  1.0000</r>
       <r>   6.9401  1.0000</r>
       <r>   6.9401  1.0000</r>
       <r>   6.9401  1.0000</r>
       <r>   6.9402  1.0000</r>
       <r>   7.8727  1.0000</r>
       <r>   7.8727  1.0000</r>
       <r>   7.8727  1.0000</r>
       <r>   7.8727  1.0000</r>
       <r>   9.4593  0.0000</r>
       <r>   9.4593  0.0000</r>
       <r>   9.4593  0.0000</r>
       <r>   9.4593  0.0000</r>
       <r>   9.9044  0.0000</r>
       <r>   9.9044  0.0000</r>
       <r>   9.9044  0.0000</r>
       <r>   9.9044  0.0000</r>
       <r>  10.6613  0.0000</r>
       <r>  10.6613  0.0000</r>
       <r>  10.6613  0.0000</r>
       <r>  10.6613  0.0000</r>
       <r>  11.4331  0.0000</r>
       <r>  11.4331  0.0000</r>
       <r>  11.4340  0.0000</r>
       <r>  11.4340  0.0000</r>
       <r>  11.4340  0.0000</r>
       <r>  11.4341  0.0000</r>
       <r>  11.4349  0.0000</r>
       <r>  11.4349  0.0000</r>
       <r>  12.5757  0.0000</r>
       <r>  12.5764  0.0000</r>
       <r>  12.5767  0.0000</r>
       <r>  12.5775  0.0000</r>
      </set>
      <set comment="kpoint 192">
       <r>  -1.3646  1.0000</r>
       <r>  -1.3645  1.0000</r>
       <r>  -1.3645  1.0000</r>
       <r>  -1.3645  1.0000</r>
       <r>   0.2491  1.0000</r>
       <r>   0.2491  1.0000</r>
       <r>   0.2491  1.0000</r>
       <r>   0.2491  1.0000</r>
       <r>   1.8407  1.0000</r>
       <r>   1.8407  1.0000</r>
       <r>   1.8407  1.0000</r>
       <r>   1.8407  1.0000</r>
       <r>   3.4043  1.0000</r>
       <r>   3.4043  1.0000</r>
       <r>   3.4043  1.0000</r>
       <r>   3.4044  1.0000</r>
       <r>   3.4044  1.0000</r>
       <r>   3.4044  1.0000</r>
       <r>   3.4044  1.0000</r>
       <r>   3.4044  1.0000</r>
       <r>   4.9235  1.0000</r>
       <r>   4.9235  1.0000</r>
       <r>   4.9240  1.0000</r>
       <r>   4.9240  1.0000</r>
       <r>   4.9240  1.0000</r>
       <r>   4.9240  1.0000</r>
       <r>   4.9245  1.0000</r>
       <r>   4.9245  1.0000</r>
       <r>   6.3676  1.0000</r>
       <r>   6.3676  1.0000</r>
       <r>   6.3676  1.0000</r>
       <r>   6.3676  1.0000</r>
       <r>   6.5709  1.0000</r>
       <r>   6.5709  1.0000</r>
       <r>   6.5717  1.0000</r>
       <r>   6.5717  1.0000</r>
       <r>   6.5717  1.0000</r>
       <r>   6.5717  1.0000</r>
       <r>   6.5726  1.0000</r>
       <r>   6.5726  1.0000</r>
       <r>   7.9903  1.0000</r>
       <r>   7.9903  1.0000</r>
       <r>   7.9903  1.0000</r>
       <r>   7.9903  1.0000</r>
       <r>   9.5719  0.0000</r>
       <r>   9.5719  0.0000</r>
       <r>   9.5719  0.0000</r>
       <r>   9.5719  0.0000</r>
       <r>  10.0476  0.0000</r>
       <r>  10.0477  0.0000</r>
       <r>  10.0477  0.0000</r>
       <r>  10.0477  0.0000</r>
       <r>  10.8948  0.0000</r>
       <r>  10.8948  0.0000</r>
       <r>  10.8957  0.0000</r>
       <r>  10.8957  0.0000</r>
       <r>  10.8957  0.0000</r>
       <r>  10.8957  0.0000</r>
       <r>  10.8965  0.0000</r>
       <r>  10.8965  0.0000</r>
       <r>  11.0851  0.0000</r>
       <r>  11.0851  0.0000</r>
       <r>  11.0851  0.0000</r>
       <r>  11.0851  0.0000</r>
       <r>  12.7480  0.0000</r>
       <r>  12.7489  0.0000</r>
       <r>  12.7494  0.0000</r>
       <r>  12.7497  0.0000</r>
      </set>
      <set comment="kpoint 193">
       <r>  -1.2800  1.0000</r>
       <r>  -1.2800  1.0000</r>
       <r>  -1.2800  1.0000</r>
       <r>  -1.2800  1.0000</r>
       <r>  -0.0685  1.0000</r>
       <r>  -0.0685  1.0000</r>
       <r>  -0.0685  1.0000</r>
       <r>  -0.0685  1.0000</r>
       <r>   2.3166  1.0000</r>
       <r>   2.3166  1.0000</r>
       <r>   2.3166  1.0000</r>
       <r>   2.3166  1.0000</r>
       <r>   3.4852  1.0000</r>
       <r>   3.4852  1.0000</r>
       <r>   3.4853  1.0000</r>
       <r>   3.4853  1.0000</r>
       <r>   3.4853  1.0000</r>
       <r>   3.4853  1.0000</r>
       <r>   3.4853  1.0000</r>
       <r>   3.4853  1.0000</r>
       <r>   4.6334  1.0000</r>
       <r>   4.6334  1.0000</r>
       <r>   4.6337  1.0000</r>
       <r>   4.6337  1.0000</r>
       <r>   4.6337  1.0000</r>
       <r>   4.6337  1.0000</r>
       <r>   4.6340  1.0000</r>
       <r>   4.6340  1.0000</r>
       <r>   5.7444  1.0000</r>
       <r>   5.7444  1.0000</r>
       <r>   5.7444  1.0000</r>
       <r>   5.7444  1.0000</r>
       <r>   7.0150  1.0000</r>
       <r>   7.0150  1.0000</r>
       <r>   7.0157  1.0000</r>
       <r>   7.0157  1.0000</r>
       <r>   7.0157  1.0000</r>
       <r>   7.0157  1.0000</r>
       <r>   7.0163  1.0000</r>
       <r>   7.0163  1.0000</r>
       <r>   8.0980  1.0000</r>
       <r>   8.0980  1.0000</r>
       <r>   8.0980  1.0000</r>
       <r>   8.0980  1.0000</r>
       <r>   9.2702  1.0000</r>
       <r>   9.2702  1.0000</r>
       <r>   9.2702  1.0000</r>
       <r>   9.2702  1.0000</r>
       <r>  10.3016  0.0000</r>
       <r>  10.3016  0.0000</r>
       <r>  10.3023  0.0000</r>
       <r>  10.3023  0.0000</r>
       <r>  10.3023  0.0000</r>
       <r>  10.3023  0.0000</r>
       <r>  10.3030  0.0000</r>
       <r>  10.3030  0.0000</r>
       <r>  10.7854  0.0000</r>
       <r>  10.7854  0.0000</r>
       <r>  10.7854  0.0000</r>
       <r>  10.7854  0.0000</r>
       <r>  11.5386  0.0000</r>
       <r>  11.5386  0.0000</r>
       <r>  11.5386  0.0000</r>
       <r>  11.5386  0.0000</r>
       <r>  12.8880  0.0000</r>
       <r>  12.8884  0.0000</r>
       <r>  12.8887  0.0000</r>
       <r>  12.8890  0.0000</r>
      </set>
      <set comment="kpoint 194">
       <r>  -1.1617  1.0000</r>
       <r>  -1.1617  1.0000</r>
       <r>  -1.1617  1.0000</r>
       <r>  -1.1617  1.0000</r>
       <r>  -0.3535  1.0000</r>
       <r>  -0.3535  1.0000</r>
       <r>  -0.3535  1.0000</r>
       <r>  -0.3535  1.0000</r>
       <r>   2.8226  1.0000</r>
       <r>   2.8226  1.0000</r>
       <r>   2.8226  1.0000</r>
       <r>   2.8226  1.0000</r>
       <r>   3.5984  1.0000</r>
       <r>   3.5984  1.0000</r>
       <r>   3.5984  1.0000</r>
       <r>   3.5984  1.0000</r>
       <r>   3.5984  1.0000</r>
       <r>   3.5984  1.0000</r>
       <r>   3.5985  1.0000</r>
       <r>   3.5985  1.0000</r>
       <r>   4.3667  1.0000</r>
       <r>   4.3667  1.0000</r>
       <r>   4.3669  1.0000</r>
       <r>   4.3669  1.0000</r>
       <r>   4.3669  1.0000</r>
       <r>   4.3669  1.0000</r>
       <r>   4.3671  1.0000</r>
       <r>   4.3671  1.0000</r>
       <r>   5.1192  1.0000</r>
       <r>   5.1192  1.0000</r>
       <r>   5.1192  1.0000</r>
       <r>   5.1193  1.0000</r>
       <r>   7.4963  1.0000</r>
       <r>   7.4963  1.0000</r>
       <r>   7.4969  1.0000</r>
       <r>   7.4969  1.0000</r>
       <r>   7.4969  1.0000</r>
       <r>   7.4969  1.0000</r>
       <r>   7.4975  1.0000</r>
       <r>   7.4975  1.0000</r>
       <r>   8.2221  1.0000</r>
       <r>   8.2221  1.0000</r>
       <r>   8.2221  1.0000</r>
       <r>   8.2221  1.0000</r>
       <r>   8.9995  1.0000</r>
       <r>   8.9995  1.0000</r>
       <r>   8.9995  1.0000</r>
       <r>   8.9995  1.0000</r>
       <r>   9.7028  0.0000</r>
       <r>   9.7028  0.0000</r>
       <r>   9.7034  0.0000</r>
       <r>   9.7034  0.0000</r>
       <r>   9.7034  0.0000</r>
       <r>   9.7034  0.0000</r>
       <r>   9.7041  0.0000</r>
       <r>   9.7041  0.0000</r>
       <r>  11.5972  0.0000</r>
       <r>  11.5972  0.0000</r>
       <r>  11.5972  0.0000</r>
       <r>  11.5972  0.0000</r>
       <r>  12.0213  0.0000</r>
       <r>  12.0213  0.0000</r>
       <r>  12.0213  0.0000</r>
       <r>  12.0213  0.0000</r>
       <r>  13.0249  0.0000</r>
       <r>  13.0256  0.0000</r>
       <r>  13.0258  0.0000</r>
       <r>  13.0263  0.0000</r>
      </set>
      <set comment="kpoint 195">
       <r>  -1.0098  1.0000</r>
       <r>  -1.0097  1.0000</r>
       <r>  -1.0097  1.0000</r>
       <r>  -1.0097  1.0000</r>
       <r>  -0.6055  1.0000</r>
       <r>  -0.6055  1.0000</r>
       <r>  -0.6055  1.0000</r>
       <r>  -0.6054  1.0000</r>
       <r>   3.3576  1.0000</r>
       <r>   3.3576  1.0000</r>
       <r>   3.3576  1.0000</r>
       <r>   3.3576  1.0000</r>
       <r>   3.7435  1.0000</r>
       <r>   3.7435  1.0000</r>
       <r>   3.7435  1.0000</r>
       <r>   3.7436  1.0000</r>
       <r>   3.7436  1.0000</r>
       <r>   3.7436  1.0000</r>
       <r>   3.7436  1.0000</r>
       <r>   3.7436  1.0000</r>
       <r>   4.1284  1.0000</r>
       <r>   4.1284  1.0000</r>
       <r>   4.1285  1.0000</r>
       <r>   4.1285  1.0000</r>
       <r>   4.1285  1.0000</r>
       <r>   4.1285  1.0000</r>
       <r>   4.1286  1.0000</r>
       <r>   4.1286  1.0000</r>
       <r>   4.5089  1.0000</r>
       <r>   4.5089  1.0000</r>
       <r>   4.5089  1.0000</r>
       <r>   4.5090  1.0000</r>
       <r>   8.0091  1.0000</r>
       <r>   8.0091  1.0000</r>
       <r>   8.0097  1.0000</r>
       <r>   8.0097  1.0000</r>
       <r>   8.0097  1.0000</r>
       <r>   8.0097  1.0000</r>
       <r>   8.0102  1.0000</r>
       <r>   8.0102  1.0000</r>
       <r>   8.3719  1.0000</r>
       <r>   8.3719  1.0000</r>
       <r>   8.3719  1.0000</r>
       <r>   8.3719  1.0000</r>
       <r>   8.7598  1.0000</r>
       <r>   8.7598  1.0000</r>
       <r>   8.7598  1.0000</r>
       <r>   8.7598  1.0000</r>
       <r>   9.1162  1.0000</r>
       <r>   9.1162  1.0000</r>
       <r>   9.1168  1.0000</r>
       <r>   9.1168  1.0000</r>
       <r>   9.1168  1.0000</r>
       <r>   9.1168  1.0000</r>
       <r>   9.1174  1.0000</r>
       <r>   9.1174  1.0000</r>
       <r>  12.4564  0.0000</r>
       <r>  12.4565  0.0000</r>
       <r>  12.4565  0.0000</r>
       <r>  12.4566  0.0000</r>
       <r>  12.5322  0.0000</r>
       <r>  12.5322  0.0000</r>
       <r>  12.5322  0.0000</r>
       <r>  12.5323  0.0000</r>
       <r>  13.1776  0.0000</r>
       <r>  13.1779  0.0000</r>
       <r>  13.1784  0.0000</r>
       <r>  13.1790  0.0000</r>
      </set>
      <set comment="kpoint 196">
       <r>  -0.8294  1.0000</r>
       <r>  -0.8248  1.0000</r>
       <r>  -0.8248  1.0000</r>
       <r>  -0.8243  1.0000</r>
       <r>  -0.8243  1.0000</r>
       <r>  -0.8238  1.0000</r>
       <r>  -0.8238  1.0000</r>
       <r>  -0.8192  1.0000</r>
       <r>   3.9099  1.0000</r>
       <r>   3.9159  1.0000</r>
       <r>   3.9159  1.0000</r>
       <r>   3.9194  1.0000</r>
       <r>   3.9198  1.0000</r>
       <r>   3.9199  1.0000</r>
       <r>   3.9203  1.0000</r>
       <r>   3.9203  1.0000</r>
       <r>   3.9204  1.0000</r>
       <r>   3.9204  1.0000</r>
       <r>   3.9204  1.0000</r>
       <r>   3.9204  1.0000</r>
       <r>   3.9204  1.0000</r>
       <r>   3.9204  1.0000</r>
       <r>   3.9204  1.0000</r>
       <r>   3.9205  1.0000</r>
       <r>   3.9205  1.0000</r>
       <r>   3.9205  1.0000</r>
       <r>   3.9209  1.0000</r>
       <r>   3.9211  1.0000</r>
       <r>   3.9214  1.0000</r>
       <r>   3.9249  1.0000</r>
       <r>   3.9249  1.0000</r>
       <r>   3.9310  1.0000</r>
       <r>   8.5441  1.0000</r>
       <r>   8.5441  1.0000</r>
       <r>   8.5466  1.0000</r>
       <r>   8.5480  1.0000</r>
       <r>   8.5498  1.0000</r>
       <r>   8.5503  1.0000</r>
       <r>   8.5504  1.0000</r>
       <r>   8.5504  1.0000</r>
       <r>   8.5506  1.0000</r>
       <r>   8.5506  1.0000</r>
       <r>   8.5507  1.0000</r>
       <r>   8.5507  1.0000</r>
       <r>   8.5507  1.0000</r>
       <r>   8.5508  1.0000</r>
       <r>   8.5508  1.0000</r>
       <r>   8.5508  1.0000</r>
       <r>   8.5510  1.0000</r>
       <r>   8.5510  1.0000</r>
       <r>   8.5512  1.0000</r>
       <r>   8.5516  1.0000</r>
       <r>   8.5534  1.0000</r>
       <r>   8.5548  1.0000</r>
       <r>   8.5573  1.0000</r>
       <r>   8.5573  1.0000</r>
       <r>  13.0684  0.0000</r>
       <r>  13.0690  0.0000</r>
       <r>  13.0690  0.0000</r>
       <r>  13.0692  0.0000</r>
       <r>  13.0712  0.0000</r>
       <r>  13.0714  0.0000</r>
       <r>  13.0714  0.0000</r>
       <r>  13.0722  0.0000</r>
       <r>  13.3497  0.0000</r>
       <r>  13.3505  0.0000</r>
       <r>  13.3514  0.0000</r>
       <r>  13.3521  0.0000</r>
      </set>
     </set>
    </set>
   </array>
  </eigenvalues>
 </calculation>
 <structure name="finalpos" >
  <crystal>
   <varray name="basis" >
    <v>       7.75162823      0.00000000      0.00000000</v>
    <v>       0.00000000      7.75162823      0.00000000</v>
    <v>       0.00000000      0.00000000      7.75162823</v>
   </varray>
   <i name="volume">    465.77782330</i>
   <varray name="rec_basis" >
    <v>       0.12900515      0.00000000      0.00000000</v>
    <v>       0.00000000      0.12900515      0.00000000</v>
    <v>       0.00000000      0.00000000      0.12900515</v>
   </varray>
  </crystal>
  <varray name="positions" >
   <v>       0.25129005      0.25000000      0.00000000</v>
   <v>       0.75000000      0.25000000      0.00000000</v>
   <v>       0.25000000      0.75000000      0.00000000</v>
   <v>       0.75000000      0.75000000      0.00000000</v>
   <v>       0.25000000      0.25000000      0.50000000</v>
   <v>       0.75000000      0.25000000      0.50000000</v>
   <v>       0.25000000      0.75000000      0.50000000</v>
   <v>       0.75000000      0.75000000      0.50000000</v>
   <v>       0.25000000      0.00000000      0.25000000</v>
   <v>       0.75000000      0.00000000      0.25000000</v>
   <v>       0.25000000      0.50000000      0.25000000</v>
   <v>       0.75000000      0.50000000      0.25000000</v>
   <v>       0.25000000      0.00000000      0.75000000</v>
   <v>       0.75000000      0.00000000      0.75000000</v>
   <v>       0.25000000      0.50000000      0.75000000</v>
   <v>       0.75000000      0.50000000      0.75000000</v>
   <v>       0.00000000      0.25000000      0.25000000</v>
   <v>       0.50000000      0.25000000      0.25000000</v>
   <v>       0.00000000      0.75000000      0.25000000</v>
   <v>       0.50000000      0.75000000      0.25000000</v>
   <v>       0.00000000      0.25000000      0.75000000</v>
   <v>       0.50000000      0.25000000      0.75000000</v>
   <v>       0.00000000      0.75000000      0.75000000</v>
   <v>       0.50000000      0.75000000      0.75000000</v>
   <v>       0.00000000      0.00000000      0.00000000</v>
   <v>       0.50000000      0.00000000      0.00000000</v>
   <v>       0.00000000      0.50000000      0.00000000</v>
   <v>       0.50000000      0.50000000      0.00000000</v>
   <v>       0.00000000      0.00000000      0.50000000</v>
   <v>       0.50000000      0.00000000      0.50000000</v>
   <v>       0.00000000      0.50000000      0.50000000</v>
   <v>       0.50000000      0.50000000      0.50000000</v>
  </varray>
 </structure>
</modeling>
