32   
1    

1    
  0.0100000000000000   0.0000000000000000   0.0000000000000000
  -0.0742032200    0.0000000000   -0.0000000000
   0.0008654700    0.0000000000   -0.0000000000
  -0.0006275300    0.0000000000   -0.0000000000
   0.0002319700    0.0000000000   -0.0000000000
  -0.0006275300    0.0000000000   -0.0000000000
   0.0002319700    0.0000000000   -0.0000000000
   0.0000350900    0.0000000000   -0.0000000000
  -0.0003068700    0.0000000000   -0.0000000000
   0.0092796600    0.0106864300    0.0000000000
   0.0090008600   -0.0102953300   -0.0000000000
   0.0092796600   -0.0106864300    0.0000000000
   0.0090008600    0.0102953300    0.0000000000
   0.0002672500    0.0001794300    0.0000000000
   0.0002689100   -0.0001827500   -0.0000000000
   0.0002672500   -0.0001794300   -0.0000000000
   0.0002689100    0.0001827500    0.0000000000
   0.0092796600   -0.0000000000    0.0106864300
   0.0090008600   -0.0000000000   -0.0102953300
   0.0002672500    0.0000000000    0.0001794300
   0.0002689100    0.0000000000   -0.0001827500
   0.0092796600   -0.0000000000   -0.0106864300
   0.0090008600    0.0000000000    0.0102953300
   0.0002672500   -0.0000000000   -0.0001794300
   0.0002689100    0.0000000000    0.0001827500
  -0.0008913800   -0.0000222100   -0.0000222100
   0.0006748600   -0.0000001600   -0.0000001600
  -0.0008913800    0.0000222100   -0.0000222100
   0.0006748600    0.0000001600   -0.0000001600
  -0.0008913800   -0.0000222100    0.0000222100
   0.0006748600   -0.0000001600    0.0000001600
  -0.0008913800    0.0000222100    0.0000222100
   0.0006748600    0.0000001600    0.0000001600
