mesh: [    48,    48,    48 ]
nqpoint: 2600   
reciprocal_lattice:
- [   0.27777379,   0.00000000,   0.00000000 ] # a*
- [   0.00000000,   0.27777379,   0.00000000 ] # b*
- [   0.00000000,   0.00000000,   0.27777379 ] # c*
natom:   4      
lattice:
- [     3.600051653615721,     0.000000000000000,     0.000000000000000 ] # a
- [     0.000000000000000,     3.600051653615721,     0.000000000000000 ] # b
- [     0.000000000000000,     0.000000000000000,     3.600051653615721 ] # c
points:
- symbol: Cu # 1
  coordinates: [  0.000000000000000,  0.000000000000000,  0.000000000000000 ]
  mass: 63.546000
- symbol: Cu # 2
  coordinates: [  0.500000000000000,  0.500000000000000,  0.000000000000000 ]
  mass: 63.546000
- symbol: Cu # 3
  coordinates: [  0.500000000000000,  0.000000000000000,  0.500000000000000 ]
  mass: 63.546000
- symbol: Cu # 4
  coordinates: [  0.000000000000000,  0.500000000000000,  0.500000000000000 ]
  mass: 63.546000
phonon:
- q-position: [    0.0104167,    0.0104167,    0.0104167 ]
  weight: 8    
  band:
  - # 1
    frequency:     0.1295763750
  - # 2
    frequency:     0.1295763750
  - # 3
    frequency:     0.2636591048
  - # 4
    frequency:     5.3161976538
  - # 5
    frequency:     5.3161976538
  - # 6
    frequency:     5.3161976538
  - # 7
    frequency:     5.3195006650
  - # 8
    frequency:     5.3195006650
  - # 9
    frequency:     5.3195006650
  - # 10
    frequency:     7.6068762643
  - # 11
    frequency:     7.6068762643
  - # 12
    frequency:     7.6068762643

- q-position: [    0.0312500,    0.0104167,    0.0104167 ]
  weight: 24   
  band:
  - # 1
    frequency:     0.2589942055
  - # 2
    frequency:     0.2827133923
  - # 3
    frequency:     0.4802056521
  - # 4
    frequency:     5.3107574014
  - # 5
    frequency:     5.3140025076
  - # 6
    frequency:     5.3140025076
  - # 7
    frequency:     5.3140471341
  - # 8
    frequency:     5.3255310256
  - # 9
    frequency:     5.3255310256
  - # 10
    frequency:     7.6003511982
  - # 11
    frequency:     7.6019665284
  - # 12
    frequency:     7.6019665284

- q-position: [    0.0520833,    0.0104167,    0.0104167 ]
  weight: 24   
  band:
  - # 1
    frequency:     0.4338238079
  - # 2
    frequency:     0.4537576509
  - # 3
    frequency:     0.7286690202
  - # 4
    frequency:     5.2998802779
  - # 5
    frequency:     5.3031435231
  - # 6
    frequency:     5.3115160829
  - # 7
    frequency:     5.3115160829
  - # 8
    frequency:     5.3356845602
  - # 9
    frequency:     5.3356845602
  - # 10
    frequency:     7.5872915369
  - # 11
    frequency:     7.5921682308
  - # 12
    frequency:     7.5921682308

- q-position: [    0.0729167,    0.0104167,    0.0104167 ]
  weight: 24   
  band:
  - # 1
    frequency:     0.6119944395
  - # 2
    frequency:     0.6277661524
  - # 3
    frequency:     0.9867795598
  - # 4
    frequency:     5.2835730673
  - # 5
    frequency:     5.2867967533
  - # 6
    frequency:     5.3082966080
  - # 7
    frequency:     5.3082966080
  - # 8
    frequency:     5.3503962233
  - # 9
    frequency:     5.3503962233
  - # 10
    frequency:     7.5676784233
  - # 11
    frequency:     7.5775236283
  - # 12
    frequency:     7.5775236283

- q-position: [    0.0937500,    0.0104167,    0.0104167 ]
  weight: 24   
  band:
  - # 1
    frequency:     0.7895261565
  - # 2
    frequency:     0.8022492662
  - # 3
    frequency:     1.2481746799
  - # 4
    frequency:     5.2618459974
  - # 5
    frequency:     5.2650172548
  - # 6
    frequency:     5.3042384845
  - # 7
    frequency:     5.3042384845
  - # 8
    frequency:     5.3697609408
  - # 9
    frequency:     5.3697609408
  - # 10
    frequency:     7.5414840706
  - # 11
    frequency:     7.5580958770
  - # 12
    frequency:     7.5580958770

- q-position: [    0.1145833,    0.0104167,    0.0104167 ]
  weight: 24   
  band:
  - # 1
    frequency:     0.9658317731
  - # 2
    frequency:     0.9763387634
  - # 3
    frequency:     1.5101306187
  - # 4
    frequency:     5.2347128023
  - # 5
    frequency:     5.2378190234
  - # 6
    frequency:     5.2993542597
  - # 7
    frequency:     5.2993542597
  - # 8
    frequency:     5.3937511079
  - # 9
    frequency:     5.3937511079
  - # 10
    frequency:     7.5086723528
  - # 11
    frequency:     7.5339687586
  - # 12
    frequency:     7.5339687586

- q-position: [    0.1354167,    0.0104167,    0.0104167 ]
  weight: 24   
  band:
  - # 1
    frequency:     1.1407249570
  - # 2
    frequency:     1.1495676061
  - # 3
    frequency:     1.7711804513
  - # 4
    frequency:     5.2021908032
  - # 5
    frequency:     5.2052196962
  - # 6
    frequency:     5.2937035990
  - # 7
    frequency:     5.2937035990
  - # 8
    frequency:     5.4222869209
  - # 9
    frequency:     5.4222869209
  - # 10
    frequency:     7.4691995777
  - # 11
    frequency:     7.5052463169
  - # 12
    frequency:     7.5052463169

- q-position: [    0.1562500,    0.0104167,    0.0104167 ]
  weight: 24   
  band:
  - # 1
    frequency:     1.3140598145
  - # 2
    frequency:     1.3216076675
  - # 3
    frequency:     2.0303781622
  - # 4
    frequency:     5.1643010080
  - # 5
    frequency:     5.1672406433
  - # 6
    frequency:     5.2873711390
  - # 7
    frequency:     5.2873711390
  - # 8
    frequency:     5.4552576720
  - # 9
    frequency:     5.4552576720
  - # 10
    frequency:     7.4230154311
  - # 11
    frequency:     7.4720524068
  - # 12
    frequency:     7.4720524068

- q-position: [    0.1770833,    0.0104167,    0.0104167 ]
  weight: 24   
  band:
  - # 1
    frequency:     1.4856823114
  - # 2
    frequency:     1.4921905908
  - # 3
    frequency:     2.2870256138
  - # 4
    frequency:     5.1210682275
  - # 5
    frequency:     5.1239070759
  - # 6
    frequency:     5.2804581178
  - # 7
    frequency:     5.2804581178
  - # 8
    frequency:     5.4925291219
  - # 9
    frequency:     5.4925291219
  - # 10
    frequency:     7.3700640786
  - # 11
    frequency:     7.4345301573
  - # 12
    frequency:     7.4345301573

- q-position: [    0.1979167,    0.0104167,    0.0104167 ]
  weight: 24   
  band:
  - # 1
    frequency:     1.6554277715
  - # 2
    frequency:     1.6610784314
  - # 3
    frequency:     2.5405577862
  - # 4
    frequency:     5.0725212070
  - # 5
    frequency:     5.0752481684
  - # 6
    frequency:     5.2730781369
  - # 7
    frequency:     5.2730781369
  - # 8
    frequency:     5.5339466117
  - # 9
    frequency:     5.5339466117
  - # 10
    frequency:     7.3102854081
  - # 11
    frequency:     7.3928413496
  - # 12
    frequency:     7.3928413496

- q-position: [    0.2187500,    0.0104167,    0.0104167 ]
  weight: 24   
  band:
  - # 1
    frequency:     1.8231246504
  - # 2
    frequency:     1.8280511685
  - # 3
    frequency:     2.7904897581
  - # 4
    frequency:     5.0186927714
  - # 5
    frequency:     5.0212971940
  - # 6
    frequency:     5.2653542432
  - # 7
    frequency:     5.2653542432
  - # 8
    frequency:     5.5793367433
  - # 9
    frequency:     5.5793367433
  - # 10
    frequency:     7.2436163963
  - # 11
    frequency:     7.3471657160
  - # 12
    frequency:     7.3471657160

- q-position: [    0.2395833,    0.0104167,    0.0104167 ]
  weight: 24   
  band:
  - # 1
    frequency:     1.9885981294
  - # 2
    frequency:     1.9929008745
  - # 3
    frequency:     3.0363903893
  - # 4
    frequency:     4.9596199818
  - # 5
    frequency:     4.9620916702
  - # 6
    frequency:     5.2574164303
  - # 7
    frequency:     5.2574164303
  - # 8
    frequency:     5.6285085514
  - # 9
    frequency:     5.6285085514
  - # 10
    frequency:     7.1699925789
  - # 11
    frequency:     7.2977001588
  - # 12
    frequency:     7.2977001588

- q-position: [    0.2604167,    0.0104167,    0.0104167 ]
  weight: 24   
  band:
  - # 1
    frequency:     2.1516727559
  - # 2
    frequency:     2.1554288215
  - # 3
    frequency:     3.2778685437
  - # 4
    frequency:     4.8953443012
  - # 5
    frequency:     4.8976735146
  - # 6
    frequency:     5.2493992468
  - # 7
    frequency:     5.2493992468
  - # 8
    frequency:     5.6812545035
  - # 9
    frequency:     5.6812545035
  - # 10
    frequency:     7.0893496054
  - # 11
    frequency:     7.2446578959
  - # 12
    frequency:     7.2446578959

- q-position: [    0.2812500,    0.0104167,    0.0104167 ]
  weight: 24   
  band:
  - # 1
    frequency:     2.3121743005
  - # 2
    frequency:     2.3154439946
  - # 3
    frequency:     3.5145655989
  - # 4
    frequency:     4.8259117678
  - # 5
    frequency:     4.8280892064
  - # 6
    frequency:     5.2414394102
  - # 7
    frequency:     5.2414394102
  - # 8
    frequency:     5.7373514586
  - # 9
    frequency:     5.7373514586
  - # 10
    frequency:     7.0016248576
  - # 11
    frequency:     7.1882675345
  - # 12
    frequency:     7.1882675345

- q-position: [    0.3020833,    0.0104167,    0.0104167 ]
  weight: 24   
  band:
  - # 1
    frequency:     2.4699310685
  - # 2
    frequency:     2.4727623248
  - # 3
    frequency:     3.7461512716
  - # 4
    frequency:     4.7513731726
  - # 5
    frequency:     4.7533899530
  - # 6
    frequency:     5.2336734010
  - # 7
    frequency:     5.2336734010
  - # 8
    frequency:     5.7965616426
  - # 9
    frequency:     5.7965616426
  - # 10
    frequency:     6.9067591093
  - # 11
    frequency:     7.1287720789
  - # 12
    frequency:     7.1287720789

- q-position: [    0.3229167,    0.0104167,    0.0104167 ]
  weight: 24   
  band:
  - # 1
    frequency:     2.6247748483
  - # 2
    frequency:     2.6272063032
  - # 3
    frequency:     3.9723212552
  - # 4
    frequency:     4.6717842396
  - # 5
    frequency:     4.6736318590
  - # 6
    frequency:     5.2262350500
  - # 7
    frequency:     5.2262350500
  - # 8
    frequency:     5.8586336613
  - # 9
    frequency:     5.8586336613
  - # 10
    frequency:     6.8046982091
  - # 11
    frequency:     7.0664278765
  - # 12
    frequency:     7.0664278765

- q-position: [    0.3437500,    0.0104167,    0.0104167 ]
  weight: 24   
  band:
  - # 1
    frequency:     2.7765416123
  - # 2
    frequency:     2.7786048052
  - # 3
    frequency:     4.1927958647
  - # 4
    frequency:     4.5872058052
  - # 5
    frequency:     4.5888760939
  - # 6
    frequency:     5.2192531465
  - # 7
    frequency:     5.2192531465
  - # 8
    frequency:     5.9233035610
  - # 9
    frequency:     5.9233035610
  - # 10
    frequency:     6.6953947633
  - # 11
    frequency:     7.0015035081
  - # 12
    frequency:     7.0015035081

- q-position: [    0.3645833,    0.0104167,    0.0104167 ]
  weight: 24   
  band:
  - # 1
    frequency:     2.9250720469
  - # 2
    frequency:     2.9267930276
  - # 3
    frequency:     4.4073192399
  - # 4
    frequency:     4.4977039954
  - # 5
    frequency:     4.4991890575
  - # 6
    frequency:     5.2128491071
  - # 7
    frequency:     5.2128491071
  - # 8
    frequency:     5.9902959353
  - # 9
    frequency:     5.9902959353
  - # 10
    frequency:     6.5788098005
  - # 11
    frequency:     6.9342786307
  - # 12
    frequency:     6.9342786307

- q-position: [    0.3854167,    0.0104167,    0.0104167 ]
  weight: 24   
  band:
  - # 1
    frequency:     3.0702119578
  - # 2
    frequency:     3.0716124862
  - # 3
    frequency:     4.4033503974
  - # 4
    frequency:     4.4046425393
  - # 5
    frequency:     4.6156588446
  - # 6
    frequency:     5.2071347470
  - # 7
    frequency:     5.2071347470
  - # 8
    frequency:     6.0593250683
  - # 9
    frequency:     6.0593250683
  - # 10
    frequency:     6.4549143995
  - # 11
    frequency:     6.8650427866
  - # 12
    frequency:     6.8650427866

- q-position: [    0.4062500,    0.0104167,    0.0104167 ]
  weight: 24   
  band:
  - # 1
    frequency:     3.2118125839
  - # 2
    frequency:     3.2129110408
  - # 3
    frequency:     4.3042222235
  - # 4
    frequency:     4.3053138692
  - # 5
    frequency:     4.8176051032
  - # 6
    frequency:     5.2022102003
  - # 7
    frequency:     5.2022102003
  - # 8
    frequency:     6.1300960888
  - # 9
    frequency:     6.1300960888
  - # 10
    frequency:     6.3236912625
  - # 11
    frequency:     6.7940942063
  - # 12
    frequency:     6.7940942063

- q-position: [    0.4270833,    0.0104167,    0.0104167 ]
  weight: 24   
  band:
  - # 1
    frequency:     3.3497308360
  - # 2
    frequency:     3.3505429294
  - # 3
    frequency:     4.2004024652
  - # 4
    frequency:     4.2012860576
  - # 5
    frequency:     5.0129710753
  - # 6
    frequency:     5.1981620335
  - # 7
    frequency:     5.1981620335
  - # 8
    frequency:     6.1851362173
  - # 9
    frequency:     6.2023060563
  - # 10
    frequency:     6.2023060563
  - # 11
    frequency:     6.7217386852
  - # 12
    frequency:     6.7217386852

- q-position: [    0.4479167,    0.0104167,    0.0104167 ]
  weight: 24   
  band:
  - # 1
    frequency:     3.4838294780
  - # 2
    frequency:     3.4843687981
  - # 3
    frequency:     4.0919800346
  - # 4
    frequency:     4.0926479215
  - # 5
    frequency:     5.1950615966
  - # 6
    frequency:     5.1950615966
  - # 7
    frequency:     5.2015921059
  - # 8
    frequency:     6.0392596365
  - # 9
    frequency:     6.2756446583
  - # 10
    frequency:     6.2756446583
  - # 11
    frequency:     6.6482888565
  - # 12
    frequency:     6.6482888565

- q-position: [    0.4687500,    0.0104167,    0.0104167 ]
  weight: 24   
  band:
  - # 1
    frequency:     3.6139772567
  - # 2
    frequency:     3.6142557201
  - # 3
    frequency:     3.9790498919
  - # 4
    frequency:     3.9794941933
  - # 5
    frequency:     5.1929636510
  - # 6
    frequency:     5.1929636510
  - # 7
    frequency:     5.3833254101
  - # 8
    frequency:     5.8860877585
  - # 9
    frequency:     6.3497925228
  - # 10
    frequency:     6.3497925228
  - # 11
    frequency:     6.5740658531
  - # 12
    frequency:     6.5740658531

- q-position: [    0.4895833,    0.0104167,    0.0104167 ]
  weight: 24   
  band:
  - # 1
    frequency:     3.7400489893
  - # 2
    frequency:     3.7400771995
  - # 3
    frequency:     3.8617131563
  - # 4
    frequency:     3.8619256116
  - # 5
    frequency:     5.1919053086
  - # 6
    frequency:     5.1919053086
  - # 7
    frequency:     5.5580495666
  - # 8
    frequency:     5.7256639021
  - # 9
    frequency:     6.4243833978
  - # 10
    frequency:     6.4243833978
  - # 11
    frequency:     6.4994371112
  - # 12
    frequency:     6.4994371112

- q-position: [    0.0312500,    0.0312500,    0.0104167 ]
  weight: 24   
  band:
  - # 1
    frequency:     0.2960575130
  - # 2
    frequency:     0.3736023299
  - # 3
    frequency:     0.6512530638
  - # 4
    frequency:     5.3068443670
  - # 5
    frequency:     5.3085488822
  - # 6
    frequency:     5.3085488822
  - # 7
    frequency:     5.3200642967
  - # 8
    frequency:     5.3200642967
  - # 9
    frequency:     5.3364652774
  - # 10
    frequency:     7.5954961883
  - # 11
    frequency:     7.5954961883
  - # 12
    frequency:     7.5970600828

- q-position: [    0.0520833,    0.0312500,    0.0104167 ]
  weight: 48   
  band:
  - # 1
    frequency:     0.4230894205
  - # 2
    frequency:     0.5150202408
  - # 3
    frequency:     0.8677961466
  - # 4
    frequency:     5.2976447445
  - # 5
    frequency:     5.3001351585
  - # 6
    frequency:     5.3060068374
  - # 7
    frequency:     5.3091348344
  - # 8
    frequency:     5.3302201821
  - # 9
    frequency:     5.3507241613
  - # 10
    frequency:     7.5825458585
  - # 11
    frequency:     7.5858072875
  - # 12
    frequency:     7.5872683162

- q-position: [    0.0729167,    0.0312500,    0.0104167 ]
  weight: 48   
  band:
  - # 1
    frequency:     0.5870878696
  - # 2
    frequency:     0.6732605707
  - # 3
    frequency:     1.1020174153
  - # 4
    frequency:     5.2812963420
  - # 5
    frequency:     5.2927506422
  - # 6
    frequency:     5.2938126541
  - # 7
    frequency:     5.3026922842
  - # 8
    frequency:     5.3449467076
  - # 9
    frequency:     5.3683646115
  - # 10
    frequency:     7.5630964465
  - # 11
    frequency:     7.5713266407
  - # 12
    frequency:     7.5726333863

- q-position: [    0.0937500,    0.0312500,    0.0104167 ]
  weight: 48   
  band:
  - # 1
    frequency:     0.7614180279
  - # 2
    frequency:     0.8382361521
  - # 3
    frequency:     1.3452054746
  - # 4
    frequency:     5.2595131005
  - # 5
    frequency:     5.2709237577
  - # 6
    frequency:     5.2875695508
  - # 7
    frequency:     5.2985026237
  - # 8
    frequency:     5.3643354450
  - # 9
    frequency:     5.3896854929
  - # 10
    frequency:     7.5371198271
  - # 11
    frequency:     7.5521172334
  - # 12
    frequency:     7.5532183028

- q-position: [    0.1145833,    0.0312500,    0.0104167 ]
  weight: 48   
  band:
  - # 1
    frequency:     0.9381152086
  - # 2
    frequency:     1.0060340883
  - # 3
    frequency:     1.5930530857
  - # 4
    frequency:     5.2323076903
  - # 5
    frequency:     5.2436702876
  - # 6
    frequency:     5.2811841348
  - # 7
    frequency:     5.2934519514
  - # 8
    frequency:     5.3883568007
  - # 9
    frequency:     5.4148963493
  - # 10
    frequency:     7.5045794501
  - # 11
    frequency:     7.5282626143
  - # 12
    frequency:     7.5291066547

- q-position: [    0.1354167,    0.0312500,    0.0104167 ]
  weight: 48   
  band:
  - # 1
    frequency:     1.1145530891
  - # 2
    frequency:     1.1748125666
  - # 3
    frequency:     1.8429599362
  - # 4
    frequency:     5.1996961170
  - # 5
    frequency:     5.2110104527
  - # 6
    frequency:     5.2745299850
  - # 7
    frequency:     5.2876007490
  - # 8
    frequency:     5.4169296541
  - # 9
    frequency:     5.4441069297
  - # 10
    frequency:     7.4654311355
  - # 11
    frequency:     7.4998665276
  - # 12
    frequency:     7.5004022505

- q-position: [    0.1562500,    0.0312500,    0.0104167 ]
  weight: 48   
  band:
  - # 1
    frequency:     1.2897202800
  - # 2
    frequency:     1.3435469981
  - # 3
    frequency:     2.0931814327
  - # 4
    frequency:     5.1616978369
  - # 5
    frequency:     5.1729686380
  - # 6
    frequency:     5.2675573412
  - # 7
    frequency:     5.2810341904
  - # 8
    frequency:     5.4499422299
  - # 9
    frequency:     5.4773448813
  - # 10
    frequency:     7.4196240448
  - # 11
    frequency:     7.4670524557
  - # 12
    frequency:     7.4672286707

- q-position: [    0.1770833,    0.0312500,    0.0104167 ]
  weight: 48   
  band:
  - # 1
    frequency:     1.4631483515
  - # 2
    frequency:     1.5115823591
  - # 3
    frequency:     2.3424600663
  - # 4
    frequency:     5.1183359014
  - # 5
    frequency:     5.1295734448
  - # 6
    frequency:     5.2602732702
  - # 7
    frequency:     5.2738539786
  - # 8
    frequency:     5.4872592992
  - # 9
    frequency:     5.5145744878
  - # 10
    frequency:     7.3671018132
  - # 11
    frequency:     7.4297287343
  - # 12
    frequency:     7.4299630760

- q-position: [    0.1979167,    0.0312500,    0.0104167 ]
  weight: 48   
  band:
  - # 1
    frequency:     1.6345650379
  - # 2
    frequency:     1.6784500930
  - # 3
    frequency:     2.5898366635
  - # 4
    frequency:     5.0696371277
  - # 5
    frequency:     5.0808577425
  - # 6
    frequency:     5.2527256716
  - # 7
    frequency:     5.2661742062
  - # 8
    frequency:     5.5287252289
  - # 9
    frequency:     5.5557114347
  - # 10
    frequency:     7.3078038270
  - # 11
    frequency:     7.3880638847
  - # 12
    frequency:     7.3887596315

- q-position: [    0.2187500,    0.0312500,    0.0104167 ]
  weight: 48   
  band:
  - # 1
    frequency:     1.8037716272
  - # 2
    frequency:     1.8437846248
  - # 3
    frequency:     2.8345450473
  - # 4
    frequency:     5.0156322988
  - # 5
    frequency:     5.0268587167
  - # 6
    frequency:     5.2449913339
  - # 7
    frequency:     5.2581184940
  - # 8
    frequency:     5.5741656435
  - # 9
    frequency:     5.6006334077
  - # 10
    frequency:     7.2416666272
  - # 11
    frequency:     7.3424134940
  - # 12
    frequency:     7.3436212208

- q-position: [    0.2395833,    0.0312500,    0.0104167 ]
  weight: 48   
  band:
  - # 1
    frequency:     1.9705971700
  - # 2
    frequency:     2.0072818816
  - # 3
    frequency:     3.0759502405
  - # 4
    frequency:     4.9563563899
  - # 5
    frequency:     4.9676179131
  - # 6
    frequency:     5.2371671173
  - # 7
    frequency:     5.2498175297
  - # 8
    frequency:     5.6233885960
  - # 9
    frequency:     5.6491874746
  - # 10
    frequency:     7.1686254201
  - # 11
    frequency:     7.2929740926
  - # 12
    frequency:     7.2947440096

- q-position: [    0.2604167,    0.0312500,    0.0104167 ]
  weight: 48   
  band:
  - # 1
    frequency:     2.1348810591
  - # 2
    frequency:     2.1686772296
  - # 3
    frequency:     3.3135109385
  - # 4
    frequency:     4.8918488150
  - # 5
    frequency:     4.9031812795
  - # 6
    frequency:     5.2293632965
  - # 7
    frequency:     5.2414067067
  - # 8
    frequency:     5.6761855710
  - # 9
    frequency:     5.7011952454
  - # 10
    frequency:     7.0886156746
  - # 11
    frequency:     7.2399585265
  - # 12
    frequency:     7.2423403677

- q-position: [    0.2812500,    0.0312500,    0.0104167 ]
  weight: 48   
  band:
  - # 1
    frequency:     2.2964666276
  - # 2
    frequency:     2.3277330786
  - # 3
    frequency:     3.5467560954
  - # 4
    frequency:     4.8221536860
  - # 5
    frequency:     4.8335992096
  - # 6
    frequency:     5.2216983270
  - # 7
    frequency:     5.2330237623
  - # 8
    frequency:     5.7323324474
  - # 9
    frequency:     5.7564565743
  - # 10
    frequency:     7.0015747849
  - # 11
    frequency:     7.1835950486
  - # 12
    frequency:     7.1866379376

- q-position: [    0.3020833,    0.0312500,    0.0104167 ]
  weight: 48   
  band:
  - # 1
    frequency:     2.4551991405
  - # 2
    frequency:     2.4842316038
  - # 3
    frequency:     3.7752699696
  - # 4
    frequency:     4.7473200722
  - # 5
    frequency:     4.7589265989
  - # 6
    frequency:     5.2142945427
  - # 7
    frequency:     5.2248063946
  - # 8
    frequency:     5.7915904695
  - # 9
    frequency:     5.8147523312
  - # 10
    frequency:     6.9074437787
  - # 11
    frequency:     7.1241263518
  - # 12
    frequency:     7.1278786416

- q-position: [    0.3229167,    0.0312500,    0.0104167 ]
  weight: 48   
  band:
  - # 1
    frequency:     2.6109255308
  - # 2
    frequency:     2.6379703166
  - # 3
    frequency:     3.9986823691
  - # 4
    frequency:     4.6674022446
  - # 5
    frequency:     4.6792229204
  - # 6
    frequency:     5.2072744713
  - # 7
    frequency:     5.2168898678
  - # 8
    frequency:     5.8537072438
  - # 9
    frequency:     5.8758465825
  - # 10
    frequency:     6.8061690488
  - # 11
    frequency:     7.0618085533
  - # 12
    frequency:     7.0663176367

- q-position: [    0.3437500,    0.0312500,    0.0104167 ]
  weight: 48   
  band:
  - # 1
    frequency:     2.7634947890
  - # 2
    frequency:     2.7887592879
  - # 3
    frequency:     4.2166621532
  - # 4
    frequency:     4.5824598926
  - # 5
    frequency:     4.5945523315
  - # 6
    frequency:     5.2007575863
  - # 7
    frequency:     5.2094046377
  - # 8
    frequency:     5.9184177588
  - # 9
    frequency:     5.9394883919
  - # 10
    frequency:     6.6977040914
  - # 11
    frequency:     6.9969101512
  - # 12
    frequency:     7.0022222357

- q-position: [    0.3645833,    0.0312500,    0.0104167 ]
  weight: 48   
  band:
  - # 1
    frequency:     2.9127585495
  - # 2
    frequency:     2.9364193624
  - # 3
    frequency:     4.4289128039
  - # 4
    frequency:     4.4925583002
  - # 5
    frequency:     4.5049838175
  - # 6
    frequency:     5.1948573937
  - # 7
    frequency:     5.2024740327
  - # 8
    frequency:     5.9854454002
  - # 9
    frequency:     6.0054133508
  - # 10
    frequency:     6.5820112285
  - # 11
    frequency:     6.9297109885
  - # 12
    frequency:     6.9358708264

- q-position: [    0.3854167,    0.0312500,    0.0104167 ]
  weight: 48   
  band:
  - # 1
    frequency:     3.0585716905
  - # 2
    frequency:     3.0807809847
  - # 3
    frequency:     4.3977684763
  - # 4
    frequency:     4.4105913735
  - # 5
    frequency:     4.6351693224
  - # 6
    frequency:     5.1896788076
  - # 7
    frequency:     5.1962120349
  - # 8
    frequency:     6.0545028955
  - # 9
    frequency:     6.0733448481
  - # 10
    frequency:     6.4590633018
  - # 11
    frequency:     6.8605013094
  - # 12
    frequency:     6.8675518611

- q-position: [    0.4062500,    0.0312500,    0.0104167 ]
  weight: 48   
  band:
  - # 1
    frequency:     3.2007928747
  - # 2
    frequency:     3.2216834072
  - # 3
    frequency:     4.2981672375
  - # 4
    frequency:     4.3114542210
  - # 5
    frequency:     4.8351959747
  - # 6
    frequency:     5.1853157994
  - # 7
    frequency:     5.1907212064
  - # 8
    frequency:     6.1252929969
  - # 9
    frequency:     6.1429949111
  - # 10
    frequency:     6.3288453191
  - # 11
    frequency:     6.7895811365
  - # 12
    frequency:     6.7975631079

- q-position: [    0.4270833,    0.0312500,    0.0104167 ]
  weight: 48   
  band:
  - # 1
    frequency:     3.3392850097
  - # 2
    frequency:     3.3589741410
  - # 3
    frequency:     4.1938372490
  - # 4
    frequency:     4.2076570489
  - # 5
    frequency:     5.0287845741
  - # 6
    frequency:     5.1818493289
  - # 7
    frequency:     5.1860908053
  - # 8
    frequency:     6.1913560423
  - # 9
    frequency:     6.1975083021
  - # 10
    frequency:     6.2140639091
  - # 11
    frequency:     6.7172607183
  - # 12
    frequency:     6.7262117657

- q-position: [    0.4479167,    0.0312500,    0.0104167 ]
  weight: 48   
  band:
  - # 1
    frequency:     3.4739156281
  - # 2
    frequency:     3.4925085605
  - # 3
    frequency:     4.0848670298
  - # 4
    frequency:     4.0992902676
  - # 5
    frequency:     5.1793455726
  - # 6
    frequency:     5.1823951371
  - # 7
    frequency:     5.2157530932
  - # 8
    frequency:     6.0466095064
  - # 9
    frequency:     6.2708277632
  - # 10
    frequency:     6.2862359306
  - # 11
    frequency:     6.6438652602
  - # 12
    frequency:     6.6538178943

- q-position: [    0.4687500,    0.0312500,    0.0104167 ]
  weight: 48   
  band:
  - # 1
    frequency:     3.6045571935
  - # 2
    frequency:     3.6221496017
  - # 3
    frequency:     3.9713509298
  - # 4
    frequency:     3.9864502656
  - # 5
    frequency:     5.1778544719
  - # 6
    frequency:     5.1796921795
  - # 7
    frequency:     5.3959444664
  - # 8
    frequency:     5.8946364605
  - # 9
    frequency:     6.3448951509
  - # 10
    frequency:     6.3591486114
  - # 11
    frequency:     6.5697651782
  - # 12
    frequency:     6.5807358903

- q-position: [    0.4895833,    0.0312500,    0.0104167 ]
  weight: 48   
  band:
  - # 1
    frequency:     3.7310873442
  - # 2
    frequency:     3.7477675167
  - # 3
    frequency:     3.8533890837
  - # 4
    frequency:     3.8692396570
  - # 5
    frequency:     5.1774086216
  - # 6
    frequency:     5.1780225185
  - # 7
    frequency:     5.5692254862
  - # 8
    frequency:     5.7354857283
  - # 9
    frequency:     6.4190674282
  - # 10
    frequency:     6.4319209561
  - # 11
    frequency:     6.4958483449
  - # 12
    frequency:     6.5076060572

- q-position: [    0.0520833,    0.0520833,    0.0104167 ]
  weight: 24   
  band:
  - # 1
    frequency:     0.4778618713
  - # 2
    frequency:     0.6251153322
  - # 3
    frequency:     1.0588586437
  - # 4
    frequency:     5.2882398437
  - # 5
    frequency:     5.2949912303
  - # 6
    frequency:     5.2949912303
  - # 7
    frequency:     5.3192962348
  - # 8
    frequency:     5.3192962348
  - # 9
    frequency:     5.3699357924
  - # 10
    frequency:     7.5730754779
  - # 11
    frequency:     7.5730754779
  - # 12
    frequency:     7.5774895124

- q-position: [    0.0729167,    0.0520833,    0.0104167 ]
  weight: 48   
  band:
  - # 1
    frequency:     0.5955366369
  - # 2
    frequency:     0.7606895082
  - # 3
    frequency:     1.2718556624
  - # 4
    frequency:     5.2770126601
  - # 5
    frequency:     5.2784750960
  - # 6
    frequency:     5.2914868261
  - # 7
    frequency:     5.3029222919
  - # 8
    frequency:     5.3340531373
  - # 9
    frequency:     5.3921346183
  - # 10
    frequency:     7.5539531747
  - # 11
    frequency:     7.5589222513
  - # 12
    frequency:     7.5628737808

- q-position: [    0.0937500,    0.0520833,    0.0104167 ]
  weight: 48   
  band:
  - # 1
    frequency:     0.7460646436
  - # 2
    frequency:     0.9098443356
  - # 3
    frequency:     1.4967268608
  - # 4
    frequency:     5.2564673493
  - # 5
    frequency:     5.2664391395
  - # 6
    frequency:     5.2811126070
  - # 7
    frequency:     5.2870350215
  - # 8
    frequency:     5.3534904153
  - # 9
    frequency:     5.4173310439
  - # 10
    frequency:     7.5284114814
  - # 11
    frequency:     7.5401487241
  - # 12
    frequency:     7.5434838392

- q-position: [    0.1145833,    0.0520833,    0.0104167 ]
  weight: 48   
  band:
  - # 1
    frequency:     0.9111377794
  - # 2
    frequency:     1.0663244760
  - # 3
    frequency:     1.7286152387
  - # 4
    frequency:     5.2289801742
  - # 5
    frequency:     5.2538859930
  - # 6
    frequency:     5.2563805157
  - # 7
    frequency:     5.2816530686
  - # 8
    frequency:     5.3775745724
  - # 9
    frequency:     5.4456573235
  - # 10
    frequency:     7.4964128744
  - # 11
    frequency:     7.5168378442
  - # 12
    frequency:     7.5194028942

- q-position: [    0.1354167,    0.0520833,    0.0104167 ]
  weight: 48   
  band:
  - # 1
    frequency:     1.0821953424
  - # 2