 running on    4 nodes
 distr:  one band on    1 nodes,    4 groups
 vasp.4.6.28 25Jul05 complex 
 POSCAR found :  1 types and   32 ions

 ----------------------------------------------------------------------------- 
|                                                                             |
|  ADVICE TO THIS USER RUNNING 'VASP/VAMP'   (HEAR YOUR MASTER'S VOICE ...):  |
|                                                                             |
|      You have a (more or less) 'large supercell' and for larger cells       |
|      it might be more efficient to use real space projection operators      |
|      So try LREAL= Auto  in the INCAR   file.                               |
|      Mind: If you want to do an extremely accurate calculations keep the    |
|      reciprocal projection scheme          (i.e. LREAL=.FALSE.)             |
|                                                                             |
 ----------------------------------------------------------------------------- 

 LDA part: xc-table for Pade appr. of Perdew
 POSCAR, INCAR and KPOINTS ok, starting setup
 FFT: planning ...           1
 reading WAVECAR
 WARNING: random wavefunctions but no delay for mixing, default for NELMDL
 entering main loop
       N       E                     dE             d eps       ncg     rms          rms(c)
DAV:   1     0.169483755335E+03    0.16948E+03   -0.41411E+04 26656   0.151E+03
DAV:   2    -0.101864812220E+03   -0.27135E+03   -0.25382E+03 31064   0.161E+02
DAV:   3    -0.119210299435E+03   -0.17345E+02   -0.16349E+02 33400   0.309E+01
DAV:   4    -0.119644179457E+03   -0.43388E+00   -0.42842E+00 31616   0.491E+00
DAV:   5    -0.119649788828E+03   -0.56094E-02   -0.56007E-02 31708   0.683E-01    0.509E+00
DAV:   6    -0.119252209307E+03    0.39758E+00   -0.64015E-02 30816   0.834E-01    0.315E+00
DAV:   7    -0.118963817163E+03    0.28839E+00   -0.18602E-01 29728   0.134E+00    0.136E-01
DAV:   8    -0.118963776121E+03    0.41043E-04   -0.14426E-03 31568   0.143E-01    0.412E-02
DAV:   9    -0.118963796403E+03   -0.20282E-04   -0.49098E-05 31432   0.208E-02    0.330E-03
DAV:  10    -0.118963795008E+03    0.13945E-05   -0.19331E-06 31956   0.460E-03    0.188E-03
DAV:  11    -0.118963791575E+03    0.34332E-05   -0.15914E-07 31328   0.119E-03    0.673E-04
DAV:  12    -0.118963790448E+03    0.11267E-05   -0.21032E-08 20736   0.451E-04    0.959E-05
DAV:  13    -0.118963790356E+03    0.92400E-07   -0.30852E-09 17736   0.194E-04    0.316E-05
DAV:  14    -0.118963790364E+03   -0.75861E-08   -0.45639E-10 17004   0.764E-05
   1 F= -.11896379E+03 E0= -.11896353E+03  d E =-.521072E-03
