  32  32   0   0
  0.1797740E+02  0.8316851E-09  0.8316851E-09  0.8316851E-09  0.5000000E-15
  1.000000000000000E-004
  CAR 
 unknown system                          
     11.26570555     -4.12077162  301      7.14342673      1.00000000
     -4.121  0.0000E+00  0.0000E+00
     -4.069  0.0000E+00  0.0000E+00
     -4.018  0.0000E+00  0.0000E+00
     -3.967  0.0000E+00  0.0000E+00
     -3.916  0.0000E+00  0.0000E+00
     -3.864  0.0000E+00  0.0000E+00
     -3.813  0.0000E+00  0.0000E+00
     -3.762  0.0000E+00  0.0000E+00
     -3.710  0.0000E+00  0.0000E+00
     -3.659  0.0000E+00  0.0000E+00
     -3.608  0.0000E+00  0.0000E+00
     -3.557  0.0000E+00  0.0000E+00
     -3.505  0.0000E+00  0.0000E+00
     -3.454  0.4420E-07  0.2267E-08
     -3.403  0.1338E+00  0.6862E-02
     -3.351  0.7490E+00  0.4528E-01
     -3.300  0.1142E+01  0.1039E+00
     -3.249  0.1819E+01  0.1971E+00
     -3.198  0.1811E+01  0.2900E+00
     -3.146  0.2017E+01  0.3934E+00
     -3.095  0.2432E+01  0.5181E+00
     -3.044  0.1593E+01  0.5999E+00
     -2.992  0.2961E+01  0.7517E+00
     -2.941  0.2328E+01  0.8711E+00
     -2.890  0.3410E+01  0.1046E+01
     -2.839  0.2677E+01  0.1183E+01
     -2.787  0.3861E+01  0.1381E+01
     -2.736  0.3325E+01  0.1552E+01
     -2.685  0.2149E+01  0.1662E+01
     -2.633  0.4221E+01  0.1879E+01
     -2.582  0.3911E+01  0.2079E+01
     -2.531  0.3156E+01  0.2241E+01
     -2.480  0.3788E+01  0.2435E+01
     -2.428  0.4717E+01  0.2677E+01
     -2.377  0.4440E+01  0.2905E+01
     -2.326  0.3359E+01  0.3077E+01
     -2.274  0.5144E+01  0.3341E+01
     -2.223  0.2877E+01  0.3489E+01
     -2.172  0.4974E+01  0.3744E+01
     -2.121  0.4148E+01  0.3956E+01
     -2.069  0.7076E+01  0.4319E+01
     -2.018  0.3419E+01  0.4495E+01
     -1.967  0.3682E+01  0.4684E+01
     -1.915  0.6762E+01  0.5030E+01
     -1.864  0.4202E+01  0.5246E+01
     -1.813  0.4953E+01  0.5500E+01
     -1.762  0.4502E+01  0.5731E+01
     -1.710  0.5736E+01  0.6025E+01
     -1.659  0.5553E+01  0.6310E+01
     -1.608  0.5649E+01  0.6600E+01
     -1.556  0.6388E+01  0.6927E+01
     -1.505  0.4666E+01  0.7166E+01
     -1.454  0.5704E+01  0.7459E+01
     -1.402  0.5562E+01  0.7744E+01
     -1.351  0.6244E+01  0.8064E+01
     -1.300  0.3704E+01  0.8254E+01
     -1.249  0.7826E+01  0.8656E+01
     -1.197  0.7268E+01  0.9029E+01
     -1.146  0.6608E+01  0.9368E+01
     -1.095  0.4906E+01  0.9619E+01
     -1.043  0.5271E+01  0.9889E+01
     -0.992  0.6901E+01  0.1024E+02
     -0.941  0.5237E+01  0.1051E+02
     -0.890  0.7963E+01  0.1092E+02
     -0.838  0.7595E+01  0.1131E+02
     -0.787  0.4498E+01  0.1154E+02
     -0.736  0.8612E+01  0.1198E+02
     -0.684  0.7209E+01  0.1235E+02
     -0.633  0.6726E+01  0.1270E+02
     -0.582  0.2776E+01  0.1284E+02
     -0.531  0.9383E+01  0.1332E+02
     -0.479  0.6249E+01  0.1364E+02
     -0.428  0.7804E+01  0.1404E+02
     -0.377  0.8867E+01  0.1450E+02
     -0.325  0.8030E+01  0.1491E+02
     -0.274  0.6356E+01  0.1523E+02
     -0.223  0.5241E+01  0.1550E+02
     -0.172  0.7058E+01  0.1586E+02
     -0.120  0.6882E+01  0.1622E+02
     -0.069  0.8496E+01  0.1665E+02
     -0.018  0.8730E+01  0.1710E+02
      0.034  0.9187E+01  0.1757E+02
      0.085  0.7275E+01  0.1795E+02
      0.136  0.5376E+01  0.1822E+02
      0.187  0.9323E+01  0.1870E+02
      0.239  0.7231E+01  0.1907E+02
      0.290  0.8324E+01  0.1950E+02
      0.341  0.5500E+01  0.1978E+02
      0.393  0.9110E+01  0.2025E+02
      0.444  0.8158E+01  0.2067E+02
      0.495  0.9780E+01  0.2117E+02
      0.546  0.1082E+02  0.2172E+02
      0.598  0.5656E+01  0.2201E+02
      0.649  0.8570E+01  0.2245E+02
      0.700  0.7567E+01  0.2284E+02
      0.752  0.7068E+01  0.2320E+02
      0.803  0.7274E+01  0.2357E+02
      0.854  0.1024E+02  0.2410E+02
      0.905  0.9757E+01  0.2460E+02
      0.957  0.1001E+02  0.2511E+02
      1.008  0.8758E+01  0.2556E+02
      1.059  0.7954E+01  0.2597E+02
      1.111  0.9933E+01  0.2648E+02
      1.162  0.4651E+01  0.2672E+02
      1.213  0.1177E+02  0.2732E+02
      1.264  0.6010E+01  0.2763E+02
      1.316  0.1023E+02  0.2816E+02
      1.367  0.1163E+02  0.2875E+02
      1.418  0.1013E+02  0.2927E+02
      1.470  0.8206E+01  0.2969E+02
      1.521  0.5647E+01  0.2998E+02
      1.572  0.1396E+02  0.3070E+02
      1.624  0.8947E+01  0.3116E+02
      1.675  0.7527E+01  0.3154E+02
      1.726  0.8708E+01  0.3199E+02
      1.777  0.1176E+02  0.3259E+02
      1.829  0.6306E+01  0.3292E+02
      1.880  0.1132E+02  0.3350E+02
      1.931  0.1043E+02  0.3403E+02
      1.983  0.9157E+01  0.3450E+02
      2.034  0.1158E+02  0.3509E+02
      2.085  0.1098E+02  0.3566E+02
      2.136  0.8884E+01  0.3611E+02
      2.188  0.6168E+01  0.3643E+02
      2.239  0.1074E+02  0.3698E+02
      2.290  0.1129E+02  0.3756E+02
      2.342  0.1072E+02  0.3811E+02
      2.393  0.9766E+01  0.3861E+02
      2.444  0.9987E+01  0.3912E+02
      2.495  0.1275E+02  0.3978E+02
      2.547  0.8528E+01  0.4021E+02
      2.598  0.1080E+02  0.4077E+02
      2.649  0.9602E+01  0.4126E+02
      2.701  0.1085E+02  0.4182E+02
      2.752  0.7304E+01  0.4219E+02
      2.803  0.1528E+02  0.4297E+02
      2.854  0.9239E+01  0.4345E+02
      2.906  0.1072E+02  0.4400E+02
      2.957  0.1009E+02  0.4452E+02
      3.008  0.1194E+02  0.4513E+02
      3.060  0.7933E+01  0.4553E+02
      3.111  0.1184E+02  0.4614E+02
      3.162  0.1301E+02  0.4681E+02
      3.213  0.7402E+01  0.4719E+02
      3.265  0.1507E+02  0.4796E+02
      3.316  0.1049E+02  0.4850E+02
      3.367  0.1049E+02  0.4904E+02
      3.419  0.1237E+02  0.4967E+02
      3.470  0.1044E+02  0.5021E+02
      3.521  0.9556E+01  0.5070E+02
      3.572  0.8862E+01  0.5115E+02
      3.624  0.1391E+02  0.5187E+02
      3.675  0.1195E+02  0.5248E+02
      3.726  0.1461E+02  0.5323E+02
      3.778  0.9137E+01  0.5370E+02
      3.829  0.1250E+02  0.5434E+02
      3.880  0.9816E+01  0.5484E+02
      3.931  0.1343E+02  0.5553E+02
      3.983  0.1136E+02  0.5611E+02
      4.034  0.1014E+02  0.5663E+02
      4.085  0.1253E+02  0.5728E+02
      4.137  0.1379E+02  0.5798E+02
      4.188  0.1451E+02  0.5873E+02
      4.239  0.8423E+01  0.5916E+02
      4.291  0.1566E+02  0.5996E+02
      4.342  0.9930E+01  0.6047E+02
      4.393  0.1238E+02  0.6111E+02
      4.444  0.9389E+01  0.6159E+02
      4.496  0.1838E+02  0.6253E+02
      4.547  0.1366E+02  0.6323E+02
      4.598  0.1110E+02  0.6380E+02
      4.650  0.1253E+02  0.6444E+02
      4.701  0.1242E+02  0.6508E+02
      4.752  0.1323E+02  0.6576E+02
      4.803  0.1364E+02  0.6646E+02
      4.855  0.1387E+02  0.6717E+02
      4.906  0.7833E+01  0.6757E+02
      4.957  0.1189E+02  0.6818E+02
      5.009  0.1308E+02  0.6885E+02
      5.060  0.1773E+02  0.6976E+02
      5.111  0.8483E+01  0.7020E+02
      5.162  0.1326E+02  0.7088E+02
      5.214  0.1194E+02  0.7149E+02
      5.265  0.1007E+02  0.7201E+02
      5.316  0.1516E+02  0.7278E+02
      5.368  0.1137E+02  0.7337E+02
      5.419  0.8086E+01  0.7378E+02
      5.470  0.1070E+02  0.7433E+02
      5.521  0.1243E+02  0.7497E+02
      5.573  0.1270E+02  0.7562E+02
      5.624  0.1682E+02  0.7648E+02
      5.675  0.1111E+02  0.7705E+02
      5.727  0.1108E+02  0.7762E+02
      5.778  0.9464E+01  0.7810E+02
      5.829  0.1209E+02  0.7872E+02
      5.880  0.1215E+02  0.7935E+02
      5.932  0.1332E+02  0.8003E+02
      5.983  0.1515E+02  0.8081E+02
      6.034  0.1100E+02  0.8137E+02
      6.086  0.1364E+02  0.8207E+02
      6.137  0.1432E+02  0.8281E+02
      6.188  0.1671E+02  0.8366E+02
      6.239  0.8330E+01  0.8409E+02
      6.291  0.1348E+02  0.8478E+02
      6.342  0.1036E+02  0.8531E+02
      6.393  0.1319E+02  0.8599E+02
      6.445  0.1246E+02  0.8663E+02
      6.496  0.1644E+02  0.8747E+02
      6.547  0.1148E+02  0.8806E+02
      6.598  0.1214E+02  0.8868E+02
      6.650  0.1751E+02  0.8958E+02
      6.701  0.1313E+02  0.9026E+02
      6.752  0.1056E+02  0.9080E+02
      6.804  0.1377E+02  0.9150E+02
      6.855  0.1604E+02  0.9233E+02
      6.906  0.1063E+02  0.9287E+02
      6.957  0.1302E+02  0.9354E+02
      7.009  0.1510E+02  0.9431E+02
      7.060  0.1362E+02  0.9501E+02
      7.111  0.1278E+02  0.9567E+02
      7.163  0.1198E+02  0.9628E+02
      7.214  0.1539E+02  0.9707E+02
      7.265  0.1399E+02  0.9779E+02
      7.317  0.1466E+02  0.9854E+02
      7.368  0.1530E+02  0.9932E+02
      7.419  0.1242E+02  0.9996E+02
      7.470  0.1315E+02  0.1006E+03
      7.522  0.1229E+02  0.1013E+03
      7.573  0.1623E+02  0.1021E+03
      7.624  0.1626E+02  0.1029E+03
      7.676  0.1439E+02  0.1037E+03
      7.727  0.1803E+02  0.1046E+03
      7.778  0.1035E+02  0.1051E+03
      7.829  0.1449E+02  0.1059E+03
      7.881  0.1128E+02  0.1064E+03
      7.932  0.1106E+02  0.1070E+03
      7.983  0.1606E+02  0.1078E+03
      8.035  0.1345E+02  0.1085E+03
      8.086  0.1275E+02  0.1092E+03
      8.137  0.2018E+02  0.1102E+03
      8.188  0.1925E+02  0.1112E+03
      8.240  0.1145E+02  0.1118E+03
      8.291  0.1403E+02  0.1125E+03
      8.342  0.1523E+02  0.1133E+03
      8.394  0.1340E+02  0.1140E+03
      8.445  0.1506E+02  0.1148E+03
      8.496  0.1488E+02  0.1155E+03
      8.547  0.9137E+01  0.1160E+03
      8.599  0.1550E+02  0.1168E+03
      8.650  0.1980E+02  0.1178E+03
      8.701  0.1241E+02  0.1184E+03
      8.753  0.1753E+02  0.1193E+03
      8.804  0.1218E+02  0.1200E+03
      8.855  0.1613E+02  0.1208E+03
      8.906  0.1806E+02  0.1217E+03
      8.958  0.1128E+02  0.1223E+03
      9.009  0.1429E+02  0.1230E+03
      9.060  0.1557E+02  0.1238E+03
      9.112  0.1358E+02  0.1245E+03
      9.163  0.1850E+02  0.1255E+03
      9.214  0.1186E+02  0.1261E+03
      9.265  0.1775E+02  0.1270E+03
      9.317  0.1045E+02  0.1275E+03
      9.368  0.1368E+02  0.1282E+03
      9.419  0.1257E+02  0.1289E+03
      9.471  0.1471E+02  0.1296E+03
      9.522  0.1359E+02  0.1303E+03
      9.573  0.1032E+02  0.1308E+03
      9.624  0.1577E+02  0.1317E+03
      9.676  0.8880E+01  0.1321E+03
      9.727  0.1422E+02  0.1328E+03
      9.778  0.1190E+02  0.1335E+03
      9.830  0.8169E+01  0.1339E+03
      9.881  0.7346E+01  0.1342E+03
      9.932  0.9503E+01  0.1347E+03
      9.983  0.7836E+01  0.1351E+03
     10.035  0.5848E+01  0.1354E+03
     10.086  0.4611E+01  0.1357E+03
     10.137  0.1937E+01  0.1358E+03
     10.189  0.1448E+01  0.1358E+03
     10.240  0.4287E+00  0.1359E+03
     10.291  0.1347E+01  0.1359E+03
     10.343  0.2776E+00  0.1360E+03
     10.394  0.1694E+00  0.1360E+03
     10.445  0.6881E+00  0.1360E+03
     10.496  0.2527E-05  0.1360E+03
     10.548  0.6369E-03  0.1360E+03
     10.599  0.8963E-01  0.1360E+03
     10.650  0.0000E+00  0.1360E+03
     10.702  0.0000E+00  0.1360E+03
     10.753  0.0000E+00  0.1360E+03
     10.804  0.0000E+00  0.1360E+03
     10.855  0.0000E+00  0.1360E+03
     10.907  0.0000E+00  0.1360E+03
     10.958  0.0000E+00  0.1360E+03
     11.009  0.0000E+00  0.1360E+03
     11.061  0.0000E+00  0.1360E+03
     11.112  0.0000E+00  0.1360E+03
     11.163  0.0000E+00  0.1360E+03
     11.214  0.0000E+00  0.1360E+03
     11.266  0.0000E+00  0.1360E+03
