   32   32    1    1
  0.1797740E+02  0.8316851E-09  0.8316851E-09  0.8316851E-09  0.5000000E-15
  1.000000000000000E-004
  CAR 
 unknown system                          
   96  196   68
 
  0.0000000E+00  0.0000000E+00  0.0000000E+00  0.5787037E-03
   1       -3.4214
   2       -1.2993
   3       -1.2957
   4       -1.2957
   5       -1.2957
   6       -1.2957
   7       -1.2921
   8        0.7950
   9        0.7994
  10        0.7994
  11        0.8010
  12        0.8011
  13        0.8011
  14        0.8011
  15        0.8011
  16        0.8013
  17        0.8028
  18        0.8028
  19        0.8072
  20        2.8643
  21        2.8646
  22        2.8646
  23        2.8648
  24        2.8780
  25        2.8782
  26        2.8782
  27        2.8785
  28        4.4170
  29        4.4170
  30        4.4171
  31        5.5339
  32        5.5340
  33        5.5340
  34        6.3923
  35        6.3923
  36        6.3964
  37        6.3964
  38        6.3965
  39        6.3965
  40        6.3965
  41        6.3966
  42        6.3966
  43        6.3966
  44        6.4007
  45        6.4007
  46        7.4446
  47        7.4486
  48        7.4486
  49        7.4486
  50        7.4486
  51        7.4525
  52        7.7801
  53        7.7810
  54        7.7810
  55        7.7810
  56        7.7811
  57        7.7819
  58        8.3748
  59        8.3754
  60        8.3771
  61        8.3787
  62        8.3787
  63        8.3787
  64        8.3788
  65        8.3788
  66        8.3809
  67        8.3823
  68        8.3827
 
  0.8333333E-01  0.0000000E+00  0.0000000E+00  0.1157407E-02
   1       -3.4065
   2       -1.6332
   3       -1.2811
   4       -1.2810
   5       -1.2810
   6       -1.2810
   7       -0.9297
   8        0.4681
   9        0.4681
  10        0.4681
  11        0.4681
  12        0.8156
  13        0.8156
  14        0.8156
  15        0.8156
  16        1.1622
  17        1.1622
  18        1.1622
  19        1.1623
  20        2.5424
  21        2.5424
  22        2.5424
  23        2.5424
  24        3.2282
  25        3.2282
  26        3.2282
  27        3.2282
  28        4.1061
  29        4.4308
  30        4.4308
  31        5.5486
  32        5.5486
  33        5.8710
  34        6.0799
  35        6.0799
  36        6.1064
  37        6.1064
  38        6.1064
  39        6.1064
  40        6.4103
  41        6.4103
  42        6.4103
  43        6.4103
  44        6.7407
  45        6.7407
  46        7.2497
  47        7.2498
  48        7.5663
  49        7.5663
  50        7.5663
  51        7.5663
  52        7.9928
  53        7.9930
  54        7.9930
  55        7.9930
  56        8.0057
  57        8.0059
  58        8.0619
  59        8.0619
  60        8.0620
  61        8.0620
  62        8.1023
  63        8.1024
  64        8.1024
  65        8.1024
  66        8.7231
  67        8.7231
  68        8.7231
 
  0.1666667E+00  0.0000000E+00  0.0000000E+00  0.1157407E-02
   1       -3.3620
   2       -1.9421
   3       -1.2371
   4       -1.2371
   5       -1.2371
   6       -1.2371
   7       -0.5355
   8        0.1634
   9        0.1634
  10        0.1634
  11        0.1634
  12        0.8590
  13        0.8590
  14        0.8590
  15        0.8590
  16        1.5512
  17        1.5512
  18        1.5512
  19        1.5512
  20        2.2416
  21        2.2416
  22        2.2416
  23        2.2416
  24        3.5516
  25        3.6124
  26        3.6124
  27        3.6124
  28        3.6124
  29        4.4720
  30        4.4720
  31        5.5720
  32        5.5723
  33        5.5723
  34        5.5723
  35        5.5924
  36        5.5926
  37        5.7911
  38        5.7911
  39        6.4515
  40        6.4515
  41        6.4515
  42        6.4516
  43        6.5036
  44        6.9682
  45        6.9682
  46        7.1126
  47        7.1126
  48        7.5812
  49        7.5812
  50        7.5812
  51        7.5812
  52        7.6514
  53        7.6514
  54        7.6514
  55        7.6514
  56        7.7728
  57        7.7728
  58        7.7729
  59        7.7729
  60        8.3647
  61        8.3647
  62        8.5609
  63        8.5609
  64        8.5609
  65        8.5609
  66        9.0193
  67        9.0197
  68        9.0200
 
  0.2500000E+00  0.0000000E+00  0.0000000E+00  0.1157407E-02
   1       -3.2877
   2       -2.2220
   3       -1.1639
   4       -1.1638
   5       -1.1638
   6       -1.1638
   7       -0.1157
   8       -0.1128
   9       -0.1128
  10       -0.1128
  11       -0.1106
  12        0.9312
  13        0.9313
  14        0.9313
  15        0.9313
  16        1.9649
  17        1.9669
  18        1.9669
  19        1.9677
  20        1.9688
  21        1.9696
  22        1.9696
  23        1.9716
  24        2.9692
  25        4.0238
  26        4.0238
  27        4.0238
  28        4.0238
  29        4.5406
  30        4.5406
  31        5.0036
  32        5.0036
  33        5.0036
  34        5.0036
  35        5.5298
  36        5.5298
  37        5.6653
  38        5.6653
  39        6.5203
  40        6.5203
  41        6.5203
  42        6.5203
  43        6.7020
  44        6.7020
  45        7.0218
  46        7.0218
  47        7.0218
  48        7.0218
  49        7.2162
  50        7.5094
  51        7.5094
  52        7.5112
  53        7.5112
  54        7.5140
  55        7.5140
  56        7.7322
  57        7.7322
  58        7.7322
  59        7.7322
  60        8.7537
  61        8.7537
  62        8.7540
  63        8.7540
  64        8.7597
  65        8.7597
  66        9.2461
  67        9.2461
  68        9.2461
 
  0.3333333E+00  0.0000000E+00  0.0000000E+00  0.1157407E-02
   1       -3.1837
   2       -2.4730
   3       -1.0614
   4       -1.0613
   5       -1.0613
   6       -1.0613
   7       -0.3603
   8       -0.3603
   9       -0.3603
  10       -0.3603
  11        0.3362
  12        1.0324
  13        1.0324
  14        1.0324
  15        1.0324
  16        1.7244
  17        1.7244
  18        1.7244
  19        1.7244
  20        2.3969
  21        2.4113
  22        2.4113
  23        2.4113
  24        2.4114
  25        4.4418
  26        4.4418
  27        4.4419
  28        4.4419
  29        4.4621
  30        4.4621
  31        4.4621
  32        4.4621
  33        4.6367
  34        4.6367
  35        5.2961
  36        5.2961
  37        5.7673
  38        5.7673
  39        6.4597
  40        6.4601
  41        6.4677
  42        6.4677
  43        6.4678
  44        6.4682
  45        6.6166
  46        6.6166
  47        6.6167
  48        6.6167
  49        7.2772
  50        7.2772
  51        7.2772
  52        7.2772
  53        7.8351
  54        7.8351
  55        7.8351
  56        7.8351
  57        7.9396
  58        7.9396
  59        7.9706
  60        8.5157
  61        8.5157
  62        8.5157
  63        8.5157
  64        9.1796
  65        9.1796
  66        9.9227
  67        9.9253
  68        9.9264
 
  0.4166667E+00  0.0000000E+00  0.0000000E+00  0.1157407E-02
   1       -3.0502
   2       -2.6947
   3       -0.9297
   4       -0.9297
   5       -0.9297
   6       -0.9297
   7       -0.5791
   8       -0.5791
   9       -0.5791
  10       -0.5791
  11        0.8129
  12        1.1624
  13        1.1624
  14        1.1624
  15        1.1624
  16        1.5085
  17        1.5085
  18        1.5085
  19        1.5085
  20        1.8447
  21        2.8815
  22        2.8815
  23        2.8815
  24        2.8815
  25        3.8985
  26        3.8985
  27        3.8985
  28        3.8985
  29        4.7603
  30        4.7603
  31        4.9267
  32        4.9267
  33        4.9267
  34        4.9267
  35        5.0900
  36        5.0900
  37        5.8979
  38        5.8980
  39        5.9312
  40        5.9312
  41        5.9312
  42        5.9313
  43        6.2449
  44        6.2449
  45        6.7404
  46        6.7404
  47        6.7405
  48        6.7405
  49        7.0707
  50        7.0707
  51        7.0707
  52        7.0707
  53        7.9643
  54        7.9643
  55        7.9643
  56        7.9643
  57        8.3045
  58        8.3045
  59        8.3045
  60        8.3046
  61        8.3946
  62        8.3946
  63        8.7569
  64        9.3880
  65        9.3880
  66        9.6213
  67        9.6213
  68       10.3766
 
  0.5000000E+00  0.0000000E+00  0.0000000E+00  0.5787037E-03
   1       -2.8885
   2       -2.8858
   3       -0.7727
   4       -0.7697
   5       -0.7697
   6       -0.7690
   7       -0.7688
   8       -0.7681
   9       -0.7681
  10       -0.7651
  11        1.3136
  12        1.3162
  13        1.3198
  14        1.3199
  15        1.3199
  16        1.3207
  17        1.3215
  18        1.3223
  19        1.3223
  20        1.3248
  21        3.3764
  22        3.3769
  23        3.3769
  24        3.3775
  25        3.3778
  26        3.3784
  27        3.3784
  28        3.3789
  29        4.9099
  30        4.9099
  31        4.9128
  32        4.9128
  33        5.4157
  34        5.4157
  35        5.4164
  36        5.4165
  37        5.4171
  38        5.4173
  39        5.4179
  40        5.4179
  41        6.0556
  42        6.0565
  43        6.0582
  44        6.0591
  45        6.8896
  46        6.8896
  47        6.8906
  48        6.8918
  49        6.8919
  50        6.8931
  51        6.8941
  52        6.8941
  53        8.1185
  54        8.1196
  55        8.1196
  56        8.1197
  57        8.1216
  58        8.1217
  59        8.1217
  60        8.1229
  61        8.8763
  62        8.8763
  63        8.8786
  64        8.8786
  65        9.5703
  66        9.5719
  67       10.0800
  68       10.0814
 
  0.0000000E+00  0.8333333E-01  0.0000000E+00  0.2314815E-02
   1       -3.4065
   2       -1.6332
   3       -1.2838
   4       -1.2810
   5       -1.2810
   6       -1.2783
   7       -0.9297
   8        0.4653
   9        0.4681
  10        0.4681
  11        0.4709
  12        0.8134
  13        0.8145
  14        0.8166
  15        0.8177
  16        1.1595
  17        1.1622
  18        1.1622
  19        1.1650
  20        2.5403
  21        2.5414
  22        2.5435
  23        2.5446
  24        3.2260
  25        3.2271
  26        3.2292
  27        3.2303
  28        4.1061
  29        4.4308
  30        4.4308
  31        5.5486
  32        5.5486
  33        5.8710
  34        6.0798
  35        6.0800
  36        6.1035
  37        6.1064
  38        6.1064
  39        6.1095
  40        6.4077
  41        6.4103
  42        6.4103
  43        6.4129
  44        6.7407
  45        6.7407
  46        7.2497
  47        7.2498
  48        7.5639
  49        7.5663
  50        7.5664
  51        7.5687
  52        7.9914
  53        7.9930
  54        7.9930
  55        7.9946
  56        8.0057
  57        8.0057
  58        8.0593
  59        8.0619
  60        8.0620
  61        8.0646
  62        8.0998
  63        8.1013
  64        8.1034
  65        8.1050
  66        8.7220
  67        8.7231
  68        8.7251
 
  0.8333333E-01  0.8333333E-01  0.0000000E+00  0.4629630E-02
   1       -3.3917
   2       -1.6197
   3       -1.6174
   4       -1.2664
   5       -1.2664
   6       -0.9162
   7       -0.9140
   8        0.1344
   9        0.4810
  10        0.4819
  11        0.4833
  12        0.4842
  13        0.8294
  14        0.8305
  15        1.1751
  16        1.1760
  17        1.1773
  18        1.1783
  19        1.5225
  20        2.2129
  21        2.2129
  22        2.8941
  23        2.8941
  24        2.9056
  25        2.9056
  26        3.5841
  27        3.5841
  28        4.1196
  29        4.1204
  30        4.4445
  31        5.5632
  32        5.7868
  33        5.7891
  34        5.8850
  35        5.8858
  36        6.0923
  37        6.0948
  38        6.0985
  39        6.0988
  40        6.1435
  41        6.1435
  42        6.4503
  43        6.4518
  44        6.7532
  45        6.7558
  46        7.2824
  47        7.2844
  48        7.5488
  49        7.5507
  50        7.7452
  51        7.7828
  52        7.7838
  53        7.7851
  54        7.7860
  55        7.8021
  56        7.8021
  57        8.0369
  58        8.0380
  59        8.0854
  60        8.0855
  61        8.3003
  62        8.3021
  63        8.4054
  64        8.4073
  65        8.4464
  66        8.4474
  67        8.4477
  68        8.4487
 
  0.1666667E+00  0.8333333E-01  0.0000000E+00  0.4629630E-02
   1       -3.3471
   2       -1.9273
   3       -1.5745
   4       -1.2224
   5       -1.2224
   6       -0.8712
   7       -0.5210
   8       -0.1710
   9        0.1779
  10        0.1779
  11        0.5254
  12        0.5261
  13        0.5267
  14        1.2192
  15        1.2200
  16        1.2205
  17        1.5656
  18        1.5656
  19        1.9103
  20        1.9114
  21        1.9117
  22        2.5996
  23        2.5996
  24        3.2849
  25        3.2849
  26        3.5657
  27        3.9675
  28        3.9675
  29        4.1618
  30        4.4857
  31        5.2511
  32        5.4967
  33        5.5855
  34        5.5856
  35        5.6071
  36        5.8048
  37        5.9199
  38        5.9288
  39        6.1350
  40        6.1645
  41        6.1645
  42        6.5179
  43        6.7958
  44        6.8085
  45        7.0097
  46        7.1264
  47        7.2618
  48        7.2618
  49        7.2851
  50        7.3365
  51        7.4561
  52        7.4940
  53        7.4940
  54        7.9276
  55        7.9278
  56        7.9492
  57        7.9571
  58        7.9572
  59        8.1172
  60        8.2939
  61        8.3819
  62        8.5821
  63        8.5821
  64        8.6667
  65        8.6993
  66        8.7785
  67        8.8200
  68        8.8223
 
  0.2500000E+00  0.8333333E-01  0.0000000E+00  0.4629630E-02
   1       -3.2728
   2       -2.2073
   3       -1.5011
   4       -1.1492
   5       -1.1492
   6       -0.7982
   7       -0.4478
   8       -0.1004
   9       -0.0982
  10       -0.0968
  11        0.2504
  12        0.5985
  13        0.5985
  14        1.2921
  15        1.2921
  16        1.6358
  17        1.6382
  18        1.6395
  19        1.9820
  20        1.9820
  21        2.3249
  22        2.3274
  23        2.3287
  24        2.9835
  25        3.6971
  26        3.6971
  27        4.2314
  28        4.3781
  29        4.3781
  30        4.5543
  31        4.6804
  32        5.0175
  33        5.0175
  34        5.2329
  35        5.3540
  36        5.5436
  37        5.6799
  38        6.0005
  39        6.2038
  40        6.2335
  41        6.2335
  42        6.7010
  43        6.7011
  44        6.7124
  45        6.8646
  46        7.0235
  47        7.1945
  48        7.2301
  49        7.2307
  50        7.2310
  51        7.2391
  52        7.3698
  53        7.3698
  54        7.4111
  55        7.5260
  56        7.8556
  57        8.0430
  58        8.0430
  59        8.0734
  60        8.4331
  61        8.7744
  62        8.9383
  63        9.0585
  64        9.0592
  65        9.0624
  66        9.1004
  67        9.1807
  68        9.2225
 
  0.3333333E+00  0.8333333E-01  0.0000000E+00  0.4629630E-02
   1       -3.1689
   2       -2.4582
   3       -1.3984
   4       -1.0467
   5       -1.0467
   6       -0.6965
   7       -0.6953
   8       -0.3458
   9       -0.3458
  10        0.0034
  11        0.3507
  12        0.6999
  13        0.6999
  14        1.3924
  15        1.3927
  16        1.3936
  17        1.3939
  18        2.0815
  19        2.0835
  20        2.0837
  21        2.4112
  22        2.4256
  23        2.4257
  24        2.7687
  25        4.1170
  26        4.1362
  27        4.1362
  28        4.3289
  29        4.4560
  30        4.4560
  31        4.6504
  32        4.7941
  33        4.8155
  34        4.8155
  35        4.9967
  36        5.3099
  37        5.7818
  38        6.1010
  39        6.1458
  40        6.1458
  41        6.3001
  42        6.3305
  43        6.3305
  44        6.4736
  45        6.7848
  46        6.8170
  47        6.8170
  48        6.9599
  49        6.9615
  50        6.9956
  51        6.9956
  52        7.5122
  53        7.6216
  54        7.6629
  55        7.9533
  56        7.9846
  57        8.1461
  58        8.1461
  59        8.1822
  60        8.1939
  61        8.8224
  62        8.8224
  63        8.8630
  64        9.1940
  65        9.4812
  66        9.6102
  67        9.6412
  68        9.6470
 
  0.4166667E+00  0.8333333E-01  0.0000000E+00  0.4629630E-02
   1       -3.0354
   2       -2.6799
   3       -1.2664
   4       -0.9163
   5       -0.9151
   6       -0.9137
   7       -0.5658
   8       -0.5645
   9       -0.5632
  10       -0.2148
  11        0.8268
  12        0.8301
  13        0.8306
  14        1.1769
  15        1.1769
  16        1.5227
  17        1.5227
  18        1.8589
  19        1.8681
  20        1.8683
  21        2.5529
  22        2.8958
  23        2.8958
  24        3.2379
  25        3.5722
  26        3.9126
  27        3.9126
  28        4.2522
  29        4.4542
  30        4.6017
  31        4.6017
  32        4.7740
  33        4.7882
  34        5.1037
  35        5.2791
  36        5.2792
  37        5.6082
  38        5.6082
  39        5.9125
  40        6.2300
  41        6.2590
  42        6.2816
  43        6.2817
  44        6.4238
  45        6.4552
  46        6.4552
  47        6.5724
  48        6.7541
  49        6.7878
  50        6.7879
  51        7.0847
  52        7.4151
  53        7.6410
  54        7.9820
  55        8.1171
  56        8.2746
  57        8.2746
  58        8.3127
  59        8.4084
  60        8.6126
  61        8.6126
  62        8.6526
  63        8.7707
  64        9.1061
  65        9.4018
  66        9.6353
  67        9.9222
  68       10.0659
 
  0.5000000E+00  0.8333333E-01  0.0000000E+00  0.2314815E-02
   1       -2.8737
   2       -2.8710
   3       -1.1066
   4       -1.1039
   5       -0.7562
   6       -0.7551
   7       -0.7535
   8       -0.7524
   9       -0.4055
  10       -0.4028
  11        0.9872
  12        0.9883
  13        0.9899
  14        0.9910
  15        1.3298
  16        1.3312
  17        1.6792
  18        1.6803
  19        1.6819
  20        1.6830
  21        3.0494
  22        3.0509
  23        3.3911
  24        3.3912
  25        3.3926
  26        3.3926
  27        3.7321
  28        3.7335
  29        4.6059
  30        4.6087
  31        4.9237
  32        4.9265
  33        5.0920
  34        5.0921
  35        5.0935
  36        5.0936
  37        5.7675
  38        5.7675
  39        5.7690
  40        5.7690
  41        6.0704
  42        6.0730
  43        6.3859
  44        6.3886
  45        6.5737
  46        6.5766
  47        6.6056
  48        6.6070
  49        6.6084
  50        6.6098
  51        7.2347
  52        7.2376
  53        7.7963
  54        7.7989
  55        8.4283
  56        8.4290
  57        8.4310
  58        8.4317
  59        8.4679
  60        8.4705
  61        8.5975
  62        8.5995
  63        8.8901
  64        8.8923
  65        9.5840
  66        9.5856
  67       10.0940
  68       10.0946
 
  0.0000000E+00  0.1666667E+00  0.0000000E+00  0.2314815E-02
   1       -3.3620
   2       -1.9421
   3       -1.2398
   4       -1.2371
   5       -1.2371
   6       -1.2343
   7       -0.5355
   8        0.1606
   9        0.1634
  10        0.1634
  11        0.1662
  12        0.8568
  13        0.8579
  14        0.8600
  15        0.8611
  16        1.5484
  17        1.5512
  18        1.5512
  19        1.5540
  20        2.2394
  21        2.2405
  22        2.2426
  23        2.2437
  24        3.5516
  25        3.6102
  26        3.6113
  27        3.6135
  28        3.6145
  29        4.4720
  30        4.4720
  31        5.5693
  32        5.5723
  33        5.5723
  34        5.5752
  35        5.5924
  36        5.5924
  37        5.7911
  38        5.7911
  39        6.4490
  40        6.4515
  41        6.4516
  42        6.4541
  43        6.5037
  44        6.9682
  45        6.9683
  46        7.1126
  47        7.1126
  48        7.5788
  49        7.5802
  50        7.5823
  51        7.5836
  52        7.6492
  53        7.6514
  54        7.6514
  55        7.6535
  56        7.7702
  57        7.7728
  58        7.7729
  59        7.7755
  60        8.3647
  61        8.3647
  62        8.5585
  63        8.5608
  64        8.5609
  65        8.5632
  66        9.0183
  67        9.0199
  68        9.0232
 
  0.8333333E-01  0.1666667E+00  0.0000000E+00  0.4629630E-02
   1       -3.3471
   2       -1.9273
   3       -1.5745
   4       -1.2224
   5       -1.2224
   6       -0.8712
   7       -0.5210
   8       -0.1710
   9        0.1779
  10        0.1779
  11        0.5246
  12        0.5261
  13        0.5274
  14        1.2184
  15        1.2200
  16        1.2213
  17        1.5656
  18        1.5656
  19        1.9103
  20        1.9114
  21        1.9117
  22        2.5996
  23        2.5996
  24        3.2849
  25        3.2849
  26        3.5657
  27        3.9675
  28        3.9675
  29        4.1618
  30        4.4857
  31        5.2511
  32        5.4967
  33        5.5856
  34        5.5856
  35        5.6070
  36        5.8048
  37        5.9201
  38        5.9286
  39        6.1349
  40        6.1646
  41        6.1646
  42        6.5179
  43        6.7958
  44        6.8085
  45        7.0097
  46        7.1264
  47        7.2618
  48        7.2618
  49        7.2851
  50        7.3365
  51        7.4560
  52        7.4940
  53        7.4940
  54        7.9279
  55        7.9279
  56        7.9488
  57        7.9571
  58        7.9574
  59        8.1172
  60        8.2939
  61        8.3819
  62        8.5821
  63        8.5821
  64        8.6666
  65        8.6993
  66        8.7783
  67        8.8200
  68        8.8204
 
  0.1666667E+00  0.1666667E+00  0.0000000E+00  0.4629630E-02
   1       -3.3025
   2       -1.8843
   3       -1.8821
   4       -1.1785
   5       -1.1785
   6       -0.4789
   7       -0.4771
   8       -0.4753
   9        0.2199
  10        0.2208
  11        0.2222
  12        0.2231
  13        0.9160
  14        0.9170
  15        1.6065
  16        1.6078
  17        1.6090
  18        1.6090
  19        1.6102
  20        1.6114
  21        2.2977
  22        2.9819
  23        2.9819
  24        2.9886
  25        2.9886
  26        3.6075
  27        3.6085
  28        4.3501
  29        4.3501
  30        4.5269
  31        4.9561
  32        4.9584
  33        5.5941
  34        5.5942
  35        5.6507
  36        5.6649
  37        5.6650
  38        5.8448
  39        5.8473
  40        6.2919
  41        6.2932
  42        6.5600
  43        6.5610
  44        6.9682
  45        6.9691
  46        6.9705
  47        6.9714
  48        7.0441
  49        7.0459
  50        7.1652
  51        7.1674
  52        7.1696
  53        7.8825
  54        7.8843
  55        8.3004
  56        8.3015
  57        8.3015
  58        8.3026
  59        8.4055
  60        8.4416
  61        8.4428
  62        8.4724
  63        8.4725
  64        8.4883
  65        8.4902
  66        8.7178
  67        8.7178
  68        9.2654
 
  0.2500000E+00  0.1666667E+00  0.0000000E+00  0.4629630E-02
   1       -3.2283
   2       -2.1631
   3       -1.8096
   4       -1.1053
   5       -1.1053
   6       -0.7542
   7       -0.4043
   8       -0.0568
   9       -0.0546
  10       -0.0531
  11        0.2941
  12        0.2941
  13        0.6416
  14        1.3333
  15        1.3356
  16        1.3370
  17        1.6807
  18        1.6807
  19        2.0251
  20        2.0251
  21        2.7110
  22        2.7137
  23        2.7149
  24        3.0261
  25        3.3982
  26        3.3982
  27        3.6785
  28        4.3846
  29        4.5955
  30        4.6909
  31        4.7598
  32        4.7598
  33        5.0588
  34        5.0588
  35        5.5848
  36        5.7018
  37        5.7018
  38        5.7235
  39        5.7308
  40        5.9148
  41        6.4078
  42        6.4078
  43        6.6314
  44        6.6491
  45        6.7053
  46        6.7054
  47        6.8216
  48        6.9054
  49        7.1156
  50        7.2365
  51        7.2725
  52        7.5673
  53        7.6383
  54        7.7447
  55        7.7448
  56        8.1384
  57        8.2276
  58        8.3905
  59        8.6433
  60        8.6433
  61        8.7015
  62        8.7020
  63        8.7064
  64        8.8208
  65        8.8888
  66        9.3114
  67        9.3114
  68        9.4712
 
  0.3333333E+00  0.1666667E+00  0.0000000E+00  0.4629630E-02
   1       -3.1244
   2       -2.4139
   3       -1.7067
   4       -1.0041
   5       -1.0028
   6       -1.0015
   7       -0.3035
   8       -0.3021
   9       -0.3009
  10        0.3928
  11        0.3953
  12        0.3956
  13        0.3969
  14        1.0903
  15        1.0903
  16        1.7798
  17        1.7814
  18        1.7817
  19        2.4540
  20        2.4677
  21        2.4682
  22        2.4707
  23        2.4714
  24        3.1537
  25        3.7771
  26        3.8198
  27        3.8381
  28        3.8382
  29        4.4523
  30        4.4982
  31        4.4982
  32        4.6916
  33        5.1733
  34        5.1962
  35        5.1963
  36        5.3511
  37        5.7987
  38        5.7987
  39        5.8253
  40        5.8514
  41        5.8515
  42        6.0111
  43        6.4684
  44        6.4684
  45        6.5117
  46        6.6714
  47        6.7306
  48        7.1458
  49        7.1932
  50        7.1932
  51        7.2155
  52        7.3328
  53        7.4049
  54        7.8983
  55        7.9924
  56        7.9958
  57        8.0264
  58        8.5483
  59        8.7519
  60        8.7519
  61        9.1140
  62        9.1289
  63        9.1289
  64        9.2345
  65        9.2377
  66        9.3162
  67        9.3982
  68        9.4249
 
  0.4166667E+00  0.1666667E+00  0.0000000E+00  0.4629630E-02
   1       -2.9909
   2       -2.6356
   3       -1.5745
   4       -1.2224
   5       -0.8712
   6       -0.8712
   7       -0.5207
   8       -0.5207
   9       -0.1713
  10        0.1776
  11        0.5261
  12        0.5261
  13        0.8701
  14        0.8735
  15        0.8741
  16        1.9019
  17        1.9108
  18        1.9110
  19        2.2522
  20        2.2554
  21        2.2555
  22        2.9386
  23        2.9387
  24        3.2737
  25        3.6216
  26        3.9039
  27        3.9551
  28        3.9551
  29        4.2415
  30        4.3044
  31        4.3045
  32        4.6332
  33        4.8152
  34        5.1449
  35        5.3128
  36        5.3128
  37        5.6588
  38        5.6589
  39        5.9243
  40        5.9243
  41        5.9558
  42        6.1349
  43        6.2592
  44        6.2592
  45        6.3010
  46        6.4650
  47        6.6591
  48        6.6591
  49        6.8580
  50        7.1957
  51        7.3440
  52        7.4567
  53        7.5971
  54        7.6857
  55        7.7871
  56        8.4497
  57        8.5842
  58        8.6843
  59        8.8122
  60        8.8807
  61        8.8807
  62        9.0251
  63        9.2166
  64        9.2166
  65        9.4431
  66        9.5818
  67        9.5818
  68        9.6775
 
  0.5000000E+00  0.1666667E+00  0.0000000E+00  0.2314815E-02
   1       -2.8293
   2       -2.8266
   3       -1.4144
   4       -1.4117
   5       -0.7124
   6       -0.7113
   7       -0.7097
   8       -0.7085
   9       -0.0127
  10       -0.0100
  11        0.6835
  12        0.6846
  13        0.6862
  14        0.6873
  15        1.3730
  16        1.3744
  17        2.0669
  18        2.0680
  19        2.0696
  20        2.0708
  21        2.7498
  22        2.7512
  23        3.4338
  24        3.4339
  25        3.4352
  26        3.4353
  27        4.0573
  28        4.0601
  29        4.1145
  30        4.1159
  31        4.7956
  32        4.7957
  33        4.7971
  34        4.7971
  35        4.9649
  36        4.9678
  37        6.0757
  38        6.0770
  39        6.0786
  40        6.0798
  41        6.1132
  42        6.1159
  43        6.1461
  44        6.1462
  45        6.1476
  46        6.1476
  47        6.2847
  48        6.2876
  49        7.0118
  50        7.0145
  51        7.4995
  52        7.5021
  53        7.6067
  54        7.6096
  55        8.0769
  56        8.0787
  57        8.8405
  58        8.8432
  59        8.9314
  60        8.9336
  61        9.0335
  62        9.0344
  63        9.0363
  64        9.0371
  65        9.6251
  66        9.6266
  67       10.0600
  68       10.0767
 
  0.0000000E+00  0.2500000E+00  0.0000000E+00  0.2314815E-02
   1       -3.2877
   2       -2.2220
   3       -1.1666
   4       -1.1638
   5       -1.1638
   6       -1.1611
   7       -0.1157
   8       -0.1134
   9       -0.1128
  10       -0.1128
  11       -0.1099
  12        0.9291
  13        0.9302
  14        0.9323
  15        0.9334
  16        1.9646
  17        1.9670
  18        1.9673
  19        1.9677
  20        1.9681
  21        1.9699
  22        1.9700
  23        1.9716
  24        2.9692
  25        4.0216
  26        4.0227
  27        4.0249
  28        4.0260
  29        4.5406
  30        4.5406
  31        5.0007
  32        5.0036
  33        5.0036
  34        5.0065
  35        5.5298
  36        5.5298
  37        5.6653
  38        5.6653
  39        6.5177
  40        6.5203
  41        6.5203
  42        6.5229
  43        6.7020
  44        6.7020
  45        7.0195
  46        7.0207
  47        7.0229
  48        7.0241
  49        7.2162
  50        7.5083
  51        7.5112
  52        7.5113
  53        7.5120
  54        7.5122
  55        7.5144
  56        7.7302
  57        7.7322
  58        7.7322
  59        7.7343
  60        8.7519
  61        8.7540
  62        8.7540
  63        8.7559
  64        8.7594
  65        8.7595
  66        9.2445
  67        9.2461
  68        9.2479
 