 vasp.4.6.28 25Jul05 complex 
 executed on             LinuxIFC date 2016.11.11  17:42:47
 running on    4 nodes
 distr:  one band on    1 nodes,    4 groups


--------------------------------------------------------------------------------------------------------


 INCAR:
 POTCAR:   PAW_PBE Al 04Jan2001                   
 POTCAR:   PAW_PBE Al 04Jan2001                   
   VRHFIN =Al: s2p1                                                             
   LEXCH  = PE                                                                  
   EATOM  =    53.5387 eV,    3.9350 Ry                                         
                                                                                
   TITEL  = PAW_PBE Al 04Jan2001                                                
   LULTRA =        F    use ultrasoft PP ?                                      
   IUNSCR =        1    unscreen: 0-lin 1-nonlin 2-no                           
   RPACOR =    1.500    partial core radius                                     
   POMASS =   26.982; ZVAL   =    3.000    mass and valenz                      
   RCORE  =    1.900    outmost cutoff radius                                   
   RWIGS  =    2.650; RWIGS  =    1.402    wigner-seitz radius (au A)           
   ENMAX  =  240.300; ENMIN  =  180.225 eV                                      
   ICORE  =        2    local potential                                         
   LCOR   =        T    correct aug charges                                     
   LPAW   =        T    paw PP                                                  
   EAUG   =  291.052                                                            
   DEXC   =    -.041                                                            
   RMAX   =    2.974    core radius for proj-oper                               
   RAUG   =    1.300    factor for augmentation sphere                          
   RDEP   =    1.966    radius for radial grids                                 
   QCUT   =   -4.203; QGAM   =    8.405    optimization parameters              
                                                                                
   Description                                                                  
     l     E      TYP  RCUT    TYP  RCUT                                        
     0   .000     23  1.900                                                     
     0   .000     23  1.900                                                     
     1   .000     23  1.900                                                     
     1  1.000     23  1.900                                                     
     2   .000      7  1.900                                                     
  local pseudopotential read in
  partial core-charges read in
  atomic valenz-charges read in
  non local Contribution for L=           0  read in
    real space projection operators read in
  non local Contribution for L=           0  read in
    real space projection operators read in
  non local Contribution for L=           1  read in
    real space projection operators read in
  non local Contribution for L=           1  read in
    real space projection operators read in
    PAW grid and wavefunctions read in
 
   number of l-projection  operators is LMAX  =           4
   number of lm-projection operators is LMMAX =           8
 

 ----------------------------------------------------------------------------- 
|                                                                             |
|  ADVICE TO THIS USER RUNNING 'VASP/VAMP'   (HEAR YOUR MASTER'S VOICE ...):  |
|                                                                             |
|      You have a (more or less) 'large supercell' and for larger cells       |
|      it might be more efficient to use real space projection operators      |
|      So try LREAL= Auto  in the INCAR   file.                               |
|      Mind: If you want to do an extremely accurate calculations keep the    |
|      reciprocal projection scheme          (i.e. LREAL=.FALSE.)             |
|                                                                             |
 ----------------------------------------------------------------------------- 

 PAW_PBE Al 04Jan2001                   :
 energy of atom  1       EATOM=  -53.5387
 kinetic energy error for atom=    0.0001 (will be added to EATOM!!)
 
 EXHCAR: internal setup
 exchange correlation table for  LEXCH =        8
   RHO(1)=    0.500       N(1)  =     2000
   RHO(2)=  100.500       N(2)  =     4000
 
 POSCAR: Al                                      
  positions in direct lattice
  No initial velocities read in
 


--------------------------------------------------------------------------------------------------------


 ion  position               nearest neighbor table
   1  0.251  0.250  0.000-  18 2.93  22 2.93  26 2.93  28 2.93   9 2.94  11 2.94  13 2.94  15 2.94
                            25 2.95  21 2.95  27 2.95  17 2.95
   2  0.750  0.250  0.000-  10 2.94  12 2.94  14 2.94  16 2.94  17 2.94  18 2.94  21 2.94  22 2.94
                            25 2.94  26 2.94  27 2.94  28 2.94
   3  0.250  0.750  0.000-   9 2.94  11 2.94  13 2.94  15 2.94  19 2.94  20 2.94  23 2.94  24 2.94
                            25 2.94  26 2.94  27 2.94  28 2.94
   4  0.750  0.750  0.000-  10 2.94  12 2.94  14 2.94  16 2.94  19 2.94  20 2.94  23 2.94  24 2.94
                            25 2.94  26 2.94  27 2.94  28 2.94
   5  0.250  0.250  0.500-   9 2.94  11 2.94  13 2.94  15 2.94  17 2.94  18 2.94  21 2.94  22 2.94
                            29 2.94  30 2.94  31 2.94  32 2.94
   6  0.750  0.250  0.500-  10 2.94  12 2.94  14 2.94  16 2.94  17 2.94  18 2.94  21 2.94  22 2.94
                            29 2.94  30 2.94  31 2.94  32 2.94
   7  0.250  0.750  0.500-   9 2.94  11 2.94  13 2.94  15 2.94  19 2.94  20 2.94  23 2.94  24 2.94
                            29 2.94  30 2.94  31 2.94  32 2.94
   8  0.750  0.750  0.500-  10 2.94  12 2.94  14 2.94  16 2.94  19 2.94  20 2.94  23 2.94  24 2.94
                            29 2.94  30 2.94  31 2.94  32 2.94
   9  0.250  0.000  0.250-   3 2.94   5 2.94   7 2.94  17 2.94  18 2.94  19 2.94  20 2.94  25 2.94
                            26 2.94  29 2.94  30 2.94   1 2.94
  10  0.750  0.000  0.250-   2 2.94   4 2.94   6 2.94   8 2.94  17 2.94  18 2.94  19 2.94  20 2.94
                            25 2.94  26 2.94  29 2.94  30 2.94
  11  0.250  0.500  0.250-   3 2.94   5 2.94   7 2.94  17 2.94  18 2.94  19 2.94  20 2.94  27 2.94
                            28 2.94  31 2.94  32 2.94   1 2.94
  12  0.750  0.500  0.250-   2 2.94   4 2.94   6 2.94   8 2.94  17 2.94  18 2.94  19 2.94  20 2.94
                            27 2.94  28 2.94  31 2.94  32 2.94
  13  0.250  0.000  0.750-   3 2.94   5 2.94   7 2.94  21 2.94  22 2.94  23 2.94  24 2.94  25 2.94
                            26 2.94  29 2.94  30 2.94   1 2.94
  14  0.750  0.000  0.750-   2 2.94   4 2.94   6 2.94   8 2.94  21 2.94  22 2.94  23 2.94  24 2.94
                            25 2.94  26 2.94  29 2.94  30 2.94
  15  0.250  0.500  0.750-   3 2.94   5 2.94   7 2.94  21 2.94  22 2.94  23 2.94  24 2.94  27 2.94
                            28 2.94  31 2.94  32 2.94   1 2.94
  16  0.750  0.500  0.750-   2 2.94   4 2.94   6 2.94   8 2.94  21 2.94  22 2.94  23 2.94  24 2.94
                            27 2.94  28 2.94  31 2.94  32 2.94
  17  0.000  0.250  0.250-   2 2.94   5 2.94   6 2.94   9 2.94  10 2.94  11 2.94  12 2.94  25 2.94
                            27 2.94  29 2.94  31 2.94   1 2.95
  18  0.500  0.250  0.250-   1 2.93   2 2.94   5 2.94   6 2.94   9 2.94  10 2.94  11 2.94  12 2.94
                            26 2.94  28 2.94  30 2.94  32 2.94
  19  0.000  0.750  0.250-   3 2.94   4 2.94   7 2.94   8 2.94   9 2.94  10 2.94  11 2.94  12 2.94
                            25 2.94  27 2.94  29 2.94  31 2.94
  20  0.500  0.750  0.250-   3 2.94   4 2.94   7 2.94   8 2.94   9 2.94  10 2.94  11 2.94  12 2.94
                            26 2.94  28 2.94  30 2.94  32 2.94
  21  0.000  0.250  0.750-   2 2.94   5 2.94   6 2.94  13 2.94  14 2.94  15 2.94  16 2.94  25 2.94
                            27 2.94  29 2.94  31 2.94   1 2.95
  22  0.500  0.250  0.750-   1 2.93   2 2.94   5 2.94   6 2.94  13 2.94  14 2.94  15 2.94  16 2.94
                            26 2.94  28 2.94  30 2.94  32 2.94
  23  0.000  0.750  0.750-   3 2.94   4 2.94   7 2.94   8 2.94  13 2.94  14 2.94  15 2.94  16 2.94
                            25 2.94  27 2.94  29 2.94  31 2.94
  24  0.500  0.750  0.750-   3 2.94   4 2.94   7 2.94   8 2.94  13 2.94  14 2.94  15 2.94  16 2.94
                            26 2.94  28 2.94  30 2.94  32 2.94
  25  0.000  0.000  0.000-   2 2.94   3 2.94   4 2.94   9 2.94  10 2.94  13 2.94  14 2.94  17 2.94
                            19 2.94  21 2.94  23 2.94   1 2.95
  26  0.500  0.000  0.000-   1 2.93   2 2.94   3 2.94   4 2.94   9 2.94  10 2.94  13 2.94  14 2.94
                            18 2.94  20 2.94  22 2.94  24 2.94
  27  0.000  0.500  0.000-   2 2.94   3 2.94   4 2.94  11 2.94  12 2.94  15 2.94  16 2.94  17 2.94
                            19 2.94  21 2.94  23 2.94   1 2.95
  28  0.500  0.500  0.000-   1 2.93   2 2.94   3 2.94   4 2.94  11 2.94  12 2.94  15 2.94  16 2.94
                            18 2.94  20 2.94  22 2.94  24 2.94
  29  0.000  0.000  0.500-   5 2.94   6 2.94   7 2.94   8 2.94   9 2.94  10 2.94  13 2.94  14 2.94
                            17 2.94  19 2.94  21 2.94  23 2.94
  30  0.500  0.000  0.500-   5 2.94   6 2.94   7 2.94   8 2.94   9 2.94  10 2.94  13 2.94  14 2.94
                            18 2.94  20 2.94  22 2.94  24 2.94
  31  0.000  0.500  0.500-   5 2.94   6 2.94   7 2.94   8 2.94  11 2.94  12 2.94  15 2.94  16 2.94
                            17 2.94  19 2.94  21 2.94  23 2.94
  32  0.500  0.500  0.500-   5 2.94   6 2.94   7 2.94   8 2.94  11 2.94  12 2.94  15 2.94  16 2.94
                            18 2.94  20 2.94  22 2.94  24 2.94
 
  LATTYP: Found a simple cubic cell.
 ALAT       =     8.3168511215
  
  Lattice vectors:
  
 A1 = (   8.3168511215,   0.0000000000,   0.0000000000)
 A2 = (   0.0000000000,   8.3168511215,   0.0000000000)
 A3 = (   0.0000000000,   0.0000000000,   8.3168511215)
 Subroutine PRICEL returns:
 Original cell was already a primitive cell.
 

Analysis of symmetry for initial positions (statically):

 Routine SETGRP: Setting up the symmetry group for a 
 simple cubic supercell.


 Subroutine GETGRP returns: Found  8 space group operations
 (whereof  2 operations were pure point group operations)
 out of a pool of 48 trial point group operations.


The static configuration has the point symmetry C_1h.
 The point group associated with its full space group is C_4v.

Analysis of symmetry for dynamics (positions and initial velocities):

 Subroutine DYNSYM returns: Found  8 space group operations
 (whereof  2 operations were pure point group operations)
 out of a pool of  8 trial space group operations
 (whereof  2 operations were pure point group operations)
 and found also     1 'primitive' translations


The dynamic configuration has the point symmetry C_1h.
 The point group associated with its full space group is C_4v.
 
 
 KPOINTS: Automatic mesh                          

Automatic generation of k-mesh.
 
 Subroutine IBZKPT returns following result:
 ===========================================
 
 Found    196 irreducible k-points:
 
 Following reciprocal coordinates:
            Coordinates               Weight
  0.000000  0.000000  0.000000      1.000000
  0.083333  0.000000  0.000000      2.000000
  0.166667  0.000000  0.000000      2.000000
  0.250000  0.000000  0.000000      2.000000
  0.333333  0.000000  0.000000      2.000000
  0.416667  0.000000  0.000000      2.000000
  0.500000  0.000000  0.000000      1.000000
  0.000000  0.083333  0.000000      4.000000
  0.083333  0.083333  0.000000      8.000000
  0.166667  0.083333  0.000000      8.000000
  0.250000  0.083333  0.000000      8.000000
  0.333333  0.083333  0.000000      8.000000
  0.416667  0.083333  0.000000      8.000000
  0.500000  0.083333  0.000000      4.000000
  0.000000  0.166667  0.000000      4.000000
  0.083333  0.166667  0.000000      8.000000
  0.166667  0.166667  0.000000      8.000000
  0.250000  0.166667  0.000000      8.000000
  0.333333  0.166667  0.000000      8.000000
  0.416667  0.166667  0.000000      8.000000
  0.500000  0.166667  0.000000      4.000000
  0.000000  0.250000  0.000000      4.000000
  0.083333  0.250000  0.000000      8.000000
  0.166667  0.250000  0.000000      8.000000
  0.250000  0.250000  0.000000      8.000000
  0.333333  0.250000  0.000000      8.000000
  0.416667  0.250000  0.000000      8.000000
  0.500000  0.250000  0.000000      4.000000
  0.000000  0.333333  0.000000      4.000000
  0.083333  0.333333  0.000000      8.000000
  0.166667  0.333333  0.000000      8.000000
  0.250000  0.333333  0.000000      8.000000
  0.333333  0.333333  0.000000      8.000000
  0.416667  0.333333  0.000000      8.000000
  0.500000  0.333333  0.000000      4.000000
  0.000000  0.416667  0.000000      4.000000
  0.083333  0.416667  0.000000      8.000000
  0.166667  0.416667  0.000000      8.000000
  0.250000  0.416667  0.000000      8.000000
  0.333333  0.416667  0.000000      8.000000
  0.416667  0.416667  0.000000      8.000000
  0.500000  0.416667  0.000000      4.000000
  0.000000  0.500000  0.000000      2.000000
  0.083333  0.500000  0.000000      4.000000
  0.166667  0.500000  0.000000      4.000000
  0.250000  0.500000  0.000000      4.000000
  0.333333  0.500000  0.000000      4.000000
  0.416667  0.500000  0.000000      4.000000
  0.500000  0.500000  0.000000      2.000000
  0.000000  0.083333  0.083333      4.000000
  0.083333  0.083333  0.083333      8.000000
  0.166667  0.083333  0.083333      8.000000
  0.250000  0.083333  0.083333      8.000000
  0.333333  0.083333  0.083333      8.000000
  0.416667  0.083333  0.083333      8.000000
  0.500000  0.083333  0.083333      4.000000
  0.000000  0.166667  0.083333      8.000000
  0.083333  0.166667  0.083333     16.000000
  0.166667  0.166667  0.083333     16.000000
  0.250000  0.166667  0.083333     16.000000
  0.333333  0.166667  0.083333     16.000000
  0.416667  0.166667  0.083333     16.000000
  0.500000  0.166667  0.083333      8.000000
  0.000000  0.250000  0.083333      8.000000
  0.083333  0.250000  0.083333     16.000000
  0.166667  0.250000  0.083333     16.000000
  0.250000  0.250000  0.083333     16.000000
  0.333333  0.250000  0.083333     16.000000
  0.416667  0.250000  0.083333     16.000000
  0.500000  0.250000  0.083333      8.000000
  0.000000  0.333333  0.083333      8.000000
  0.083333  0.333333  0.083333     16.000000
  0.166667  0.333333  0.083333     16.000000
  0.250000  0.333333  0.083333     16.000000
  0.333333  0.333333  0.083333     16.000000
  0.416667  0.333333  0.083333     16.000000
  0.500000  0.333333  0.083333      8.000000
  0.000000  0.416667  0.083333      8.000000
  0.083333  0.416667  0.083333     16.000000
  0.166667  0.416667  0.083333     16.000000
  0.250000  0.416667  0.083333     16.000000
  0.333333  0.416667  0.083333     16.000000
  0.416667  0.416667  0.083333     16.000000
  0.500000  0.416667  0.083333      8.000000
  0.000000  0.500000  0.083333      4.000000
  0.083333  0.500000  0.083333      8.000000
  0.166667  0.500000  0.083333      8.000000
  0.250000  0.500000  0.083333      8.000000
  0.333333  0.500000  0.083333      8.000000
  0.416667  0.500000  0.083333      8.000000
  0.500000  0.500000  0.083333      4.000000
  0.000000  0.166667  0.166667      4.000000
  0.083333  0.166667  0.166667      8.000000
  0.166667  0.166667  0.166667      8.000000
  0.250000  0.166667  0.166667      8.000000
  0.333333  0.166667  0.166667      8.000000
  0.416667  0.166667  0.166667      8.000000
  0.500000  0.166667  0.166667      4.000000
  0.000000  0.250000  0.166667      8.000000
  0.083333  0.250000  0.166667     16.000000
  0.166667  0.250000  0.166667     16.000000
  0.250000  0.250000  0.166667     16.000000
  0.333333  0.250000  0.166667     16.000000
  0.416667  0.250000  0.166667     16.000000
  0.500000  0.250000  0.166667      8.000000
  0.000000  0.333333  0.166667      8.000000
  0.083333  0.333333  0.166667     16.000000
  0.166667  0.333333  0.166667     16.000000
  0.250000  0.333333  0.166667     16.000000
  0.333333  0.333333  0.166667     16.000000
  0.416667  0.333333  0.166667     16.000000
  0.500000  0.333333  0.166667      8.000000
  0.000000  0.416667  0.166667      8.000000
  0.083333  0.416667  0.166667     16.000000
  0.166667  0.416667  0.166667     16.000000
  0.250000  0.416667  0.166667     16.000000
  0.333333  0.416667  0.166667     16.000000
  0.416667  0.416667  0.166667     16.000000
  0.500000  0.416667  0.166667      8.000000
  0.000000  0.500000  0.166667      4.000000
  0.083333  0.500000  0.166667      8.000000
  0.166667  0.500000  0.166667      8.000000
  0.250000  0.500000  0.166667      8.000000
  0.333333  0.500000  0.166667      8.000000
  0.416667  0.500000  0.166667      8.000000
  0.500000  0.500000  0.166667      4.000000
  0.000000  0.250000  0.250000      4.000000
  0.083333  0.250000  0.250000      8.000000
  0.166667  0.250000  0.250000      8.000000
  0.250000  0.250000  0.250000      8.000000
  0.333333  0.250000  0.250000      8.000000
  0.416667  0.250000  0.250000      8.000000
  0.500000  0.250000  0.250000      4.000000
  0.000000  0.333333  0.250000      8.000000
  0.083333  0.333333  0.250000     16.000000
  0.166667  0.333333  0.250000     16.000000
  0.250000  0.333333  0.250000     16.000000
  0.333333  0.333333  0.250000     16.000000
  0.416667  0.333333  0.250000     16.000000
  0.500000  0.333333  0.250000      8.000000
  0.000000  0.416667  0.250000      8.000000
  0.083333  0.416667  0.250000     16.000000
  0.166667  0.416667  0.250000     16.000000
  0.250000  0.416667  0.250000     16.000000
  0.333333  0.416667  0.250000     16.000000
  0.416667  0.416667  0.250000     16.000000
  0.500000  0.416667  0.250000      8.000000
  0.000000  0.500000  0.250000      4.000000
  0.083333  0.500000  0.250000      8.000000
  0.166667  0.500000  0.250000      8.000000
  0.250000  0.500000  0.250000      8.000000
  0.333333  0.500000  0.250000      8.000000
  0.416667  0.500000  0.250000      8.000000
  0.500000  0.500000  0.250000      4.000000
  0.000000  0.333333  0.333333      4.000000
  0.083333  0.333333  0.333333      8.000000
  0.166667  0.333333  0.333333      8.000000
  0.250000  0.333333  0.333333      8.000000
  0.333333  0.333333  0.333333      8.000000
  0.416667  0.333333  0.333333      8.000000
  0.500000  0.333333  0.333333      4.000000
  0.000000  0.416667  0.333333      8.000000
  0.083333  0.416667  0.333333     16.000000
  0.166667  0.416667  0.333333     16.000000
  0.250000  0.416667  0.333333     16.000000
  0.333333  0.416667  0.333333     16.000000
  0.416667  0.416667  0.333333     16.000000
  0.500000  0.416667  0.333333      8.000000
  0.000000  0.500000  0.333333      4.000000
  0.083333  0.500000  0.333333      8.000000
  0.166667  0.500000  0.333333      8.000000
  0.250000  0.500000  0.333333      8.000000
  0.333333  0.500000  0.333333      8.000000
  0.416667  0.500000  0.333333      8.000000
  0.500000  0.500000  0.333333      4.000000
  0.000000  0.416667  0.416667      4.000000
  0.083333  0.416667  0.416667      8.000000
  0.166667  0.416667  0.416667      8.000000
  0.250000  0.416667  0.416667      8.000000
  0.333333  0.416667  0.416667      8.000000
  0.416667  0.416667  0.416667      8.000000
  0.500000  0.416667  0.416667      4.000000
  0.000000  0.500000  0.416667      4.000000
  0.083333  0.500000  0.416667      8.000000
  0.166667  0.500000  0.416667      8.000000
  0.250000  0.500000  0.416667      8.000000
  0.333333  0.500000  0.416667      8.000000
  0.416667  0.500000  0.416667      8.000000
  0.500000  0.500000  0.416667      4.000000
  0.000000  0.500000  0.500000      1.000000
  0.083333  0.500000  0.500000      2.000000
  0.166667  0.500000  0.500000      2.000000
  0.250000  0.500000  0.500000      2.000000
  0.333333  0.500000  0.500000      2.000000
  0.416667  0.500000  0.500000      2.000000
  0.500000  0.500000  0.500000      1.000000
 
 Following cartesian coordinates:
            Coordinates               Weight
  0.000000  0.000000  0.000000      1.000000
  0.010020  0.000000  0.000000      2.000000
  0.020040  0.000000  0.000000      2.000000
  0.030059  0.000000  0.000000      2.000000
  0.040079  0.000000  0.000000      2.000000
  0.050099  0.000000  0.000000      2.000000
  0.060119  0.000000  0.000000      1.000000
  0.000000  0.010020  0.000000      4.000000
  0.010020  0.010020  0.000000      8.000000
  0.020040  0.010020  0.000000      8.000000
  0.030059  0.010020  0.000000      8.000000
  0.040079  0.010020  0.000000      8.000000
  0.050099  0.010020  0.000000      8.000000
  0.060119  0.010020  0.000000      4.000000
  0.000000  0.020040  0.000000      4.000000
  0.010020  0.020040  0.000000      8.000000
  0.020040  0.020040  0.000000      8.000000
  0.030059  0.020040  0.000000      8.000000
  0.040079  0.020040  0.000000      8.000000
  0.050099  0.020040  0.000000      8.000000
  0.060119  0.020040  0.000000      4.000000
  0.000000  0.030059  0.000000      4.000000
  0.010020  0.030059  0.000000      8.000000
  0.020040  0.030059  0.000000      8.000000
  0.030059  0.030059  0.000000      8.000000
  0.040079  0.030059  0.000000      8.000000
  0.050099  0.030059  0.000000      8.000000
  0.060119  0.030059  0.000000      4.000000
  0.000000  0.040079  0.000000      4.000000
  0.010020  0.040079  0.000000      8.000000
  0.020040  0.040079  0.000000      8.000000
  0.030059  0.040079  0.000000      8.000000
  0.040079  0.040079  0.000000      8.000000
  0.050099  0.040079  0.000000      8.000000
  0.060119  0.040079  0.000000      4.000000
  0.000000  0.050099  0.000000      4.000000
  0.010020  0.050099  0.000000      8.000000
  0.020040  0.050099  0.000000      8.000000
  0.030059  0.050099  0.000000      8.000000
  0.040079  0.050099  0.000000      8.000000
  0.050099  0.050099  0.000000      8.000000
  0.060119  0.050099  0.000000      4.000000
  0.000000  0.060119  0.000000      2.000000
  0.010020  0.060119  0.000000      4.000000
  0.020040  0.060119  0.000000      4.000000
  0.030059  0.060119  0.000000      4.000000
  0.040079  0.060119  0.000000      4.000000
  0.050099  0.060119  0.000000      4.000000
  0.060119  0.060119  0.000000      2.000000
  0.000000  0.010020  0.010020      4.000000
  0.010020  0.010020  0.010020      8.000000
  0.020040  0.010020  0.010020      8.000000
  0.030059  0.010020  0.010020      8.000000
  0.040079  0.010020  0.010020      8.000000
  0.050099  0.010020  0.010020      8.000000
  0.060119  0.010020  0.010020      4.000000
  0.000000  0.020040  0.010020      8.000000
  0.010020  0.020040  0.010020     16.000000
  0.020040  0.020040  0.010020     16.000000
  0.030059  0.020040  0.010020     16.000000
  0.040079  0.020040  0.010020     16.000000
  0.050099  0.020040  0.010020     16.000000
  0.060119  0.020040  0.010020      8.000000
  0.000000  0.030059  0.010020      8.000000
  0.010020  0.030059  0.010020     16.000000
  0.020040  0.030059  0.010020     16.000000
  0.030059  0.030059  0.010020     16.000000
  0.040079  0.030059  0.010020     16.000000
  0.050099  0.030059  0.010020     16.000000
  0.060119  0.030059  0.010020      8.000000
  0.000000  0.040079  0.010020      8.000000
  0.010020  0.040079  0.010020     16.000000
  0.020040  0.040079  0.010020     16.000000
  0.030059  0.040079  0.010020     16.000000
  0.040079  0.040079  0.010020     16.000000
  0.050099  0.040079  0.010020     16.000000
  0.060119  0.040079  0.010020      8.000000
  0.000000  0.050099  0.010020      8.000000
  0.010020  0.050099  0.010020     16.000000
  0.020040  0.050099  0.010020     16.000000
  0.030059  0.050099  0.010020     16.000000
  0.040079  0.050099  0.010020     16.000000
  0.050099  0.050099  0.010020     16.000000
  0.060119  0.050099  0.010020      8.000000
  0.000000  0.060119  0.010020      4.000000
  0.010020  0.060119  0.010020      8.000000
  0.020040  0.060119  0.010020      8.000000
  0.030059  0.060119  0.010020      8.000000
  0.040079  0.060119  0.010020      8.000000
  0.050099  0.060119  0.010020      8.000000
  0.060119  0.060119  0.010020      4.000000
  0.000000  0.020040  0.020040      4.000000
  0.010020  0.020040  0.020040      8.000000
  0.020040  0.020040  0.020040      8.000000
  0.030059  0.020040  0.020040      8.000000
  0.040079  0.020040  0.020040      8.000000
  0.050099  0.020040  0.020040      8.000000
  0.060119  0.020040  0.020040      4.000000
  0.000000  0.030059  0.020040      8.000000
  0.010020  0.030059  0.020040     16.000000
  0.020040  0.030059  0.020040     16.000000
  0.030059  0.030059  0.020040     16.000000
  0.040079  0.030059  0.020040     16.000000
  0.050099  0.030059  0.020040     16.000000
  0.060119  0.030059  0.020040      8.000000
  0.000000  0.040079  0.020040      8.000000
  0.010020  0.040079  0.020040     16.000000
  0.020040  0.040079  0.020040     16.000000
  0.030059  0.040079  0.020040     16.000000
  0.040079  0.040079  0.020040     16.000000
  0.050099  0.040079  0.020040     16.000000
  0.060119  0.040079  0.020040      8.000000
  0.000000  0.050099  0.020040      8.000000
  0.010020  0.050099  0.020040     16.000000
  0.020040  0.050099  0.020040     16.000000
  0.030059  0.050099  0.020040     16.000000
  0.040079  0.050099  0.020040     16.000000
  0.050099  0.050099  0.020040     16.000000
  0.060119  0.050099  0.020040      8.000000
  0.000000  0.060119  0.020040      4.000000
  0.010020  0.060119  0.020040      8.000000
  0.020040  0.060119  0.020040      8.000000
  0.030059  0.060119  0.020040      8.000000
  0.040079  0.060119  0.020040      8.000000
  0.050099  0.060119  0.020040      8.000000
  0.060119  0.060119  0.020040      4.000000
  0.000000  0.030059  0.030059      4.000000
  0.010020  0.030059  0.030059      8.000000
  0.020040  0.030059  0.030059      8.000000
  0.030059  0.030059  0.030059      8.000000
  0.040079  0.030059  0.030059      8.000000
  0.050099  0.030059  0.030059      8.000000
  0.060119  0.030059  0.030059      4.000000
  0.000000  0.040079  0.030059      8.000000
  0.010020  0.040079  0.030059     16.000000
  0.020040  0.040079  0.030059     16.000000
  0.030059  0.040079  0.030059     16.000000
  0.040079  0.040079  0.030059     16.000000
  0.050099  0.040079  0.030059     16.000000
  0.060119  0.040079  0.030059      8.000000
  0.000000  0.050099  0.030059      8.000000
  0.010020  0.050099  0.030059     16.000000
  0.020040  0.050099  0.030059     16.000000
  0.030059  0.050099  0.030059     16.000000
  0.040079  0.050099  0.030059     16.000000
  0.050099  0.050099  0.030059     16.000000
  0.060119  0.050099  0.030059      8.000000
  0.000000  0.060119  0.030059      4.000000
  0.010020  0.060119  0.030059      8.000000
  0.020040  0.060119  0.030059      8.000000
  0.030059  0.060119  0.030059      8.000000
  0.040079  0.060119  0.030059      8.000000
  0.050099  0.060119  0.030059      8.000000
  0.060119  0.060119  0.030059      4.000000
  0.000000  0.040079  0.040079      4.000000
  0.010020  0.040079  0.040079      8.000000
  0.020040  0.040079  0.040079      8.000000
  0.030059  0.040079  0.040079      8.000000
  0.040079  0.040079  0.040079      8.000000
  0.050099  0.040079  0.040079      8.000000
  0.060119  0.040079  0.040079      4.000000
  0.000000  0.050099  0.040079      8.000000
  0.010020  0.050099  0.040079     16.000000
  0.020040  0.050099  0.040079     16.000000
  0.030059  0.050099  0.040079     16.000000
  0.040079  0.050099  0.040079     16.000000
  0.050099  0.050099  0.040079     16.000000
  0.060119  0.050099  0.040079      8.000000
  0.000000  0.060119  0.040079      4.000000
  0.010020  0.060119  0.040079      8.000000
  0.020040  0.060119  0.040079      8.000000
  0.030059  0.060119  0.040079      8.000000
  0.040079  0.060119  0.040079      8.000000
  0.050099  0.060119  0.040079      8.000000
  0.060119  0.060119  0.040079      4.000000
  0.000000  0.050099  0.050099      4.000000
  0.010020  0.050099  0.050099      8.000000
  0.020040  0.050099  0.050099      8.000000
  0.030059  0.050099  0.050099      8.000000
  0.040079  0.050099  0.050099      8.000000
  0.050099  0.050099  0.050099      8.000000
  0.060119  0.050099  0.050099      4.000000
  0.000000  0.060119  0.050099      4.000000
  0.010020  0.060119  0.050099      8.000000
  0.020040  0.060119  0.050099      8.000000
  0.030059  0.060119  0.050099      8.000000
  0.040079  0.060119  0.050099      8.000000
  0.050099  0.060119  0.050099      8.000000
  0.060119  0.060119  0.050099      4.000000
  0.000000  0.060119  0.060119      1.000000
  0.010020  0.060119  0.060119      2.000000
  0.020040  0.060119  0.060119      2.000000
  0.030059  0.060119  0.060119      2.000000
  0.040079  0.060119  0.060119      2.000000
  0.050099  0.060119  0.060119      2.000000
  0.060119  0.060119  0.060119      1.000000
 


--------------------------------------------------------------------------------------------------------




 Dimension of arrays:
   k-Points           NKPTS =    196   number of bands    NBANDS=     68
   number of dos      NEDOS =    301   number of ions     NIONS =     32
   non local maximal  LDIM  =      4   non local SUM 2l+1 LMDIM =      8
   total plane-waves  NPLWV = 512000
   max r-space proj   IRMAX =      1   max aug-charges    IRDMAX= 277277
   dimension x,y,z NGX =    80 NGY =   80 NGZ =   80
   dimension x,y,z NGXF=   160 NGYF=  160 NGZF=  160
   support grid    NGXF=   320 NGYF=  320 NGZF=  320
   ions per type =              32
 NGX,Y,Z   is equivalent  to a cutoff of  15.99, 15.99, 15.99 a.u.
 NGXF,Y,Z  is equivalent  to a cutoff of  31.98, 31.98, 31.98 a.u.


 I would recommend the setting:
   dimension x,y,z NGX =    74 NGY =   74 NGZ =   74
 SYSTEM =  unknown system                          
 POSCAR =  Al                                      

 Startparameter for this run:
   NWRITE =      2    write-flag & timer
   PREC   = accura    medium, high low
   ISTART =      0    job   : 0-new  1-cont  2-samecut
   ICHARG =      2    charge: 1-file 2-atom 10-const
   ISPIN  =      1    spin polarized calculation?
   LNONCOLLINEAR =      F non collinear calculations
   LSORBIT =      F    spin-orbit coupling
   INIWAV =      1    electr: 0-lowe 1-rand  2-diag
   LASPH  =      F    aspherical Exc in radial PAW
   METAGGA=      F    non-selfconsistent MetaGGA calc.

 Electronic Relaxation 1
   ENCUT  =  750.0 eV  55.12 Ry    7.42 a.u.  18.57 18.57 18.57*2*pi/ulx,y,z
   ENINI  =  750.0     initial cutoff
   ENAUG  =  291.1 eV  augmentation charge cutoff
   NELM   =     60;   NELMIN=  2; NELMDL=  0     # of ELM steps 
   EDIFF  = 0.1E-07   stopping-criterion for ELM
   LREAL  =      F    real-space projection
   LCOMPAT=      F    compatible to vasp.4.4
   LREAL_COMPAT= F    compatible to vasp.4.5.1-3
   GGA_COMPAT  = T    GGA compatible to vasp.4.4-vasp.4.6
   LMAXPAW     = -100 max onsite density
   LMAXMIX     =    2 max onsite mixed and CHGCAR
   VOSKOWN=      0    Vosko Wilk Nusair interpolation
   ROPT   =    0.00000
 Ionic relaxation
   EDIFFG = 0.1E-06   stopping-criterion for IOM
   NSW    =      0    number of steps for IOM
   NBLOCK =      1;   KBLOCK =      1    inner block; outer block 
   IBRION =     -1    ionic relax: 0-MD 1-quasi-New 2-CG
   NFREE  =      0    steps in history (QN), initial steepest desc. (CG)
   ISIF   =      2    stress and relaxation
   IWAVPR =     10    prediction:  0-non 1-charg 2-wave 3-comb
   ISYM   =      2    0-nonsym 1-usesym 2-fastsym
   LCORR  =      T    Harris-Foulkes like correction to forces

   POTIM  =   0.50    time-step for ionic-motion
   TEIN   =    0.0    initial temperature
   TEBEG  =    0.0;   TEEND  =   0.0 temperature during run
   SMASS  =  -3.00    Nose mass-parameter (am)
   estimated Nose-frequenzy (Omega)   =  0.10E-29 period in steps =****** mass=  -0.158E-26a.u.
   NPACO  =    256;   APACO  = 16.0  distance and # of slots for P.C.
   PSTRESS=    0.0 pullay stress

  Mass of Ions in am
   POMASS =  26.98
  Ionic Valenz
   ZVAL   =   3.00
  Atomic Wigner-Seitz radii
   RWIGS  =  -1.00
   NELECT =      96.0000    total number of electrons
   NUPDOWN=      -1.0000    fix difference up-down

 DOS related values:
   EMIN   =  10.00;   EMAX   =-10.00  energy-range for DOS
   ISMEAR =     0;   SIGMA  =   0.01  broadening in eV -4-tet -1-fermi 0-gaus

 Electronic relaxation 2 (details)
   IALGO  =     38    algorithm
   LDIAG  =      T    sub-space diagonalisation
   IMIX   =      4    mixing-type and parameters
     AMIX     =   0.40;   BMIX     =  1.00
     AMIX_MAG =   1.60;   BMIX_MAG =  1.00
     AMIN     =   0.10
     WC   =   100.;   INIMIX=   1;  MIXPRE=   1

 Intra band minimization:
   WEIMIN = 0.0000     energy-eigenvalue tresh-hold
   EBREAK =  0.38E-10  absolut break condition
   DEPER  =   0.30     relativ break condition  

   TIME   =   0.10     timestep for ELM

  volume/ion in A,a.u.               =      17.98       121.32
  Fermi-wavevector in a.u.,eV,Ry     =   0.901307 11.052763  0.812355

 Second variation
   LSECVAR=     F    do a second variation
 
 Write flags
   LWAVE  =      F    write WAVECAR
   LCHARG =      F    write CHGCAR
   LVTOT  =      F    write LOCPOT, local potential
   LELF   =      F    write electronic localiz. function (ELF)
   LORBIT =      0    0 simple, 1 ext, 2 COOP (PROOUT)


 Dipole corrections
   IDIPOL =      0    1-x, 2-y, 3-z
   LDIPOL =      F    correct potential



--------------------------------------------------------------------------------------------------------


 Static calculation
 charge density will be updated during run
 non-spin polarized calculation
 Variant of blocked Davidson
 Davidson routine will perform the subspace rotation
 performe sub-space diagonalisation
    after iterative eigenvector-optimisation
 modified Broyden-mixing scheme, WC =      100.0
 initial mixing is a Kerker type mixing with AMIX =  0.4000 and BMIX =      1.0000
 Hartree-type preconditioning will be used
 using additional bands           20
 reciprocal scheme for non local part
 use partial core corrections
 calculate Harris-corrections to forces 
   (improved forces if not selfconsistent)
 use gradient corrections 
 use of overlap-Matrix (Vanderbilt PP)
 Gauss-broadening in eV      SIGMA  =   0.01


--------------------------------------------------------------------------------------------------------


  energy-cutoff  :      750.00
  volume of cell :      575.28
      direct lattice vectors                 reciprocal lattice vectors
     8.316851122  0.000000000  0.000000000     0.120237814  0.000000000  0.000000000
     0.000000000  8.316851122  0.000000000     0.000000000  0.120237814  0.000000000
     0.000000000  0.000000000  8.316851122     0.000000000  0.000000000  0.120237814

  length of vectors
     8.316851122  8.316851122  8.316851122     0.120237814  0.120237814  0.120237814


 
 k-points in units of 2pi/SCALE and weight: Automatic mesh                          
   0.00000000  0.00000000  0.00000000       0.001
   0.01001982  0.00000000  0.00000000       0.001
   0.02003964  0.00000000  0.00000000       0.001
   0.03005945  0.00000000  0.00000000       0.001
   0.04007927  0.00000000  0.00000000       0.001
   0.05009909  0.00000000  0.00000000       0.001
   0.06011891  0.00000000  0.00000000       0.001
   0.00000000  0.01001982  0.00000000       0.002
   0.01001982  0.01001982  0.00000000       0.005
   0.02003964  0.01001982  0.00000000       0.005
   0.03005945  0.01001982  0.00000000       0.005
   0.04007927  0.01001982  0.00000000       0.005
   0.05009909  0.01001982  0.00000000       0.005
   0.06011891  0.01001982  0.00000000       0.002
   0.00000000  0.02003964  0.00000000       0.002
   0.01001982  0.02003964  0.00000000       0.005
   0.02003964  0.02003964  0.00000000       0.005
   0.03005945  0.02003964  0.00000000       0.005
   0.04007927  0.02003964  0.00000000       0.005
   0.05009909  0.02003964  0.00000000       0.005
   0.06011891  0.02003964  0.00000000       0.002
   0.00000000  0.03005945  0.00000000       0.002
   0.01001982  0.03005945  0.00000000       0.005
   0.02003964  0.03005945  0.00000000       0.005
   0.03005945  0.03005945  0.00000000       0.005
   0.04007927  0.03005945  0.00000000       0.005
   0.05009909  0.03005945  0.00000000       0.005
   0.06011891  0.03005945  0.00000000       0.002
   0.00000000  0.04007927  0.00000000       0.002
   0.01001982  0.04007927  0.00000000       0.005
   0.02003964  0.04007927  0.00000000       0.005
   0.03005945  0.04007927  0.00000000       0.005
   0.04007927  0.04007927  0.00000000       0.005
   0.05009909  0.04007927  0.00000000       0.005
   0.06011891  0.04007927  0.00000000       0.002
   0.00000000  0.05009909  0.00000000       0.002
   0.01001982  0.05009909  0.00000000       0.005
   0.02003964  0.05009909  0.00000000       0.005
   0.03005945  0.05009909  0.00000000       0.005
   0.04007927  0.05009909  0.00000000       0.005
   0.05009909  0.05009909  0.00000000       0.005
   0.06011891  0.05009909  0.00000000       0.002
   0.00000000  0.06011891  0.00000000       0.001
   0.01001982  0.06011891  0.00000000       0.002
   0.02003964  0.06011891  0.00000000       0.002
   0.03005945  0.06011891  0.00000000       0.002
   0.04007927  0.06011891  0.00000000       0.002
   0.05009909  0.06011891  0.00000000       0.002
   0.06011891  0.06011891  0.00000000       0.001
   0.00000000  0.01001982  0.01001982       0.002
   0.01001982  0.01001982  0.01001982       0.005
   0.02003964  0.01001982  0.01001982       0.005
   0.03005945  0.01001982  0.01001982       0.005
   0.04007927  0.01001982  0.01001982       0.005
   0.05009909  0.01001982  0.01001982       0.005
   0.06011891  0.01001982  0.01001982       0.002
   0.00000000  0.02003964  0.01001982       0.005
   0.01001982  0.02003964  0.01001982       0.009
   0.02003964  0.02003964  0.01001982       0.009
   0.03005945  0.02003964  0.01001982       0.009
   0.04007927  0.02003964  0.01001982       0.009
   0.05009909  0.02003964  0.01001982       0.009
   0.06011891  0.02003964  0.01001982       0.005
   0.00000000  0.03005945  0.01001982       0.005
   0.01001982  0.03005945  0.01001982       0.009
   0.02003964  0.03005945  0.01001982       0.009
   0.03005945  0.03005945  0.01001982       0.009
   0.04007927  0.03005945  0.01001982       0.009
   0.05009909  0.03005945  0.01001982       0.009
   0.06011891  0.03005945  0.01001982       0.005
   0.00000000  0.04007927  0.01001982       0.005
   0.01001982  0.04007927  0.01001982       0.009
   0.02003964  0.04007927  0.01001982       0.009
   0.03005945  0.04007927  0.01001982       0.009
   0.04007927  0.04007927  0.01001982       0.009
   0.05009909  0.04007927  0.01001982       0.009
   0.06011891  0.04007927  0.01001982       0.005
   0.00000000  0.05009909  0.01001982       0.005
   0.01001982  0.05009909  0.01001982       0.009
   0.02003964  0.05009909  0.01001982       0.009
   0.03005945  0.05009909  0.01001982       0.009
   0.04007927  0.05009909  0.01001982       0.009
   0.05009909  0.05009909  0.01001982       0.009
   0.06011891  0.05009909  0.01001982       0.005
   0.00000000  0.06011891  0.01001982       0.002
   0.01001982  0.06011891  0.01001982       0.005
   0.02003964  0.06011891  0.01001982       0.005
   0.03005945  0.06011891  0.01001982       0.005
   0.04007927  0.06011891  0.01001982       0.005
   0.05009909  0.06011891  0.01001982       0.005
   0.06011891  0.06011891  0.01001982       0.002
   0.00000000  0.02003964  0.02003964       0.002
   0.01001982  0.02003964  0.02003964       0.005
   0.02003964  0.02003964  0.02003964       0.005
   0.03005945  0.02003964  0.02003964       0.005
   0.04007927  0.02003964  0.02003964       0.005
   0.05009909  0.02003964  0.02003964       0.005
   0.06011891  0.02003964  0.02003964       0.002
   0.00000000  0.03005945  0.02003964       0.005
   0.01001982  0.03005945  0.02003964       0.009
   0.02003964  0.03005945  0.02003964       0.009
   0.03005945  0.03005945  0.02003964       0.009
   0.04007927  0.03005945  0.02003964       0.009
   0.05009909  0.03005945  0.02003964       0.009
   0.06011891  0.03005945  0.02003964       0.005
   0.00000000  0.04007927  0.02003964       0.005
   0.01001982  0.04007927  0.02003964       0.009
   0.02003964  0.04007927  0.02003964       0.009
   0.03005945  0.04007927  0.02003964       0.009
   0.04007927  0.04007927  0.02003964       0.009
   0.05009909  0.04007927  0.02003964       0.009
   0.06011891  0.04007927  0.02003964       0.005
   0.00000000  0.05009909  0.02003964       0.005
   0.01001982  0.05009909  0.02003964       0.009
   0.02003964  0.05009909  0.02003964       0.009
   0.03005945  0.05009909  0.02003964       0.009
   0.04007927  0.05009909  0.02003964       0.009
   0.05009909  0.05009909  0.02003964       0.009
   0.06011891  0.05009909  0.02003964       0.005
   0.00000000  0.06011891  0.02003964       0.002
   0.01001982  0.06011891  0.02003964       0.005
   0.02003964  0.06011891  0.02003964       0.005
   0.03005945  0.06011891  0.02003964       0.005
   0.04007927  0.06011891  0.02003964       0.005
   0.05009909  0.06011891  0.02003964       0.005
   0.06011891  0.06011891  0.02003964       0.002
   0.00000000  0.03005945  0.03005945       0.002
   0.01001982  0.03005945  0.03005945       0.005
   0.02003964  0.03005945  0.03005945       0.005
   0.03005945  0.03005945  0.03005945       0.005
   0.04007927  0.03005945  0.03005945       0.005
   0.05009909  0.03005945  0.03005945       0.005
   0.06011891  0.03005945  0.03005945       0.002
   0.00000000  0.04007927  0.03005945       0.005
   0.01001982  0.04007927  0.03005945       0.009
   0.02003964  0.04007927  0.03005945       0.009
   0.03005945  0.04007927  0.03005945       0.009
   0.04007927  0.04007927  0.03005945       0.009
   0.05009909  0.04007927  0.03005945       0.009
   0.06011891  0.04007927  0.03005945       0.005
   0.00000000  0.05009909  0.03005945       0.005
   0.01001982  0.05009909  0.03005945       0.009
   0.02003964  0.05009909  0.03005945       0.009
   0.03005945  0.05009909  0.03005945       0.009
   0.04007927  0.05009909  0.03005945       0.009
   0.05009909  0.05009909  0.03005945       0.009
   0.06011891  0.05009909  0.03005945       0.005
   0.00000000  0.06011891  0.03005945       0.002
   0.01001982  0.06011891  0.03005945       0.005
   0.02003964  0.06011891  0.03005945       0.005
   0.03005945  0.06011891  0.03005945       0.005
   0.04007927  0.06011891  0.03005945       0.005
   0.05009909  0.06011891  0.03005945       0.005
   0.06011891  0.06011891  0.03005945       0.002
   0.00000000  0.04007927  0.04007927       0.002
   0.01001982  0.04007927  0.04007927       0.005
   0.02003964  0.04007927  0.04007927       0.005
   0.03005945  0.04007927  0.04007927       0.005
   0.04007927  0.04007927  0.04007927       0.005
   0.05009909  0.04007927  0.04007927       0.005
   0.06011891  0.04007927  0.04007927       0.002
   0.00000000  0.05009909  0.04007927       0.005
   0.01001982  0.05009909  0.04007927       0.009
   0.02003964  0.05009909  0.04007927       0.009
   0.03005945  0.05009909  0.04007927       0.009
   0.04007927  0.05009909  0.04007927       0.009
   0.05009909  0.05009909  0.04007927       0.009
   0.06011891  0.05009909  0.04007927       0.005
   0.00000000  0.06011891  0.04007927       0.002
   0.01001982  0.06011891  0.04007927       0.005
   0.02003964  0.06011891  0.04007927       0.005
   0.03005945  0.06011891  0.04007927       0.005
   0.04007927  0.06011891  0.04007927       0.005
   0.05009909  0.06011891  0.04007927       0.005
   0.06011891  0.06011891  0.04007927       0.002
   0.00000000  0.05009909  0.05009909       0.002
   0.01001982  0.05009909  0.05009909       0.005
   0.02003964  0.05009909  0.05009909       0.005
   0.03005945  0.05009909  0.05009909       0.005
   0.04007927  0.05009909  0.05009909       0.005
   0.05009909  0.05009909  0.05009909       0.005
   0.06011891  0.05009909  0.05009909       0.002
   0.00000000  0.06011891  0.05009909       0.002
   0.01001982  0.06011891  0.05009909       0.005
   0.02003964  0.06011891  0.05009909       0.005
   0.03005945  0.06011891  0.05009909       0.005
   0.04007927  0.06011891  0.05009909       0.005
   0.05009909  0.06011891  0.05009909       0.005
   0.06011891  0.06011891  0.05009909       0.002
   0.00000000  0.06011891  0.06011891       0.001
   0.01001982  0.06011891  0.06011891       0.001
   0.02003964  0.06011891  0.06011891       0.001
   0.03005945  0.06011891  0.06011891       0.001
   0.04007927  0.06011891  0.06011891       0.001
   0.05009909  0.06011891  0.06011891       0.001
   0.06011891  0.06011891  0.06011891       0.001
 
 k-points in reciprocal lattice and weights: Automatic mesh                          
   0.00000000  0.00000000  0.00000000       0.001
   0.08333333  0.00000000  0.00000000       0.001
   0.16666667  0.00000000  0.00000000       0.001
   0.25000000  0.00000000  0.00000000       0.001
   0.33333333  0.00000000  0.00000000       0.001
   0.41666667  0.00000000  0.00000000       0.001
   0.50000000  0.00000000  0.00000000       0.001
   0.00000000  0.08333333  0.00000000       0.002
   0.08333333  0.08333333  0.00000000       0.005
   0.16666667  0.08333333  0.00000000       0.005
   0.25000000  0.08333333  0.00000000       0.005
   0.33333333  0.08333333  0.00000000       0.005
   0.41666667  0.08333333  0.00000000       0.005
   0.50000000  0.08333333  0.00000000       0.002
   0.00000000  0.16666667  0.00000000       0.002
   0.08333333  0.16666667  0.00000000       0.005
   0.16666667  0.16666667  0.00000000       0.005
   0.25000000  0.16666667  0.00000000       0.005
   0.33333333  0.16666667  0.00000000       0.005
   0.41666667  0.16666667  0.00000000       0.005
   0.50000000  0.16666667  0.00000000       0.002
   0.00000000  0.25000000  0.00000000       0.002
   0.08333333  0.25000000  0.00000000       0.005
   0.16666667  0.25000000  0.00000000       0.005
   0.25000000  0.25000000  0.00000000       0.005
   0.33333333  0.25000000  0.00000000       0.005
   0.41666667  0.25000000  0.00000000       0.005
   0.50000000  0.25000000  0.00000000       0.002
   0.00000000  0.33333333  0.00000000       0.002
   0.08333333  0.33333333  0.00000000       0.005
   0.16666667  0.33333333  0.00000000       0.005
   0.25000000  0.33333333  0.00000000       0.005
   0.33333333  0.33333333  0.00000000       0.005
   0.41666667  0.33333333  0.00000000       0.005
   0.50000000  0.33333333  0.00000000       0.002
   0.00000000  0.41666667  0.00000000       0.002
   0.08333333  0.41666667  0.00000000       0.005
   0.16666667  0.41666667  0.00000000       0.005
   0.25000000  0.41666667  0.00000000       0.005
   0.33333333  0.41666667  0.00000000       0.005
   0.41666667  0.41666667  0.00000000       0.005
   0.50000000  0.41666667  0.00000000       0.002
   0.00000000  0.50000000  0.00000000       0.001
   0.08333333  0.50000000  0.00000000       0.002
   0.16666667  0.50000000  0.00000000       0.002
   0.25000000  0.50000000  0.00000000       0.002
   0.33333333  0.50000000  0.00000000       0.002
   0.41666667  0.50000000  0.00000000       0.002
   0.50000000  0.50000000  0.00000000       0.001
   0.00000000  0.08333333  0.08333333       0.002
   0.08333333  0.08333333  0.08333333       0.005
   0.16666667  0.08333333  0.08333333       0.005
   0.25000000  0.08333333  0.08333333       0.005
   0.33333333  0.08333333  0.08333333       0.005
   0.41666667  0.08333333  0.08333333       0.005
   0.50000000  0.08333333  0.08333333       0.002
   0.00000000  0.16666667  0.08333333       0.005
   0.08333333  0.16666667  0.08333333       0.009
   0.16666667  0.16666667  0.08333333       0.009
   0.25000000  0.16666667  0.08333333       0.009
   0.33333333  0.16666667  0.08333333       0.009
   0.41666667  0.16666667  0.08333333       0.009
   0.50000000  0.16666667  0.08333333       0.005
   0.00000000  0.25000000  0.08333333       0.005
   0.08333333  0.25000000  0.08333333       0.009
   0.16666667  0.25000000  0.08333333       0.009
   0.25000000  0.25000000  0.08333333       0.009
   0.33333333  0.25000000  0.08333333       0.009
   0.41666667  0.25000000  0.08333333       0.009
   0.50000000  0.25000000  0.08333333       0.005
   0.00000000  0.33333333  0.08333333       0.005
   0.08333333  0.33333333  0.08333333       0.009
   0.16666667  0.33333333  0.08333333       0.009
   0.25000000  0.33333333  0.08333333       0.009
   0.33333333  0.33333333  0.08333333       0.009
   0.41666667  0.33333333  0.08333333       0.009
   0.50000000  0.33333333  0.08333333       0.005
   0.00000000  0.41666667  0.08333333       0.005
   0.08333333  0.41666667  0.08333333       0.009
   0.16666667  0.41666667  0.08333333       0.009
   0.25000000  0.41666667  0.08333333       0.009
   0.33333333  0.41666667  0.08333333       0.009
   0.41666667  0.41666667  0.08333333       0.009
   0.50000000  0.41666667  0.08333333       0.005
   0.00000000  0.50000000  0.08333333       0.002
   0.08333333  0.50000000  0.08333333       0.005
   0.16666667  0.50000000  0.08333333       0.005
   0.25000000  0.50000000  0.08333333       0.005
   0.33333333  0.50000000  0.08333333       0.005
   0.41666667  0.50000000  0.08333333       0.005
   0.50000000  0.50000000  0.08333333       0.002
   0.00000000  0.16666667  0.16666667       0.002
   0.08333333  0.16666667  0.16666667       0.005
   0.16666667  0.16666667  0.16666667       0.005
   0.25000000  0.16666667  0.16666667       0.005
   0.33333333  0.16666667  0.16666667       0.005
   0.41666667  0.16666667  0.16666667       0.005
   0.50000000  0.16666667  0.16666667       0.002
   0.00000000  0.25000000  0.16666667       0.005
   0.08333333  0.25000000  0.16666667       0.009
   0.16666667  0.25000000  0.16666667       0.009
   0.25000000  0.25000000  0.16666667       0.009
   0.33333333  0.25000000  0.16666667       0.009
   0.41666667  0.25000000  0.16666667       0.009
   0.50000000  0.25000000  0.16666667       0.005
   0.00000000  0.33333333  0.16666667       0.005
   0.08333333  0.33333333  0.16666667       0.009
   0.16666667  0.33333333  0.16666667       0.009
   0.25000000  0.33333333  0.16666667       0.009
   0.33333333  0.33333333  0.16666667       0.009
   0.41666667  0.33333333  0.16666667       0.009
   0.50000000  0.33333333  0.16666667       0.005
   0.00000000  0.41666667  0.16666667       0.005
   0.08333333  0.41666667  0.16666667       0.009
   0.16666667  0.41666667  0.16666667       0.009
   0.25000000  0.41666667  0.16666667       0.009
   0.33333333  0.41666667  0.16666667       0.009
   0.41666667  0.41666667  0.16666667       0.009
   0.50000000  0.41666667  0.16666667       0.005
   0.00000000  0.50000000  0.16666667       0.002
   0.08333333  0.50000000  0.16666667       0.005
   0.16666667  0.50000000  0.16666667       0.005
   0.25000000  0.50000000  0.16666667       0.005
   0.33333333  0.50000000  0.16666667       0.005
   0.41666667  0.50000000  0.16666667       0.005
   0.50000000  0.50000000  0.16666667       0.002
   0.00000000  0.25000000  0.25000000       0.002
   0.08333333  0.25000000  0.25000000       0.005
   0.16666667  0.25000000  0.25000000       0.005
   0.25000000  0.25000000  0.25000000       0.005
   0.33333333  0.25000000  0.25000000       0.005
   0.41666667  0.25000000  0.25000000       0.005
   0.50000000  0.25000000  0.25000000       0.002
   0.00000000  0.33333333  0.25000000       0.005
   0.08333333  0.33333333  0.25000000       0.009
   0.16666667  0.33333333  0.25000000       0.009
   0.25000000  0.33333333  0.25000000       0.009
   0.33333333  0.33333333  0.25000000       0.009
   0.41666667  0.33333333  0.25000000       0.009
   0.50000000  0.33333333  0.25000000       0.005
   0.00000000  0.41666667  0.25000000       0.005
   0.08333333  0.41666667  0.25000000       0.009
   0.16666667  0.41666667  0.25000000       0.009
   0.25000000  0.41666667  0.25000000       0.009
   0.33333333  0.41666667  0.25000000       0.009
   0.41666667  0.41666667  0.25000000       0.009
   0.50000000  0.41666667  0.25000000       0.005
   0.00000000  0.50000000  0.25000000       0.002
   0.08333333  0.50000000  0.25000000       0.005
   0.16666667  0.50000000  0.25000000       0.005
   0.25000000  0.50000000  0.25000000       0.005
   0.33333333  0.50000000  0.25000000       0.005
   0.41666667  0.50000000  0.25000000       0.005
   0.50000000  0.50000000  0.25000000       0.002
   0.00000000  0.33333333  0.33333333       0.002
   0.08333333  0.33333333  0.33333333       0.005
   0.16666667  0.33333333  0.33333333       0.005
   0.25000000  0.33333333  0.33333333       0.005
   0.33333333  0.33333333  0.33333333       0.005
   0.41666667  0.33333333  0.33333333       0.005
   0.50000000  0.33333333  0.33333333       0.002
   0.00000000  0.41666667  0.33333333       0.005
   0.08333333  0.41666667  0.33333333       0.009
   0.16666667  0.41666667  0.33333333       0.009
   0.25000000  0.41666667  0.33333333       0.009
   0.33333333  0.41666667  0.33333333       0.009
   0.41666667  0.41666667  0.33333333       0.009
   0.50000000  0.41666667  0.33333333       0.005
   0.00000000  0.50000000  0.33333333       0.002
   0.08333333  0.50000000  0.33333333       0.005
   0.16666667  0.50000000  0.33333333       0.005
   0.25000000  0.50000000  0.33333333       0.005
   0.33333333  0.50000000  0.33333333       0.005
   0.41666667  0.50000000  0.33333333       0.005
   0.50000000  0.50000000  0.33333333       0.002
   0.00000000  0.41666667  0.41666667       0.002
   0.08333333  0.41666667  0.41666667       0.005
   0.16666667  0.41666667  0.41666667       0.005
   0.25000000  0.41666667  0.41666667       0.005
   0.33333333  0.41666667  0.41666667       0.005
   0.41666667  0.41666667  0.41666667       0.005
   0.50000000  0.41666667  0.41666667       0.002
   0.00000000  0.50000000  0.41666667       0.002
   0.08333333  0.50000000  0.41666667       0.005
   0.16666667  0.50000000  0.41666667       0.005
   0.25000000  0.50000000  0.41666667       0.005
   0.33333333  0.50000000  0.41666667       0.005
   0.41666667  0.50000000  0.41666667       0.005
   0.50000000  0.50000000  0.41666667       0.002
   0.00000000  0.50000000  0.50000000       0.001
   0.08333333  0.50000000  0.50000000       0.001
   0.16666667  0.50000000  0.50000000       0.001
   0.25000000  0.50000000  0.50000000       0.001
   0.33333333  0.50000000  0.50000000       0.001
   0.41666667  0.50000000  0.50000000       0.001
   0.50000000  0.50000000  0.50000000       0.001
 
 position of ions in fractional coordinates (direct lattice) 
   0.25120238  0.25000000  0.00000000
   0.75000000  0.25000000  0.00000000
   0.25000000  0.75000000  0.00000000
   0.75000000  0.75000000  0.00000000
   0.25000000  0.25000000  0.50000000
   0.75000000  0.25000000  0.50000000
   0.25000000  0.75000000  0.50000000
   0.75000000  0.75000000  0.50000000
   0.25000000  0.00000000  0.25000000
   0.75000000  0.00000000  0.25000000
   0.25000000  0.50000000  0.25000000
   0.75000000  0.50000000  0.25000000
   0.25000000  0.00000000  0.75000000
   0.75000000  0.00000000  0.75000000
   0.25000000  0.50000000  0.75000000
   0.75000000  0.50000000  0.75000000
   0.00000000  0.25000000  0.25000000
   0.50000000  0.25000000  0.25000000
   0.00000000  0.75000000  0.25000000
   0.50000000  0.75000000  0.25000000
   0.00000000  0.25000000  0.75000000
   0.50000000  0.25000000  0.75000000
   0.00000000  0.75000000  0.75000000
   0.50000000  0.75000000  0.75000000
   0.00000000  0.00000000  0.00000000
   0.50000000  0.00000000  0.00000000
   0.00000000  0.50000000  0.00000000
   0.50000000  0.50000000  0.00000000
   0.00000000  0.00000000  0.50000000
   0.50000000  0.00000000  0.50000000
   0.00000000  0.50000000  0.50000000
   0.50000000  0.50000000  0.50000000
 
 position of ions in cartesian coordinates  (Angst):
   2.08921278  2.07921278  0.00000000
   6.23763834  2.07921278  0.00000000
   2.07921278  6.23763834  0.00000000
   6.23763834  6.23763834  0.00000000
   2.07921278  2.07921278  4.15842556
   6.23763834  2.07921278  4.15842556
   2.07921278  6.23763834  4.15842556
   6.23763834  6.23763834  4.15842556
   2.07921278  0.00000000  2.07921278
   6.23763834  0.00000000  2.07921278
   2.07921278  4.15842556  2.07921278
   6.23763834  4.15842556  2.07921278
   2.07921278  0.00000000  6.23763834
   6.23763834  0.00000000  6.23763834
   2.07921278  4.15842556  6.23763834
   6.23763834  4.15842556  6.23763834
   0.00000000  2.07921278  2.07921278
   4.15842556  2.07921278  2.07921278
   0.00000000  6.23763834  2.07921278
   4.15842556  6.23763834  2.07921278
   0.00000000  2.07921278  6.23763834
   4.15842556  2.07921278  6.23763834
   0.00000000  6.23763834  6.23763834
   4.15842556  6.23763834  6.23763834
   0.00000000  0.00000000  0.00000000
   4.15842556  0.00000000  0.00000000
   0.00000000  4.15842556  0.00000000
   4.15842556  4.15842556  0.00000000
   0.00000000  0.00000000  4.15842556
   4.15842556  0.00000000  4.15842556
   0.00000000  4.15842556  4.15842556
   4.15842556  4.15842556  4.15842556
 


--------------------------------------------------------------------------------------------------------


 k-point  1 :  0.00000.00000.0000  plane waves:  26865
 k-point  2 :  0.08330.00000.0000  plane waves:  26945
 k-point  3 :  0.16670.00000.0000  plane waves:  26869
 k-point  4 :  0.25000.00000.0000  plane waves:  26805
 k-point  5 :  0.33330.00000.0000  plane waves:  26785
 k-point  6 :  0.41670.00000.0000  plane waves:  26853
 k-point  7 :  0.50000.00000.0000  plane waves:  26806
 k-point  8 :  0.00000.08330.0000  plane waves:  26945
 k-point  9 :  0.08330.08330.0000  plane waves:  26899
 k-point 10 :  0.16670.08330.0000  plane waves:  26870
 k-point 11 :  0.25000.08330.0000  plane waves:  26829
 k-point 12 :  0.33330.08330.0000  plane waves:  26844
 k-point 13 :  0.41670.08330.0000  plane waves:  26841
 k-point 14 :  0.50000.08330.0000  plane waves:  26836
 k-point 15 :  0.00000.16670.0000  plane waves:  26869
 k-point 16 :  0.08330.16670.0000  plane waves:  26870
 k-point 17 :  0.16670.16670.0000  plane waves:  26848
 k-point 18 :  0.25000.16670.0000  plane waves:  26828
 k-point 19 :  0.33330.16670.0000  plane waves:  26838
 k-point 20 :  0.41670.16670.0000  plane waves:  26850
 k-point 21 :  0.50000.16670.0000  plane waves:  26836
 k-point 22 :  0.00000.25000.0000  plane waves:  26805
 k-point 23 :  0.08330.25000.0000  plane waves:  26829
 k-point 24 :  0.16670.25000.0000  plane waves:  26828
 k-point 25 :  0.25000.25000.0000  plane waves:  26840
 k-point 26 :  0.33330.25000.0000  plane waves:  26841
 k-point 27 :  0.41670.25000.0000  plane waves:  26831
 k-point 28 :  0.50000.25000.0000  plane waves:  26848
 k-point 29 :  0.00000.33330.0000  plane waves:  26785
 k-point 30 :  0.08330.33330.0000  plane waves:  26844
 k-point 31 :  0.16670.33330.0000  plane waves:  26838
 k-point 32 :  0.25000.33330.0000  plane waves:  26841
 k-point 33 :  0.33330.33330.0000  plane waves:  26838
 k-point 34 :  0.41670.33330.0000  plane waves:  26812
 k-point 35 :  0.50000.33330.0000  plane waves:  26806
 k-point 36 :  0.00000.41670.0000  plane waves:  26853
 k-point 37 :  0.08330.41670.0000  plane waves:  26841
 k-point 38 :  0.16670.41670.0000  plane waves:  26850
 k-point 39 :  0.25000.41670.0000  plane waves:  26831
 k-point 40 :  0.33330.41670.0000  plane waves:  26812
 k-point 41 :  0.41670.41670.0000  plane waves:  26794
 k-point 42 :  0.50000.41670.0000  plane waves:  26802
 k-point 43 :  0.00000.50000.0000  plane waves:  26806
 k-point 44 :  0.08330.50000.0000  plane waves:  26836
 k-point 45 :  0.16670.50000.0000  plane waves:  26836
 k-point 46 :  0.25000.50000.0000  plane waves:  26848
 k-point 47 :  0.33330.50000.0000  plane waves:  26806
 k-point 48 :  0.41670.50000.0000  plane waves:  26802
 k-point 49 :  0.50000.50000.0000  plane waves:  26780
 k-point 50 :  0.00000.08330.0833  plane waves:  26899
 k-point 51 :  0.08330.08330.0833  plane waves:  26877
 k-point 52 :  0.16670.08330.0833  plane waves:  26840
 k-point 53 :  0.25000.08330.0833  plane waves:  26821
 k-point 54 :  0.33330.08330.0833  plane waves:  26846
 k-point 55 :  0.41670.08330.0833  plane waves:  26857
 k-point 56 :  0.50000.08330.0833  plane waves:  26854
 k-point 57 :  0.00000.16670.0833  plane waves:  26870
 k-point 58 :  0.08330.16670.0833  plane waves:  26840
 k-point 59 :  0.16670.16670.0833  plane waves:  26837
 k-point 60 :  0.25000.16670.0833  plane waves:  26832
 k-point 61 :  0.33330.16670.0833  plane waves:  26850
 k-point 62 :  0.41670.16670.0833  plane waves:  26849
 k-point 63 :  0.50000.16670.0833  plane waves:  26848
 k-point 64 :  0.00000.25000.0833  plane waves:  26829
 k-point 65 :  0.08330.25000.0833  plane waves:  26821
 k-point 66 :  0.16670.25000.0833  plane waves:  26832
 k-point 67 :  0.25000.25000.0833  plane waves:  26842
 k-point 68 :  0.33330.25000.0833  plane waves:  26831
 k-point 69 :  0.41670.25000.0833  plane waves:  26822
 k-point 70 :  0.50000.25000.0833  plane waves:  26838
 k-point 71 :  0.00000.33330.0833  plane waves:  26844
 k-point 72 :  0.08330.33330.0833  plane waves:  26846
 k-point 73 :  0.16670.33330.0833  plane waves:  26850
 k-point 74 :  0.25000.33330.0833  plane waves:  26831
 k-point 75 :  0.33330.33330.0833  plane waves:  26808
 k-point 76 :  0.41670.33330.0833  plane waves:  26812
 k-point 77 :  0.50000.33330.0833  plane waves:  26846
 k-point 78 :  0.00000.41670.0833  plane waves:  26841
 k-point 79 :  0.08330.41670.0833  plane waves:  26857
 k-point 80 :  0.16670.41670.0833  plane waves:  26849
 k-point 81 :  0.25000.41670.0833  plane waves:  26822
 k-point 82 :  0.33330.41670.0833  plane waves:  26812
 k-point 83 :  0.41670.41670.0833  plane waves:  26809
 k-point 84 :  0.50000.41670.0833  plane waves:  26800
 k-point 85 :  0.00000.50000.0833  plane waves:  26836
 k-point 86 :  0.08330.50000.0833  plane waves:  26854
 k-point 87 :  0.16670.50000.0833  plane waves:  26848
 k-point 88 :  0.25000.50000.0833  plane waves:  26838
 k-point 89 :  0.33330.50000.0833  plane waves:  26846
 k-point 90 :  0.41670.50000.0833  plane waves:  26800
 k-point 91 :  0.50000.50000.0833  plane waves:  26800
 k-point 92 :  0.00000.16670.1667  plane waves:  26848
 k-point 93 :  0.08330.16670.1667  plane waves:  26837
 k-point 94 :  0.16670.16670.1667  plane waves:  26850
 k-point 95 :  0.25000.16670.1667  plane waves:  26839
 k-point 96 :  0.33330.16670.1667  plane waves:  26860
 k-point 97 :  0.41670.16670.1667  plane waves:  26832
 k-point 98 :  0.50000.16670.1667  plane waves:  26802
 k-point 99 :  0.00000.25000.1667  plane waves:  26828
 k-point ** :  0.08330.25000.1667  plane waves:  26832
 k-point ** :  0.16670.25000.1667  plane waves:  26839
 k-point ** :  0.25000.25000.1667  plane waves:  26834
 k-point ** :  0.33330.25000.1667  plane waves:  26853
 k-point ** :  0.41670.25000.1667  plane waves:  26836
 k-point ** :  0.50000.25000.1667  plane waves:  26832
 k-point ** :  0.00000.33330.1667  plane waves:  26838
 k-point ** :  0.08330.33330.1667  plane waves:  26850
 k-point ** :  0.16670.33330.1667  plane waves:  26860
 k-point ** :  0.25000.33330.1667  plane waves:  26853
 k-point ** :  0.33330.33330.1667  plane waves:  26801
 k-point ** :  0.41670.33330.1667  plane waves:  26828
 k-point ** :  0.50000.33330.1667  plane waves:  26834
 k-point ** :  0.00000.41670.1667  plane waves:  26850
 k-point ** :  0.08330.41670.1667  plane waves:  26849
 k-point ** :  0.16670.41670.1667  plane waves:  26832
 k-point ** :  0.25000.41670.1667  plane waves:  26836
 k-point ** :  0.33330.41670.1667  plane waves:  26828
 k-point ** :  0.41670.41670.1667  plane waves:  26813
 k-point ** :  0.50000.41670.1667  plane waves:  26812
 k-point ** :  0.00000.50000.1667  plane waves:  26836
 k-point ** :  0.08330.50000.1667  plane waves:  26848
 k-point ** :  0.16670.50000.1667  plane waves:  26802
 k-point ** :  0.25000.50000.1667  plane waves:  26832
 k-point ** :  0.33330.50000.1667  plane waves:  26834
 k-point ** :  0.41670.50000.1667  plane waves:  26812
 k-point ** :  0.50000.50000.1667  plane waves:  26812
 k-point ** :  0.00000.25000.2500  plane waves:  26840
 k-point ** :  0.08330.25000.2500  plane waves:  26842
 k-point ** :  0.16670.25000.2500  plane waves:  26834
 k-point ** :  0.25000.25000.2500  plane waves:  26850
 k-point ** :  0.33330.25000.2500  plane waves:  26846
 k-point ** :  0.41670.25000.2500  plane waves:  26833
 k-point ** :  0.50000.25000.2500  plane waves:  26812
 k-point ** :  0.00000.33330.2500  plane waves:  26841
 k-point ** :  0.08330.33330.2500  plane waves:  26831
 k-point ** :  0.16670.33330.2500  plane waves:  26853
 k-point ** :  0.25000.33330.2500  plane waves:  26846
 k-point ** :  0.33330.33330.2500  plane waves:  26843
 k-point ** :  0.41670.33330.2500  plane waves:  26810
 k-point ** :  0.50000.33330.2500  plane waves:  26796
 k-point ** :  0.00000.41670.2500  plane waves:  26831
 k-point ** :  0.08330.41670.2500  plane waves:  26822
 k-point ** :  0.16670.41670.2500  plane waves:  26836
 k-point ** :  0.25000.41670.2500  plane waves:  26833
 k-point ** :  0.33330.41670.2500  plane waves:  26810
 k-point ** :  0.41670.41670.2500  plane waves:  26805
 k-point ** :  0.50000.41670.2500  plane waves:  26790
 k-point ** :  0.00000.50000.2500  plane waves:  26848
 k-point ** :  0.08330.50000.2500  plane waves:  26838
 k-point ** :  0.16670.50000.2500  plane waves:  26832
 k-point ** :  0.25000.50000.2500  plane waves:  26812
 k-point ** :  0.33330.50000.2500  plane waves:  26796
 k-point ** :  0.41670.50000.2500  plane waves:  26790
 k-point ** :  0.50000.50000.2500  plane waves:  26768
 k-point ** :  0.00000.33330.3333  plane waves:  26838
 k-point ** :  0.08330.33330.3333  plane waves:  26808
 k-point ** :  0.16670.33330.3333  plane waves:  26801
 k-point ** :  0.25000.33330.3333  plane waves:  26843
 k-point ** :  0.33330.33330.3333  plane waves:  26863
 k-point ** :  0.41670.33330.3333  plane waves:  26824
 k-point ** :  0.50000.33330.3333  plane waves:  26808
 k-point ** :  0.00000.41670.3333  plane waves:  26812
 k-point ** :  0.08330.41670.3333  plane waves:  26812
 k-point ** :  0.16670.41670.3333  plane waves:  26828
 k-point ** :  0.25000.41670.3333  plane waves:  26810
 k-point ** :  0.33330.41670.3333  plane waves:  26824
 k-point ** :  0.41670.41670.3333  plane waves:  26812
 k-point ** :  0.50000.41670.3333  plane waves:  26820
 k-point ** :  0.00000.50000.3333  plane waves:  26806
 k-point ** :  0.08330.50000.3333  plane waves:  26846
 k-point ** :  0.16670.50000.3333  plane waves:  26834
 k-point ** :  0.25000.50000.3333  plane waves:  26796
 k-point ** :  0.33330.50000.3333  plane waves:  26808
 k-point ** :  0.41670.50000.3333  plane waves:  26820
 k-point ** :  0.50000.50000.3333  plane waves:  26780
 k-point ** :  0.00000.41670.4167  plane waves:  26794
 k-point ** :  0.08330.41670.4167  plane waves:  26809
 k-point ** :  0.16670.41670.4167  plane waves:  26813
 k-point ** :  0.25000.41670.4167  plane waves:  26805
 k-point ** :  0.33330.41670.4167  plane waves:  26812
 k-point ** :  0.41670.41670.4167  plane waves:  26797
 k-point ** :  0.50000.41670.4167  plane waves:  26786
 k-point ** :  0.00000.50000.4167  plane waves:  26802
 k-point ** :  0.08330.50000.4167  plane waves:  26800
 k-point ** :  0.16670.50000.4167  plane waves:  26812
 k-point ** :  0.25000.50000.4167  plane waves:  26790
 k-point ** :  0.33330.50000.4167  plane waves:  26820
 k-point ** :  0.41670.50000.4167  plane waves:  26786
 k-point ** :  0.50000.50000.4167  plane waves:  26812
 k-point ** :  0.00000.50000.5000  plane waves:  26780
 k-point ** :  0.08330.50000.5000  plane waves:  26800
 k-point ** :  0.16670.50000.5000  plane waves:  26812
 k-point ** :  0.25000.50000.5000  plane waves:  26768
 k-point ** :  0.33330.50000.5000  plane waves:  26780
 k-point ** :  0.41670.50000.5000  plane waves:  26812
 k-point ** :  0.50000.50000.5000  plane waves:  27016

 maximum and minimum number of plane-waves per node :  27016 26768

 maximum number of plane-waves:  27016
 maximal index in each direction: 
   IXMAX= 18   IYMAX= 18   IZMAX= 18
   IXMIN=-19   IYMIN=-19   IZMIN=-19

 NGX is ok and might be reduce to  76
 NGY is ok and might be reduce to  76
 NGZ is ok and might be reduce to  76

 parallel 3dFFT wavefunction:
    minimum data exchange during FFTs selected (reduces bandwidth)
 parallel 3dFFT charge:
    minimum data exchange during FFTs selected (reduces bandwidth)

 For storing wavefunctions 5721.43 MBYTES are necessary
 For predicting wavefunctions   69.39 MBYTES are necessary
Broyden mixing: mesh for mixing (old mesh)
   NGX = 37   NGY = 37   NGZ = 37
  (NGX  =160   NGY  =160   NGZ  =160)
 gives a total of  50653 points
 initial charge density was supplied:
 charge density of overlapping atoms calculated
 number of electron   96.0000000 magnetization 
 keeping initial charge density in first step


--------------------------------------------------------------------------------------------------------


 Maximum index for augmentation-charges        67085 (set IRDMAX)


--------------------------------------------------------------------------------------------------------


 First call to EWALD:  gamma=   0.213
 Maximum number of real-space cells 3x 3x 3
 Maximum number of reciprocal cells 3x 3x 3

    FEWALD:  VPU time    0.01: CPU time    0.01


----------------------------------------- Iteration    1(   1)  ---------------------------------------


    POTLOK:  VPU time    3.30: CPU time    3.34
    SETDIJ:  VPU time    2.90: CPU time    2.93
    EDDAV :  VPU time 2287.85: CPU time 2289.22
    DOS   :  VPU time   -0.00: CPU time   -0.00
    ------------------------------------------
      LOOP:  VPU time 2294.12: CPU time 2295.55

 eigenvalue-minimisations  : 26656
 total energy-change (2. order) : 0.1694838E+03  (-0.4141074E+04)
 number of electron   96.0000000 magnetization 
 augmentation part    96.0000000 magnetization 

 Free energy of the ion-electron system (eV)
  ---------------------------------------------------
  alpha Z        PSCENC =        -5.97872903
  Ewald energy   TEWEN  =     -2286.20769594
  -1/2 Hartree   DENC   =        -4.52818132
  -V(xc)+E(xc)   XCENC  =      -844.52793780
  PAW double counting   =      1137.73615723     -115.16745734
  entropy T*S    EENTRO =        -0.00044012
  eigenvalues    EBANDS =       574.92294702
  atomic energy  EATOM  =      1713.23509266
  ---------------------------------------------------
  free energy    TOTEN  =       169.48375534 eV

  energy without entropy =      169.48419546  energy(sigma->0) =      169.48397540


--------------------------------------------------------------------------------------------------------




----------------------------------------- Iteration    1(   2)  ---------------------------------------


    EDDAV :  VPU time 2569.75: CPU time 2571.22
    DOS   :  VPU time   -0.00: CPU time   -0.00
    ------------------------------------------
      LOOP:  VPU time 2569.81: CPU time 2571.28

 eigenvalue-minimisations  : 31064
 total energy-change (2. order) :-0.2713486E+03  (-0.2538234E+03)
 number of electron   96.0000000 magnetization 
 augmentation part    96.0000000 magnetization 

 Free energy of the ion-electron system (eV)
  ---------------------------------------------------
  alpha Z        PSCENC =        -5.97872903
  Ewald energy   TEWEN  =     -2286.20769594
  -1/2 Hartree   DENC   =        -4.52818132
  -V(xc)+E(xc)   XCENC  =      -844.52793780
  PAW double counting   =      1137.73615723     -115.16745734
  entropy T*S    EENTRO =        -0.00059639
  eigenvalues    EBANDS =       303.57453573
  atomic energy  EATOM  =      1713.23509266
  ---------------------------------------------------
  free energy    TOTEN  =      -101.86481222 eV

  energy without entropy =     -101.86421583  energy(sigma->0) =     -101.86451402


--------------------------------------------------------------------------------------------------------




----------------------------------------- Iteration    1(   3)  ---------------------------------------


    EDDAV :  VPU time 2712.95: CPU time 2714.46
    DOS   :  VPU time    0.00: CPU time   -0.00
    ------------------------------------------
      LOOP:  VPU time 2713.01: CPU time 2714.52

 eigenvalue-minimisations  : 33400
 total energy-change (2. order) :-0.1734549E+02  (-0.1634931E+02)
 number of electron   96.0000000 magnetization 
 augmentation part    96.0000000 magnetization 

 Free energy of the ion-electron system (eV)
  ---------------------------------------------------
  alpha Z        PSCENC =        -5.97872903
  Ewald energy   TEWEN  =     -2286.20769594
  -1/2 Hartree   DENC   =        -4.52818132
  -V(xc)+E(xc)   XCENC  =      -844.52793780
  PAW double counting   =      1137.73615723     -115.16745734
  entropy T*S    EENTRO =        -0.00054717
  eigenvalues    EBANDS =       286.22899929
  atomic energy  EATOM  =      1713.23509266
  ---------------------------------------------------
  free energy    TOTEN  =      -119.21029944 eV

  energy without entropy =     -119.20975227  energy(sigma->0) =     -119.21002585


--------------------------------------------------------------------------------------------------------




----------------------------------------- Iteration    1(   4)  ---------------------------------------


    EDDAV :  VPU time 2589.15: CPU time 2594.85
    DOS   :  VPU time   -0.00: CPU time   -0.00
    ------------------------------------------
      LOOP:  VPU time 2589.22: CPU time 2594.92

 eigenvalue-minimisations  : 31616
 total energy-change (2. order) :-0.4338800E+00  (-0.4284232E+00)
 number of electron   96.0000000 magnetization 
 augmentation part    96.0000000 magnetization 

 Free energy of the ion-electron system (eV)
  ---------------------------------------------------
  alpha Z        PSCENC =        -5.97872903
  Ewald energy   TEWEN  =     -2286.20769594
  -1/2 Hartree   DENC   =        -4.52818132
  -V(xc)+E(xc)   XCENC  =      -844.52793780
  PAW double counting   =      1137.73615723     -115.16745734
  entropy T*S    EENTRO =        -0.00043609
  eigenvalues    EBANDS =       285.79500819
  atomic energy  EATOM  =      1713.23509266
  ---------------------------------------------------
  free energy    TOTEN  =      -119.64417946 eV

  energy without entropy =     -119.64374336  energy(sigma->0) =     -119.64396141


--------------------------------------------------------------------------------------------------------




----------------------------------------- Iteration    1(   5)  ---------------------------------------


    EDDAV :  VPU time 2614.19: CPU time 2620.80
    DOS   :  VPU time    0.00: CPU time   -0.00
    CHARGE:  VPU time  168.09: CPU time  168.32
    MIXING:  VPU time    0.08: CPU time    0.08
    ------------------------------------------
      LOOP:  VPU time 2782.42: CPU time 2789.26

 eigenvalue-minimisations  : 31708
 total energy-change (2. order) :-0.5609371E-02  (-0.5600724E-02)
 number of electron   96.0000000 magnetization 
 augmentation part    -1.2488031 magnetization 

 Broyden mixing:
  rms(total) = 0.50858E+00    rms(broyden)= 0.50858E+00
  rms(prec ) = 0.74033E+00
  weight for this iteration     100.00

 Free energy of the ion-electron system (eV)
  ---------------------------------------------------
  alpha Z        PSCENC =        -5.97872903
  Ewald energy   TEWEN  =     -2286.20769594
  -1/2 Hartree   DENC   =        -4.52818132
  -V(xc)+E(xc)   XCENC  =      -844.52793780
  PAW double counting   =      1137.73615723     -115.16745734
  entropy T*S    EENTRO =        -0.00043391
  eigenvalues    EBANDS =       285.78939664
  atomic energy  EATOM  =      1713.23509266
  ---------------------------------------------------
  free energy    TOTEN  =      -119.64978883 eV

  energy without entropy =     -119.64935492  energy(sigma->0) =     -119.64957187


--------------------------------------------------------------------------------------------------------




----------------------------------------- Iteration    1(   6)  ---------------------------------------


    POTLOK:  VPU time    3.33: CPU time    3.33
    SETDIJ:  VPU time    3.04: CPU time    3.05
    EDDAV :  VPU time 2563.94: CPU time 2567.82
    DOS   :  VPU time   -0.00: CPU time   -0.00
    CHARGE:  VPU time  167.90: CPU time  168.13
    MIXING:  VPU time    0.10: CPU time    0.10
    ------------------------------------------
      LOOP:  VPU time 2738.37: CPU time 2742.48

 eigenvalue-minimisations  : 30816
 total energy-change (2. order) : 0.3975795E+00  (-0.6401479E-02)
 number of electron   96.0000000 magnetization 
 augmentation part    -1.2680729 magnetization 

 Broyden mixing:
  rms(total) = 0.31549E+00    rms(broyden)= 0.31549E+00
  rms(prec ) = 0.46087E+00
  weight for this iteration     100.00

 eigenvalues of (default mixing * dielectric matrix)
  average eigenvalue GAMMA=   2.6241
  2.6241

 Free energy of the ion-electron system (eV)
  ---------------------------------------------------
  alpha Z        PSCENC =        -5.97872903
  Ewald energy   TEWEN  =     -2286.20769594
  -1/2 Hartree   DENC   =        -3.46139382
  -V(xc)+E(xc)   XCENC  =      -843.61809821
  PAW double counting   =      1135.63990514     -113.01616288
  entropy T*S    EENTRO =        -0.00045112
  eigenvalues    EBANDS =       284.15532388
  atomic energy  EATOM  =      1713.23509266
  ---------------------------------------------------
  free energy    TOTEN  =      -119.25220931 eV

  energy without entropy =     -119.25175819  energy(sigma->0) =     -119.25198375


--------------------------------------------------------------------------------------------------------




----------------------------------------- Iteration    1(   7)  ---------------------------------------


    POTLOK:  VPU time    3.30: CPU time    3.30
    SETDIJ:  VPU time    3.01: CPU time    3.01
    EDDAV :  VPU time 2553.38: CPU time 2555.50
    DOS   :  VPU time    0.00: CPU time   -0.00
    CHARGE:  VPU time  176.48: CPU time  176.55
    MIXING:  VPU time    0.11: CPU time    0.11
    ------------------------------------------
      LOOP:  VPU time 2736.33: CPU time 2738.52

 eigenvalue-minimisations  : 29728
 total energy-change (2. order) : 0.2883921E+00  (-0.1860245E-01)
 number of electron   96.0000000 magnetization 
 augmentation part    -1.3041317 magnetization 

 Broyden mixing:
  rms(total) = 0.13571E-01    rms(broyden)= 0.13571E-01
  rms(prec ) = 0.16228E-01
  weight for this iteration     100.00

 eigenvalues of (default mixing * dielectric matrix)
  average eigenvalue GAMMA=   2.5074
  2.5074  2.5074

 Free energy of the ion-electron system (eV)
  ---------------------------------------------------
  alpha Z        PSCENC =        -5.97872903
  Ewald energy   TEWEN  =     -2286.20769594
  -1/2 Hartree   DENC   =        -3.08947069
  -V(xc)+E(xc)   XCENC  =      -841.70052956
  PAW double counting   =      1132.52225482     -109.86649771
  entropy T*S    EENTRO =        -0.00051904
  eigenvalues    EBANDS =       282.12227734
  atomic energy  EATOM  =      1713.23509266
  ---------------------------------------------------
  free energy    TOTEN  =      -118.96381716 eV

  energy without entropy =     -118.96329812  energy(sigma->0) =     -118.96355764


[...]
     64       9.0457      0.00000
     65      10.1941      0.00000
     66      10.1942      0.00000
     67      10.1943      0.00000
     68      10.1944      0.00000

 k-point 194 :       0.3333    0.5000    0.5000
  band No.  band energies     occupation 
      1      -2.1190      2.00000
      2      -2.1189      2.00000
      3      -2.1189      2.00000
      4      -2.1189      2.00000
      5      -1.4131      2.00000
      6      -1.4131      2.00000
      7      -1.4131      2.00000
      8      -1.4131      2.00000
      9       1.3770      2.00000
     10       1.3771      2.00000
     11       1.3771      2.00000
     12       1.3771      2.00000
     13       2.0635      2.00000
     14       2.0635      2.00000
     15       2.0635      2.00000
     16       2.0635      2.00000
     17       2.0635      2.00000
     18       2.0635      2.00000
     19       2.0635      2.00000
     20       2.0635      2.00000
     21       2.7506      2.00000
     22       2.7506      2.00000
     23       2.7506      2.00000
     24       2.7506      2.00000
     25       2.7506      2.00000
     26       2.7506      2.00000
     27       2.7506      2.00000
     28       2.7506      2.00000
     29       3.4226      2.00000
     30       3.4226      2.00000
     31       3.4226      2.00000
     32       3.4227      2.00000
     33       5.4701      2.00000
     34       5.4701      2.00000
     35       5.4702      2.00000
     36       5.4702      2.00000
     37       5.4702      2.00000
     38       5.4702      2.00000
     39       5.4702      2.00000
     40       5.4702      2.00000
     41       6.1380      2.00000
     42       6.1380      2.00000
     43       6.1380      2.00000
     44       6.1380      2.00000
     45       6.8105      2.00000
     46       6.8105      2.00000
     47       6.8105      2.00000
     48       6.8105      2.00000
     49       7.4625      0.00000
     50       7.4625      0.00000
     51       7.4627      0.00000
     52       7.4627      0.00000
     53       7.4627      0.00000
     54       7.4627      0.00000
     55       7.4628      0.00000
     56       7.4628      0.00000
     57       8.9806      0.00000
     58       8.9806      0.00000
     59       8.9806      0.00000
     60       8.9806      0.00000
     61       9.4719      0.00000
     62       9.4719      0.00000
     63       9.4719      0.00000
     64       9.4719      0.00000
     65      10.2913      0.00000
     66      10.2914      0.00000
     67      10.2914      0.00000
     68      10.2915      0.00000

 k-point 195 :       0.4167    0.5000    0.5000
  band No.  band energies     occupation 
      1      -1.9864      2.00000
      2      -1.9863      2.00000
      3      -1.9863      2.00000
      4      -1.9863      2.00000
      5      -1.6333      2.00000
      6      -1.6333      2.00000
      7      -1.6333      2.00000
      8      -1.6333      2.00000
      9       1.8505      2.00000
     10       1.8505      2.00000
     11       1.8505      2.00000
     12       1.8505      2.00000
     13       2.1925      2.00000
     14       2.1925      2.00000
     15       2.1925      2.00000
     16       2.1926      2.00000
     17       2.1926      2.00000
     18       2.1926      2.00000
     19       2.1926      2.00000
     20       2.1926      2.00000
     21       2.5362      2.00000
     22       2.5362      2.00000
     23       2.5362      2.00000
     24       2.5362      2.00000
     25       2.5362      2.00000
     26       2.5362      2.00000
     27       2.5362      2.00000
     28       2.5362      2.00000
     29       2.8748      2.00000
     30       2.8748      2.00000
     31       2.8748      2.00000
     32       2.8749      2.00000
     33       5.9316      2.00000
     34       5.9316      2.00000
     35       5.9317      2.00000
     36       5.9317      2.00000
     37       5.9317      2.00000
     38       5.9317      2.00000
     39       5.9318      2.00000
     40       5.9318      2.00000
     41       6.2643      2.00000
     42       6.2643      2.00000
     43       6.2643      2.00000
     44       6.2643      2.00000
     45       6.6006      2.00000
     46       6.6006      2.00000
     47       6.6006      2.00000
     48       6.6006      2.00000
     49       6.9295      2.00000
     50       6.9295      2.00000
     51       6.9296      2.00000
     52       6.9296      2.00000
     53       6.9296      2.00000
     54       6.9296      2.00000
     55       6.9297      2.00000
     56       6.9297      2.00000
     57       9.7595      0.00000
     58       9.7595      0.00000
     59       9.7595      0.00000
     60       9.7595      0.00000
     61       9.9236      0.00000
     62       9.9236      0.00000
     63       9.9236      0.00000
     64       9.9236      0.00000
     65      10.4152      0.00000
     66      10.4152      0.00000
     67      10.4153      0.00000
     68      10.4154      0.00000

 k-point 196 :       0.5000    0.5000    0.5000
  band No.  band energies     occupation 
      1      -1.8290      2.00000
      2      -1.8249      2.00000
      3      -1.8249      2.00000
      4      -1.8245      2.00000
      5      -1.8244      2.00000
      6      -1.8240      2.00000
      7      -1.8240      2.00000
      8      -1.8199      2.00000
      9       2.3401      2.00000
     10       2.3463      2.00000
     11       2.3463      2.00000
     12       2.3494      2.00000
     13       2.3497      2.00000
     14       2.3497      2.00000
     15       2.3501      2.00000
     16       2.3501      2.00000
     17       2.3501      2.00000
     18       2.3501      2.00000
     19       2.3501      2.00000
     20       2.3501      2.00000
     21       2.3502      2.00000
     22       2.3502      2.00000
     23       2.3502      2.00000
     24       2.3502      2.00000
     25       2.3502      2.00000
     26       2.3502      2.00000
     27       2.3506      2.00000
     28       2.3506      2.00000
     29       2.3509      2.00000
     30       2.3540      2.00000
     31       2.3540      2.00000
     32       2.3602      2.00000
     33       6.4128      2.00000
     34       6.4128      2.00000
     35       6.4145      2.00000
     36       6.4166      2.00000
     37       6.4179      2.00000
     38       6.4183      2.00000
     39       6.4183      2.00000
     40       6.4183      2.00000
     41       6.4185      2.00000
     42       6.4185      2.00000
     43       6.4185      2.00000
     44       6.4186      2.00000
     45       6.4186      2.00000
     46       6.4186      2.00000
     47       6.4186      2.00000
     48       6.4186      2.00000
     49       6.4188      2.00000
     50       6.4188      2.00000
     51       6.4189      2.00000
     52       6.4192      2.00000
     53       6.4205      2.00000
     54       6.4226      2.00000
     55       6.4243      2.00000
     56       6.4243      2.00000
     57      10.3987      0.00000
     58      10.3987      0.00000
     59      10.3988      0.00000
     60      10.3993      0.00000
     61      10.4007      0.00000
     62      10.4014      0.00000
     63      10.4014      0.00000
     64      10.4015      0.00000
     65      10.5638      0.00000
     66      10.5648      0.00000
     67      10.5658      0.00000
     68      10.5663      0.00000


--------------------------------------------------------------------------------------------------------


 soft charge-density along one line, spin component           1
         0         1         2         3         4         5         6         7         8         9
 total charge-density along one line
 
 pseudopotential strength for first ion, spin component:           1
  8.472  -0.005  -0.000  -0.000  -0.000  -0.000  -0.000  -0.000
 -0.005   0.000  -0.000  -0.000  -0.000   0.000   0.000   0.000
 -0.000  -0.000   1.984  -0.000  -0.000  -0.024   0.000   0.000
 -0.000  -0.000  -0.000   1.984  -0.000   0.000  -0.024   0.000
 -0.000  -0.000  -0.000  -0.000   1.984   0.000   0.000  -0.024
 -0.000   0.000  -0.024   0.000   0.000  -0.013   0.000   0.000
 -0.000   0.000   0.000  -0.024   0.000   0.000  -0.013   0.000
 -0.000   0.000   0.000   0.000  -0.024   0.000   0.000  -0.013
 total augmentation occupancy for first ion, spin component:           1
  1.365  -0.381   0.000   0.000   0.002   0.000  -0.000  -0.001
 -0.381   0.389   0.000   0.000  -0.003  -0.000  -0.000   0.001
  0.000   0.000   0.663   0.001   0.006  -0.128  -0.001  -0.001
  0.000   0.000   0.001   0.674  -0.004  -0.001  -0.126  -0.000
  0.002  -0.003   0.006  -0.004   0.668  -0.001  -0.000  -0.127
  0.000  -0.000  -0.128  -0.001  -0.001   0.028   0.000   0.000
 -0.000  -0.000  -0.001  -0.126  -0.000   0.000   0.028   0.000
 -0.001   0.001  -0.001  -0.000  -0.127   0.000   0.000   0.028


------------------------ aborting loop because EDIFF is reached ----------------------------------------




--------------------------------------------------------------------------------------------------------


    CHARGE:  VPU time  170.47: CPU time  170.55
    FORLOC:  VPU time    0.43: CPU time    0.43
    FORNL :  VPU time  260.96: CPU time  261.05
    STRESS:  VPU time 1075.17: CPU time 1075.52
    FORCOR:  VPU time    3.48: CPU time    3.48
    FORHAR:  VPU time    1.31: CPU time    1.31
    MIXING:  VPU time    0.08: CPU time    0.08


--------------------------------------------------------------------------------------------------------



  FREE ENERGIE OF THE ION-ELECTRON SYSTEM (eV)
  ---------------------------------------------------
  free  energy   TOTEN  =      -118.963790 eV

  energy  without entropy=     -118.963269  energy(sigma->0) =     -118.963530
 

  FORCE on cell =-STRESS in cart. coord.  units (eV/reduce length):
  Direction    X        Y        Z        XY       YZ       ZX
  --------------------------------------------------------------------------------------
  Alpha Z     -5.98     -5.98     -5.98
  Ewald     -762.07   -762.07   -762.07      0.00     -0.00      0.00
  Hartree      1.06      1.06      1.06      0.00     -0.00     -0.00
  E(xc)     -266.98   -266.98   -266.98     -0.00      0.00      0.00
  Local       -1.27     -1.28     -1.28     -0.00     -0.00      0.00
  n-local    595.29    595.85    594.73     -0.41     -0.08      0.25
  augment    -34.91    -34.91    -34.91      0.00      0.00      0.00
  Kinetic    455.10    447.78    462.42      5.40      0.64     -4.12
  -------------------------------------------------------------------------------------
  Total      -19.77    -19.77    -19.77     -0.00      0.00      0.00
  in kB      -55.07    -55.07    -55.07     -0.00      0.00      0.00
  external pressure =      -55.07 kB  Pullay stress =        0.00 kB


 VOLUME and BASIS-vectors are now :
 -----------------------------------------------------------------------------
  energy-cutoff  :      750.00
  volume of cell :      575.28
      direct lattice vectors                 reciprocal lattice vectors
     8.316851122  0.000000000  0.000000000     0.120237814  0.000000000  0.000000000
     0.000000000  8.316851122  0.000000000     0.000000000  0.120237814  0.000000000
     0.000000000  0.000000000  8.316851122     0.000000000  0.000000000  0.120237814

  length of vectors
     8.316851122  8.316851122  8.316851122     0.120237814  0.120237814  0.120237814


 FORCES acting on ions
    electron-ion (+dipol)            ewald-force                    non-local-force                 convergence-correction
 -----------------------------------------------------------------------------------------------
   0.352E+00 -.194E-12 -.201E-08   -.293E+00 -.833E-15 -.233E-14   -.922E-01 0.000E+00 0.136E-19   0.310E-05 0.130E-13 -.384E-14
   -.796E-01 -.433E-12 0.114E-08   0.772E-01 0.488E-14 -.514E-14   0.425E-02 0.000E+00 0.000E+00   0.413E-06 0.145E-13 -.245E-14
   0.248E-01 0.904E-13 0.420E-13   -.244E-01 0.333E-14 -.475E-14   -.688E-03 0.000E+00 0.000E+00   0.163E-05 -.134E-13 -.241E-14
   -.188E-01 0.511E-12 0.287E-12   0.192E-01 0.333E-14 -.475E-14   0.196E-03 0.271E-19 0.000E+00   -.244E-05 -.148E-13 -.157E-14
   0.248E-01 0.682E-14 -.760E-11   -.244E-01 0.777E-14 0.439E-14   -.688E-03 0.271E-19 -.339E-20   0.164E-05 0.143E-13 0.411E-14
   -.188E-01 0.332E-12 -.746E-11   0.192E-01 0.422E-14 0.461E-14   0.196E-03 0.271E-19 -.136E-19   -.244E-05 0.154E-13 0.278E-14
   0.102E-01 0.330E-13 0.892E-12   -.101E-01 0.289E-14 0.400E-14   0.224E-03 -.136E-19 0.000E+00   -.296E-07 -.147E-13 0.273E-14
   -.945E-02 -.207E-12 0.727E-12   0.944E-02 0.289E-14 0.400E-14   -.660E-03 0.000E+00 0.000E+00   -.456E-06 -.156E-13 0.191E-14
   0.443E-01 -.201E-03 0.201E-03   -.461E-01 0.174E-03 -.174E-03   0.443E-03 0.396E-04 -.396E-04   0.497E-06 -.737E-07 0.737E-07
   -.272E-01 0.689E-04 -.689E-04   0.259E-01 -.522E-04 0.522E-04   0.684E-03 -.154E-04 0.154E-04   -.471E-06 -.164E-07 0.164E-07
   0.443E-01 0.201E-03 0.201E-03   -.461E-01 -.174E-03 -.174E-03   0.443E-03 -.396E-04 -.396E-04   0.497E-06 0.737E-07 0.737E-07
   -.272E-01 -.689E-04 -.689E-04   0.259E-01 0.522E-04 0.522E-04   0.684E-03 0.154E-04 0.154E-04   -.471E-06 0.164E-07 0.164E-07
   0.443E-01 -.201E-03 -.201E-03   -.461E-01 0.174E-03 0.174E-03   0.443E-03 0.396E-04 0.396E-04   0.497E-06 -.737E-07 -.737E-07
   -.272E-01 0.689E-04 0.689E-04   0.259E-01 -.522E-04 -.522E-04   0.684E-03 -.154E-04 -.154E-04   -.471E-06 -.164E-07 -.164E-07
   0.443E-01 0.201E-03 -.201E-03   -.461E-01 -.174E-03 0.174E-03   0.443E-03 -.396E-04 0.396E-04   0.497E-06 0.737E-07 -.737E-07
   -.272E-01 -.689E-04 0.689E-04   0.259E-01 0.522E-04 -.522E-04   0.684E-03 0.154E-04 -.154E-04   -.471E-06 0.164E-07 -.164E-07
   -.437E-01 0.376E-15 0.771E-01   0.373E-01 0.794E-14 -.707E-01   0.110E-01 0.000E+00 -.110E-01   -.621E-06 0.150E-13 -.318E-06
   -.435E-01 -.334E-13 -.778E-01   0.371E-01 0.600E-14 0.713E-01   0.113E-01 0.466E-20 0.113E-01   -.566E-06 0.180E-13 0.338E-06
   -.706E-03 -.554E-14 0.582E-02   0.124E-02 0.139E-14 -.585E-02   -.547E-03 0.000E+00 0.126E-03   0.434E-06 -.155E-13 0.924E-06
   -.601E-03 0.359E-13 -.583E-02   0.113E-02 0.466E-14 0.586E-02   -.537E-03 0.102E-19 -.130E-03   0.370E-06 -.182E-13 -.886E-06
   -.437E-01 0.462E-15 -.771E-01   0.373E-01 0.794E-14 0.707E-01   0.110E-01 0.180E-20 0.110E-01   -.621E-06 0.117E-13 0.318E-06
   -.435E-01 -.459E-13 0.778E-01   0.371E-01 0.600E-14 -.713E-01   0.113E-01 0.000E+00 -.113E-01   -.566E-06 0.126E-13 -.338E-06
   -.706E-03 -.836E-14 -.582E-02   0.124E-02 0.316E-14 0.585E-02   -.547E-03 0.000E+00 -.126E-03   0.434E-06 -.122E-13 -.924E-06
   -.601E-03 -.187E-12 0.583E-02   0.113E-02 0.466E-14 -.586E-02   -.537E-03 0.000E+00 0.130E-03   0.370E-06 -.128E-13 0.886E-06
   -.437E-01 -.771E-01 0.185E-11   0.373E-01 0.707E-01 -.256E-14   0.110E-01 0.110E-01 0.000E+00   -.620E-06 0.315E-06 -.289E-14
   -.435E-01 0.778E-01 0.111E-11   0.371E-01 -.713E-01 -.283E-14   0.113E-01 -.113E-01 0.000E+00   -.565E-06 -.334E-06 -.670E-14
   -.437E-01 0.771E-01 0.184E-11   0.373E-01 -.707E-01 -.499E-14   0.110E-01 -.110E-01 0.000E+00   -.620E-06 -.315E-06 0.468E-15
   -.435E-01 -.778E-01 0.196E-11   0.371E-01 0.713E-01 -.282E-14   0.113E-01 0.113E-01 0.678E-20   -.565E-06 0.334E-06 -.127E-14
   -.706E-03 -.582E-02 -.483E-12   0.124E-02 0.585E-02 -.101E-14   -.547E-03 -.126E-03 0.424E-21   0.433E-06 -.928E-06 0.324E-14
   -.601E-03 0.583E-02 -.283E-12   0.113E-02 -.586E-02 -.428E-14   -.537E-03 0.130E-03 0.339E-20   0.369E-06 0.889E-06 0.696E-14
   -.706E-03 0.582E-02 -.480E-12   0.124E-02 -.585E-02 0.144E-14   -.547E-03 0.126E-03 0.339E-20   0.433E-06 0.928E-06 -.110E-15
   -.601E-03 -.583E-02 -.541E-12   0.113E-02 0.586E-02 0.283E-14   -.537E-03 -.130E-03 0.508E-20   0.369E-06 -.889E-06 0.156E-14
 -----------------------------------------------------------------------------------------------
   0.190E-05 0.590E-12 -.893E-09   -.978E-14 -.656E-14 -.211E-13   -.182E-05 -.173E-17 -.329E-17   0.271E-08 -.105E-15 -.954E-17
 
 
 POSITION                                       TOTAL-FORCE (eV/Angst)
 -----------------------------------------------------------------------------------
      2.08921      2.07921      0.00000        -0.032247     -0.000000      0.000000
      6.23764      2.07921      0.00000         0.001825      0.000000     -0.000000
      2.07921      6.23764      0.00000        -0.000294      0.000000     -0.000000
      6.23764      6.23764      0.00000         0.000571     -0.000000      0.000000
      2.07921      2.07921      4.15843        -0.000294      0.000000     -0.000000
      6.23764      2.07921      4.15843         0.000571     -0.000000      0.000000
      2.07921      6.23764      4.15843         0.000296     -0.000000      0.000000
      6.23764      6.23764      4.15843        -0.000672     -0.000000     -0.000000
      2.07921      0.00000      2.07921        -0.001369      0.000013     -0.000013
      6.23764      0.00000      2.07921        -0.000579      0.000001     -0.000001
      2.07921      4.15843      2.07921        -0.001369     -0.000013     -0.000013
      6.23764      4.15843      2.07921        -0.000579     -0.000001     -0.000001
      2.07921      0.00000      6.23764        -0.001369      0.000013      0.000013
      6.23764      0.00000      6.23764        -0.000579      0.000001      0.000001
      2.07921      4.15843      6.23764        -0.001369     -0.000013      0.000013
      6.23764      4.15843      6.23764        -0.000579     -0.000001      0.000001
      0.00000      2.07921      2.07921         0.004705      0.000000     -0.004658
      4.15843      2.07921      2.07921         0.004821     -0.000000      0.004816
      0.00000      6.23764      2.07921        -0.000009     -0.000000      0.000099
      4.15843      6.23764      2.07921        -0.000007      0.000000     -0.000098
      0.00000      2.07921      6.23764         0.004705      0.000000      0.004658
      4.15843      2.07921      6.23764         0.004821      0.000000     -0.004816
      0.00000      6.23764      6.23764        -0.000009     -0.000000     -0.000099
      4.15843      6.23764      6.23764        -0.000007      0.000000      0.000098
      0.00000      0.00000      0.00000         0.004705      0.004658     -0.000000
      4.15843      0.00000      0.00000         0.004821     -0.004816     -0.000000
      0.00000      4.15843      0.00000         0.004705     -0.004658      0.000000
      4.15843      4.15843      0.00000         0.004821      0.004816      0.000000
      0.00000      0.00000      4.15843        -0.000009     -0.000099      0.000000
      4.15843      0.00000      4.15843        -0.000007      0.000098     -0.000000
      0.00000      4.15843      4.15843        -0.000009      0.000099      0.000000
      4.15843      4.15843      4.15843        -0.000007     -0.000098      0.000000
 -----------------------------------------------------------------------------------
    total drift:                                0.000000      0.000000     -0.000000


--------------------------------------------------------------------------------------------------------



 mean value of Nose-termostat <S>:     1.000 mean value of <T> :     0.000
 mean temperature <T/S>/<1/S>  :     0.000

     LOOP+:  VPU time37198.11: CPU time37228.21
  
  
 General timing and accounting informations for this job:
 ========================================================
  
                  Total CPU time used (sec):    37407.486
                            User time (sec):    36408.021
                          System time (sec):      999.465
                         Elapsed time (sec):    37439.589
  
                   Maximum memory used (kb):     3858396.
                   Average memory used (kb):           0.
  
                          Minor page faults:       413752
                          Major page faults:            0
                 Voluntary context switches:          872
