<?xml version="1.0" encoding="ISO-8859-1"?>
<modeling>
 <generator>
  <i name="program" type="string">vasp</i>
  <i name="version" type="string">4.6.28 </i>
  <i name="subversion" type="string">25Jul05 complex  parallel</i>
  <i name="platform" type="string">LinuxIFC</i>
  <i name="date" type="string">2016 11 11</i>
  <i name="time" type="string">17:42:47</i>
 </generator>
 <incar>
  <i type="string" name="PREC">accurate</i>
  <i type="int" name="IALGO">    38</i>
  <i type="logical" name="ADDGRID"> T  </i>
  <i name="EDIFF">      0.00000001</i>
  <i type="int" name="IBRION">    -1</i>
  <i name="ENCUT">    750.00000000</i>
  <i type="logical" name="LREAL"> F  </i>
  <i type="int" name="ISMEAR">     0</i>
  <i name="SIGMA">      0.01000000</i>
  <i type="logical" name="LWAVE"> F  </i>
  <i type="logical" name="LCHARG"> F  </i>
 </incar>
 <kpoints>
  <generation param="Gamma">
   <v type="int" name="divisions">      12      12      12</v>
   <v name="usershift">      0.00000000      0.00000000      0.00000000</v>
   <v name="genvec1">      0.08333333      0.00000000      0.00000000</v>
   <v name="genvec2">      0.00000000      0.08333333      0.00000000</v>
   <v name="genvec3">      0.00000000      0.00000000      0.08333333</v>
   <v name="shift">      0.00000000      0.00000000      0.00000000</v>
  </generation>
  <varray name="kpointlist" >
   <v>       0.00000000      0.00000000      0.00000000</v>
   <v>       0.08333333      0.00000000      0.00000000</v>
   <v>       0.16666667      0.00000000      0.00000000</v>
   <v>       0.25000000      0.00000000      0.00000000</v>
   <v>       0.33333333      0.00000000      0.00000000</v>
   <v>       0.41666667      0.00000000      0.00000000</v>
   <v>       0.50000000      0.00000000      0.00000000</v>
   <v>       0.00000000      0.08333333      0.00000000</v>
   <v>       0.08333333      0.08333333      0.00000000</v>
   <v>       0.16666667      0.08333333      0.00000000</v>
   <v>       0.25000000      0.08333333      0.00000000</v>
   <v>       0.33333333      0.08333333      0.00000000</v>
   <v>       0.41666667      0.08333333      0.00000000</v>
   <v>       0.50000000      0.08333333      0.00000000</v>
   <v>       0.00000000      0.16666667      0.00000000</v>
   <v>       0.08333333      0.16666667      0.00000000</v>
   <v>       0.16666667      0.16666667      0.00000000</v>
   <v>       0.25000000      0.16666667      0.00000000</v>
   <v>       0.33333333      0.16666667      0.00000000</v>
   <v>       0.41666667      0.16666667      0.00000000</v>
   <v>       0.50000000      0.16666667      0.00000000</v>
   <v>       0.00000000      0.25000000      0.00000000</v>
   <v>       0.08333333      0.25000000      0.00000000</v>
   <v>       0.16666667      0.25000000      0.00000000</v>
   <v>       0.25000000      0.25000000      0.00000000</v>
   <v>       0.33333333      0.25000000      0.00000000</v>
   <v>       0.41666667      0.25000000      0.00000000</v>
   <v>       0.50000000      0.25000000      0.00000000</v>
   <v>       0.00000000      0.33333333      0.00000000</v>
   <v>       0.08333333      0.33333333      0.00000000</v>
   <v>       0.16666667      0.33333333      0.00000000</v>
   <v>       0.25000000      0.33333333      0.00000000</v>
   <v>       0.33333333      0.33333333      0.00000000</v>
   <v>       0.41666667      0.33333333      0.00000000</v>
   <v>       0.50000000      0.33333333      0.00000000</v>
   <v>       0.00000000      0.41666667      0.00000000</v>
   <v>       0.08333333      0.41666667      0.00000000</v>
   <v>       0.16666667      0.41666667      0.00000000</v>
   <v>       0.25000000      0.41666667      0.00000000</v>
   <v>       0.33333333      0.41666667      0.00000000</v>
   <v>       0.41666667      0.41666667      0.00000000</v>
   <v>       0.50000000      0.41666667      0.00000000</v>
   <v>       0.00000000      0.50000000      0.00000000</v>
   <v>       0.08333333      0.50000000      0.00000000</v>
   <v>       0.16666667      0.50000000      0.00000000</v>
   <v>       0.25000000      0.50000000      0.00000000</v>
   <v>       0.33333333      0.50000000      0.00000000</v>
   <v>       0.41666667      0.50000000      0.00000000</v>
   <v>       0.50000000      0.50000000      0.00000000</v>
   <v>       0.00000000      0.08333333      0.08333333</v>
   <v>       0.08333333      0.08333333      0.08333333</v>
   <v>       0.16666667      0.08333333      0.08333333</v>
   <v>       0.25000000      0.08333333      0.08333333</v>
   <v>       0.33333333      0.08333333      0.08333333</v>
   <v>       0.41666667      0.08333333      0.08333333</v>
   <v>       0.50000000      0.08333333      0.08333333</v>
   <v>       0.00000000      0.16666667      0.08333333</v>
   <v>       0.08333333      0.16666667      0.08333333</v>
   <v>       0.16666667      0.16666667      0.08333333</v>
   <v>       0.25000000      0.16666667      0.08333333</v>
   <v>       0.33333333      0.16666667      0.08333333</v>
   <v>       0.41666667      0.16666667      0.08333333</v>
   <v>       0.50000000      0.16666667      0.08333333</v>
   <v>       0.00000000      0.25000000      0.08333333</v>
   <v>       0.08333333      0.25000000      0.08333333</v>
   <v>       0.16666667      0.25000000      0.08333333</v>
   <v>       0.25000000      0.25000000      0.08333333</v>
   <v>       0.33333333      0.25000000      0.08333333</v>
   <v>       0.41666667      0.25000000      0.08333333</v>
   <v>       0.50000000      0.25000000      0.08333333</v>
   <v>       0.00000000      0.33333333      0.08333333</v>
   <v>       0.08333333      0.33333333      0.08333333</v>
   <v>       0.16666667      0.33333333      0.08333333</v>
   <v>       0.25000000      0.33333333      0.08333333</v>
   <v>       0.33333333      0.33333333      0.08333333</v>
   <v>       0.41666667      0.33333333      0.08333333</v>
   <v>       0.50000000      0.33333333      0.08333333</v>
   <v>       0.00000000      0.41666667      0.08333333</v>
   <v>       0.08333333      0.41666667      0.08333333</v>
   <v>       0.16666667      0.41666667      0.08333333</v>
   <v>       0.25000000      0.41666667      0.08333333</v>
   <v>       0.33333333      0.41666667      0.08333333</v>
   <v>       0.41666667      0.41666667      0.08333333</v>
   <v>       0.50000000      0.41666667      0.08333333</v>
   <v>       0.00000000      0.50000000      0.08333333</v>
   <v>       0.08333333      0.50000000      0.08333333</v>
   <v>       0.16666667      0.50000000      0.08333333</v>
   <v>       0.25000000      0.50000000      0.08333333</v>
   <v>       0.33333333      0.50000000      0.08333333</v>
   <v>       0.41666667      0.50000000      0.08333333</v>
   <v>       0.50000000      0.50000000      0.08333333</v>
   <v>       0.00000000      0.16666667      0.16666667</v>
   <v>       0.08333333      0.16666667      0.16666667</v>
   <v>       0.16666667      0.16666667      0.16666667</v>
   <v>       0.25000000      0.16666667      0.16666667</v>
   <v>       0.33333333      0.16666667      0.16666667</v>
   <v>       0.41666667      0.16666667      0.16666667</v>
   <v>       0.50000000      0.16666667      0.16666667</v>
   <v>       0.00000000      0.25000000      0.16666667</v>
   <v>       0.08333333      0.25000000      0.16666667</v>
   <v>       0.16666667      0.25000000      0.16666667</v>
   <v>       0.25000000      0.25000000      0.16666667</v>
   <v>       0.33333333      0.25000000      0.16666667</v>
   <v>       0.41666667      0.25000000      0.16666667</v>
   <v>       0.50000000      0.25000000      0.16666667</v>
   <v>       0.00000000      0.33333333      0.16666667</v>
   <v>       0.08333333      0.33333333      0.16666667</v>
   <v>       0.16666667      0.33333333      0.16666667</v>
   <v>       0.25000000      0.33333333      0.16666667</v>
   <v>       0.33333333      0.33333333      0.16666667</v>
   <v>       0.41666667      0.33333333      0.16666667</v>
   <v>       0.50000000      0.33333333      0.16666667</v>
   <v>       0.00000000      0.41666667      0.16666667</v>
   <v>       0.08333333      0.41666667      0.16666667</v>
   <v>       0.16666667      0.41666667      0.16666667</v>
   <v>       0.25000000      0.41666667      0.16666667</v>
   <v>       0.33333333      0.41666667      0.16666667</v>
   <v>       0.41666667      0.41666667      0.16666667</v>
   <v>       0.50000000      0.41666667      0.16666667</v>
   <v>       0.00000000      0.50000000      0.16666667</v>
   <v>       0.08333333      0.50000000      0.16666667</v>
   <v>       0.16666667      0.50000000      0.16666667</v>
   <v>       0.25000000      0.50000000      0.16666667</v>
   <v>       0.33333333      0.50000000      0.16666667</v>
   <v>       0.41666667      0.50000000      0.16666667</v>
   <v>       0.50000000      0.50000000      0.16666667</v>
   <v>       0.00000000      0.25000000      0.25000000</v>
   <v>       0.08333333      0.25000000      0.25000000</v>
   <v>       0.16666667      0.25000000      0.25000000</v>
   <v>       0.25000000      0.25000000      0.25000000</v>
   <v>       0.33333333      0.25000000      0.25000000</v>
   <v>       0.41666667      0.25000000      0.25000000</v>
   <v>       0.50000000      0.25000000      0.25000000</v>
   <v>       0.00000000      0.33333333      0.25000000</v>
   <v>       0.08333333      0.33333333      0.25000000</v>
   <v>       0.16666667      0.33333333      0.25000000</v>
   <v>       0.25000000      0.33333333      0.25000000</v>
   <v>       0.33333333      0.33333333      0.25000000</v>
   <v>       0.41666667      0.33333333      0.25000000</v>
   <v>       0.50000000      0.33333333      0.25000000</v>
   <v>       0.00000000      0.41666667      0.25000000</v>
   <v>       0.08333333      0.41666667      0.25000000</v>
   <v>       0.16666667      0.41666667      0.25000000</v>
   <v>       0.25000000      0.41666667      0.25000000</v>
   <v>       0.33333333      0.41666667      0.25000000</v>
   <v>       0.41666667      0.41666667      0.25000000</v>
   <v>       0.50000000      0.41666667      0.25000000</v>
   <v>       0.00000000      0.50000000      0.25000000</v>
   <v>       0.08333333      0.50000000      0.25000000</v>
   <v>       0.16666667      0.50000000      0.25000000</v>
   <v>       0.25000000      0.50000000      0.25000000</v>
   <v>       0.33333333      0.50000000      0.25000000</v>
   <v>       0.41666667      0.50000000      0.25000000</v>
   <v>       0.50000000      0.50000000      0.25000000</v>
   <v>       0.00000000      0.33333333      0.33333333</v>
   <v>       0.08333333      0.33333333      0.33333333</v>
   <v>       0.16666667      0.33333333      0.33333333</v>
   <v>       0.25000000      0.33333333      0.33333333</v>
   <v>       0.33333333      0.33333333      0.33333333</v>
   <v>       0.41666667      0.33333333      0.33333333</v>
   <v>       0.50000000      0.33333333      0.33333333</v>
   <v>       0.00000000      0.41666667      0.33333333</v>
   <v>       0.08333333      0.41666667      0.33333333</v>
   <v>       0.16666667      0.41666667      0.33333333</v>
   <v>       0.25000000      0.41666667      0.33333333</v>
   <v>       0.33333333      0.41666667      0.33333333</v>
   <v>       0.41666667      0.41666667      0.33333333</v>
   <v>       0.50000000      0.41666667      0.33333333</v>
   <v>       0.00000000      0.50000000      0.33333333</v>
   <v>       0.08333333      0.50000000      0.33333333</v>
   <v>       0.16666667      0.50000000      0.33333333</v>
   <v>       0.25000000      0.50000000      0.33333333</v>
   <v>       0.33333333      0.50000000      0.33333333</v>
   <v>       0.41666667      0.50000000      0.33333333</v>
   <v>       0.50000000      0.50000000      0.33333333</v>
   <v>       0.00000000      0.41666667      0.41666667</v>
   <v>       0.08333333      0.41666667      0.41666667</v>
   <v>       0.16666667      0.41666667      0.41666667</v>
   <v>       0.25000000      0.41666667      0.41666667</v>
   <v>       0.33333333      0.41666667      0.41666667</v>
   <v>       0.41666667      0.41666667      0.41666667</v>
   <v>       0.50000000      0.41666667      0.41666667</v>
   <v>       0.00000000      0.50000000      0.41666667</v>
   <v>       0.08333333      0.50000000      0.41666667</v>
   <v>       0.16666667      0.50000000      0.41666667</v>
   <v>       0.25000000      0.50000000      0.41666667</v>
   <v>       0.33333333      0.50000000      0.41666667</v>
   <v>       0.41666667      0.50000000      0.41666667</v>
   <v>       0.50000000      0.50000000      0.41666667</v>
   <v>       0.00000000      0.50000000      0.50000000</v>
   <v>       0.08333333      0.50000000      0.50000000</v>
   <v>       0.16666667      0.50000000      0.50000000</v>
   <v>       0.25000000      0.50000000      0.50000000</v>
   <v>       0.33333333      0.50000000      0.50000000</v>
   <v>       0.41666667      0.50000000      0.50000000</v>
   <v>       0.50000000      0.50000000      0.50000000</v>
  </varray>
  <varray name="weights" >
   <v>       0.00057870</v>
   <v>       0.00115741</v>
   <v>       0.00115741</v>
   <v>       0.00115741</v>
   <v>       0.00115741</v>
   <v>       0.00115741</v>
   <v>       0.00057870</v>
   <v>       0.00231481</v>
   <v>       0.00462963</v>
   <v>       0.00462963</v>
   <v>       0.00462963</v>
   <v>       0.00462963</v>
   <v>       0.00462963</v>
   <v>       0.00231481</v>
   <v>       0.00231481</v>
   <v>       0.00462963</v>
   <v>       0.00462963</v>
   <v>       0.00462963</v>
   <v>       0.00462963</v>
   <v>       0.00462963</v>
   <v>       0.00231481</v>
   <v>       0.00231481</v>
   <v>       0.00462963</v>
   <v>       0.00462963</v>
   <v>       0.00462963</v>
   <v>       0.00462963</v>
   <v>       0.00462963</v>
   <v>       0.00231481</v>
   <v>       0.00231481</v>
   <v>       0.00462963</v>
   <v>       0.00462963</v>
   <v>       0.00462963</v>
   <v>       0.00462963</v>
   <v>       0.00462963</v>
   <v>       0.00231481</v>
   <v>       0.00231481</v>
   <v>       0.00462963</v>
   <v>       0.00462963</v>
   <v>       0.00462963</v>
   <v>       0.00462963</v>
   <v>       0.00462963</v>
   <v>       0.00231481</v>
   <v>       0.00115741</v>
   <v>       0.00231481</v>
   <v>       0.00231481</v>
   <v>       0.00231481</v>
   <v>       0.00231481</v>
   <v>       0.00231481</v>
   <v>       0.00115741</v>
   <v>       0.00231481</v>
   <v>       0.00462963</v>
   <v>       0.00462963</v>
   <v>       0.00462963</v>
   <v>       0.00462963</v>
   <v>       0.00462963</v>
   <v>       0.00231481</v>
   <v>       0.00462963</v>
   <v>       0.00925926</v>
   <v>       0.00925926</v>
   <v>       0.00925926</v>
   <v>       0.00925926</v>
   <v>       0.00925926</v>
   <v>       0.00462963</v>
   <v>       0.00462963</v>
   <v>       0.00925926</v>
   <v>       0.00925926</v>
   <v>       0.00925926</v>
   <v>       0.00925926</v>
   <v>       0.00925926</v>
   <v>       0.00462963</v>
   <v>       0.00462963</v>
   <v>       0.00925926</v>
   <v>       0.00925926</v>
   <v>       0.00925926</v>
   <v>       0.00925926</v>
   <v>       0.00925926</v>
   <v>       0.00462963</v>
   <v>       0.00462963</v>
   <v>       0.00925926</v>
   <v>       0.00925926</v>
   <v>       0.00925926</v>
   <v>       0.00925926</v>
   <v>       0.00925926</v>
   <v>       0.00462963</v>
   <v>       0.00231481</v>
   <v>       0.00462963</v>
   <v>       0.00462963</v>
   <v>       0.00462963</v>
   <v>       0.00462963</v>
   <v>       0.00462963</v>
   <v>       0.00231481</v>
   <v>       0.00231481</v>
   <v>       0.00462963</v>
   <v>       0.00462963</v>
   <v>       0.00462963</v>
   <v>       0.00462963</v>
   <v>       0.00462963</v>
   <v>       0.00231481</v>
   <v>       0.00462963</v>
   <v>       0.00925926</v>
   <v>       0.00925926</v>
   <v>       0.00925926</v>
   <v>       0.00925926</v>
   <v>       0.00925926</v>
   <v>       0.00462963</v>
   <v>       0.00462963</v>
   <v>       0.00925926</v>
   <v>       0.00925926</v>
   <v>       0.00925926</v>
   <v>       0.00925926</v>
   <v>       0.00925926</v>
   <v>       0.00462963</v>
   <v>       0.00462963</v>
   <v>       0.00925926</v>
   <v>       0.00925926</v>
   <v>       0.00925926</v>
   <v>       0.00925926</v>
   <v>       0.00925926</v>
   <v>       0.00462963</v>
   <v>       0.00231481</v>
   <v>       0.00462963</v>
   <v>       0.00462963</v>
   <v>       0.00462963</v>
   <v>       0.00462963</v>
   <v>       0.00462963</v>
   <v>       0.00231481</v>
   <v>       0.00231481</v>
   <v>       0.00462963</v>
   <v>       0.00462963</v>
   <v>       0.00462963</v>
   <v>       0.00462963</v>
   <v>       0.00462963</v>
   <v>       0.00231481</v>
   <v>       0.00462963</v>
   <v>       0.00925926</v>
   <v>       0.00925926</v>
   <v>       0.00925926</v>
   <v>       0.00925926</v>
   <v>       0.00925926</v>
   <v>       0.00462963</v>
   <v>       0.00462963</v>
   <v>       0.00925926</v>
   <v>       0.00925926</v>
   <v>       0.00925926</v>
   <v>       0.00925926</v>
   <v>       0.00925926</v>
   <v>       0.00462963</v>
   <v>       0.00231481</v>
   <v>       0.00462963</v>
   <v>       0.00462963</v>
   <v>       0.00462963</v>
   <v>       0.00462963</v>
   <v>       0.00462963</v>
   <v>       0.00231481</v>
   <v>       0.00231481</v>
   <v>       0.00462963</v>
   <v>       0.00462963</v>
   <v>       0.00462963</v>
   <v>       0.00462963</v>
   <v>       0.00462963</v>
   <v>       0.00231481</v>
   <v>       0.00462963</v>
   <v>       0.00925926</v>
   <v>       0.00925926</v>
   <v>       0.00925926</v>
   <v>       0.00925926</v>
   <v>       0.00925926</v>
   <v>       0.00462963</v>
   <v>       0.00231481</v>
   <v>       0.00462963</v>
   <v>       0.00462963</v>
   <v>       0.00462963</v>
   <v>       0.00462963</v>
   <v>       0.00462963</v>
   <v>       0.00231481</v>
   <v>       0.00231481</v>
   <v>       0.00462963</v>
   <v>       0.00462963</v>
   <v>       0.00462963</v>
   <v>       0.00462963</v>
   <v>       0.00462963</v>
   <v>       0.00231481</v>
   <v>       0.00231481</v>
   <v>       0.00462963</v>
   <v>       0.00462963</v>
   <v>       0.00462963</v>
   <v>       0.00462963</v>
   <v>       0.00462963</v>
   <v>       0.00231481</v>
   <v>       0.00057870</v>
   <v>       0.00115741</v>
   <v>       0.00115741</v>
   <v>       0.00115741</v>
   <v>       0.00115741</v>
   <v>       0.00115741</v>
   <v>       0.00057870</v>
  </varray>
 </kpoints>
 <parameters>
  <separator name="general" >
   <i type="string" name="SYSTEM">unknown system</i>
   <i type="logical" name="LCOMPAT"> F  </i>
  </separator>
  <separator name="electronic" >
   <i type="string" name="PREC">accura</i>
   <i name="ENMAX">    750.00000000</i>
   <i name="ENAUG">    291.05200000</i>
   <i name="EDIFF">      0.00000001</i>
   <i type="int" name="IALGO">    38</i>
   <i type="int" name="IWAVPR">    10</i>
   <i type="int" name="NBANDS">    65</i>
   <i name="NELECT">     96.00000000</i>
   <separator name="electronic smearing" >
    <i type="int" name="ISMEAR">     0</i>
    <i name="SIGMA">      0.01000000</i>
   </separator>
   <separator name="electronic projectors" >
    <i type="logical" name="LREAL"> F  </i>
    <v name="ROPT">      0.00000000</v>
    <i type="int" name="LMAXPAW">  -100</i>
    <i type="int" name="LMAXMIX">     2</i>
   </separator>
   <separator name="electronic startup" >
    <i type="int" name="ISTART">     0</i>
    <i type="int" name="ICHARG">     2</i>
    <i type="int" name="INIWAV">     1</i>
   </separator>
   <separator name="electronic spin" >
    <i type="int" name="ISPIN">     1</i>
    <i type="logical" name="LNONCOLLINEAR"> F  </i>
    <v name="MAGMOM">      1.00000000      1.00000000      1.00000000      1.00000000      1.00000000      1.00000000      1.00000000      1.00000000      1.00000000      1.00000000      1.00000000      1.00000000      1.00000000      1.00000000      1.00000000      1.00000000      1.00000000      1.00000000      1.00000000      1.00000000
      1.00000000      1.00000000      1.00000000      1.00000000      1.00000000      1.00000000      1.00000000      1.00000000      1.00000000      1.00000000      1.00000000      1.00000000</v>
    <i name="NUPDOWN">     -1.00000000</i>
    <i type="logical" name="LSORBIT"> F  </i>
    <v name="SAXIS">      0.00000000      0.00000000      1.00000000</v>
    <i type="logical" name="LSPIRAL"> F  </i>
    <v name="QSPIRAL">      0.00000000      0.00000000      0.00000000</v>
    <i type="logical" name="LZEROZ"> F  </i>
   </separator>
   <separator name="electronic exchange-correlation" >
    <i type="string" name="GGA">--</i>
    <i type="int" name="VOSKOWN">     0</i>
    <i type="logical" name="LASPH"> F  </i>
    <i type="logical" name="LMETAGGA"> F  </i>
    <i type="string" name="GGA2">--</i>
   </separator>
   <separator name="electronic convergence" >
    <i type="int" name="NELM">    60</i>
    <i type="int" name="NELMDL">     0</i>
    <i type="int" name="NELMIN">     2</i>
    <i name="ENINI">    750.00000000</i>
    <separator name="electronic convergence detail" >
     <i type="logical" name="LDIAG"> T  </i>
     <i name="WEIMIN">      0.00000000</i>
     <i name="EBREAK">      0.00000000</i>
     <i name="DEPER">      0.30000000</i>
     <i type="int" name="NRMM">     4</i>
     <i name="TIME">      0.10000000</i>
    </separator>
   </separator>
   <separator name="electronic mixer" >
    <i name="AMIX">      0.40000000</i>
    <i name="BMIX">      1.00000000</i>
    <i name="AMIN">      0.10000000</i>
    <i name="AMIX_MAG">      1.60000000</i>
    <i name="BMIX_MAG">      1.00000000</i>
    <separator name="electronic mixer details" >
     <i type="int" name="IMIX">     4</i>
     <i type="int" name="MAXMIX">   -45</i>
     <i name="WC">    100.00000000</i>
     <i type="int" name="INIMIX">     1</i>
     <i type="int" name="MIXPRE">     1</i>
     <i type="int" name="MREMOVE">     5</i>
    </separator>
   </separator>
   <separator name="electronic dipolcorrection" >
    <i type="int" name="IDIPOL">     0</i>
    <i type="logical" name="LDIPOL"> F  </i>
    <v name="DIPOL">   -100.00000000</v>
    <i name="EFIELD">      0.00000000</i>
   </separator>
  </separator>
  <separator name="grids" >
   <i type="int" name="NGX">    80</i>
   <i type="int" name="NGY">    80</i>
   <i type="int" name="NGZ">    80</i>
   <i type="int" name="NGXF">   160</i>
   <i type="int" name="NGYF">   160</i>
   <i type="int" name="NGZF">   160</i>
   <i type="logical" name="ADDGRID"> T  </i>
  </separator>
  <separator name="ionic" >
   <i type="int" name="NSW">     0</i>
   <i type="int" name="IBRION">    -1</i>
   <i type="int" name="ISIF">     2</i>
   <i name="PSTRESS">      0.00000000</i>
   <i name="EDIFFG">      0.00000010</i>
   <i type="int" name="NFREE">     0</i>
   <i name="POTIM">      0.50000000</i>
   <i name="SMASS">     -3.00000000</i>
  </separator>
  <separator name="ionic md" >
   <i name="TEBEG">      0.00010000</i>
   <i name="TEEND">      0.00010000</i>
   <i type="int" name="NBLOCK">     1</i>
   <i type="int" name="KBLOCK">     1</i>
   <i type="int" name="NPACO">   256</i>
   <i name="APACO">     16.00000000</i>
  </separator>
  <separator name="symmetry" >
   <i type="int" name="ISYM">     2</i>
   <i name="SYMPREC">      0.00001000</i>
  </separator>
  <separator name="dos" >
   <i type="logical" name="LORBIT"> F  </i>
   <v name="RWIGS">     -1.00000000</v>
   <i type="int" name="NEDOS">   301</i>
   <i name="EMIN">     10.00000000</i>
   <i name="EMAX">    -10.00000000</i>
  </separator>
  <separator name="writing" >
   <i type="int" name="NWRITE">     2</i>
   <i type="logical" name="LWAVE"> F  </i>
   <i type="logical" name="LCHARG"> F  </i>
   <i type="logical" name="LPARD"> F  </i>
   <i type="logical" name="LVTOT"> F  </i>
   <i type="logical" name="LELF"> F  </i>
   <i type="logical" name="LOPTICS"> F  </i>
   <i name="STM">      0.00000000</i>
  </separator>
  <separator name="performance" >
   <i type="int" name="NPAR">     4</i>
   <i type="int" name="NSIM">     4</i>
   <i type="int" name="NBLK">   256</i>
   <i type="logical" name="LPLANE"> T  </i>
   <i type="logical" name="LCRITICAL_MEM"> F  </i>
   <i type="logical" name="LSCALAPACK"> F  </i>
   <i type="logical" name="LSCALU"> F  </i>
   <i type="logical" name="LASYNC"> F  </i>
  </separator>
  <separator name="miscellaneous" >
   <i type="int" name="IDIOT">     3</i>
   <i type="logical" name="LMUSIC"> F  </i>
   <v name="POMASS">     26.98200000</v>
   <i type="logical" name="LCORR"> T  </i>
  </separator>
  <i type="logical" name="LREAL_COMPAT"> F  </i>
  <i type="logical" name="GGA_COMPAT"> T  </i>
  <i type="logical" name="LBERRY"> F  </i>
  <i type="int" name="ICORELEVEL">     0</i>
  <i type="logical" name="LDAU"> F  </i>
  <i type="int" name="I_CONSTRAINED_M">     0</i>
 </parameters>
 <atominfo>
  <atoms>      32</atoms>
  <types>       1</types>
  <array name="atoms" >
   <dimension dim="1">ion</dimension>
   <field type="string">element</field>
   <field type="int">atomtype</field>
   <set>
    <rc><c>Al</c><c>   1</c></rc>
    <rc><c>Al</c><c>   1</c></rc>
    <rc><c>Al</c><c>   1</c></rc>
    <rc><c>Al</c><c>   1</c></rc>
    <rc><c>Al</c><c>   1</c></rc>
    <rc><c>Al</c><c>   1</c></rc>
    <rc><c>Al</c><c>   1</c></rc>
    <rc><c>Al</c><c>   1</c></rc>
    <rc><c>Al</c><c>   1</c></rc>
    <rc><c>Al</c><c>   1</c></rc>
    <rc><c>Al</c><c>   1</c></rc>
    <rc><c>Al</c><c>   1</c></rc>
    <rc><c>Al</c><c>   1</c></rc>
    <rc><c>Al</c><c>   1</c></rc>
    <rc><c>Al</c><c>   1</c></rc>
    <rc><c>Al</c><c>   1</c></rc>
    <rc><c>Al</c><c>   1</c></rc>
    <rc><c>Al</c><c>   1</c></rc>
    <rc><c>Al</c><c>   1</c></rc>
    <rc><c>Al</c><c>   1</c></rc>
    <rc><c>Al</c><c>   1</c></rc>
    <rc><c>Al</c><c>   1</c></rc>
    <rc><c>Al</c><c>   1</c></rc>
    <rc><c>Al</c><c>   1</c></rc>
    <rc><c>Al</c><c>   1</c></rc>
    <rc><c>Al</c><c>   1</c></rc>
    <rc><c>Al</c><c>   1</c></rc>
    <rc><c>Al</c><c>   1</c></rc>
    <rc><c>Al</c><c>   1</c></rc>
    <rc><c>Al</c><c>   1</c></rc>
    <rc><c>Al</c><c>   1</c></rc>
    <rc><c>Al</c><c>   1</c></rc>
   </set>
  </array>
  <array name="atomtypes" >
   <dimension dim="1">type</dimension>
   <field type="int">atomspertype</field>
   <field type="string">element</field>
   <field>mass</field>
   <field>valence</field>
   <field type="string">pseudopotential</field>
   <set>
    <rc><c>  32</c><c>Al</c><c>     26.98200000</c><c>      3.00000000</c><c> PAW_PBE Al 04Jan2001                   </c></rc>
   </set>
  </array>
 </atominfo>
 <structure name="initialpos" >
  <crystal>
   <varray name="basis" >
    <v>       8.31685112      0.00000000      0.00000000</v>
    <v>       0.00000000      8.31685112      0.00000000</v>
    <v>       0.00000000      0.00000000      8.31685112</v>
   </varray>
   <i name="volume">    575.27669668</i>
   <varray name="rec_basis" >
    <v>       0.12023781      0.00000000      0.00000000</v>
    <v>       0.00000000      0.12023781      0.00000000</v>
    <v>       0.00000000      0.00000000      0.12023781</v>
   </varray>
  </crystal>
  <varray name="positions" >
   <v>       0.25120238      0.25000000      0.00000000</v>
   <v>       0.75000000      0.25000000      0.00000000</v>
   <v>       0.25000000      0.75000000      0.00000000</v>
   <v>       0.75000000      0.75000000      0.00000000</v>
   <v>       0.25000000      0.25000000      0.50000000</v>
   <v>       0.75000000      0.25000000      0.50000000</v>
   <v>       0.25000000      0.75000000      0.50000000</v>
   <v>       0.75000000      0.75000000      0.50000000</v>
   <v>       0.25000000      0.00000000      0.25000000</v>
   <v>       0.75000000      0.00000000      0.25000000</v>
   <v>       0.25000000      0.50000000      0.25000000</v>
   <v>       0.75000000      0.50000000      0.25000000</v>
   <v>       0.25000000      0.00000000      0.75000000</v>
   <v>       0.75000000      0.00000000      0.75000000</v>
   <v>       0.25000000      0.50000000      0.75000000</v>
   <v>       0.75000000      0.50000000      0.75000000</v>
   <v>       0.00000000      0.25000000      0.25000000</v>
   <v>       0.50000000      0.25000000      0.25000000</v>
   <v>       0.00000000      0.75000000      0.25000000</v>
   <v>       0.50000000      0.75000000      0.25000000</v>
   <v>       0.00000000      0.25000000      0.75000000</v>
   <v>       0.50000000      0.25000000      0.75000000</v>
   <v>       0.00000000      0.75000000      0.75000000</v>
   <v>       0.50000000      0.75000000      0.75000000</v>
   <v>       0.00000000      0.00000000      0.00000000</v>
   <v>       0.50000000      0.00000000      0.00000000</v>
   <v>       0.00000000      0.50000000      0.00000000</v>
   <v>       0.50000000      0.50000000      0.00000000</v>
   <v>       0.00000000      0.00000000      0.50000000</v>
   <v>       0.50000000      0.00000000      0.50000000</v>
   <v>       0.00000000      0.50000000      0.50000000</v>
   <v>       0.50000000      0.50000000      0.50000000</v>
  </varray>
 </structure>
 <calculation>
  <scstep>
   <time name="dav"> 2287.85 2289.22</time>
   <time name="total"> 2294.12 2295.55</time>
   <energy>
    <i name="alphaZ">     -5.97872903</i>
    <i name="ewald">  -2286.20769594</i>
    <i name="hartreedc">     -4.52818132</i>
    <i name="XCdc">   -844.52793780</i>
    <i name="pawpsdc">   1137.73615723</i>
    <i name="pawaedc">   -115.16745734</i>
    <i name="eentropy">     -0.00044012</i>
    <i name="bandstr">    574.92294702</i>
    <i name="atom">   1713.23509266</i>
    <i name="e_fr_energy">    169.48375534</i>
    <i name="e_wo_entrp">    169.48419546</i>
    <i name="e_0_energy">    169.48397540</i>
   </energy>
  </scstep>
  <scstep>
   <time name="dav"> 2569.75 2571.22</time>
   <time name="total"> 2569.81 2571.28</time>
   <energy>
    <i name="e_fr_energy">   -101.86481222</i>
    <i name="e_wo_entrp">   -101.86421583</i>
    <i name="e_0_energy">   -101.86451402</i>
   </energy>
  </scstep>
  <scstep>
   <time name="dav"> 2712.95 2714.46</time>
   <time name="total"> 2713.01 2714.52</time>
   <energy>
    <i name="e_fr_energy">   -119.21029944</i>
    <i name="e_wo_entrp">   -119.20975227</i>
    <i name="e_0_energy">   -119.21002585</i>
   </energy>
  </scstep>
  <scstep>
   <time name="dav"> 2589.15 2594.85</time>
   <time name="total"> 2589.22 2594.92</time>
   <energy>
    <i name="e_fr_energy">   -119.64417946</i>
    <i name="e_wo_entrp">   -119.64374336</i>
    <i name="e_0_energy">   -119.64396141</i>
   </energy>
  </scstep>
  <scstep>
   <time name="dav"> 2614.19 2620.80</time>
   <time name="total"> 2782.42 2789.26</time>
   <energy>
    <i name="e_fr_energy">   -119.64978883</i>
    <i name="e_wo_entrp">   -119.64935492</i>
    <i name="e_0_energy">   -119.64957187</i>
   </energy>
  </scstep>
  <scstep>
   <time name="dav"> 2563.94 2567.82</time>
   <time name="total"> 2738.37 2742.48</time>
   <energy>
    <i name="e_fr_energy">   -119.25220931</i>
    <i name="e_wo_entrp">   -119.25175819</i>
    <i name="e_0_energy">   -119.25198375</i>
   </energy>
  </scstep>
  <scstep>
   <time name="dav"> 2553.38 2555.50</time>
   <time name="total"> 2736.33 2738.52</time>
   <energy>
    <i name="e_fr_energy">   -118.96381716</i>
    <i name="e_wo_entrp">   -118.96329812</i>
    <i name="e_0_energy">   -118.96355764</i>
   </energy>
  </scstep>
  <scstep>
   <time name="dav"> 2652.33 2653.18</time>
   <time name="total"> 2835.08 2836.00</time>
   <energy>
    <i name="e_fr_energy">   -118.96377612</i>
    <i name="e_wo_entrp">   -118.96325649</i>
    <i name="e_0_energy">   -118.96351631</i>
   </energy>
  </scstep>
  <scstep>
   <time name="dav"> 2644.43 2645.27</time>
   <time name="total"> 2829.13 2830.03</time>
   <energy>
    <i name="e_fr_energy">   -118.96379640</i>
    <i name="e_wo_entrp">   -118.96327541</i>
    <i name="e_0_energy">   -118.96353591</i>
   </energy>
  </scstep>
  <scstep>
   <time name="dav"> 2674.77 2675.60</time>
   <time name="total"> 2857.27 2858.16</time>
   <energy>
    <i name="e_fr_energy">   -118.96379501</i>
    <i name="e_wo_entrp">   -118.96327398</i>
    <i name="e_0_energy">   -118.96353449</i>
   </energy>
  </scstep>
  <scstep>
   <time name="dav"> 2654.69 2655.50</time>
   <time name="total"> 2838.15 2839.04</time>
   <energy>
    <i name="e_fr_energy">   -118.96379158</i>
    <i name="e_wo_entrp">   -118.96327052</i>
    <i name="e_0_energy">   -118.96353105</i>
   </energy>
  </scstep>
  <scstep>
   <time name="dav"> 2012.95 2013.80</time>
   <time name="total"> 2201.15 2202.08</time>
   <energy>
    <i name="e_fr_energy">   -118.96379045</i>
    <i name="e_wo_entrp">   -118.96326937</i>
    <i name="e_0_energy">   -118.96352991</i>
   </energy>
  </scstep>
  <scstep>
   <time name="dav"> 1817.04 1817.86</time>
   <time name="total"> 2001.08 2001.99</time>
   <energy>
    <i name="e_fr_energy">   -118.96379036</i>
    <i name="e_wo_entrp">   -118.96326928</i>
    <i name="e_0_energy">   -118.96352982</i>
   </energy>
  </scstep>
  <scstep>
   <time name="dav"> 1694.19 1695.02</time>
   <time name="total"> 1700.67 1701.50</time>
   <energy>
    <i name="alphaZ">     -5.97872903</i>
    <i name="ewald">  -2286.20769594</i>
    <i name="hartreedc">     -3.17283876</i>
    <i name="XCdc">   -841.62030112</i>
    <i name="pawpsdc">   1134.01203057</i>
    <i name="pawaedc">   -111.45964166</i>
    <i name="eentropy">     -0.00052107</i>
    <i name="bandstr">    282.22881399</i>
    <i name="atom">   1713.23509266</i>
    <i name="e_fr_energy">   -118.96379036</i>
    <i name="e_wo_entrp">   -118.96326929</i>
    <i name="e_0_energy">   -118.96352983</i>
   </energy>
  </scstep>
  <structure>
   <crystal>
    <varray name="basis" >
     <v>       8.31685112      0.00000000      0.00000000</v>
     <v>       0.00000000      8.31685112      0.00000000</v>
     <v>       0.00000000      0.00000000      8.31685112</v>
    </varray>
    <i name="volume">    575.27669668</i>
    <varray name="rec_basis" >
     <v>       0.12023781      0.00000000      0.00000000</v>
     <v>       0.00000000      0.12023781      0.00000000</v>
     <v>       0.00000000      0.00000000      0.12023781</v>
    </varray>
   </crystal>
   <varray name="positions" >
    <v>       0.25120238      0.25000000      0.00000000</v>
    <v>       0.75000000      0.25000000      0.00000000</v>
    <v>       0.25000000      0.75000000      0.00000000</v>
    <v>       0.75000000      0.75000000      0.00000000</v>
    <v>       0.25000000      0.25000000      0.50000000</v>
    <v>       0.75000000      0.25000000      0.50000000</v>
    <v>       0.25000000      0.75000000      0.50000000</v>
    <v>       0.75000000      0.75000000      0.50000000</v>
    <v>       0.25000000      0.00000000      0.25000000</v>
    <v>       0.75000000      0.00000000      0.25000000</v>
    <v>       0.25000000      0.50000000      0.25000000</v>
    <v>       0.75000000      0.50000000      0.25000000</v>
    <v>       0.25000000      0.00000000      0.75000000</v>
    <v>       0.75000000      0.00000000      0.75000000</v>
    <v>       0.25000000      0.50000000      0.75000000</v>
    <v>       0.75000000      0.50000000      0.75000000</v>
    <v>       0.00000000      0.25000000      0.25000000</v>
    <v>       0.50000000      0.25000000      0.25000000</v>
    <v>       0.00000000      0.75000000      0.25000000</v>
    <v>       0.50000000      0.75000000      0.25000000</v>
    <v>       0.00000000      0.25000000      0.75000000</v>
    <v>       0.50000000      0.25000000      0.75000000</v>
    <v>       0.00000000      0.75000000      0.75000000</v>
    <v>       0.50000000      0.75000000      0.75000000</v>
    <v>       0.00000000      0.00000000      0.00000000</v>
    <v>       0.50000000      0.00000000      0.00000000</v>
    <v>       0.00000000      0.50000000      0.00000000</v>
    <v>       0.50000000      0.50000000      0.00000000</v>
    <v>       0.00000000      0.00000000      0.50000000</v>
    <v>       0.50000000      0.00000000      0.50000000</v>
    <v>       0.00000000      0.50000000      0.50000000</v>
    <v>       0.50000000      0.50000000      0.50000000</v>
   </varray>
  </structure>
  <varray name="forces" >
   <v>      -0.03224722     -0.00000000      0.00000000</v>
   <v>       0.00182528      0.00000000     -0.00000000</v>
   <v>      -0.00029397      0.00000000     -0.00000000</v>
   <v>       0.00057054     -0.00000000      0.00000000</v>
   <v>      -0.00029397      0.00000000     -0.00000000</v>
   <v>       0.00057054     -0.00000000      0.00000000</v>
   <v>       0.00029639     -0.00000000      0.00000000</v>
   <v>      -0.00067242     -0.00000000     -0.00000000</v>
   <v>      -0.00136908      0.00001323     -0.00001323</v>
   <v>      -0.00057908      0.00000128     -0.00000128</v>
   <v>      -0.00136908     -0.00001323     -0.00001323</v>
   <v>      -0.00057908     -0.00000128     -0.00000128</v>
   <v>      -0.00136908      0.00001323      0.00001323</v>
   <v>      -0.00057908      0.00000128      0.00000128</v>
   <v>      -0.00136908     -0.00001323      0.00001323</v>
   <v>      -0.00057908     -0.00000128      0.00000128</v>
   <v>       0.00470499      0.00000000     -0.00465824</v>
   <v>       0.00482051     -0.00000000      0.00481623</v>
   <v>      -0.00000921     -0.00000000      0.00009895</v>
   <v>      -0.00000691      0.00000000     -0.00009842</v>
   <v>       0.00470499      0.00000000      0.00465824</v>
   <v>       0.00482051      0.00000000     -0.00481623</v>
   <v>      -0.00000921     -0.00000000     -0.00009895</v>
   <v>      -0.00000691      0.00000000      0.00009842</v>
   <v>       0.00470499      0.00465824     -0.00000000</v>
   <v>       0.00482051     -0.00481623     -0.00000000</v>
   <v>       0.00470499     -0.00465824      0.00000000</v>
   <v>       0.00482051      0.00481623      0.00000000</v>
   <v>      -0.00000921     -0.00009895      0.00000000</v>
   <v>      -0.00000691      0.00009842     -0.00000000</v>
   <v>      -0.00000921      0.00009895      0.00000000</v>
   <v>      -0.00000691     -0.00009842      0.00000000</v>
  </varray>
  <varray name="stress" >
   <v>     -55.06683053     -0.00000000      0.00000000</v>
   <v>      -0.00000000    -55.06898470      0.00000000</v>
   <v>       0.00000000      0.00000000    -55.06898470</v>
  </varray>
  <energy>
   <i name="e_fr_energy">   -118.96379036</i>
   <i name="e_wo_entrp">   -118.96352983</i>
   <i name="e_0_energy">     -0.00052107</i>
  </energy>
  <eigenvalues>
   <array>
    <dimension dim="1">band</dimension>
    <dimension dim="2">kpoint</dimension>
    <dimension dim="3">spin</dimension>
    <field>eigene</field>
    <field>occ</field>
    <set>
     <set comment="spin 1">
      <set comment="kpoint 1">
       <r>  -3.4214  1.0000</r>
       <r>  -1.2993  1.0000</r>
       <r>  -1.2957  1.0000</r>
       <r>  -1.2957  1.0000</r>
       <r>  -1.2957  1.0000</r>
       <r>  -1.2957  1.0000</r>
       <r>  -1.2921  1.0000</r>
       <r>   0.7950  1.0000</r>
       <r>   0.7994  1.0000</r>
       <r>   0.7994  1.0000</r>
       <r>   0.8010  1.0000</r>
       <r>   0.8011  1.0000</r>
       <r>   0.8011  1.0000</r>
       <r>   0.8011  1.0000</r>
       <r>   0.8011  1.0000</r>
       <r>   0.8013  1.0000</r>
       <r>   0.8028  1.0000</r>
       <r>   0.8028  1.0000</r>
       <r>   0.8072  1.0000</r>
       <r>   2.8643  1.0000</r>
       <r>   2.8646  1.0000</r>
       <r>   2.8646  1.0000</r>
       <r>   2.8648  1.0000</r>
       <r>   2.8780  1.0000</r>
       <r>   2.8782  1.0000</r>
       <r>   2.8782  1.0000</r>
       <r>   2.8785  1.0000</r>
       <r>   4.4170  1.0000</r>
       <r>   4.4170  1.0000</r>
       <r>   4.4171  1.0000</r>
       <r>   5.5339  1.0000</r>
       <r>   5.5340  1.0000</r>
       <r>   5.5340  1.0000</r>
       <r>   6.3923  1.0000</r>
       <r>   6.3923  1.0000</r>
       <r>   6.3964  1.0000</r>
       <r>   6.3964  1.0000</r>
       <r>   6.3965  1.0000</r>
       <r>   6.3965  1.0000</r>
       <r>   6.3965  1.0000</r>
       <r>   6.3966  1.0000</r>
       <r>   6.3966  1.0000</r>
       <r>   6.3966  1.0000</r>
       <r>   6.4007  1.0000</r>
       <r>   6.4007  1.0000</r>
       <r>   7.4446  0.0000</r>
       <r>   7.4486  0.0000</r>
       <r>   7.4486  0.0000</r>
       <r>   7.4486  0.0000</r>
       <r>   7.4486  0.0000</r>
       <r>   7.4525  0.0000</r>
       <r>   7.7801  0.0000</r>
       <r>   7.7810  0.0000</r>
       <r>   7.7810  0.0000</r>
       <r>   7.7810  0.0000</r>
       <r>   7.7811  0.0000</r>
       <r>   7.7819  0.0000</r>
       <r>   8.3748  0.0000</r>
       <r>   8.3754  0.0000</r>
       <r>   8.3771  0.0000</r>
       <r>   8.3787  0.0000</r>
       <r>   8.3787  0.0000</r>
       <r>   8.3787  0.0000</r>
       <r>   8.3788  0.0000</r>
       <r>   8.3788  0.0000</r>
       <r>   8.3809  0.0000</r>
       <r>   8.3823  0.0000</r>
       <r>   8.3827  0.0000</r>
      </set>
      <set comment="kpoint 2">
       <r>  -3.4065  1.0000</r>
       <r>  -1.6332  1.0000</r>
       <r>  -1.2811  1.0000</r>
       <r>  -1.2810  1.0000</r>
       <r>  -1.2810  1.0000</r>
       <r>  -1.2810  1.0000</r>
       <r>  -0.9297  1.0000</r>
       <r>   0.4681  1.0000</r>
       <r>   0.4681  1.0000</r>
       <r>   0.4681  1.0000</r>
       <r>   0.4681  1.0000</r>
       <r>   0.8156  1.0000</r>
       <r>   0.8156  1.0000</r>
       <r>   0.8156  1.0000</r>
       <r>   0.8156  1.0000</r>
       <r>   1.1622  1.0000</r>
       <r>   1.1622  1.0000</r>
       <r>   1.1622  1.0000</r>
       <r>   1.1623  1.0000</r>
       <r>   2.5424  1.0000</r>
       <r>   2.5424  1.0000</r>
       <r>   2.5424  1.0000</r>
       <r>   2.5424  1.0000</r>
       <r>   3.2282  1.0000</r>
       <r>   3.2282  1.0000</r>
       <r>   3.2282  1.0000</r>
       <r>   3.2282  1.0000</r>
       <r>   4.1061  1.0000</r>
       <r>   4.4308  1.0000</r>
       <r>   4.4308  1.0000</r>
       <r>   5.5486  1.0000</r>
       <r>   5.5486  1.0000</r>
       <r>   5.8710  1.0000</r>
       <r>   6.0799  1.0000</r>
       <r>   6.0799  1.0000</r>
       <r>   6.1064  1.0000</r>
       <r>   6.1064  1.0000</r>
       <r>   6.1064  1.0000</r>
       <r>   6.1064  1.0000</r>
       <r>   6.4103  1.0000</r>
       <r>   6.4103  1.0000</r>
       <r>   6.4103  1.0000</r>
       <r>   6.4103  1.0000</r>
       <r>   6.7407  1.0000</r>
       <r>   6.7407  1.0000</r>
       <r>   7.2497  0.0000</r>
       <r>   7.2498  0.0000</r>
       <r>   7.5663  0.0000</r>
       <r>   7.5663  0.0000</r>
       <r>   7.5663  0.0000</r>
       <r>   7.5663  0.0000</r>
       <r>   7.9928  0.0000</r>
       <r>   7.9930  0.0000</r>
       <r>   7.9930  0.0000</r>
       <r>   7.9930  0.0000</r>
       <r>   8.0057  0.0000</r>
       <r>   8.0059  0.0000</r>
       <r>   8.0619  0.0000</r>
       <r>   8.0619  0.0000</r>
       <r>   8.0620  0.0000</r>
       <r>   8.0620  0.0000</r>
       <r>   8.1023  0.0000</r>
       <r>   8.1024  0.0000</r>
       <r>   8.1024  0.0000</r>
       <r>   8.1024  0.0000</r>
       <r>   8.7231  0.0000</r>
       <r>   8.7231  0.0000</r>
       <r>   8.7231  0.0000</r>
      </set>
      <set comment="kpoint 3">
       <r>  -3.3620  1.0000</r>
       <r>  -1.9421  1.0000</r>
       <r>  -1.2371  1.0000</r>
       <r>  -1.2371  1.0000</r>
       <r>  -1.2371  1.0000</r>
       <r>  -1.2371  1.0000</r>
       <r>  -0.5355  1.0000</r>
       <r>   0.1634  1.0000</r>
       <r>   0.1634  1.0000</r>
       <r>   0.1634  1.0000</r>
       <r>   0.1634  1.0000</r>
       <r>   0.8590  1.0000</r>
       <r>   0.8590  1.0000</r>
       <r>   0.8590  1.0000</r>
       <r>   0.8590  1.0000</r>
       <r>   1.5512  1.0000</r>
       <r>   1.5512  1.0000</r>
       <r>   1.5512  1.0000</r>
       <r>   1.5512  1.0000</r>
       <r>   2.2416  1.0000</r>
       <r>   2.2416  1.0000</r>
       <r>   2.2416  1.0000</r>
       <r>   2.2416  1.0000</r>
       <r>   3.5516  1.0000</r>
       <r>   3.6124  1.0000</r>
       <r>   3.6124  1.0000</r>
       <r>   3.6124  1.0000</r>
       <r>   3.6124  1.0000</r>
       <r>   4.4720  1.0000</r>
       <r>   4.4720  1.0000</r>
       <r>   5.5720  1.0000</r>
       <r>   5.5723  1.0000</r>
       <r>   5.5723  1.0000</r>
       <r>   5.5723  1.0000</r>
       <r>   5.5924  1.0000</r>
       <r>   5.5926  1.0000</r>
       <r>   5.7911  1.0000</r>
       <r>   5.7911  1.0000</r>
       <r>   6.4515  1.0000</r>
       <r>   6.4515  1.0000</r>
       <r>   6.4515  1.0000</r>
       <r>   6.4516  1.0000</r>
       <r>   6.5036  1.0000</r>
       <r>   6.9682  1.0000</r>
       <r>   6.9682  1.0000</r>
       <r>   7.1126  1.0000</r>
       <r>   7.1126  1.0000</r>
       <r>   7.5812  0.0000</r>
       <r>   7.5812  0.0000</r>
       <r>   7.5812  0.0000</r>
       <r>   7.5812  0.0000</r>
       <r>   7.6514  0.0000</r>
       <r>   7.6514  0.0000</r>
       <r>   7.6514  0.0000</r>
       <r>   7.6514  0.0000</r>
       <r>   7.7728  0.0000</r>
       <r>   7.7728  0.0000</r>
       <r>   7.7729  0.0000</r>
       <r>   7.7729  0.0000</r>
       <r>   8.3647  0.0000</r>
       <r>   8.3647  0.0000</r>
       <r>   8.5609  0.0000</r>
       <r>   8.5609  0.0000</r>
       <r>   8.5609  0.0000</r>
       <r>   8.5609  0.0000</r>
       <r>   9.0193  0.0000</r>
       <r>   9.0197  0.0000</r>
       <r>   9.0200  0.0000</r>
      </set>
      <set comment="kpoint 4">
       <r>  -3.2877  1.0000</r>
       <r>  -2.2220  1.0000</r>
       <r>  -1.1639  1.0000</r>
       <r>  -1.1638  1.0000</r>
       <r>  -1.1638  1.0000</r>
       <r>  -1.1638  1.0000</r>
       <r>  -0.1157  1.0000</r>
       <r>  -0.1128  1.0000</r>
       <r>  -0.1128  1.0000</r>
       <r>  -0.1128  1.0000</r>
       <r>  -0.1106  1.0000</r>
       <r>   0.9312  1.0000</r>
       <r>   0.9313  1.0000</r>
       <r>   0.9313  1.0000</r>
       <r>   0.9313  1.0000</r>
       <r>   1.9649  1.0000</r>
       <r>   1.9669  1.0000</r>
       <r>   1.9669  1.0000</r>
       <r>   1.9677  1.0000</r>
       <r>   1.9688  1.0000</r>
       <r>   1.9696  1.0000</r>
       <r>   1.9696  1.0000</r>
       <r>   1.9716  1.0000</r>
       <r>   2.9692  1.0000</r>
       <r>   4.0238  1.0000</r>
       <r>   4.0238  1.0000</r>
       <r>   4.0238  1.0000</r>
       <r>   4.0238  1.0000</r>
       <r>   4.5406  1.0000</r>
       <r>   4.5406  1.0000</r>
       <r>   5.0036  1.0000</r>
       <r>   5.0036  1.0000</r>
       <r>   5.0036  1.0000</r>
       <r>   5.0036  1.0000</r>
       <r>   5.5298  1.0000</r>
       <r>   5.5298  1.0000</r>
       <r>   5.6653  1.0000</r>
       <r>   5.6653  1.0000</r>
       <r>   6.5203  1.0000</r>
       <r>   6.5203  1.0000</r>
       <r>   6.5203  1.0000</r>
       <r>   6.5203  1.0000</r>
       <r>   6.7020  1.0000</r>
       <r>   6.7020  1.0000</r>
       <r>   7.0218  1.0000</r>
       <r>   7.0218  1.0000</r>
       <r>   7.0218  1.0000</r>
       <r>   7.0218  1.0000</r>
       <r>   7.2162  0.0000</r>
       <r>   7.5094  0.0000</r>
       <r>   7.5094  0.0000</r>
       <r>   7.5112  0.0000</r>
       <r>   7.5112  0.0000</r>
       <r>   7.5140  0.0000</r>
       <r>   7.5140  0.0000</r>
       <r>   7.7322  0.0000</r>
       <r>   7.7322  0.0000</r>
       <r>   7.7322  0.0000</r>
       <r>   7.7322  0.0000</r>
       <r>   8.7537  0.0000</r>
       <r>   8.7537  0.0000</r>
       <r>   8.7540  0.0000</r>
       <r>   8.7540  0.0000</r>
       <r>   8.7597  0.0000</r>
       <r>   8.7597  0.0000</r>
       <r>   9.2461  0.0000</r>
       <r>   9.2461  0.0000</r>
       <r>   9.2461  0.0000</r>
      </set>
      <set comment="kpoint 5">
       <r>  -3.1837  1.0000</r>
       <r>  -2.4730  1.0000</r>
       <r>  -1.0614  1.0000</r>
       <r>  -1.0613  1.0000</r>
       <r>  -1.0613  1.0000</r>
       <r>  -1.0613  1.0000</r>
       <r>  -0.3603  1.0000</r>
       <r>  -0.3603  1.0000</r>
       <r>  -0.3603  1.0000</r>
       <r>  -0.3603  1.0000</r>
       <r>   0.3362  1.0000</r>
       <r>   1.0324  1.0000</r>
       <r>   1.0324  1.0000</r>
       <r>   1.0324  1.0000</r>
       <r>   1.0324  1.0000</r>
       <r>   1.7244  1.0000</r>
       <r>   1.7244  1.0000</r>
       <r>   1.7244  1.0000</r>
       <r>   1.7244  1.0000</r>
       <r>   2.3969  1.0000</r>
       <r>   2.4113  1.0000</r>
       <r>   2.4113  1.0000</r>
       <r>   2.4113  1.0000</r>
       <r>   2.4114  1.0000</r>
       <r>   4.4418  1.0000</r>
       <r>   4.4418  1.0000</r>
       <r>   4.4419  1.0000</r>
       <r>   4.4419  1.0000</r>
       <r>   4.4621  1.0000</r>
       <r>   4.4621  1.0000</r>
       <r>   4.4621  1.0000</r>
       <r>   4.4621  1.0000</r>
       <r>   4.6367  1.0000</r>
       <r>   4.6367  1.0000</r>
       <r>   5.2961  1.0000</r>
       <r>   5.2961  1.0000</r>
       <r>   5.7673  1.0000</r>
       <r>   5.7673  1.0000</r>
       <r>   6.4597  1.0000</r>
       <r>   6.4601  1.0000</r>
       <r>   6.4677  1.0000</r>
       <r>   6.4677  1.0000</r>
       <r>   6.4678  1.0000</r>
       <r>   6.4682  1.0000</r>
       <r>   6.6166  1.0000</r>
       <r>   6.6166  1.0000</r>
       <r>   6.6167  1.0000</r>
       <r>   6.6167  1.0000</r>
       <r>   7.2772  0.0000</r>
       <r>   7.2772  0.0000</r>
       <r>   7.2772  0.0000</r>
       <r>   7.2772  0.0000</r>
       <r>   7.8351  0.0000</r>
       <r>   7.8351  0.0000</r>
       <r>   7.8351  0.0000</r>
       <r>   7.8351  0.0000</r>
       <r>   7.9396  0.0000</r>
       <r>   7.9396  0.0000</r>
       <r>   7.9706  0.0000</r>
       <r>   8.5157  0.0000</r>
       <r>   8.5157  0.0000</r>
       <r>   8.5157  0.0000</r>
       <r>   8.5157  0.0000</r>
       <r>   9.1796  0.0000</r>
       <r>   9.1796  0.0000</r>
       <r>   9.9227  0.0000</r>
       <r>   9.9253  0.0000</r>
       <r>   9.9264  0.0000</r>
      </set>
      <set comment="kpoint 6">
       <r>  -3.0502  1.0000</r>
       <r>  -2.6947  1.0000</r>
       <r>  -0.9297  1.0000</r>
       <r>  -0.9297  1.0000</r>
       <r>  -0.9297  1.0000</r>
       <r>  -0.9297  1.0000</r>
       <r>  -0.5791  1.0000</r>
       <r>  -0.5791  1.0000</r>
       <r>  -0.5791  1.0000</r>
       <r>  -0.5791  1.0000</r>
       <r>   0.8129  1.0000</r>
       <r>   1.1624  1.0000</r>
       <r>   1.1624  1.0000</r>
       <r>   1.1624  1.0000</r>
       <r>   1.1624  1.0000</r>
       <r>   1.5085  1.0000</r>
       <r>   1.5085  1.0000</r>
       <r>   1.5085  1.0000</r>
       <r>   1.5085  1.0000</r>
       <r>   1.8447  1.0000</r>
       <r>   2.8815  1.0000</r>
       <r>   2.8815  1.0000</r>
       <r>   2.8815  1.0000</r>
       <r>   2.8815  1.0000</r>
       <r>   3.8985  1.0000</r>
       <r>   3.8985  1.0000</r>
       <r>   3.8985  1.0000</r>
       <r>   3.8985  1.0000</r>
       <r>   4.7603  1.0000</r>
       <r>   4.7603  1.0000</r>
       <r>   4.9267  1.0000</r>
       <r>   4.9267  1.0000</r>
       <r>   4.9267  1.0000</r>
       <r>   4.9267  1.0000</r>
       <r>   5.0900  1.0000</r>
       <r>   5.0900  1.0000</r>
       <r>   5.8979  1.0000</r>
       <r>   5.8980  1.0000</r>
       <r>   5.9312  1.0000</r>
       <r>   5.9312  1.0000</r>
       <r>   5.9312  1.0000</r>
       <r>   5.9313  1.0000</r>
       <r>   6.2449  1.0000</r>
       <r>   6.2449  1.0000</r>
       <r>   6.7404  1.0000</r>
       <r>   6.7404  1.0000</r>
       <r>   6.7405  1.0000</r>
       <r>   6.7405  1.0000</r>
       <r>   7.0707  1.0000</r>
       <r>   7.0707  1.0000</r>
       <r>   7.0707  1.0000</r>
       <r>   7.0707  1.0000</r>
       <r>   7.9643  0.0000</r>
       <r>   7.9643  0.0000</r>
       <r>   7.9643  0.0000</r>
       <r>   7.9643  0.0000</r>
       <r>   8.3045  0.0000</r>
       <r>   8.3045  0.0000</r>
       <r>   8.3045  0.0000</r>
       <r>   8.3046  0.0000</r>
       <r>   8.3946  0.0000</r>
       <r>   8.3946  0.0000</r>
       <r>   8.7569  0.0000</r>
       <r>   9.3880  0.0000</r>
       <r>   9.3880  0.0000</r>
       <r>   9.6213  0.0000</r>
       <r>   9.6213  0.0000</r>
       <r>  10.3766  0.0000</r>
      </set>
      <set comment="kpoint 7">
       <r>  -2.8885  1.0000</r>
       <r>  -2.8858  1.0000</r>
       <r>  -0.7727  1.0000</r>
       <r>  -0.7697  1.0000</r>
       <r>  -0.7697  1.0000</r>
       <r>  -0.7690  1.0000</r>
       <r>  -0.7688  1.0000</r>
       <r>  -0.7681  1.0000</r>
       <r>  -0.7681  1.0000</r>
       <r>  -0.7651  1.0000</r>
       <r>   1.3136  1.0000</r>
       <r>   1.3162  1.0000</r>
       <r>   1.3198  1.0000</r>
       <r>   1.3199  1.0000</r>
       <r>   1.3199  1.0000</r>
       <r>   1.3207  1.0000</r>
       <r>   1.3215  1.0000</r>
       <r>   1.3223  1.0000</r>
       <r>   1.3223  1.0000</r>
       <r>   1.3248  1.0000</r>
       <r>   3.3764  1.0000</r>
       <r>   3.3769  1.0000</r>
       <r>   3.3769  1.0000</r>
       <r>   3.3775  1.0000</r>
       <r>   3.3778  1.0000</r>
       <r>   3.3784  1.0000</r>
       <r>   3.3784  1.0000</r>
       <r>   3.3789  1.0000</r>
       <r>   4.9099  1.0000</r>
       <r>   4.9099  1.0000</r>
       <r>   4.9128  1.0000</r>
       <r>   4.9128  1.0000</r>
       <r>   5.4157  1.0000</r>
       <r>   5.4157  1.0000</r>
       <r>   5.4164  1.0000</r>
       <r>   5.4165  1.0000</r>
       <r>   5.4171  1.0000</r>
       <r>   5.4173  1.0000</r>
       <r>   5.4179  1.0000</r>
       <r>   5.4179  1.0000</r>
       <r>   6.0556  1.0000</r>
       <r>   6.0565  1.0000</r>
       <r>   6.0582  1.0000</r>
       <r>   6.0591  1.0000</r>
       <r>   6.8896  1.0000</r>
       <r>   6.8896  1.0000</r>
       <r>   6.8906  1.0000</r>
       <r>   6.8918  1.0000</r>
       <r>   6.8919  1.0000</r>
       <r>   6.8931  1.0000</r>
       <r>   6.8941  1.0000</r>
       <r>   6.8941  1.0000</r>
       <r>   8.1185  0.0000</r>
       <r>   8.1196  0.0000</r>
       <r>   8.1196  0.0000</r>
       <r>   8.1197  0.0000</r>
       <r>   8.1216  0.0000</r>
       <r>   8.1217  0.0000</r>
       <r>   8.1217  0.0000</r>
       <r>   8.1229  0.0000</r>
       <r>   8.8763  0.0000</r>
       <r>   8.8763  0.0000</r>
       <r>   8.8786  0.0000</r>
       <r>   8.8786  0.0000</r>
       <r>   9.5703  0.0000</r>
       <r>   9.5719  0.0000</r>
       <r>  10.0800  0.0000</r>
       <r>  10.0814  0.0000</r>
      </set>
      <set comment="kpoint 8">
       <r>  -3.4065  1.0000</r>
       <r>  -1.6332  1.0000</r>
       <r>  -1.2838  1.0000</r>
       <r>  -1.2810  1.0000</r>
       <r>  -1.2810  1.0000</r>
       <r>  -1.2783  1.0000</r>
       <r>  -0.9297  1.0000</r>
       <r>   0.4653  1.0000</r>
       <r>   0.4681  1.0000</r>
       <r>   0.4681  1.0000</r>
       <r>   0.4709  1.0000</r>
       <r>   0.8134  1.0000</r>
       <r>   0.8145  1.0000</r>
       <r>   0.8166  1.0000</r>
       <r>   0.8177  1.0000</r>
       <r>   1.1595  1.0000</r>
       <r>   1.1622  1.0000</r>
       <r>   1.1622  1.0000</r>
       <r>   1.1650  1.0000</r>
       <r>   2.5403  1.0000</r>
       <r>   2.5414  1.0000</r>
       <r>   2.5435  1.0000</r>
       <r>   2.5446  1.0000</r>
       <r>   3.2260  1.0000</r>
       <r>   3.2271  1.0000</r>
       <r>   3.2292  1.0000</r>
       <r>   3.2303  1.0000</r>
       <r>   4.1061  1.0000</r>
       <r>   4.4308  1.0000</r>
       <r>   4.4308  1.0000</r>
       <r>   5.5486  1.0000</r>
       <r>   5.5486  1.0000</r>
       <r>   5.8710  1.0000</r>
       <r>   6.0798  1.0000</r>
       <r>   6.0800  1.0000</r>
       <r>   6.1035  1.0000</r>
       <r>   6.1064  1.0000</r>
       <r>   6.1064  1.0000</r>
       <r>   6.1095  1.0000</r>
       <r>   6.4077  1.0000</r>
       <r>   6.4103  1.0000</r>
       <r>   6.4103  1.0000</r>
       <r>   6.4129  1.0000</r>
       <r>   6.7407  1.0000</r>
       <r>   6.7407  1.0000</r>
       <r>   7.2497  0.0000</r>
       <r>   7.2498  0.0000</r>
       <r>   7.5639  0.0000</r>
       <r>   7.5663  0.0000</r>
       <r>   7.5664  0.0000</r>
       <r>   7.5687  0.0000</r>
       <r>   7.9914  0.0000</r>
       <r>   7.9930  0.0000</r>
       <r>   7.9930  0.0000</r>
       <r>   7.9946  0.0000</r>
       <r>   8.0057  0.0000</r>
       <r>   8.0057  0.0000</r>
       <r>   8.0593  0.0000</r>
       <r>   8.0619  0.0000</r>
       <r>   8.0620  0.0000</r>
       <r>   8.0646  0.0000</r>
       <r>   8.0998  0.0000</r>
       <r>   8.1013  0.0000</r>
       <r>   8.1034  0.0000</r>
       <r>   8.1050  0.0000</r>
       <r>   8.7220  0.0000</r>
       <r>   8.7231  0.0000</r>
       <r>   8.7251  0.0000</r>
      </set>
      <set comment="kpoint 9">
       <r>  -3.3917  1.0000</r>
       <r>  -1.6197  1.0000</r>
       <r>  -1.6174  1.0000</r>
       <r>  -1.2664  1.0000</r>
       <r>  -1.2664  1.0000</r>
       <r>  -0.9162  1.0000</r>
       <r>  -0.9140  1.0000</r>
       <r>   0.1344  1.0000</r>
       <r>   0.4810  1.0000</r>
       <r>   0.4819  1.0000</r>
       <r>   0.4833  1.0000</r>
       <r>   0.4842  1.0000</r>
       <r>   0.8294  1.0000</r>
       <r>   0.8305  1.0000</r>
       <r>   1.1751  1.0000</r>
       <r>   1.1760  1.0000</r>
       <r>   1.1773  1.0000</r>
       <r>   1.1783  1.0000</r>
       <r>   1.5225  1.0000</r>
       <r>   2.2129  1.0000</r>
       <r>   2.2129  1.0000</r>
       <r>   2.8941  1.0000</r>
       <r>   2.8941  1.0000</r>
       <r>   2.9056  1.0000</r>
       <r>   2.9056  1.0000</r>
       <r>   3.5841  1.0000</r>
       <r>   3.5841  1.0000</r>
       <r>   4.1196  1.0000</r>
       <r>   4.1204  1.0000</r>
       <r>   4.4445  1.0000</r>
       <r>   5.5632  1.0000</r>
       <r>   5.7868  1.0000</r>
       <r>   5.7891  1.0000</r>
       <r>   5.8850  1.0000</r>
       <r>   5.8858  1.0000</r>
       <r>   6.0923  1.0000</r>
       <r>   6.0948  1.0000</r>
       <r>   6.0985  1.0000</r>
       <r>   6.0988  1.0000</r>
       <r>   6.1435  1.0000</r>
       <r>   6.1435  1.0000</r>
       <r>   6.4503  1.0000</r>
       <r>   6.4518  1.0000</r>
       <r>   6.7532  1.0000</r>
       <r>   6.7558  1.0000</r>
       <r>   7.2824  0.0000</r>
       <r>   7.2844  0.0000</r>
       <r>   7.5488  0.0000</r>
       <r>   7.5507  0.0000</r>
       <r>   7.7452  0.0000</r>
       <r>   7.7828  0.0000</r>
       <r>   7.7838  0.0000</r>
       <r>   7.7851  0.0000</r>
       <r>   7.7860  0.0000</r>
       <r>   7.8021  0.0000</r>
       <r>   7.8021  0.0000</r>
       <r>   8.0369  0.0000</r>
       <r>   8.0380  0.0000</r>
       <r>   8.0854  0.0000</r>
       <r>   8.0855  0.0000</r>
       <r>   8.3003  0.0000</r>
       <r>   8.3021  0.0000</r>
       <r>   8.4054  0.0000</r>
       <r>   8.4073  0.0000</r>
       <r>   8.4464  0.0000</r>
       <r>   8.4474  0.0000</r>
       <r>   8.4477  0.0000</r>
       <r>   8.4487  0.0000</r>
      </set>
      <set comment="kpoint 10">
       <r>  -3.3471  1.0000</r>
       <r>  -1.9273  1.0000</r>
       <r>  -1.5745  1.0000</r>
       <r>  -1.2224  1.0000</r>
       <r>  -1.2224  1.0000</r>
       <r>  -0.8712  1.0000</r>
       <r>  -0.5210  1.0000</r>
       <r>  -0.1710  1.0000</r>
       <r>   0.1779  1.0000</r>
       <r>   0.1779  1.0000</r>
       <r>   0.5254  1.0000</r>
       <r>   0.5261  1.0000</r>
       <r>   0.5267  1.0000</r>
       <r>   1.2192  1.0000</r>
       <r>   1.2200  1.0000</r>
       <r>   1.2205  1.0000</r>
       <r>   1.5656  1.0000</r>
       <r>   1.5656  1.0000</r>
       <r>   1.9103  1.0000</r>
       <r>   1.9114  1.0000</r>
       <r>   1.9117  1.0000</r>
       <r>   2.5996  1.0000</r>
       <r>   2.5996  1.0000</r>
       <r>   3.2849  1.0000</r>
       <r>   3.2849  1.0000</r>
       <r>   3.5657  1.0000</r>
       <r>   3.9675  1.0000</r>
       <r>   3.9675  1.0000</r>
       <r>   4.1618  1.0000</r>
       <r>   4.4857  1.0000</r>
       <r>   5.2511  1.0000</r>
       <r>   5.4967  1.0000</r>
       <r>   5.5855  1.0000</r>
       <r>   5.5856  1.0000</r>
       <r>   5.6071  1.0000</r>
       <r>   5.8048  1.0000</r>
       <r>   5.9199  1.0000</r>
       <r>   5.9288  1.0000</r>
       <r>   6.1350  1.0000</r>
       <r>   6.1645  1.0000</r>
       <r>   6.1645  1.0000</r>
       <r>   6.5179  1.0000</r>
       <r>   6.7958  1.0000</r>
       <r>   6.8085  1.0000</r>
       <r>   7.0097  1.0000</r>
       <r>   7.1264  0.9921</r>
       <r>   7.2618  0.0000</r>
       <r>   7.2618  0.0000</r>
       <r>   7.2851  0.0000</r>
       <r>   7.3365  0.0000</r>
       <r>   7.4561  0.0000</r>
       <r>   7.4940  0.0000</r>
       <r>   7.4940  0.0000</r>
       <r>   7.9276  0.0000</r>
       <r>   7.9278  0.0000</r>
       <r>   7.9492  0.0000</r>
       <r>   7.9571  0.0000</r>
       <r>   7.9572  0.0000</r>
       <r>   8.1172  0.0000</r>
       <r>   8.2939  0.0000</r>
       <r>   8.3819  0.0000</r>
       <r>   8.5821  0.0000</r>
       <r>   8.5821  0.0000</r>
       <r>   8.6667  0.0000</r>
       <r>   8.6993  0.0000</r>
       <r>   8.7785  0.0000</r>
       <r>   8.8200  0.0000</r>
       <r>   8.8223  0.0000</r>
      </set>
      <set comment="kpoint 11">
       <r>  -3.2728  1.0000</r>
       <r>  -2.2073  1.0000</r>
       <r>  -1.5011  1.0000</r>
       <r>  -1.1492  1.0000</r>
       <r>  -1.1492  1.0000</r>
       <r>  -0.7982  1.0000</r>
       <r>  -0.4478  1.0000</r>
       <r>  -0.1004  1.0000</r>
       <r>  -0.0982  1.0000</r>
       <r>  -0.0968  1.0000</r>
       <r>   0.2504  1.0000</r>
       <r>   0.5985  1.0000</r>
       <r>   0.5985  1.0000</r>
       <r>   1.2921  1.0000</r>
       <r>   1.2921  1.0000</r>
       <r>   1.6358  1.0000</r>
       <r>   1.6382  1.0000</r>
       <r>   1.6395  1.0000</r>
       <r>   1.9820  1.0000</r>
       <r>   1.9820  1.0000</r>
       <r>   2.3249  1.0000</r>
       <r>   2.3274  1.0000</r>
       <r>   2.3287  1.0000</r>
       <r>   2.9835  1.0000</r>
       <r>   3.6971  1.0000</r>
       <r>   3.6971  1.0000</r>
       <r>   4.2314  1.0000</r>
       <r>   4.3781  1.0000</r>
       <r>   4.3781  1.0000</r>
       <r>   4.5543  1.0000</r>
       <r>   4.6804  1.0000</r>
       <r>   5.0175  1.0000</r>
       <r>   5.0175  1.0000</r>
       <r>   5.2329  1.0000</r>
       <r>   5.3540  1.0000</r>
       <r>   5.5436  1.0000</r>
       <r>   5.6799  1.0000</r>
       <r>   6.0005  1.0000</r>
       <r>   6.2038  1.0000</r>
       <r>   6.2335  1.0000</r>
       <r>   6.2335  1.0000</r>
       <r>   6.7010  1.0000</r>
       <r>   6.7011  1.0000</r>
       <r>   6.7124  1.0000</r>
       <r>   6.8646  1.0000</r>
       <r>   7.0235  1.0000</r>
       <r>   7.1945  0.0000</r>
       <r>   7.2301  0.0000</r>
       <r>   7.2307  0.0000</r>
       <r>   7.2310  0.0000</r>
       <r>   7.2391  0.0000</r>
       <r>   7.3698  0.0000</r>
       <r>   7.3698  0.0000</r>
       <r>   7.4111  0.0000</r>
       <r>   7.5260  0.0000</r>
       <r>   7.8556  0.0000</r>
       <r>   8.0430  0.0000</r>
       <r>   8.0430  0.0000</r>
       <r>   8.0734  0.0000</r>
       <r>   8.4331  0.0000</r>
       <r>   8.7744  0.0000</r>
       <r>   8.9383  0.0000</r>
       <r>   9.0585  0.0000</r>
       <r>   9.0592  0.0000</r>
       <r>   9.0624  0.0000</r>
       <r>   9.1004  0.0000</r>
       <r>   9.1807  0.0000</r>
       <r>   9.2225  0.0000</r>
      </set>
      <set comment="kpoint 12">
       <r>  -3.1689  1.0000</r>
       <r>  -2.4582  1.0000</r>
       <r>  -1.3984  1.0000</r>
       <r>  -1.0467  1.0000</r>
       <r>  -1.0467  1.0000</r>
       <r>  -0.6965  1.0000</r>
       <r>  -0.6953  1.0000</r>
       <r>  -0.3458  1.0000</r>
       <r>  -0.3458  1.0000</r>
       <r>   0.0034  1.0000</r>
       <r>   0.3507  1.0000</r>
       <r>   0.6999  1.0000</r>
       <r>   0.6999  1.0000</r>
       <r>   1.3924  1.0000</r>
       <r>   1.3927  1.0000</r>
       <r>   1.3936  1.0000</r>
       <r>   1.3939  1.0000</r>
       <r>   2.0815  1.0000</r>
       <r>   2.0835  1.0000</r>
       <r>   2.0837  1.0000</r>
       <r>   2.4112  1.0000</r>
       <r>   2.4256  1.0000</r>
       <r>   2.4257  1.0000</r>
       <r>   2.7687  1.0000</r>
       <r>   4.1170  1.0000</r>
       <r>   4.1362  1.0000</r>
       <r>   4.1362  1.0000</r>
       <r>   4.3289  1.0000</r>
       <r>   4.4560  1.0000</r>
       <r>   4.4560  1.0000</r>
       <r>   4.6504  1.0000</r>
       <r>   4.7941  1.0000</r>
       <r>   4.8155  1.0000</r>
       <r>   4.8155  1.0000</r>
       <r>   4.9967  1.0000</r>
       <r>   5.3099  1.0000</r>
       <r>   5.7818  1.0000</r>
       <r>   6.1010  1.0000</r>
       <r>   6.1458  1.0000</r>
       <r>   6.1458  1.0000</r>
       <r>   6.3001  1.0000</r>
       <r>   6.3305  1.0000</r>
       <r>   6.3305  1.0000</r>
       <r>   6.4736  1.0000</r>
       <r>   6.7848  1.0000</r>
       <r>   6.8170  1.0000</r>
       <r>   6.8170  1.0000</r>
       <r>   6.9599  1.0000</r>
       <r>   6.9615  1.0000</r>
       <r>   6.9956  1.0000</r>
       <r>   6.9956  1.0000</r>
       <r>   7.5122  0.0000</r>
       <r>   7.6216  0.0000</r>
       <r>   7.6629  0.0000</r>
       <r>   7.9533  0.0000</r>
       <r>   7.9846  0.0000</r>
       <r>   8.1461  0.0000</r>
       <r>   8.1461  0.0000</r>
       <r>   8.1822  0.0000</r>
       <r>   8.1939  0.0000</r>
       <r>   8.8224  0.0000</r>
       <r>   8.8224  0.0000</r>
       <r>   8.8630  0.0000</r>
       <r>   9.1940  0.0000</r>
       <r>   9.4812  0.0000</r>
       <r>   9.6102  0.0000</r>
       <r>   9.6412  0.0000</r>
       <r>   9.6470  0.0000</r>
      </set>
      <set comment="kpoint 13">
       <r>  -3.0354  1.0000</r>
       <r>  -2.6799  1.0000</r>
       <r>  -1.2664  1.0000</r>
       <r>  -0.9163  1.0000</r>
       <r>  -0.9151  1.0000</r>
       <r>  -0.9137  1.0000</r>
       <r>  -0.5658  1.0000</r>
       <r>  -0.5645  1.0000</r>
       <r>  -0.5632  1.0000</r>
       <r>  -0.2148  1.0000</r>
       <r>   0.8268  1.0000</r>
       <r>   0.8301  1.0000</r>
       <r>   0.8306  1.0000</r>
       <r>   1.1769  1.0000</r>
       <r>   1.1769  1.0000</r>
       <r>   1.5227  1.0000</r>
       <r>   1.5227  1.0000</r>
       <r>   1.8589  1.0000</r>
       <r>   1.8681  1.0000</r>
       <r>   1.8683  1.0000</r>
       <r>   2.5529  1.0000</r>
       <r>   2.8958  1.0000</r>
       <r>   2.8958  1.0000</r>
       <r>   3.2379  1.0000</r>
       <r>   3.5722  1.0000</r>
       <r>   3.9126  1.0000</r>
       <r>   3.9126  1.0000</r>
       <r>   4.2522  1.0000</r>
       <r>   4.4542  1.0000</r>
       <r>   4.6017  1.0000</r>
       <r>   4.6017  1.0000</r>
       <r>   4.7740  1.0000</r>
       <r>   4.7882  1.0000</r>
       <r>   5.1037  1.0000</r>
       <r>   5.2791  1.0000</r>
       <r>   5.2792  1.0000</r>
       <r>   5.6082  1.0000</r>
       <r>   5.6082  1.0000</r>
       <r>   5.9125  1.0000</r>
       <r>   6.2300  1.0000</r>
       <r>   6.2590  1.0000</r>
       <r>   6.2816  1.0000</r>
       <r>   6.2817  1.0000</r>
       <r>   6.4238  1.0000</r>
       <r>   6.4552  1.0000</r>
       <r>   6.4552  1.0000</r>
       <r>   6.5724  1.0000</r>
       <r>   6.7541  1.0000</r>
       <r>   6.7878  1.0000</r>
       <r>   6.7879  1.0000</r>
       <r>   7.0847  1.0000</r>
       <r>   7.4151  0.0000</r>
       <r>   7.6410  0.0000</r>
       <r>   7.9820  0.0000</r>
       <r>   8.1171  0.0000</r>
       <r>   8.2746  0.0000</r>
       <r>   8.2746  0.0000</r>
       <r>   8.3127  0.0000</r>
       <r>   8.4084  0.0000</r>
       <r>   8.6126  0.0000</r>
       <r>   8.6126  0.0000</r>
       <r>   8.6526  0.0000</r>
       <r>   8.7707  0.0000</r>
       <r>   9.1061  0.0000</r>
       <r>   9.4018  0.0000</r>
       <r>   9.6353  0.0000</r>
       <r>   9.9222  0.0000</r>
       <r>  10.0659  0.0000</r>
      </set>
      <set comment="kpoint 14">
       <r>  -2.8737  1.0000</r>
       <r>  -2.8710  1.0000</r>
       <r>  -1.1066  1.0000</r>
       <r>  -1.1039  1.0000</r>
       <r>  -0.7562  1.0000</r>
       <r>  -0.7551  1.0000</r>
       <r>  -0.7535  1.0000</r>
       <r>  -0.7524  1.0000</r>
       <r>  -0.4055  1.0000</r>
       <r>  -0.4028  1.0000</r>
       <r>   0.9872  1.0000</r>
       <r>   0.9883  1.0000</r>
       <r>   0.9899  1.0000</r>
       <r>   0.9910  1.0000</r>
       <r>   1.3298  1.0000</r>
       <r>   1.3312  1.0000</r>
       <r>   1.6792  1.0000</r>
       <r>   1.6803  1.0000</r>
       <r>   1.6819  1.0000</r>
       <r>   1.6830  1.0000</r>
       <r>   3.0494  1.0000</r>
       <r>   3.0509  1.0000</r>
       <r>   3.3911  1.0000</r>
       <r>   3.3912  1.0000</r>
       <r>   3.3926  1.0000</r>
       <r>   3.3926  1.0000</r>
       <r>   3.7321  1.0000</r>
       <r>   3.7335  1.0000</r>
       <r>   4.6059  1.0000</r>
       <r>   4.6087  1.0000</r>
       <r>   4.9237  1.0000</r>
       <r>   4.9265  1.0000</r>
       <r>   5.0920  1.0000</r>
       <r>   5.0921  1.0000</r>
       <r>   5.0935  1.0000</r>
       <r>   5.0936  1.0000</r>
       <r>   5.7675  1.0000</r>
       <r>   5.7675  1.0000</r>
       <r>   5.7690  1.0000</r>
       <r>   5.7690  1.0000</r>
       <r>   6.0704  1.0000</r>
       <r>   6.0730  1.0000</r>
       <r>   6.3859  1.0000</r>
       <r>   6.3886  1.0000</r>
       <r>   6.5737  1.0000</r>
       <r>   6.5766  1.0000</r>
       <r>   6.6056  1.0000</r>
       <r>   6.6070  1.0000</r>
       <r>   6.6084  1.0000</r>
       <r>   6.6098  1.0000</r>
       <r>   7.2347  0.0000</r>
       <r>   7.2376  0.0000</r>
       <r>   7.7963  0.0000</r>
       <r>   7.7989  0.0000</r>
       <r>   8.4283  0.0000</r>
       <r>   8.4290  0.0000</r>
       <r>   8.4310  0.0000</r>
       <r>   8.4317  0.0000</r>
       <r>   8.4679  0.0000</r>
       <r>   8.4705  0.0000</r>
       <r>   8.5975  0.0000</r>
       <r>   8.5995  0.0000</r>
       <r>   8.8901  0.0000</r>
       <r>   8.8923  0.0000</r>
       <r>   9.5840  0.0000</r>
       <r>   9.5856  0.0000</r>
       <r>  10.0940  0.0000</r>
       <r>  10.0946  0.0000</r>
      </set>
      <set comment="kpoint 15">
       <r>  -3.3620  1.0000</r>
       <r>  -1.9421  1.0000</r>
       <r>  -1.2398  1.0000</r>
       <r>  -1.2371  1.0000</r>
       <r>  -1.2371  1.0000</r>
       <r>  -1.2343  1.0000</r>
       <r>  -0.5355  1.0000</r>
       <r>   0.1606  1.0000</r>
       <r>   0.1634  1.0000</r>
       <r>   0.1634  1.0000</r>
       <r>   0.1662  1.0000</r>
       <r>   0.8568  1.0000</r>
       <r>   0.8579  1.0000</r>
       <r>   0.8600  1.0000</r>
       <r>   0.8611  1.0000</r>
       <r>   1.5484  1.0000</r>
       <r>   1.5512  1.0000</r>
       <r>   1.5512  1.0000</r>
       <r>   1.5540  1.0000</r>
       <r>   2.2394  1.0000</r>
       <r>   2.2405  1.0000</r>
       <r>   2.2426  1.0000</r>
       <r>   2.2437  1.0000</r>
       <r>   3.5516  1.0000</r>
       <r>   3.6102  1.0000</r>
       <r>   3.6113  1.0000</r>
       <r>   3.6135  1.0000</r>
       <r>   3.6145  1.0000</r>
       <r>   4.4720  1.0000</r>
       <r>   4.4720  1.0000</r>
       <r>   5.5693  1.0000</r>
       <r>   5.5723  1.0000</r>
       <r>   5.5723  1.0000</r>
       <r>   5.5752  1.0000</r>
       <r>   5.5924  1.0000</r>
       <r>   5.5924  1.0000</r>
       <r>   5.7911  1.0000</r>
       <r>   5.7911  1.0000</r>
       <r>   6.4490  1.0000</r>
       <r>   6.4515  1.0000</r>
       <r>   6.4516  1.0000</r>
       <r>   6.4541  1.0000</r>
       <r>   6.5037  1.0000</r>
       <r>   6.9682  1.0000</r>
       <r>   6.9683  1.0000</r>
       <r>   7.1126  1.0000</r>
       <r>   7.1126  1.0000</r>
       <r>   7.5788  0.0000</r>
       <r>   7.5802  0.0000</r>
       <r>   7.5823  0.0000</r>
       <r>   7.5836  0.0000</r>
       <r>   7.6492  0.0000</r>
       <r>   7.6514  0.0000</r>
       <r>   7.6514  0.0000</r>
       <r>   7.6535  0.0000</r>
       <r>   7.7702  0.0000</r>
       <r>   7.7728  0.0000</r>
       <r>   7.7729  0.0000</r>
       <r>   7.7755  0.0000</r>
       <r>   8.3647  0.0000</r>
       <r>   8.3647  0.0000</r>
       <r>   8.5585  0.0000</r>
       <r>   8.5608  0.0000</r>
       <r>   8.5609  0.0000</r>
       <r>   8.5632  0.0000</r>
       <r>   9.0183  0.0000</r>
       <r>   9.0199  0.0000</r>
       <r>   9.0232  0.0000</r>
      </set>
      <set comment="kpoint 16">
       <r>  -3.3471  1.0000</r>
       <r>  -1.9273  1.0000</r>
       <r>  -1.5745  1.0000</r>
       <r>  -1.2224  1.0000</r>
       <r>  -1.2224  1.0000</r>
       <r>  -0.8712  1.0000</r>
       <r>  -0.5210  1.0000</r>
       <r>  -0.1710  1.0000</r>
       <r>   0.1779  1.0000</r>
       <r>   0.1779  1.0000</r>
       <r>   0.5246  1.0000</r>
       <r>   0.5261  1.0000</r>
       <r>   0.5274  1.0000</r>
       <r>   1.2184  1.0000</r>
       <r>   1.2200  1.0000</r>
       <r>   1.2213  1.0000</r>
       <r>   1.5656  1.0000</r>
       <r>   1.5656  1.0000</r>
       <r>   1.9103  1.0000</r>
       <r>   1.9114  1.0000</r>
       <r>   1.9117  1.0000</r>
       <r>   2.5996  1.0000</r>
       <r>   2.5996  1.0000</r>
       <r>   3.2849  1.0000</r>
       <r>   3.2849  1.0000</r>
       <r>   3.5657  1.0000</r>
       <r>   3.9675  1.0000</r>
       <r>   3.9675  1.0000</r>
       <r>   4.1618  1.0000</r>
       <r>   4.4857  1.0000</r>
       <r>   5.2511  1.0000</r>
       <r>   5.4967  1.0000</r>
       <r>   5.5856  1.0000</r>
       <r>   5.5856  1.0000</r>
       <r>   5.6070  1.0000</r>
       <r>   5.8048  1.0000</r>
       <r>   5.9201  1.0000</r>
       <r>   5.9286  1.0000</r>
       <r>   6.1349  1.0000</r>
       <r>   6.1646  1.0000</r>
       <r>   6.1646  1.0000</r>
       <r>   6.5179  1.0000</r>
       <r>   6.7958  1.0000</r>
       <r>   6.8085  1.0000</r>
       <r>   7.0097  1.0000</r>
       <r>   7.1264  0.9920</r>
       <r>   7.2618  0.0000</r>
       <r>   7.2618  0.0000</r>
       <r>   7.2851  0.0000</r>
       <r>   7.3365  0.0000</r>
       <r>   7.4560  0.0000</r>
       <r>   7.4940  0.0000</r>
       <r>   7.4940  0.0000</r>
       <r>   7.9279  0.0000</r>
       <r>   7.9279  0.0000</r>
       <r>   7.9488  0.0000</r>
       <r>   7.9571  0.0000</r>
       <r>   7.9574  0.0000</r>
       <r>   8.1172  0.0000</r>
       <r>   8.2939  0.0000</r>
       <r>   8.3819  0.0000</r>
       <r>   8.5821  0.0000</r>
       <r>   8.5821  0.0000</r>
       <r>   8.6666  0.0000</r>
       <r>   8.6993  0.0000</r>
       <r>   8.7783  0.0000</r>
       <r>   8.8200  0.0000</r>
       <r>   8.8204  0.0000</r>
      </set>
      <set comment="kpoint 17">
       <r>  -3.3025  1.0000</r>
       <r>  -1.8843  1.0000</r>
       <r>  -1.8821  1.0000</r>
       <r>  -1.1785  1.0000</r>
       <r>  -1.1785  1.0000</r>
       <r>  -0.4789  1.0000</r>
       <r>  -0.4771  1.0000</r>
       <r>  -0.4753  1.0000</r>
       <r>   0.2199  1.0000</r>
       <r>   0.2208  1.0000</r>
       <r>   0.2222  1.0000</r>
       <r>   0.2231  1.0000</r>
       <r>   0.9160  1.0000</r>
       <r>   0.9170  1.0000</r>
       <r>   1.6065  1.0000</r>
       <r>   1.6078  1.0000</r>
       <r>   1.6090  1.0000</r>
       <r>   1.6090  1.0000</r>
       <r>   1.6102  1.0000</r>
       <r>   1.6114  1.0000</r>
       <r>   2.2977  1.0000</r>
       <r>   2.9819  1.0000</r>
       <r>   2.9819  1.0000</r>
       <r>   2.9886  1.0000</r>
       <r>   2.9886  1.0000</r>
       <r>   3.6075  1.0000</r>
       <r>   3.6085  1.0000</r>
       <r>   4.3501  1.0000</r>
       <r>   4.3501  1.0000</r>
       <r>   4.5269  1.0000</r>
       <r>   4.9561  1.0000</r>
       <r>   4.9584  1.0000</r>
       <r>   5.5941  1.0000</r>
       <r>   5.5942  1.0000</r>
       <r>   5.6507  1.0000</r>
       <r>   5.6649  1.0000</r>
       <r>   5.6650  1.0000</r>
       <r>   5.8448  1.0000</r>
       <r>   5.8473  1.0000</r>
       <r>   6.2919  1.0000</r>
       <r>   6.2932  1.0000</r>
       <r>   6.5600  1.0000</r>
       <r>   6.5610  1.0000</r>
       <r>   6.9682  1.0000</r>
       <r>   6.9691  1.0000</r>
       <r>   6.9705  1.0000</r>
       <r>   6.9714  1.0000</r>
       <r>   7.0441  1.0000</r>
       <r>   7.0459  1.0000</r>
       <r>   7.1652  0.0010</r>
       <r>   7.1674  0.0003</r>
       <r>   7.1696  0.0001</r>
       <r>   7.8825  0.0000</r>
       <r>   7.8843  0.0000</r>
       <r>   8.3004  0.0000</r>
       <r>   8.3015  0.0000</r>
       <r>   8.3015  0.0000</r>
       <r>   8.3026  0.0000</r>
       <r>   8.4055  0.0000</r>
       <r>   8.4416  0.0000</r>
       <r>   8.4428  0.0000</r>
       <r>   8.4724  0.0000</r>
       <r>   8.4725  0.0000</r>
       <r>   8.4883  0.0000</r>
       <r>   8.4902  0.0000</r>
       <r>   8.7178  0.0000</r>
       <r>   8.7178  0.0000</r>
       <r>   9.2654  0.0000</r>
      </set>
      <set comment="kpoint 18">
       <r>  -3.2283  1.0000</r>
       <r>  -2.1631  1.0000</r>
       <r>  -1.8096  1.0000</r>
       <r>  -1.1053  1.0000</r>
       <r>  -1.1053  1.0000</r>
       <r>  -0.7542  1.0000</r>
       <r>  -0.4043  1.0000</r>
       <r>  -0.0568  1.0000</r>
       <r>  -0.0546  1.0000</r>
       <r>  -0.0531  1.0000</r>
       <r>   0.2941  1.0000</r>
       <r>   0.2941  1.0000</r>
       <r>   0.6416  1.0000</r>
       <r>   1.3333  1.0000</r>
       <r>   1.3356  1.0000</r>
       <r>   1.3370  1.0000</r>
       <r>   1.6807  1.0000</r>
       <r>   1.6807  1.0000</r>
       <r>   2.0251  1.0000</r>
       <r>   2.0251  1.0000</r>
       <r>   2.7110  1.0000</r>
       <r>   2.7137  1.0000</r>
       <r>   2.7149  1.0000</r>
       <r>   3.0261  1.0000</r>
       <r>   3.3982  1.0000</r>
       <r>   3.3982  1.0000</r>
       <r>   3.6785  1.0000</r>
       <r>   4.3846  1.0000</r>
       <r>   4.5955  1.0000</r>
       <r>   4.6909  1.0000</r>
       <r>   4.7598  1.0000</r>
       <r>   4.7598  1.0000</r>
       <r>   5.0588  1.0000</r>
       <r>   5.0588  1.0000</r>
       <r>   5.5848  1.0000</r>
       <r>   5.7018  1.0000</r>
       <r>   5.7018  1.0000</r>
       <r>   5.7235  1.0000</r>
       <r>   5.7308  1.0000</r>
       <r>   5.9148  1.0000</r>
       <r>   6.4078  1.0000</r>
       <r>   6.4078  1.0000</r>
       <r>   6.6314  1.0000</r>
       <r>   6.6491  1.0000</r>
       <r>   6.7053  1.0000</r>
       <r>   6.7054  1.0000</r>
       <r>   6.8216  1.0000</r>
       <r>   6.9054  1.0000</r>
       <r>   7.1156  1.0000</r>
       <r>   7.2365  0.0000</r>
       <r>   7.2725  0.0000</r>
       <r>   7.5673  0.0000</r>
       <r>   7.6383  0.0000</r>
       <r>   7.7447  0.0000</r>
       <r>   7.7448  0.0000</r>
       <r>   8.1384  0.0000</r>
       <r>   8.2276  0.0000</r>
       <r>   8.3905  0.0000</r>
       <r>   8.6433  0.0000</r>
       <r>   8.6433  0.0000</r>
       <r>   8.7015  0.0000</r>
       <r>   8.7020  0.0000</r>
       <r>   8.7064  0.0000</r>
       <r>   8.8208  0.0000</r>
       <r>   8.8888  0.0000</r>
       <r>   9.3114  0.0000</r>
       <r>   9.3114  0.0000</r>
       <r>   9.4712  0.0000</r>
      </set>
      <set comment="kpoint 19">
       <r>  -3.1244  1.0000</r>
       <r>  -2.4139  1.0000</r>
       <r>  -1.7067  1.0000</r>
       <r>  -1.0041  1.0000</r>
       <r>  -1.0028  1.0000</r>
       <r>  -1.0015  1.0000</r>
       <r>  -0.3035  1.0000</r>
       <r>  -0.3021  1.0000</r>
       <r>  -0.3009  1.0000</r>
       <r>   0.3928  1.0000</r>
       <r>   0.3953  1.0000</r>
       <r>   0.3956  1.0000</r>
       <r>   0.3969  1.0000</r>
       <r>   1.0903  1.0000</r>
       <r>   1.0903  1.0000</r>
       <r>   1.7798  1.0000</r>
       <r>   1.7814  1.0000</r>
       <r>   1.7817  1.0000</r>
       <r>   2.4540  1.0000</r>
       <r>   2.4677  1.0000</r>
       <r>   2.4682  1.0000</r>
       <r>   2.4707  1.0000</r>
       <r>   2.4714  1.0000</r>
       <r>   3.1537  1.0000</r>
       <r>   3.7771  1.0000</r>
       <r>   3.8198  1.0000</r>
[...]
       <r>   1.8530  1.0000</r>
       <r>   2.1886  1.0000</r>
       <r>   2.1906  1.0000</r>
       <r>   2.1922  1.0000</r>
       <r>   2.1925  1.0000</r>
       <r>   2.1926  1.0000</r>
       <r>   2.1929  1.0000</r>
       <r>   2.1945  1.0000</r>
       <r>   2.1965  1.0000</r>
       <r>   2.5323  1.0000</r>
       <r>   2.5343  1.0000</r>
       <r>   2.5359  1.0000</r>
       <r>   2.5362  1.0000</r>
       <r>   2.5362  1.0000</r>
       <r>   2.5365  1.0000</r>
       <r>   2.5381  1.0000</r>
       <r>   2.5401  1.0000</r>
       <r>   2.8723  1.0000</r>
       <r>   2.8746  1.0000</r>
       <r>   2.8751  1.0000</r>
       <r>   2.8774  1.0000</r>
       <r>   5.9276  1.0000</r>
       <r>   5.9297  1.0000</r>
       <r>   5.9314  1.0000</r>
       <r>   5.9316  1.0000</r>
       <r>   5.9317  1.0000</r>
       <r>   5.9320  1.0000</r>
       <r>   5.9336  1.0000</r>
       <r>   5.9357  1.0000</r>
       <r>   6.2631  1.0000</r>
       <r>   6.2641  1.0000</r>
       <r>   6.2646  1.0000</r>
       <r>   6.2656  1.0000</r>
       <r>   6.5994  1.0000</r>
       <r>   6.6004  1.0000</r>
       <r>   6.6009  1.0000</r>
       <r>   6.6019  1.0000</r>
       <r>   6.9255  1.0000</r>
       <r>   6.9277  1.0000</r>
       <r>   6.9293  1.0000</r>
       <r>   6.9296  1.0000</r>
       <r>   6.9297  1.0000</r>
       <r>   6.9299  1.0000</r>
       <r>   6.9316  1.0000</r>
       <r>   6.9338  1.0000</r>
       <r>   9.7571  0.0000</r>
       <r>   9.7593  0.0000</r>
       <r>   9.7598  0.0000</r>
       <r>   9.7620  0.0000</r>
       <r>   9.9223  0.0000</r>
       <r>   9.9233  0.0000</r>
       <r>   9.9239  0.0000</r>
       <r>   9.9249  0.0000</r>
       <r>  10.4137  0.0000</r>
       <r>  10.4144  0.0000</r>
       <r>  10.4156  0.0000</r>
       <r>  10.4166  0.0000</r>
      </set>
      <set comment="kpoint 190">
       <r>  -2.3549  1.0000</r>
       <r>  -2.3549  1.0000</r>
       <r>  -2.3549  1.0000</r>
       <r>  -2.3549  1.0000</r>
       <r>  -0.2490  1.0000</r>
       <r>  -0.2445  1.0000</r>
       <r>  -0.2445  1.0000</r>
       <r>  -0.2439  1.0000</r>
       <r>  -0.2438  1.0000</r>
       <r>  -0.2433  1.0000</r>
       <r>  -0.2433  1.0000</r>
       <r>  -0.2387  1.0000</r>
       <r>   1.8339  1.0000</r>
       <r>   1.8339  1.0000</r>
       <r>   1.8339  1.0000</r>
       <r>   1.8339  1.0000</r>
       <r>   1.8339  1.0000</r>
       <r>   1.8339  1.0000</r>
       <r>   1.8339  1.0000</r>
       <r>   1.8339  1.0000</r>
       <r>   3.8693  1.0000</r>
       <r>   3.8693  1.0000</r>
       <r>   3.8704  1.0000</r>
       <r>   3.8709  1.0000</r>
       <r>   3.8709  1.0000</r>
       <r>   3.8709  1.0000</r>
       <r>   3.8722  1.0000</r>
       <r>   3.8722  1.0000</r>
       <r>   3.9075  1.0000</r>
       <r>   3.9075  1.0000</r>
       <r>   3.9089  1.0000</r>
       <r>   3.9089  1.0000</r>
       <r>   3.9089  1.0000</r>
       <r>   3.9094  1.0000</r>
       <r>   3.9106  1.0000</r>
       <r>   3.9106  1.0000</r>
       <r>   5.4060  1.0000</r>
       <r>   5.4060  1.0000</r>
       <r>   5.4060  1.0000</r>
       <r>   5.4060  1.0000</r>
       <r>   5.9042  1.0000</r>
       <r>   5.9042  1.0000</r>
       <r>   5.9042  1.0000</r>
       <r>   5.9042  1.0000</r>
       <r>   6.5939  1.0000</r>
       <r>   6.5939  1.0000</r>
       <r>   6.5939  1.0000</r>
       <r>   6.5939  1.0000</r>
       <r>   7.9231  0.0000</r>
       <r>   7.9231  0.0000</r>
       <r>   7.9237  0.0000</r>
       <r>   7.9245  0.0000</r>
       <r>   7.9262  0.0000</r>
       <r>   7.9269  0.0000</r>
       <r>   7.9275  0.0000</r>
       <r>   7.9275  0.0000</r>
       <r>   9.3729  0.0000</r>
       <r>   9.3729  0.0000</r>
       <r>   9.3729  0.0000</r>
       <r>   9.3730  0.0000</r>
       <r>   9.3730  0.0000</r>
       <r>   9.3730  0.0000</r>
       <r>   9.3730  0.0000</r>
       <r>   9.3730  0.0000</r>
       <r>  10.0452  0.0000</r>
       <r>  10.0452  0.0000</r>
       <r>  10.0452  0.0000</r>
       <r>  10.0452  0.0000</r>
      </set>
      <set comment="kpoint 191">
       <r>  -2.3402  1.0000</r>
       <r>  -2.3401  1.0000</r>
       <r>  -2.3401  1.0000</r>
       <r>  -2.3401  1.0000</r>
       <r>  -0.5791  1.0000</r>
       <r>  -0.5791  1.0000</r>
       <r>  -0.5791  1.0000</r>
       <r>  -0.5791  1.0000</r>
       <r>   0.1197  1.0000</r>
       <r>   0.1197  1.0000</r>
       <r>   0.1197  1.0000</r>
       <r>   0.1197  1.0000</r>
       <r>   1.8482  1.0000</r>
       <r>   1.8482  1.0000</r>
       <r>   1.8482  1.0000</r>
       <r>   1.8483  1.0000</r>
       <r>   1.8483  1.0000</r>
       <r>   1.8483  1.0000</r>
       <r>   1.8483  1.0000</r>
       <r>   1.8483  1.0000</r>
       <r>   3.5626  1.0000</r>
       <r>   3.5626  1.0000</r>
       <r>   3.5627  1.0000</r>
       <r>   3.5627  1.0000</r>
       <r>   3.5627  1.0000</r>
       <r>   3.5627  1.0000</r>
       <r>   3.5627  1.0000</r>
       <r>   3.5627  1.0000</r>
       <r>   4.2446  1.0000</r>
       <r>   4.2446  1.0000</r>
       <r>   4.2447  1.0000</r>
       <r>   4.2447  1.0000</r>
       <r>   4.2447  1.0000</r>
       <r>   4.2448  1.0000</r>
       <r>   4.2449  1.0000</r>
       <r>   4.2449  1.0000</r>
       <r>   5.1073  1.0000</r>
       <r>   5.1073  1.0000</r>
       <r>   5.1073  1.0000</r>
       <r>   5.1074  1.0000</r>
       <r>   5.9237  1.0000</r>
       <r>   5.9237  1.0000</r>
       <r>   5.9237  1.0000</r>
       <r>   5.9237  1.0000</r>
       <r>   6.9129  1.0000</r>
       <r>   6.9129  1.0000</r>
       <r>   6.9129  1.0000</r>
       <r>   6.9129  1.0000</r>
       <r>   7.6056  0.0000</r>
       <r>   7.6056  0.0000</r>
       <r>   7.6056  0.0000</r>
       <r>   7.6056  0.0000</r>
       <r>   8.2721  0.0000</r>
       <r>   8.2721  0.0000</r>
       <r>   8.2721  0.0000</r>
       <r>   8.2721  0.0000</r>
       <r>   9.0907  0.0000</r>
       <r>   9.0907  0.0000</r>
       <r>   9.0909  0.0000</r>
       <r>   9.0909  0.0000</r>
       <r>   9.0909  0.0000</r>
       <r>   9.0910  0.0000</r>
       <r>   9.0911  0.0000</r>
       <r>   9.0911  0.0000</r>
       <r>  10.0735  0.0000</r>
       <r>  10.0737  0.0000</r>
       <r>  10.0740  0.0000</r>
       <r>  10.0743  0.0000</r>
      </set>
      <set comment="kpoint 192">
       <r>  -2.2959  1.0000</r>
       <r>  -2.2959  1.0000</r>
       <r>  -2.2959  1.0000</r>
       <r>  -2.2959  1.0000</r>
       <r>  -0.8859  1.0000</r>
       <r>  -0.8858  1.0000</r>
       <r>  -0.8858  1.0000</r>
       <r>  -0.8858  1.0000</r>
       <r>   0.5112  1.0000</r>
       <r>   0.5112  1.0000</r>
       <r>   0.5112  1.0000</r>
       <r>   0.5112  1.0000</r>
       <r>   1.8913  1.0000</r>
       <r>   1.8913  1.0000</r>
       <r>   1.8913  1.0000</r>
       <r>   1.8913  1.0000</r>
       <r>   1.8913  1.0000</r>
       <r>   1.8913  1.0000</r>
       <r>   1.8913  1.0000</r>
       <r>   1.8913  1.0000</r>
       <r>   3.2641  1.0000</r>
       <r>   3.2641  1.0000</r>
       <r>   3.2641  1.0000</r>
       <r>   3.2641  1.0000</r>
       <r>   3.2641  1.0000</r>
       <r>   3.2641  1.0000</r>
       <r>   3.2641  1.0000</r>
       <r>   3.2641  1.0000</r>
       <r>   4.5644  1.0000</r>
       <r>   4.5644  1.0000</r>
       <r>   4.5644  1.0000</r>
       <r>   4.5644  1.0000</r>
       <r>   4.6260  1.0000</r>
       <r>   4.6260  1.0000</r>
       <r>   4.6261  1.0000</r>
       <r>   4.6261  1.0000</r>
       <r>   4.6261  1.0000</r>
       <r>   4.6262  1.0000</r>
       <r>   4.6262  1.0000</r>
       <r>   4.6262  1.0000</r>
       <r>   5.9685  1.0000</r>
       <r>   5.9685  1.0000</r>
       <r>   5.9685  1.0000</r>
       <r>   5.9685  1.0000</r>
       <r>   7.3131  0.0000</r>
       <r>   7.3131  0.0000</r>
       <r>   7.3131  0.0000</r>
       <r>   7.3131  0.0000</r>
       <r>   7.5306  0.0000</r>
       <r>   7.5306  0.0000</r>
       <r>   7.5306  0.0000</r>
       <r>   7.5306  0.0000</r>
       <r>   8.5695  0.0000</r>
       <r>   8.5695  0.0000</r>
       <r>   8.5697  0.0000</r>
       <r>   8.5697  0.0000</r>
       <r>   8.5697  0.0000</r>
       <r>   8.5697  0.0000</r>
       <r>   8.5699  0.0000</r>
       <r>   8.5699  0.0000</r>
       <r>   8.6457  0.0000</r>
       <r>   8.6457  0.0000</r>
       <r>   8.6457  0.0000</r>
       <r>   8.6457  0.0000</r>
       <r>  10.1228  0.0000</r>
       <r>  10.1229  0.0000</r>
       <r>  10.1230  0.0000</r>
       <r>  10.1232  0.0000</r>
      </set>
      <set comment="kpoint 193">
       <r>  -2.2221  1.0000</r>
       <r>  -2.2221  1.0000</r>
       <r>  -2.2221  1.0000</r>
       <r>  -2.2221  1.0000</r>
       <r>  -1.1639  1.0000</r>
       <r>  -1.1639  1.0000</r>
       <r>  -1.1639  1.0000</r>
       <r>  -1.1639  1.0000</r>
       <r>   0.9304  1.0000</r>
       <r>   0.9305  1.0000</r>
       <r>   0.9305  1.0000</r>
       <r>   0.9305  1.0000</r>
       <r>   1.9631  1.0000</r>
       <r>   1.9631  1.0000</r>
       <r>   1.9631  1.0000</r>
       <r>   1.9631  1.0000</r>
       <r>   1.9631  1.0000</r>
       <r>   1.9631  1.0000</r>
       <r>   1.9631  1.0000</r>
       <r>   1.9631  1.0000</r>
       <r>   2.9933  1.0000</r>
       <r>   2.9933  1.0000</r>
       <r>   2.9933  1.0000</r>
       <r>   2.9933  1.0000</r>
       <r>   2.9933  1.0000</r>
       <r>   2.9933  1.0000</r>
       <r>   2.9933  1.0000</r>
       <r>   2.9933  1.0000</r>
       <r>   3.9894  1.0000</r>
       <r>   3.9894  1.0000</r>
       <r>   3.9894  1.0000</r>
       <r>   3.9895  1.0000</r>
       <r>   5.0347  1.0000</r>
       <r>   5.0347  1.0000</r>
       <r>   5.0348  1.0000</r>
       <r>   5.0348  1.0000</r>
       <r>   5.0348  1.0000</r>
       <r>   5.0348  1.0000</r>
       <r>   5.0349  1.0000</r>
       <r>   5.0349  1.0000</r>
       <r>   6.0394  1.0000</r>
       <r>   6.0394  1.0000</r>
       <r>   6.0394  1.0000</r>
       <r>   6.0394  1.0000</r>
       <r>   7.0480  1.0000</r>
       <r>   7.0480  1.0000</r>
       <r>   7.0480  1.0000</r>
       <r>   7.0480  1.0000</r>
       <r>   8.0131  0.0000</r>
       <r>   8.0131  0.0000</r>
       <r>   8.0131  0.0000</r>
       <r>   8.0132  0.0000</r>
       <r>   8.0132  0.0000</r>
       <r>   8.0132  0.0000</r>
       <r>   8.0133  0.0000</r>
       <r>   8.0133  0.0000</r>
       <r>   8.2338  0.0000</r>
       <r>   8.2338  0.0000</r>
       <r>   8.2338  0.0000</r>
       <r>   8.2339  0.0000</r>
       <r>   9.0457  0.0000</r>
       <r>   9.0457  0.0000</r>
       <r>   9.0457  0.0000</r>
       <r>   9.0457  0.0000</r>
       <r>  10.1941  0.0000</r>
       <r>  10.1942  0.0000</r>
       <r>  10.1943  0.0000</r>
       <r>  10.1944  0.0000</r>
      </set>
      <set comment="kpoint 194">
       <r>  -2.1190  1.0000</r>
       <r>  -2.1189  1.0000</r>
       <r>  -2.1189  1.0000</r>
       <r>  -2.1189  1.0000</r>
       <r>  -1.4131  1.0000</r>
       <r>  -1.4131  1.0000</r>
       <r>  -1.4131  1.0000</r>
       <r>  -1.4131  1.0000</r>
       <r>   1.3770  1.0000</r>
       <r>   1.3771  1.0000</r>
       <r>   1.3771  1.0000</r>
       <r>   1.3771  1.0000</r>
       <r>   2.0635  1.0000</r>
       <r>   2.0635  1.0000</r>
       <r>   2.0635  1.0000</r>
       <r>   2.0635  1.0000</r>
       <r>   2.0635  1.0000</r>
       <r>   2.0635  1.0000</r>
       <r>   2.0635  1.0000</r>
       <r>   2.0635  1.0000</r>
       <r>   2.7506  1.0000</r>
       <r>   2.7506  1.0000</r>
       <r>   2.7506  1.0000</r>
       <r>   2.7506  1.0000</r>
       <r>   2.7506  1.0000</r>
       <r>   2.7506  1.0000</r>
       <r>   2.7506  1.0000</r>
       <r>   2.7506  1.0000</r>
       <r>   3.4226  1.0000</r>
       <r>   3.4226  1.0000</r>
       <r>   3.4226  1.0000</r>
       <r>   3.4227  1.0000</r>
       <r>   5.4701  1.0000</r>
       <r>   5.4701  1.0000</r>
       <r>   5.4702  1.0000</r>
       <r>   5.4702  1.0000</r>
       <r>   5.4702  1.0000</r>
       <r>   5.4702  1.0000</r>
       <r>   5.4702  1.0000</r>
       <r>   5.4702  1.0000</r>
       <r>   6.1380  1.0000</r>
       <r>   6.1380  1.0000</r>
       <r>   6.1380  1.0000</r>
       <r>   6.1380  1.0000</r>
       <r>   6.8105  1.0000</r>
       <r>   6.8105  1.0000</r>
       <r>   6.8105  1.0000</r>
       <r>   6.8105  1.0000</r>
       <r>   7.4625  0.0000</r>
       <r>   7.4625  0.0000</r>
       <r>   7.4627  0.0000</r>
       <r>   7.4627  0.0000</r>
       <r>   7.4627  0.0000</r>
       <r>   7.4627  0.0000</r>
       <r>   7.4628  0.0000</r>
       <r>   7.4628  0.0000</r>
       <r>   8.9806  0.0000</r>
       <r>   8.9806  0.0000</r>
       <r>   8.9806  0.0000</r>
       <r>   8.9806  0.0000</r>
       <r>   9.4719  0.0000</r>
       <r>   9.4719  0.0000</r>
       <r>   9.4719  0.0000</r>
       <r>   9.4719  0.0000</r>
       <r>  10.2913  0.0000</r>
       <r>  10.2914  0.0000</r>
       <r>  10.2914  0.0000</r>
       <r>  10.2915  0.0000</r>
      </set>
      <set comment="kpoint 195">
       <r>  -1.9864  1.0000</r>
       <r>  -1.9863  1.0000</r>
       <r>  -1.9863  1.0000</r>
       <r>  -1.9863  1.0000</r>
       <r>  -1.6333  1.0000</r>
       <r>  -1.6333  1.0000</r>
       <r>  -1.6333  1.0000</r>
       <r>  -1.6333  1.0000</r>
       <r>   1.8505  1.0000</r>
       <r>   1.8505  1.0000</r>
       <r>   1.8505  1.0000</r>
       <r>   1.8505  1.0000</r>
       <r>   2.1925  1.0000</r>
       <r>   2.1925  1.0000</r>
       <r>   2.1925  1.0000</r>
       <r>   2.1926  1.0000</r>
       <r>   2.1926  1.0000</r>
       <r>   2.1926  1.0000</r>
       <r>   2.1926  1.0000</r>
       <r>   2.1926  1.0000</r>
       <r>   2.5362  1.0000</r>
       <r>   2.5362  1.0000</r>
       <r>   2.5362  1.0000</r>
       <r>   2.5362  1.0000</r>
       <r>   2.5362  1.0000</r>
       <r>   2.5362  1.0000</r>
       <r>   2.5362  1.0000</r>
       <r>   2.5362  1.0000</r>
       <r>   2.8748  1.0000</r>
       <r>   2.8748  1.0000</r>
       <r>   2.8748  1.0000</r>
       <r>   2.8749  1.0000</r>
       <r>   5.9316  1.0000</r>
       <r>   5.9316  1.0000</r>
       <r>   5.9317  1.0000</r>
       <r>   5.9317  1.0000</r>
       <r>   5.9317  1.0000</r>
       <r>   5.9317  1.0000</r>
       <r>   5.9318  1.0000</r>
       <r>   5.9318  1.0000</r>
       <r>   6.2643  1.0000</r>
       <r>   6.2643  1.0000</r>
       <r>   6.2643  1.0000</r>
       <r>   6.2643  1.0000</r>
       <r>   6.6006  1.0000</r>
       <r>   6.6006  1.0000</r>
       <r>   6.6006  1.0000</r>
       <r>   6.6006  1.0000</r>
       <r>   6.9295  1.0000</r>
       <r>   6.9295  1.0000</r>
       <r>   6.9296  1.0000</r>
       <r>   6.9296  1.0000</r>
       <r>   6.9296  1.0000</r>
       <r>   6.9296  1.0000</r>
       <r>   6.9297  1.0000</r>
       <r>   6.9297  1.0000</r>
       <r>   9.7595  0.0000</r>
       <r>   9.7595  0.0000</r>
       <r>   9.7595  0.0000</r>
       <r>   9.7595  0.0000</r>
       <r>   9.9236  0.0000</r>
       <r>   9.9236  0.0000</r>
       <r>   9.9236  0.0000</r>
       <r>   9.9236  0.0000</r>
       <r>  10.4152  0.0000</r>
       <r>  10.4152  0.0000</r>
       <r>  10.4153  0.0000</r>
       <r>  10.4154  0.0000</r>
      </set>
      <set comment="kpoint 196">
       <r>  -1.8290  1.0000</r>
       <r>  -1.8249  1.0000</r>
       <r>  -1.8249  1.0000</r>
       <r>  -1.8245  1.0000</r>
       <r>  -1.8244  1.0000</r>
       <r>  -1.8240  1.0000</r>
       <r>  -1.8240  1.0000</r>
       <r>  -1.8199  1.0000</r>
       <r>   2.3401  1.0000</r>
       <r>   2.3463  1.0000</r>
       <r>   2.3463  1.0000</r>
       <r>   2.3494  1.0000</r>
       <r>   2.3497  1.0000</r>
       <r>   2.3497  1.0000</r>
       <r>   2.3501  1.0000</r>
       <r>   2.3501  1.0000</r>
       <r>   2.3501  1.0000</r>
       <r>   2.3501  1.0000</r>
       <r>   2.3501  1.0000</r>
       <r>   2.3501  1.0000</r>
       <r>   2.3502  1.0000</r>
       <r>   2.3502  1.0000</r>
       <r>   2.3502  1.0000</r>
       <r>   2.3502  1.0000</r>
       <r>   2.3502  1.0000</r>
       <r>   2.3502  1.0000</r>
       <r>   2.3506  1.0000</r>
       <r>   2.3506  1.0000</r>
       <r>   2.3509  1.0000</r>
       <r>   2.3540  1.0000</r>
       <r>   2.3540  1.0000</r>
       <r>   2.3602  1.0000</r>
       <r>   6.4128  1.0000</r>
       <r>   6.4128  1.0000</r>
       <r>   6.4145  1.0000</r>
       <r>   6.4166  1.0000</r>
       <r>   6.4179  1.0000</r>
       <r>   6.4183  1.0000</r>
       <r>   6.4183  1.0000</r>
       <r>   6.4183  1.0000</r>
       <r>   6.4185  1.0000</r>
       <r>   6.4185  1.0000</r>
       <r>   6.4185  1.0000</r>
       <r>   6.4186  1.0000</r>
       <r>   6.4186  1.0000</r>
       <r>   6.4186  1.0000</r>
       <r>   6.4186  1.0000</r>
       <r>   6.4186  1.0000</r>
       <r>   6.4188  1.0000</r>
       <r>   6.4188  1.0000</r>
       <r>   6.4189  1.0000</r>
       <r>   6.4192  1.0000</r>
       <r>   6.4205  1.0000</r>
       <r>   6.4226  1.0000</r>
       <r>   6.4243  1.0000</r>
       <r>   6.4243  1.0000</r>
       <r>  10.3987  0.0000</r>
       <r>  10.3987  0.0000</r>
       <r>  10.3988  0.0000</r>
       <r>  10.3993  0.0000</r>
       <r>  10.4007  0.0000</r>
       <r>  10.4014  0.0000</r>
       <r>  10.4014  0.0000</r>
       <r>  10.4015  0.0000</r>
       <r>  10.5638  0.0000</r>
       <r>  10.5648  0.0000</r>
       <r>  10.5658  0.0000</r>
       <r>  10.5663  0.0000</r>
      </set>
     </set>
    </set>
   </array>
  </eigenvalues>
 </calculation>
 <structure name="finalpos" >
  <crystal>
   <varray name="basis" >
    <v>       8.31685112      0.00000000      0.00000000</v>
    <v>       0.00000000      8.31685112      0.00000000</v>
    <v>       0.00000000      0.00000000      8.31685112</v>
   </varray>
   <i name="volume">    575.27669668</i>
   <varray name="rec_basis" >
    <v>       0.12023781      0.00000000      0.00000000</v>
    <v>       0.00000000      0.12023781      0.00000000</v>
    <v>       0.00000000      0.00000000      0.12023781</v>
   </varray>
  </crystal>
  <varray name="positions" >
   <v>       0.25120238      0.25000000      0.00000000</v>
   <v>       0.75000000      0.25000000      0.00000000</v>
   <v>       0.25000000      0.75000000      0.00000000</v>
   <v>       0.75000000      0.75000000      0.00000000</v>
   <v>       0.25000000      0.25000000      0.50000000</v>
   <v>       0.75000000      0.25000000      0.50000000</v>
   <v>       0.25000000      0.75000000      0.50000000</v>
   <v>       0.75000000      0.75000000      0.50000000</v>
   <v>       0.25000000      0.00000000      0.25000000</v>
   <v>       0.75000000      0.00000000      0.25000000</v>
   <v>       0.25000000      0.50000000      0.25000000</v>
   <v>       0.75000000      0.50000000      0.25000000</v>
   <v>       0.25000000      0.00000000      0.75000000</v>
   <v>       0.75000000      0.00000000      0.75000000</v>
   <v>       0.25000000      0.50000000      0.75000000</v>
   <v>       0.75000000      0.50000000      0.75000000</v>
   <v>       0.00000000      0.25000000      0.25000000</v>
   <v>       0.50000000      0.25000000      0.25000000</v>
   <v>       0.00000000      0.75000000      0.25000000</v>
   <v>       0.50000000      0.75000000      0.25000000</v>
   <v>       0.00000000      0.25000000      0.75000000</v>
   <v>       0.50000000      0.25000000      0.75000000</v>
   <v>       0.00000000      0.75000000      0.75000000</v>
   <v>       0.50000000      0.75000000      0.75000000</v>
   <v>       0.00000000      0.00000000      0.00000000</v>
   <v>       0.50000000      0.00000000      0.00000000</v>
   <v>       0.00000000      0.50000000      0.00000000</v>
   <v>       0.50000000      0.50000000      0.00000000</v>
   <v>       0.00000000      0.00000000      0.50000000</v>
   <v>       0.50000000      0.00000000      0.50000000</v>
   <v>       0.00000000      0.50000000      0.50000000</v>
   <v>       0.50000000      0.50000000      0.50000000</v>
  </varray>
 </structure>
</modeling>
