 running on    4 nodes
 distr:  one band on    1 nodes,    4 groups
 vasp.4.6.28 25Jul05 complex 
 POSCAR found :  1 types and   32 ions

 ----------------------------------------------------------------------------- 
|                                                                             |
|  ADVICE TO THIS USER RUNNING 'VASP/VAMP'   (HEAR YOUR MASTER'S VOICE ...):  |
|                                                                             |
|      You have a (more or less) 'large supercell' and for larger cells       |
|      it might be more efficient to use real space projection operators      |
|      So try LREAL= Auto  in the INCAR   file.                               |
|      Mind: If you want to do an extremely accurate calculations keep the    |
|      reciprocal projection scheme          (i.e. LREAL=.FALSE.)             |
|                                                                             |
 ----------------------------------------------------------------------------- 

 LDA part: xc-table for Pade appr. of Perdew
 POSCAR, INCAR and KPOINTS ok, starting setup
 FFT: planning ...           1
 reading WAVECAR
 WARNING: random wavefunctions but no delay for mixing, default for NELMDL
 entering main loop
       N       E                     dE             d eps       ncg     rms          rms(c)
DAV:   1     0.150341385553E+03    0.15034E+03   -0.34039E+04 26656   0.112E+03
DAV:   2    -0.102409416424E+03   -0.25275E+03   -0.23625E+03 31324   0.154E+02
DAV:   3    -0.116870548363E+03   -0.14461E+02   -0.13701E+02 32804   0.296E+01
DAV:   4    -0.117168972079E+03   -0.29842E+00   -0.29531E+00 31256   0.431E+00
DAV:   5    -0.117172945943E+03   -0.39739E-02   -0.39676E-02 31500   0.554E-01    0.570E+00
DAV:   6    -0.116673179653E+03    0.49977E+00   -0.30169E-02 30764   0.573E-01    0.355E+00
DAV:   7    -0.116313868112E+03    0.35931E+00   -0.96125E-02 28948   0.940E-01    0.135E-01
DAV:   8    -0.116314079402E+03   -0.21129E-03   -0.10515E-03 32292   0.139E-01    0.557E-02
DAV:   9    -0.116314112881E+03   -0.33479E-04   -0.73501E-05 30764   0.241E-02    0.557E-03
DAV:  10    -0.116314116729E+03   -0.38477E-05   -0.49288E-06 31744   0.726E-03    0.212E-03
DAV:  11    -0.116314115858E+03    0.87044E-06   -0.30851E-07 31128   0.179E-03    0.851E-04
DAV:  12    -0.116314115546E+03    0.31263E-06   -0.19141E-08 20764   0.497E-04    0.152E-04
DAV:  13    -0.116314115438E+03    0.10732E-06   -0.28177E-09 17516   0.207E-04    0.312E-05
DAV:  14    -0.116314115425E+03    0.13518E-07   -0.46997E-10 17156   0.764E-05    0.105E-05
DAV:  15    -0.116314115421E+03    0.35748E-08   -0.93853E-11 16972   0.379E-05
   1 F= -.11631412E+03 E0= -.11631391E+03  d E =-.416417E-03
