  32  32   0   0
  0.1410542E+02  0.7670882E-09  0.7670882E-09  0.7670882E-09  0.5000000E-15
  1.000000000000000E-004
  CAR 
 unknown system                          
     14.62341939     -3.34198610  301      9.74789978      1.00000000
     -3.342  0.0000E+00  0.0000E+00
     -3.282  0.0000E+00  0.0000E+00
     -3.222  0.0000E+00  0.0000E+00
     -3.162  0.0000E+00  0.0000E+00
     -3.102  0.0000E+00  0.0000E+00
     -3.043  0.0000E+00  0.0000E+00
     -2.983  0.0000E+00  0.0000E+00
     -2.923  0.0000E+00  0.0000E+00
     -2.863  0.0000E+00  0.0000E+00
     -2.803  0.0000E+00  0.0000E+00
     -2.743  0.0000E+00  0.0000E+00
     -2.683  0.0000E+00  0.0000E+00
     -2.623  0.0000E+00  0.0000E+00
     -2.563  0.6834E-09  0.4092E-10
     -2.504  0.1113E+00  0.6668E-02
     -2.444  0.6210E+00  0.4386E-01
     -2.384  0.9830E+00  0.1027E+00
     -2.324  0.1569E+01  0.1967E+00
     -2.264  0.1560E+01  0.2901E+00
     -2.204  0.1680E+01  0.3907E+00
     -2.144  0.2078E+01  0.5152E+00
     -2.084  0.1283E+01  0.5920E+00
     -2.025  0.2457E+01  0.7392E+00
     -1.965  0.2122E+01  0.8662E+00
     -1.905  0.2893E+01  0.1039E+01
     -1.845  0.2376E+01  0.1182E+01
     -1.785  0.3225E+01  0.1375E+01
     -1.725  0.2794E+01  0.1542E+01
     -1.665  0.1680E+01  0.1643E+01
     -1.605  0.3585E+01  0.1858E+01
     -1.545  0.3482E+01  0.2066E+01
     -1.486  0.2871E+01  0.2238E+01
     -1.426  0.3276E+01  0.2434E+01
     -1.366  0.3890E+01  0.2667E+01
     -1.306  0.3829E+01  0.2897E+01
     -1.246  0.2369E+01  0.3039E+01
     -1.186  0.4613E+01  0.3315E+01
     -1.126  0.2359E+01  0.3456E+01
     -1.066  0.4517E+01  0.3727E+01
     -1.006  0.3689E+01  0.3948E+01
     -0.947  0.5986E+01  0.4306E+01
     -0.887  0.3028E+01  0.4487E+01
     -0.827  0.2638E+01  0.4645E+01
     -0.767  0.5956E+01  0.5002E+01
     -0.707  0.3477E+01  0.5210E+01
     -0.647  0.4432E+01  0.5476E+01
     -0.587  0.4144E+01  0.5724E+01
     -0.527  0.4606E+01  0.6000E+01
     -0.468  0.5110E+01  0.6306E+01
     -0.408  0.4461E+01  0.6573E+01
     -0.348  0.5107E+01  0.6879E+01
     -0.288  0.4300E+01  0.7136E+01
     -0.228  0.4950E+01  0.7433E+01
     -0.168  0.4705E+01  0.7715E+01
     -0.108  0.5489E+01  0.8043E+01
     -0.048  0.3400E+01  0.8247E+01
      0.012  0.6484E+01  0.8635E+01
      0.071  0.6342E+01  0.9015E+01
      0.131  0.5303E+01  0.9333E+01
      0.191  0.4302E+01  0.9590E+01
      0.251  0.4003E+01  0.9830E+01
      0.311  0.6392E+01  0.1021E+02
      0.371  0.4715E+01  0.1050E+02
      0.431  0.6854E+01  0.1091E+02
      0.491  0.6718E+01  0.1131E+02
      0.551  0.3362E+01  0.1151E+02
      0.610  0.7424E+01  0.1195E+02
      0.670  0.6029E+01  0.1231E+02
      0.730  0.5806E+01  0.1266E+02
      0.790  0.2765E+01  0.1283E+02
      0.850  0.7969E+01  0.1331E+02
      0.910  0.5339E+01  0.1363E+02
      0.970  0.6755E+01  0.1403E+02
      1.030  0.7776E+01  0.1450E+02
      1.089  0.6730E+01  0.1490E+02
      1.149  0.5482E+01  0.1523E+02
      1.209  0.4450E+01  0.1549E+02
      1.269  0.5971E+01  0.1585E+02
      1.329  0.5998E+01  0.1621E+02
      1.389  0.7386E+01  0.1665E+02
      1.449  0.7479E+01  0.1710E+02
      1.509  0.7951E+01  0.1758E+02
      1.569  0.6253E+01  0.1795E+02
      1.628  0.4751E+01  0.1824E+02
      1.688  0.8054E+01  0.1872E+02
      1.748  0.6272E+01  0.1909E+02
      1.808  0.6837E+01  0.1950E+02
      1.868  0.4764E+01  0.1979E+02
      1.928  0.8071E+01  0.2027E+02
      1.988  0.6730E+01  0.2067E+02
      2.048  0.8601E+01  0.2119E+02
      2.108  0.9449E+01  0.2176E+02
      2.167  0.5217E+01  0.2207E+02
      2.227  0.7329E+01  0.2251E+02
      2.287  0.7186E+01  0.2294E+02
      2.347  0.5740E+01  0.2328E+02
      2.407  0.5421E+01  0.2361E+02
      2.467  0.8925E+01  0.2414E+02
      2.527  0.8347E+01  0.2464E+02
      2.587  0.9824E+01  0.2523E+02
      2.646  0.6193E+01  0.2560E+02
      2.706  0.8766E+01  0.2612E+02
      2.766  0.7343E+01  0.2656E+02
      2.826  0.5429E+01  0.2689E+02
      2.886  0.8905E+01  0.2742E+02
      2.946  0.5863E+01  0.2777E+02
      3.006  0.8549E+01  0.2829E+02
      3.066  0.8724E+01  0.2881E+02
      3.126  0.9314E+01  0.2937E+02
      3.185  0.5996E+01  0.2973E+02
      3.245  0.7872E+01  0.3020E+02
      3.305  0.1249E+02  0.3094E+02
      3.365  0.6338E+01  0.3132E+02
      3.425  0.8359E+01  0.3183E+02
      3.485  0.6968E+01  0.3224E+02
      3.545  0.9087E+01  0.3279E+02
      3.605  0.5400E+01  0.3311E+02
      3.665  0.9487E+01  0.3368E+02
      3.724  0.6750E+01  0.3408E+02
      3.784  0.1181E+02  0.3479E+02
      3.844  0.9903E+01  0.3538E+02
      3.904  0.9787E+01  0.3597E+02
      3.964  0.6960E+01  0.3639E+02
      4.024  0.7466E+01  0.3683E+02
      4.084  0.1060E+02  0.3747E+02
      4.144  0.7093E+01  0.3789E+02
      4.203  0.8759E+01  0.3842E+02
      4.263  0.8228E+01  0.3891E+02
      4.323  0.1170E+02  0.3961E+02
      4.383  0.7509E+01  0.4006E+02
      4.443  0.9914E+01  0.4065E+02
      4.503  0.9967E+01  0.4125E+02
      4.563  0.1051E+02  0.4188E+02
      4.623  0.6144E+01  0.4225E+02
      4.683  0.1454E+02  0.4312E+02
      4.742  0.8473E+01  0.4363E+02
      4.802  0.8194E+01  0.4412E+02
      4.862  0.9561E+01  0.4469E+02
      4.922  0.8956E+01  0.4523E+02
      4.982  0.8047E+01  0.4571E+02
      5.042  0.9364E+01  0.4627E+02
      5.102  0.9984E+01  0.4687E+02
      5.162  0.7661E+01  0.4733E+02
      5.222  0.1064E+02  0.4796E+02
      5.281  0.6827E+01  0.4837E+02
      5.341  0.1095E+02  0.4903E+02
      5.401  0.9494E+01  0.4960E+02
      5.461  0.8223E+01  0.5009E+02
      5.521  0.8255E+01  0.5058E+02
      5.581  0.9486E+01  0.5115E+02
      5.641  0.1155E+02  0.5184E+02
      5.701  0.1242E+02  0.5259E+02
      5.760  0.1017E+02  0.5320E+02
      5.820  0.9980E+01  0.5379E+02
      5.880  0.9675E+01  0.5437E+02
      5.940  0.9245E+01  0.5493E+02
      6.000  0.8796E+01  0.5545E+02
      6.060  0.8660E+01  0.5597E+02
      6.120  0.9753E+01  0.5656E+02
      6.180  0.1261E+02  0.5731E+02
      6.240  0.1289E+02  0.5808E+02
      6.299  0.7065E+01  0.5851E+02
      6.359  0.1316E+02  0.5929E+02
      6.419  0.1200E+02  0.6001E+02
      6.479  0.6111E+01  0.6038E+02
      6.539  0.1384E+02  0.6121E+02
      6.599  0.1265E+02  0.6197E+02
      6.659  0.1003E+02  0.6257E+02
      6.719  0.1341E+02  0.6337E+02
      6.779  0.1080E+02  0.6402E+02
      6.838  0.1085E+02  0.6467E+02
      6.898  0.8410E+01  0.6517E+02
      6.958  0.1208E+02  0.6589E+02
      7.018  0.9991E+01  0.6649E+02
      7.078  0.9710E+01  0.6707E+02
      7.138  0.1220E+02  0.6780E+02
      7.198  0.1256E+02  0.6856E+02
      7.258  0.1023E+02  0.6917E+02
      7.317  0.8001E+01  0.6965E+02
      7.377  0.9662E+01  0.7023E+02
      7.437  0.8994E+01  0.7076E+02
      7.497  0.1483E+02  0.7165E+02
      7.557  0.1030E+02  0.7227E+02
      7.617  0.8749E+01  0.7279E+02
      7.677  0.9638E+01  0.7337E+02
      7.737  0.9693E+01  0.7395E+02
      7.797  0.1116E+02  0.7462E+02
      7.856  0.8889E+01  0.7515E+02
      7.916  0.1092E+02  0.7581E+02
      7.976  0.1030E+02  0.7642E+02
      8.036  0.1130E+02  0.7710E+02
      8.096  0.1234E+02  0.7784E+02
      8.156  0.7193E+01  0.7827E+02
      8.216  0.1136E+02  0.7895E+02
      8.276  0.1094E+02  0.7961E+02
      8.336  0.1033E+02  0.8022E+02
      8.395  0.1256E+02  0.8098E+02
      8.455  0.9099E+01  0.8152E+02
      8.515  0.1426E+02  0.8238E+02
      8.575  0.1353E+02  0.8319E+02
      8.635  0.1086E+02  0.8384E+02
      8.695  0.1355E+02  0.8465E+02
      8.755  0.9490E+01  0.8522E+02
      8.815  0.1137E+02  0.8590E+02
      8.874  0.1493E+02  0.8679E+02
      8.934  0.9742E+01  0.8738E+02
      8.994  0.1438E+02  0.8824E+02
      9.054  0.7208E+01  0.8867E+02
      9.114  0.1080E+02  0.8931E+02
      9.174  0.1411E+02  0.9016E+02
      9.234  0.9459E+01  0.9073E+02
      9.294  0.1132E+02  0.9140E+02
      9.354  0.8962E+01  0.9194E+02
      9.413  0.1098E+02  0.9260E+02
      9.473  0.1092E+02  0.9325E+02
      9.533  0.1139E+02  0.9393E+02
      9.593  0.7617E+01  0.9439E+02
      9.653  0.1007E+02  0.9499E+02
      9.713  0.1010E+02  0.9560E+02
      9.773  0.1036E+02  0.9622E+02
      9.833  0.9306E+01  0.9678E+02
      9.893  0.1257E+02  0.9753E+02
      9.952  0.1318E+02  0.9832E+02
     10.012  0.1479E+02  0.9920E+02
     10.072  0.1582E+02  0.1002E+03
     10.132  0.1059E+02  0.1008E+03
     10.192  0.8464E+01  0.1013E+03
     10.252  0.1215E+02  0.1020E+03
     10.312  0.1359E+02  0.1028E+03
     10.372  0.1480E+02  0.1037E+03
     10.431  0.1338E+02  0.1045E+03
     10.491  0.1229E+02  0.1053E+03
     10.551  0.1574E+02  0.1062E+03
     10.611  0.7270E+01  0.1066E+03
     10.671  0.8826E+01  0.1072E+03
     10.731  0.1073E+02  0.1078E+03
     10.791  0.1169E+02  0.1085E+03
     10.851  0.9974E+01  0.1091E+03
     10.911  0.1827E+02  0.1102E+03
     10.970  0.1758E+02  0.1113E+03
     11.030  0.1550E+02  0.1122E+03
     11.090  0.1051E+02  0.1128E+03
     11.150  0.1133E+02  0.1135E+03
     11.210  0.8822E+01  0.1140E+03
     11.270  0.1136E+02  0.1147E+03
     11.330  0.1144E+02  0.1154E+03
     11.390  0.8502E+01  0.1159E+03
     11.450  0.1235E+02  0.1166E+03
     11.509  0.1463E+02  0.1175E+03
     11.569  0.1157E+02  0.1182E+03
     11.629  0.1571E+02  0.1191E+03
     11.689  0.9665E+01  0.1197E+03
     11.749  0.1312E+02  0.1205E+03
     11.809  0.1276E+02  0.1213E+03
     11.869  0.1282E+02  0.1220E+03
     11.929  0.1278E+02  0.1228E+03
     11.988  0.9994E+01  0.1234E+03
     12.048  0.1412E+02  0.1242E+03
     12.108  0.1246E+02  0.1250E+03
     12.168  0.9051E+01  0.1255E+03
     12.228  0.1132E+02  0.1262E+03
     12.288  0.9350E+01  0.1268E+03
     12.348  0.2147E+02  0.1281E+03
     12.408  0.7676E+01  0.1285E+03
     12.468  0.9897E+01  0.1291E+03
     12.527  0.1073E+02  0.1298E+03
     12.587  0.1440E+02  0.1306E+03
     12.647  0.1520E+02  0.1315E+03
     12.707  0.9938E+01  0.1321E+03
     12.767  0.1244E+02  0.1329E+03
     12.827  0.7660E+01  0.1333E+03
     12.887  0.5850E+01  0.1337E+03
     12.947  0.9618E+01  0.1343E+03
     13.007  0.6765E+01  0.1347E+03
     13.066  0.5039E+01  0.1350E+03
     13.126  0.5519E+01  0.1353E+03
     13.186  0.2839E+01  0.1355E+03
     13.246  0.2552E+01  0.1356E+03
     13.306  0.1725E+01  0.1357E+03
     13.366  0.1628E+01  0.1358E+03
     13.426  0.8883E+00  0.1359E+03
     13.486  0.1405E+01  0.1359E+03
     13.545  0.1802E+00  0.1360E+03
     13.605  0.2018E-01  0.1360E+03
     13.665  0.4437E+00  0.1360E+03
     13.725  0.0000E+00  0.1360E+03
     13.785  0.3396E-01  0.1360E+03
     13.845  0.1593E+00  0.1360E+03
     13.905  0.0000E+00  0.1360E+03
     13.965  0.0000E+00  0.1360E+03
     14.025  0.0000E+00  0.1360E+03
     14.084  0.0000E+00  0.1360E+03
     14.144  0.0000E+00  0.1360E+03
     14.204  0.0000E+00  0.1360E+03
     14.264  0.0000E+00  0.1360E+03
     14.324  0.0000E+00  0.1360E+03
     14.384  0.0000E+00  0.1360E+03
     14.444  0.0000E+00  0.1360E+03
     14.504  0.0000E+00  0.1360E+03
     14.564  0.0000E+00  0.1360E+03
     14.623  0.0000E+00  0.1360E+03
