   32   32    1    1
  0.1410542E+02  0.7670882E-09  0.7670882E-09  0.7670882E-09  0.5000000E-15
  1.000000000000000E-004
  CAR 
 unknown system                          
   96  196   68
 
  0.0000000E+00  0.0000000E+00  0.0000000E+00  0.5787037E-03
   1       -2.5254
   2       -0.0421
   3       -0.0380
   4       -0.0380
   5       -0.0380
   6       -0.0380
   7       -0.0340
   8        2.3904
   9        2.3949
  10        2.3949
  11        2.3968
  12        2.3970
  13        2.3970
  14        2.3970
  15        2.3970
  16        2.3972
  17        2.3991
  18        2.3991
  19        2.4036
  20        4.5017
  21        4.5017
  22        4.5017
  23        4.5017
  24        5.1328
  25        5.1328
  26        5.1328
  27        5.1329
  28        6.4354
  29        6.4354
  30        6.4355
  31        8.0622
  32        8.0623
  33        8.0623
  34        8.6885
  35        8.6885
  36        8.6933
  37        8.6933
  38        8.6935
  39        8.6935
  40        8.6935
  41        8.6935
  42        8.6937
  43        8.6937
  44        8.6984
  45        8.6984
  46        9.6049
  47        9.6096
  48        9.6096
  49        9.6096
  50        9.6096
  51        9.6143
  52       10.9633
  53       10.9633
  54       10.9646
  55       10.9675
  56       10.9677
  57       10.9677
  58       10.9677
  59       10.9677
  60       10.9678
  61       10.9708
  62       10.9720
  63       10.9720
  64       11.7789
  65       11.7793
  66       11.7793
  67       11.7793
  68       11.7807
 
  0.8333333E-01  0.0000000E+00  0.0000000E+00  0.1157407E-02
   1       -2.5079
   2       -0.4318
   3       -0.0210
   4       -0.0209
   5       -0.0209
   6       -0.0209
   7        0.3884
   8        2.0116
   9        2.0117
  10        2.0117
  11        2.0117
  12        2.4137
  13        2.4137
  14        2.4137
  15        2.4137
  16        2.8141
  17        2.8141
  18        2.8141
  19        2.8141
  20        4.3258
  21        4.3258
  22        4.3258
  23        4.3258
  24        5.3405
  25        5.3405
  26        5.3405
  27        5.3405
  28        6.1314
  29        6.4511
  30        6.4511
  31        8.0781
  32        8.0781
  33        8.3320
  34        8.3320
  35        8.3751
  36        8.3753
  37        8.3753
  38        8.3753
  39        8.3955
  40        8.7092
  41        8.7092
  42        8.7092
  43        8.7092
  44        9.0867
  45        9.0867
  46        9.5528
  47        9.5529
  48        9.8555
  49        9.8555
  50        9.8555
  51        9.8555
  52       10.6038
  53       10.6038
  54       10.6039
  55       10.6039
  56       10.7204
  57       10.7205
  58       10.7205
  59       10.7205
  60       11.3633
  61       11.3633
  62       11.3633
  63       11.3633
  64       11.8650
  65       11.8799
  66       11.8973
  67       11.8973
  68       11.8974
 
  0.1666667E+00  0.0000000E+00  0.0000000E+00  0.1157407E-02
   1       -2.4556
   2       -0.7925
   3        0.0303
   4        0.0303
   5        0.0303
   6        0.0303
   7        0.8470
   8        1.6586
   9        1.6587
  10        1.6587
  11        1.6587
  12        2.4638
  13        2.4638
  14        2.4638
  15        2.4638
  16        3.2625
  17        3.2625
  18        3.2625
  19        3.2625
  20        4.0262
  21        4.0262
  22        4.0262
  23        4.0262
  24        5.5351
  25        5.7353
  26        5.7353
  27        5.7353
  28        5.7353
  29        6.4980
  30        6.4980
  31        7.7980
  32        7.7980
  33        7.7980
  34        7.7980
  35        8.0022
  36        8.0022
  37        8.1254
  38        8.1254
  39        8.7565
  40        8.7565
  41        8.7565
  42        8.7565
  43        9.0788
  44        9.4057
  45        9.4057
  46        9.5115
  47        9.5115
  48       10.1897
  49       10.1899
  50       10.1899
  51       10.1900
  52       10.2139
  53       10.2140
  54       10.2140
  55       10.2143
  56       10.2719
  57       10.2719
  58       10.2720
  59       10.2720
  60       11.7907
  61       11.7907
  62       11.7907
  63       11.7907
  64       12.0988
  65       12.0988
  66       12.2535
  67       12.2564
  68       12.2600
 
  0.2500000E+00  0.0000000E+00  0.0000000E+00  0.1157407E-02
   1       -2.3684
   2       -1.1198
   3        0.1157
   4        0.1157
   5        0.1157
   6        0.1157
   7        1.3352
   8        1.3382
   9        1.3382
  10        1.3382
  11        1.3405
  12        2.5471
  13        2.5471
  14        2.5471
  15        2.5471
  16        3.7279
  17        3.7285
  18        3.7285
  19        3.7287
  20        3.7414
  21        3.7416
  22        3.7416
  23        3.7422
  24        4.8831
  25        6.1913
  26        6.1913
  27        6.1913
  28        6.1913
  29        6.5762
  30        6.5762
  31        7.1753
  32        7.1753
  33        7.1753
  34        7.1753
  35        7.7041
  36        7.7041
  37        8.2039
  38        8.2039
  39        8.8353
  40        8.8353
  41        8.8353
  42        8.8353
  43        9.2112
  44        9.2112
  45        9.5818
  46        9.5818
  47        9.5819
  48        9.5819
  49        9.8760
  50        9.9668
  51        9.9668
  52        9.9716
  53        9.9716
  54        9.9730
  55        9.9730
  56       10.4991
  57       10.4991
  58       10.4991
  59       10.4991
  60       11.9512
  61       11.9512
  62       11.9512
  63       11.9512
  64       12.2500
  65       12.2500
  66       12.2500
  67       12.2501
  68       12.4367
 
  0.3333333E+00  0.0000000E+00  0.0000000E+00  0.1157407E-02
   1       -2.2464
   2       -1.4134
   3        0.2351
   4        0.2351
   5        0.2351
   6        0.2351
   7        1.0508
   8        1.0508
   9        1.0508
  10        1.0508
  11        1.8589
  12        2.6636
  13        2.6637
  14        2.6637
  15        2.6637
  16        3.4545
  17        3.4545
  18        3.4545
  19        3.4545
  20        4.2325
  21        4.2502
  22        4.2502
  23        4.2502
  24        4.2502
  25        6.5513
  26        6.5513
  27        6.5514
  28        6.5514
  29        6.6843
  30        6.6843
  31        6.6867
  32        6.6867
  33        6.6881
  34        6.6881
  35        7.4375
  36        7.4375
  37        8.3124
  38        8.3124
  39        8.9453
  40        8.9453
  41        8.9456
  42        8.9457
  43        8.9635
  44        8.9637
  45        8.9639
  46        8.9639
  47        9.0028
  48        9.0029
  49        9.7031
  50        9.7031
  51        9.7031
  52        9.7031
  53       10.4563
  54       10.4563
  55       10.7295
  56       10.7296
  57       10.7297
  58       10.7297
  59       10.7299
  60       11.6635
  61       11.6635
  62       11.6635
  63       11.6635
  64       12.7187
  65       12.7202
  66       12.7411
  67       12.7411
  68       12.7420
 
  0.4166667E+00  0.0000000E+00  0.0000000E+00  0.1157407E-02
   1       -2.0898
   2       -1.6731
   3        0.3884
   4        0.3885
   5        0.3885
   6        0.3885
   7        0.7965
   8        0.7965
   9        0.7965
  10        0.7965
  11        2.4106
  12        2.8131
  13        2.8131
  14        2.8131
  15        2.8131
  16        3.2093
  17        3.2093
  18        3.2093
  19        3.2093
  20        3.5999
  21        4.7876
  22        4.7876
  23        4.7876
  24        4.7876
  25        5.9413
  26        5.9413
  27        5.9413
  28        5.9413
  29        6.8265
  30        6.8265
  31        7.2021
  32        7.2021
  33        7.2151
  34        7.2151
  35        7.2154
  36        7.2154
  37        8.3575
  38        8.3575
  39        8.3575
  40        8.3575
  41        8.4497
  42        8.4497
  43        8.7999
  44        8.7999
  45        9.0876
  46        9.0876
  47        9.0876
  48        9.0876
  49        9.4663
  50        9.4663
  51        9.4663
  52        9.4663
  53       10.9435
  54       10.9435
  55       10.9435
  56       10.9435
  57       10.9760
  58       10.9760
  59       11.4019
  60       11.4019
  61       11.4019
  62       11.4019
  63       11.6235
  64       12.1081
  65       12.1081
  66       13.2638
  67       13.2642
  68       13.2684
 
  0.5000000E+00  0.0000000E+00  0.0000000E+00  0.5787037E-03
   1       -1.9002
   2       -1.8970
   3        0.5713
   4        0.5747
   5        0.5747
   6        0.5756
   7        0.5758
   8        0.5766
   9        0.5766
  10        0.5800
  11        2.9883
  12        2.9915
  13        2.9938
  14        2.9938
  15        2.9940
  16        2.9947
  17        2.9957
  18        2.9966
  19        2.9966
  20        2.9996
  21        5.3511
  22        5.3511
  23        5.3519
  24        5.3521
  25        5.3522
  26        5.3523
  27        5.3530
  28        5.3530
  29        6.9970
  30        6.9970
  31        7.0004
  32        7.0004
  33        7.7722
  34        7.7722
  35        7.7724
  36        7.7730
  37        7.7732
  38        7.7739
  39        7.7740
  40        7.7740
  41        8.6112
  42        8.6126
  43        8.6143
  44        8.6157
  45        9.2585
  46        9.2585
  47        9.2594
  48        9.2611
  49        9.2612
  50        9.2629
  51        9.2638
  52        9.2638
  53       11.1614
  54       11.1623
  55       11.1623
  56       11.1624
  57       11.1651
  58       11.1653
  59       11.1653
  60       11.1662
  61       11.5256
  62       11.5256
  63       11.5279
  64       11.5279
  65       12.5504
  66       12.5511
  67       13.7851
  68       13.7875
 
  0.0000000E+00  0.8333333E-01  0.0000000E+00  0.2314815E-02
   1       -2.5079
   2       -0.4318
   3       -0.0241
   4       -0.0209
   5       -0.0209
   6       -0.0178
   7        0.3884
   8        2.0085
   9        2.0117
  10        2.0117
  11        2.0148
  12        2.4115
  13        2.4124
  14        2.4150
  15        2.4159
  16        2.8109
  17        2.8141
  18        2.8141
  19        2.8173
  20        4.3241
  21        4.3248
  22        4.3269
  23        4.3275
  24        5.3388
  25        5.3394
  26        5.3416
  27        5.3422
  28        6.1314
  29        6.4511
  30        6.4511
  31        8.0780
  32        8.0781
  33        8.3319
  34        8.3320
  35        8.3718
  36        8.3753
  37        8.3753
  38        8.3789
  39        8.3953
  40        8.7063
  41        8.7092
  42        8.7093
  43        8.7122
  44        9.0866
  45        9.0866
  46        9.5528
  47        9.5529
  48        9.8522
  49        9.8555
  50        9.8555
  51        9.8587
  52       10.6008
  53       10.6039
  54       10.6039
  55       10.6069
  56       10.7175
  57       10.7191
  58       10.7218
  59       10.7234
  60       11.3602
  61       11.3633
  62       11.3633
  63       11.3664
  64       11.8650
  65       11.8651
  66       11.8968
  67       11.8973
  68       11.8982
 
  0.8333333E-01  0.8333333E-01  0.0000000E+00  0.4629630E-02
   1       -2.4905
   2       -0.4159
   3       -0.4133
   4       -0.0039
   5       -0.0038
   6        0.4041
   7        0.4067
   8        1.6250
   9        2.0266
  10        2.0276
  11        2.0293
  12        2.0303
  13        2.4299
  14        2.4308
  15        2.8289
  16        2.8299
  17        2.8315
  18        2.8325
  19        3.2294
  20        3.9936
  21        3.9936
  22        4.5336
  23        4.5336
  24        5.1664
  25        5.1664
  26        5.7026
  27        5.7026
  28        6.1469
  29        6.1475
  30        6.4667
  31        8.0253
  32        8.0278
  33        8.0938
  34        8.2837
  35        8.2837
  36        8.3463
  37        8.3493
  38        8.4106
  39        8.4113
  40        8.5291
  41        8.5291
  42        8.7347
  43        8.7369
  44        9.1009
  45        9.1039
  46        9.7858
  47        9.7884
  48        9.8265
  49        9.8296
  50       10.0846
  51       10.0846
  52       10.2404
  53       10.3536
  54       10.3545
  55       10.3561
  56       10.3571
  57       10.9983
  58       11.0001
  59       11.1158
  60       11.1167
  61       11.1175
  62       11.1184
  63       11.7592
  64       11.9406
  65       11.9417
  66       12.0014
  67       12.0184
  68       12.0265
 
  0.1666667E+00  0.8333333E-01  0.0000000E+00  0.4629630E-02
   1       -2.4381
   2       -0.7753
   3       -0.3632
   4        0.0474
   5        0.0474
   6        0.4565
   7        0.8640
   8        1.2707
   9        1.6755
  10        1.6755
  11        2.0780
  12        2.0788
  13        2.0794
  14        2.8798
  15        2.8805
  16        2.8812
  17        3.2789
  18        3.2790
  19        3.6629
  20        3.6629
  21        3.6758
  22        4.3904
  23        4.3904
  24        5.4067
  25        5.4067
  26        5.5511
  27        6.1266
  28        6.1266
  29        6.1946
  30        6.5136
  31        7.4476
  32        7.7022
  33        7.7908
  34        7.7908
  35        8.0180
  36        8.1409
  37        8.1655
  38        8.3950
  39        8.4576
  40        8.5102
  41        8.5102
  42        9.0500
  43        9.0940
  44        9.1497
  45        9.5273
  46        9.7029
  47        9.7175
  48        9.8231
  49        9.8231
  50        9.9087
  51       10.0218
  52       10.0219
  53       10.0493
  54       10.2970
  55       10.4561
  56       10.4562
  57       10.5883
  58       10.5884
  59       10.6669
  60       11.4263
  61       11.5452
  62       11.5452
  63       11.8989
  64       12.1472
  65       12.1870
  66       12.1881
  67       12.3036
  68       12.3258
 
  0.2500000E+00  0.8333333E-01  0.0000000E+00  0.4629630E-02
   1       -2.3509
   2       -1.1025
   3       -0.2775
   4        0.1327
   5        0.1328
   6        0.5415
   7        0.9492
   8        1.3528
   9        1.3551
  10        1.3566
  11        1.7595
  12        2.1625
  13        2.1625
  14        2.9633
  15        2.9634
  16        3.3549
  17        3.3554
  18        3.3620
  19        3.7578
  20        3.7578
  21        4.1240
  22        4.1242
  23        4.1526
  24        4.8993
  25        5.8332
  26        5.8332
  27        6.2736
  28        6.5899
  29        6.5907
  30        6.5926
  31        6.8182
  32        7.1826
  33        7.1826
  34        7.4062
  35        7.5551
  36        7.7198
  37        8.2188
  38        8.4737
  39        8.5349
  40        8.5810
  41        8.5810
  42        9.1240
  43        9.2135
  44        9.2135
  45        9.2287
  46        9.5211
  47        9.6088
  48        9.7201
  49        9.7202
  50        9.8848
  51        9.8907
  52        9.9814
  53        9.9817
  54        9.9841
  55       10.2503
  56       10.3663
  57       10.7060
  58       10.7619
  59       10.7619
  60       11.5864
  61       11.8852
  62       12.0047
  63       12.0047
  64       12.2311
  65       12.2311
  66       12.3424
  67       12.4703
  68       12.6482
 
  0.3333333E+00  0.8333333E-01  0.0000000E+00  0.4629630E-02
   1       -2.2290
   2       -1.3961
   3       -0.1577
   4        0.2521
   5        0.2522
   6        0.6600
   7        0.6612
   8        1.0677
   9        1.0677
  10        1.4731
  11        1.8757
  12        2.2796
  13        2.2796
  14        3.0764
  15        3.0766
  16        3.0792
  17        3.0794
  18        3.8600
  19        3.8601
  20        3.8725
  21        4.2489
  22        4.2663
  23        4.2663
  24        4.6586
  25        6.1882
  26        6.3203
  27        6.3203
  28        6.3842
  29        6.5635
  30        6.5635
  31        6.7013
  32        6.9406
  33        7.0888
  34        7.0888
  35        7.1400
  36        7.4531
  37        8.3264
  38        8.5837
  39        8.5942
  40        8.5945
  41        8.6419
  42        8.6896
  43        8.6896
  44        8.9846
  45        9.3198
  46        9.3387
  47        9.3409
  48        9.3646
  49        9.3647
  50        9.4502
  51        9.4502
  52       10.0975
  53       10.2912
  54       10.4301
  55       10.4721
  56       10.7438
  57       11.0043
  58       11.0043
  59       11.0210
  60       11.3026
  61       11.9446
  62       11.9446
  63       12.0497
  64       12.3760
  65       12.4914
  66       12.4952
  67       12.4956
  68       12.7355
 
  0.4166667E+00  0.8333333E-01  0.0000000E+00  0.4629630E-02
   1       -2.0724
   2       -1.6558
   3       -0.0038
   4        0.4040
   5        0.4055
   6        0.4070
   7        0.8119
   8        0.8135
   9        0.8149
  10        1.2198
  11        2.4267
  12        2.4299
  13        2.4306
  14        2.8289
  15        2.8290
  16        3.2275
  17        3.2275
  18        3.6158
  19        3.6195
  20        3.6201
  21        4.4125
  22        4.8034
  23        4.8034
  24        5.1928
  25        5.5732
  26        5.9555
  27        5.9555
  28        6.3374
  29        6.5262
  30        6.8418
  31        6.8459
  32        6.8463
  33        6.9044
  34        7.2180
  35        7.6179
  36        7.6179
  37        7.9876
  38        7.9876
  39        8.4620
  40        8.7257
  41        8.7594
  42        8.7595
  43        8.7773
  44        8.8013
  45        8.8315
  46        8.8315
  47        9.1040
  48        9.1215
  49        9.2120
  50        9.2120
  51        9.4813
  52        9.8604
  53       10.6154
  54       10.7827
  55       10.9918
  56       11.0472
  57       11.2233
  58       11.2233
  59       11.2817
  60       11.6367
  61       11.6837
  62       11.6837
  63       11.7798
  64       11.8909
  65       12.1241
  66       12.8984
  67       13.0165
  68       13.0165
 
  0.5000000E+00  0.8333333E-01  0.0000000E+00  0.2314815E-02
   1       -1.8828
   2       -1.8797
   3        0.1824
   4        0.1856
   5        0.5905
   6        0.5917
   7        0.5936
   8        0.5949
   9        0.9982
  10        1.0014
  11        2.6109
  12        2.6122
  13        2.6141
  14        2.6154
  15        3.0076
  16        3.0087
  17        3.4057
  18        3.4070
  19        3.4089
  20        3.4102
  21        4.9796
  22        4.9807
  23        5.3663
  24        5.3672
  25        5.3674
  26        5.3682
  27        5.7528
  28        5.7539
  29        6.6980
  30        6.7014
  31        7.0126
  32        7.0161
  33        7.4023
  34        7.4027
  35        7.4035
  36        7.4039
  37        8.1749
  38        8.1754
  39        8.1762
  40        8.1766
  41        8.6207
  42        8.6238
  43        8.8973
  44        8.9008
  45        8.9368
  46        8.9399
  47        9.0033
  48        9.0048
  49        9.0067
  50        9.0083
  51        9.6533
  52        9.6568
  53       10.8174
  54       10.8207
  55       11.3184
  56       11.3205
  57       11.4434
  58       11.4440
  59       11.4468
  60       11.4474
  61       11.5256
  62       11.5291
  63       11.5416
  64       11.5439
  65       12.5623
  66       12.5630
  67       13.4543
  68       13.4730
 
  0.0000000E+00  0.1666667E+00  0.0000000E+00  0.2314815E-02
   1       -2.4556
   2       -0.7925
   3        0.0272
   4        0.0303
   5        0.0303
   6        0.0334
   7        0.8470
   8        1.6555
   9        1.6587
  10        1.6587
  11        1.6618
  12        2.4616
  13        2.4625
  14        2.4651
  15        2.4659
  16        3.2593
  17        3.2625
  18        3.2625
  19        3.2657
  20        4.0242
  21        4.0250
  22        4.0275
  23        4.0283
  24        5.5351
  25        5.7332
  26        5.7340
  27        5.7366
  28        5.7374
  29        6.4980
  30        6.4980
  31        7.7945
  32        7.7980
  33        7.7980
  34        7.8014
  35        8.0022
  36        8.0023
  37        8.1254
  38        8.1254
  39        8.7535
  40        8.7565
  41        8.7566
  42        8.7595
  43        9.0788
  44        9.4056
  45        9.4057
  46        9.5115
  47        9.5115
  48       10.1873
  49       10.1886
  50       10.1913
  51       10.1927
  52       10.2108
  53       10.2139
  54       10.2139
  55       10.2170
  56       10.2689
  57       10.2719
  58       10.2720
  59       10.2750
  60       11.7876
  61       11.7907
  62       11.7908
  63       11.7939
  64       12.0988
  65       12.0988
  66       12.2554
  67       12.2568
  68       12.2637
 
  0.8333333E-01  0.1666667E+00  0.0000000E+00  0.4629630E-02
   1       -2.4381
   2       -0.7753
   3       -0.3632
   4        0.0474
   5        0.0474
   6        0.4565
   7        0.8640
   8        1.2707
   9        1.6755
  10        1.6755
  11        2.0773
  12        2.0788
  13        2.0801
  14        2.8791
  15        2.8805
  16        2.8819
  17        3.2789
  18        3.2789
  19        3.6629
  20        3.6629
  21        3.6758
  22        4.3904
  23        4.3904
  24        5.4067
  25        5.4067
  26        5.5511
  27        6.1266
  28        6.1266
  29        6.1946
  30        6.5136
  31        7.4475
  32        7.7022
  33        7.7908
  34        7.7909
  35        8.0179
  36        8.1409
  37        8.1655
  38        8.3950
  39        8.4576
  40        8.5102
  41        8.5103
  42        9.0500
  43        9.0940
  44        9.1498
  45        9.5273
  46        9.7029
  47        9.7175
  48        9.8231
  49        9.8231
  50        9.9087
  51       10.0219
  52       10.0219
  53       10.0492
  54       10.2969
  55       10.4562
  56       10.4562
  57       10.5884
  58       10.5884
  59       10.6669
  60       11.4263
  61       11.5452
  62       11.5453
  63       11.8989
  64       12.1472
  65       12.1870
  66       12.1881
  67       12.2957
  68       12.3257
 
  0.1666667E+00  0.1666667E+00  0.0000000E+00  0.4629630E-02
   1       -2.3858
   2       -0.7250
   3       -0.7224
   4        0.0986
   5        0.0986
   6        0.9130
   7        0.9151
   8        0.9169
   9        1.7242
  10        1.7252
  11        1.7268
  12        1.7278
  13        2.5299
  14        2.5308
  15        3.3218
  16        3.3221
  17        3.3269
  18        3.3276
  19        3.3293
  20        3.3304
  21        4.1199
  22        4.6292
  23        4.6292
  24        5.2669
  25        5.2669
  26        5.5988
  27        5.5996
  28        6.5580
  29        6.5587
  30        6.5612
  31        7.1205
  32        7.1231
  33        7.6652
  34        7.6652
  35        8.0636
  36        8.0666
  37        8.1360
  38        8.1361
  39        8.1871
  40        8.5273
  41        8.5297
  42        9.1390
  43        9.1399
  44        9.4859
  45        9.4869
  46        9.4886
  47        9.4897
  48        9.5727
  49        9.5755
  50        9.5785
  51        9.8738
  52        9.8756
  53       10.2598
  54       10.2628
  55       10.8987
  56       10.8987
  57       11.0166
  58       11.0175
  59       11.0182
  60       11.0192
  61       11.0928
  62       11.0946
  63       11.5598
  64       12.3058
  65       12.3065
  66       12.5671
  67       12.5671
  68       12.6151
 
  0.2500000E+00  0.1666667E+00  0.0000000E+00  0.4629630E-02
   1       -2.2987
   2       -1.0508
   3       -0.6377
   4        0.1839
   5        0.1839
   6        0.5928
   7        0.9996
   8        1.4034
   9        1.4058
  10        1.4072
  11        1.8101
  12        1.8101
  13        2.2125
  14        3.0094
  15        3.0103
  16        3.0140
  17        3.4106
  18        3.4106
  19        3.8067
  20        3.8067
  21        4.5195
  22        4.5195
  23        4.5940
  24        4.9480
  25        5.5386
  26        5.5386
  27        5.6794
  28        6.4878
  29        6.6387
  30        6.8239
  31        7.0253
  32        7.0254
  33        7.1891
  34        7.1891
  35        7.7669
  36        7.9482
  37        8.0781
  38        8.0781
  39        8.1438
  40        8.2632
  41        8.8162
  42        8.8771
  43        8.8771
  44        9.1844
  45        9.1844
  46        9.2147
  47        9.2776
  48        9.6537
  49        9.7961
  50        9.9346
  51       10.0066
  52       10.0314
  53       10.1325
  54       10.4126
  55       10.4126
  56       10.7928
  57       10.8128
  58       11.2498
  59       11.2887
  60       11.2888
  61       11.4782
  62       11.4782
  63       11.5523
  64       12.5777
  65       12.6006
  66       12.6168
  67       12.7584
  68       12.8522
 
  0.3333333E+00  0.1666667E+00  0.0000000E+00  0.4629630E-02
   1       -2.1768
   2       -1.3442
   3       -0.5176
   4        0.3019
   5        0.3033
   6        0.3048
   7        1.1168
   8        1.1185
   9        1.1198
  10        1.9246
  11        1.9273
  12        1.9276
  13        1.9291
  14        2.7291
  15        2.7291
  16        3.5249
  17        3.5253
  18        3.5264
  19        4.2869
  20        4.2871
  21        4.2982
  22        4.3145
  23        4.3146
  24        5.0968
  25        5.7914
  26        5.8534
  27        5.9957
  28        5.9958
  29        6.5556
  30        6.5961
  31        6.5962
  32        6.7483
  33        7.3513
  34        7.5001
  35        7.5241
  36        7.5242
  37        8.1619
  38        8.1619
  39        8.2531
  40        8.2572
  41        8.2579
  42        8.3676
  43        8.8932
  44        8.9130
  45        8.9131
  46        9.0097
  47        9.3185
  48        9.7643
  49        9.7968
  50        9.7969
  51        9.9597
  52        9.9669
  53       10.1471
  54       10.5190
  55       10.5244
  56       10.7858
  57       10.9697
  58       11.2623
  59       11.5837
  60       11.5837
  61       11.9688
  62       11.9688
  63       11.9953
  64       12.0427
  65       12.4577
  66       12.5658
  67       12.5658
  68       12.7831
 
  0.4166667E+00  0.1666667E+00  0.0000000E+00  0.4629630E-02
   1       -2.0202
   2       -1.6038
   3       -0.3632
   4        0.0475
   5        0.4566
   6        0.4566
   7        0.8644
   8        0.8644
   9        1.2703
  10        1.6751
  11        2.0785
  12        2.0786
  13        2.4768
  14        2.4796
  15        2.4803
  16        3.6655
  17        3.6721
  18        3.6724
  19        4.0568
  20        4.0568
  21        4.0683
  22        4.8504
  23        4.8504
  24        5.2348
  25        5.6270
  26        5.9353
  27        5.9968
  28        5.9968
  29        6.3177
  30        6.5128
  31        6.5128
  32        6.7590
  33        6.8891
  34        7.2651
  35        7.6505
  36        7.6505
  37        8.0530
  38        8.0530
  39        8.2963
  40        8.2963
  41        8.3955
  42        8.4969
  43        8.6741
  44        8.6741
  45        8.7734
  46        8.7938
  47        9.1930
  48        9.1930
  49        9.4493
  50        9.7774
  51        9.9067
  52       10.2863
  53       10.3098
  54       10.3625
  55       10.7198
  56       11.0395
  57       11.4108
  58       11.6081
  59       11.6758
  60       11.8277
  61       11.8277
  62       12.1720
  63       12.1749
  64       12.3036
  65       12.3036
  66       12.4892
  67       12.4893
  68       12.5648
 
  0.5000000E+00  0.1666667E+00  0.0000000E+00  0.2314815E-02
   1       -1.8307
   2       -1.8276
   3       -0.1764
   4       -0.1732
   5        0.6414
   6        0.6427
   7        0.6446
   8        0.6459
   9        1.4544
  10        1.4576
  11        2.2604
  12        2.2617
  13        2.2636
  14        2.2649
  15        3.0574
  16        3.0585
  17        3.8476
  18        3.8490
  19        3.8509
  20        3.8522
  21        4.6381
  22        4.6391
  23        5.4114
  24        5.4123
  25        5.4125
  26        5.4133
  27        6.1091
  28        6.1125
  29        6.1817
  30        6.1828
  31        7.0591
  32        7.0625
  33        7.0666
  34        7.0666
  35        7.0674
  36        7.0684
  37        8.4658
  38        8.4671
  39        8.4692
  40        8.4705
  41        8.5669
  42        8.5704
  43        8.6093
  44        8.6097
  45        8.6106
  46        8.6111
  47        8.6432
  48        8.6462
  49        9.6024
  50        9.6056
  51       10.0789
  52       10.0825
  53       10.4985
  54       10.5016
  55       10.8596
  56       10.8612
  57       11.5893
  58       11.5916
  59       11.8971
  60       11.9006
  61       12.0586
  62       12.0594
  63       12.0621
  64       12.0629
  65       12.5972
  66       12.5978
  67       13.0381
  68       13.0407
 
  0.0000000E+00  0.2500000E+00  0.0000000E+00  0.2314815E-02
   1       -2.3684
   2       -1.1198
   3        0.1126
   4        0.1157
   5        0.1157
   6        0.1188
   7        1.3349
   8        1.3375
   9        1.3382
  10        1.3382
  11        1.3415
  12        2.5450
  13        2.5458
  14        2.5484
  15        2.5493
  16        3.7265
  17        3.7274
  18        3.7299
  19        3.7307
  20        3.7383
  21        3.7414
  22        3.7415
  23        3.7447
  24        4.8831
  25        6.1892
  26        6.1900
  27        6.1926
  28        6.1935
  29        6.5762
  30        6.5762
  31        7.1718
  32        7.1753
  33        7.1753
  34        7.1787
  35        7.7040
  36        7.7041
  37        8.2038
  38        8.2039
  39        8.8323
  40        8.8353
  41        8.8354
  42        8.8383
  43        9.2112
  44        9.2112
  45        9.5793
  46        9.5805
  47        9.5832
  48        9.5844
  49        9.8759
  50        9.9671
  51        9.9681
  52        9.9694
  53        9.9716
  54        9.9717
  55        9.9749
  56       10.4962
  57       10.4991
  58       10.4991
  59       10.5020
  60       11.9485
  61       11.9512
  62       11.9512
  63       11.9539
  64       12.2470
  65       12.2500
  66       12.2501
  67       12.2532
  68       12.4367
 