 vasp.4.6.28 25Jul05 complex 
 executed on             LinuxIFC date 2016.10.21  16:37:27
 running on    4 nodes
 distr:  one band on    1 nodes,    4 groups


--------------------------------------------------------------------------------------------------------


 INCAR:
 POTCAR:   PAW_PBE Al 04Jan2001                   
 POTCAR:   PAW_PBE Al 04Jan2001                   
   VRHFIN =Al: s2p1                                                             
   LEXCH  = PE                                                                  
   EATOM  =    53.5387 eV,    3.9350 Ry                                         
                                                                                
   TITEL  = PAW_PBE Al 04Jan2001                                                
   LULTRA =        F    use ultrasoft PP ?                                      
   IUNSCR =        1    unscreen: 0-lin 1-nonlin 2-no                           
   RPACOR =    1.500    partial core radius                                     
   POMASS =   26.982; ZVAL   =    3.000    mass and valenz                      
   RCORE  =    1.900    outmost cutoff radius                                   
   RWIGS  =    2.650; RWIGS  =    1.402    wigner-seitz radius (au A)           
   ENMAX  =  240.300; ENMIN  =  180.225 eV                                      
   ICORE  =        2    local potential                                         
   LCOR   =        T    correct aug charges                                     
   LPAW   =        T    paw PP                                                  
   EAUG   =  291.052                                                            
   DEXC   =    -.041                                                            
   RMAX   =    2.974    core radius for proj-oper                               
   RAUG   =    1.300    factor for augmentation sphere                          
   RDEP   =    1.966    radius for radial grids                                 
   QCUT   =   -4.203; QGAM   =    8.405    optimization parameters              
                                                                                
   Description                                                                  
     l     E      TYP  RCUT    TYP  RCUT                                        
     0   .000     23  1.900                                                     
     0   .000     23  1.900                                                     
     1   .000     23  1.900                                                     
     1  1.000     23  1.900                                                     
     2   .000      7  1.900                                                     
  local pseudopotential read in
  partial core-charges read in
  atomic valenz-charges read in
  non local Contribution for L=           0  read in
    real space projection operators read in
  non local Contribution for L=           0  read in
    real space projection operators read in
  non local Contribution for L=           1  read in
    real space projection operators read in
  non local Contribution for L=           1  read in
    real space projection operators read in
    PAW grid and wavefunctions read in
 
   number of l-projection  operators is LMAX  =           4
   number of lm-projection operators is LMMAX =           8
 

 ----------------------------------------------------------------------------- 
|                                                                             |
|  ADVICE TO THIS USER RUNNING 'VASP/VAMP'   (HEAR YOUR MASTER'S VOICE ...):  |
|                                                                             |
|      You have a (more or less) 'large supercell' and for larger cells       |
|      it might be more efficient to use real space projection operators      |
|      So try LREAL= Auto  in the INCAR   file.                               |
|      Mind: If you want to do an extremely accurate calculations keep the    |
|      reciprocal projection scheme          (i.e. LREAL=.FALSE.)             |
|                                                                             |
 ----------------------------------------------------------------------------- 

 PAW_PBE Al 04Jan2001                   :
 energy of atom  1       EATOM=  -53.5387
 kinetic energy error for atom=    0.0003 (will be added to EATOM!!)
 
 EXHCAR: internal setup
 exchange correlation table for  LEXCH =        8
   RHO(1)=    0.500       N(1)  =     2000
   RHO(2)=  100.500       N(2)  =     4000
 
 POSCAR: Al                                      
  positions in direct lattice
  No initial velocities read in
 


--------------------------------------------------------------------------------------------------------


 ion  position               nearest neighbor table
   1  0.251  0.250  0.000-  18 2.71  22 2.71  26 2.71  28 2.71   9 2.71  11 2.71  13 2.71  15 2.71
                            25 2.72  21 2.72  27 2.72  17 2.72
   2  0.750  0.250  0.000-  10 2.71  12 2.71  14 2.71  16 2.71  17 2.71  18 2.71  21 2.71  22 2.71
                            25 2.71  26 2.71  27 2.71  28 2.71
   3  0.250  0.750  0.000-   9 2.71  11 2.71  13 2.71  15 2.71  19 2.71  20 2.71  23 2.71  24 2.71
                            25 2.71  26 2.71  27 2.71  28 2.71
   4  0.750  0.750  0.000-  10 2.71  12 2.71  14 2.71  16 2.71  19 2.71  20 2.71  23 2.71  24 2.71
                            25 2.71  26 2.71  27 2.71  28 2.71
   5  0.250  0.250  0.500-   9 2.71  11 2.71  13 2.71  15 2.71  17 2.71  18 2.71  21 2.71  22 2.71
                            29 2.71  30 2.71  31 2.71  32 2.71
   6  0.750  0.250  0.500-  10 2.71  12 2.71  14 2.71  16 2.71  17 2.71  18 2.71  21 2.71  22 2.71
                            29 2.71  30 2.71  31 2.71  32 2.71
   7  0.250  0.750  0.500-   9 2.71  11 2.71  13 2.71  15 2.71  19 2.71  20 2.71  23 2.71  24 2.71
                            29 2.71  30 2.71  31 2.71  32 2.71
   8  0.750  0.750  0.500-  10 2.71  12 2.71  14 2.71  16 2.71  19 2.71  20 2.71  23 2.71  24 2.71
                            29 2.71  30 2.71  31 2.71  32 2.71
   9  0.250  0.000  0.250-   3 2.71   5 2.71   7 2.71  17 2.71  18 2.71  19 2.71  20 2.71  25 2.71
                            26 2.71  29 2.71  30 2.71   1 2.71
  10  0.750  0.000  0.250-   2 2.71   4 2.71   6 2.71   8 2.71  17 2.71  18 2.71  19 2.71  20 2.71
                            25 2.71  26 2.71  29 2.71  30 2.71
  11  0.250  0.500  0.250-   3 2.71   5 2.71   7 2.71  17 2.71  18 2.71  19 2.71  20 2.71  27 2.71
                            28 2.71  31 2.71  32 2.71   1 2.71
  12  0.750  0.500  0.250-   2 2.71   4 2.71   6 2.71   8 2.71  17 2.71  18 2.71  19 2.71  20 2.71
                            27 2.71  28 2.71  31 2.71  32 2.71
  13  0.250  0.000  0.750-   3 2.71   5 2.71   7 2.71  21 2.71  22 2.71  23 2.71  24 2.71  25 2.71
                            26 2.71  29 2.71  30 2.71   1 2.71
  14  0.750  0.000  0.750-   2 2.71   4 2.71   6 2.71   8 2.71  21 2.71  22 2.71  23 2.71  24 2.71
                            25 2.71  26 2.71  29 2.71  30 2.71
  15  0.250  0.500  0.750-   3 2.71   5 2.71   7 2.71  21 2.71  22 2.71  23 2.71  24 2.71  27 2.71
                            28 2.71  31 2.71  32 2.71   1 2.71
  16  0.750  0.500  0.750-   2 2.71   4 2.71   6 2.71   8 2.71  21 2.71  22 2.71  23 2.71  24 2.71
                            27 2.71  28 2.71  31 2.71  32 2.71
  17  0.000  0.250  0.250-   2 2.71   5 2.71   6 2.71   9 2.71  10 2.71  11 2.71  12 2.71  25 2.71
                            27 2.71  29 2.71  31 2.71   1 2.72
  18  0.500  0.250  0.250-   1 2.71   2 2.71   5 2.71   6 2.71   9 2.71  10 2.71  11 2.71  12 2.71
                            26 2.71  28 2.71  30 2.71  32 2.71
  19  0.000  0.750  0.250-   3 2.71   4 2.71   7 2.71   8 2.71   9 2.71  10 2.71  11 2.71  12 2.71
                            25 2.71  27 2.71  29 2.71  31 2.71
  20  0.500  0.750  0.250-   3 2.71   4 2.71   7 2.71   8 2.71   9 2.71  10 2.71  11 2.71  12 2.71
                            26 2.71  28 2.71  30 2.71  32 2.71
  21  0.000  0.250  0.750-   2 2.71   5 2.71   6 2.71  13 2.71  14 2.71  15 2.71  16 2.71  25 2.71
                            27 2.71  29 2.71  31 2.71   1 2.72
  22  0.500  0.250  0.750-   1 2.71   2 2.71   5 2.71   6 2.71  13 2.71  14 2.71  15 2.71  16 2.71
                            26 2.71  28 2.71  30 2.71  32 2.71
  23  0.000  0.750  0.750-   3 2.71   4 2.71   7 2.71   8 2.71  13 2.71  14 2.71  15 2.71  16 2.71
                            25 2.71  27 2.71  29 2.71  31 2.71
  24  0.500  0.750  0.750-   3 2.71   4 2.71   7 2.71   8 2.71  13 2.71  14 2.71  15 2.71  16 2.71
                            26 2.71  28 2.71  30 2.71  32 2.71
  25  0.000  0.000  0.000-   2 2.71   3 2.71   4 2.71   9 2.71  10 2.71  13 2.71  14 2.71  17 2.71
                            19 2.71  21 2.71  23 2.71   1 2.72
  26  0.500  0.000  0.000-   1 2.71   2 2.71   3 2.71   4 2.71   9 2.71  10 2.71  13 2.71  14 2.71
                            18 2.71  20 2.71  22 2.71  24 2.71
  27  0.000  0.500  0.000-   2 2.71   3 2.71   4 2.71  11 2.71  12 2.71  15 2.71  16 2.71  17 2.71
                            19 2.71  21 2.71  23 2.71   1 2.72
  28  0.500  0.500  0.000-   1 2.71   2 2.71   3 2.71   4 2.71  11 2.71  12 2.71  15 2.71  16 2.71
                            18 2.71  20 2.71  22 2.71  24 2.71
  29  0.000  0.000  0.500-   5 2.71   6 2.71   7 2.71   8 2.71   9 2.71  10 2.71  13 2.71  14 2.71
                            17 2.71  19 2.71  21 2.71  23 2.71
  30  0.500  0.000  0.500-   5 2.71   6 2.71   7 2.71   8 2.71   9 2.71  10 2.71  13 2.71  14 2.71
                            18 2.71  20 2.71  22 2.71  24 2.71
  31  0.000  0.500  0.500-   5 2.71   6 2.71   7 2.71   8 2.71  11 2.71  12 2.71  15 2.71  16 2.71
                            17 2.71  19 2.71  21 2.71  23 2.71
  32  0.500  0.500  0.500-   5 2.71   6 2.71   7 2.71   8 2.71  11 2.71  12 2.71  15 2.71  16 2.71
                            18 2.71  20 2.71  22 2.71  24 2.71
 
  LATTYP: Found a simple cubic cell.
 ALAT       =     7.6708821024
  
  Lattice vectors:
  
 A1 = (   7.6708821024,   0.0000000000,   0.0000000000)
 A2 = (   0.0000000000,   7.6708821024,   0.0000000000)
 A3 = (   0.0000000000,   0.0000000000,   7.6708821024)
 Subroutine PRICEL returns:
 Original cell was already a primitive cell.
 

Analysis of symmetry for initial positions (statically):

 Routine SETGRP: Setting up the symmetry group for a 
 simple cubic supercell.


 Subroutine GETGRP returns: Found  8 space group operations
 (whereof  2 operations were pure point group operations)
 out of a pool of 48 trial point group operations.


The static configuration has the point symmetry C_1h.
 The point group associated with its full space group is C_4v.

Analysis of symmetry for dynamics (positions and initial velocities):

 Subroutine DYNSYM returns: Found  8 space group operations
 (whereof  2 operations were pure point group operations)
 out of a pool of  8 trial space group operations
 (whereof  2 operations were pure point group operations)
 and found also     1 'primitive' translations


The dynamic configuration has the point symmetry C_1h.
 The point group associated with its full space group is C_4v.
 
 
 KPOINTS: Automatic mesh                          

Automatic generation of k-mesh.
 
 Subroutine IBZKPT returns following result:
 ===========================================
 
 Found    196 irreducible k-points:
 
 Following reciprocal coordinates:
            Coordinates               Weight
  0.000000  0.000000  0.000000      1.000000
  0.083333  0.000000  0.000000      2.000000
  0.166667  0.000000  0.000000      2.000000
  0.250000  0.000000  0.000000      2.000000
  0.333333  0.000000  0.000000      2.000000
  0.416667  0.000000  0.000000      2.000000
  0.500000  0.000000  0.000000      1.000000
  0.000000  0.083333  0.000000      4.000000
  0.083333  0.083333  0.000000      8.000000
  0.166667  0.083333  0.000000      8.000000
  0.250000  0.083333  0.000000      8.000000
  0.333333  0.083333  0.000000      8.000000
  0.416667  0.083333  0.000000      8.000000
  0.500000  0.083333  0.000000      4.000000
  0.000000  0.166667  0.000000      4.000000
  0.083333  0.166667  0.000000      8.000000
  0.166667  0.166667  0.000000      8.000000
  0.250000  0.166667  0.000000      8.000000
  0.333333  0.166667  0.000000      8.000000
  0.416667  0.166667  0.000000      8.000000
  0.500000  0.166667  0.000000      4.000000
  0.000000  0.250000  0.000000      4.000000
  0.083333  0.250000  0.000000      8.000000
  0.166667  0.250000  0.000000      8.000000
  0.250000  0.250000  0.000000      8.000000
  0.333333  0.250000  0.000000      8.000000
  0.416667  0.250000  0.000000      8.000000
  0.500000  0.250000  0.000000      4.000000
  0.000000  0.333333  0.000000      4.000000
  0.083333  0.333333  0.000000      8.000000
  0.166667  0.333333  0.000000      8.000000
  0.250000  0.333333  0.000000      8.000000
  0.333333  0.333333  0.000000      8.000000
  0.416667  0.333333  0.000000      8.000000
  0.500000  0.333333  0.000000      4.000000
  0.000000  0.416667  0.000000      4.000000
  0.083333  0.416667  0.000000      8.000000
  0.166667  0.416667  0.000000      8.000000
  0.250000  0.416667  0.000000      8.000000
  0.333333  0.416667  0.000000      8.000000
  0.416667  0.416667  0.000000      8.000000
  0.500000  0.416667  0.000000      4.000000
  0.000000  0.500000  0.000000      2.000000
  0.083333  0.500000  0.000000      4.000000
  0.166667  0.500000  0.000000      4.000000
  0.250000  0.500000  0.000000      4.000000
  0.333333  0.500000  0.000000      4.000000
  0.416667  0.500000  0.000000      4.000000
  0.500000  0.500000  0.000000      2.000000
  0.000000  0.083333  0.083333      4.000000
  0.083333  0.083333  0.083333      8.000000
  0.166667  0.083333  0.083333      8.000000
  0.250000  0.083333  0.083333      8.000000
  0.333333  0.083333  0.083333      8.000000
  0.416667  0.083333  0.083333      8.000000
  0.500000  0.083333  0.083333      4.000000
  0.000000  0.166667  0.083333      8.000000
  0.083333  0.166667  0.083333     16.000000
  0.166667  0.166667  0.083333     16.000000
  0.250000  0.166667  0.083333     16.000000
  0.333333  0.166667  0.083333     16.000000
  0.416667  0.166667  0.083333     16.000000
  0.500000  0.166667  0.083333      8.000000
  0.000000  0.250000  0.083333      8.000000
  0.083333  0.250000  0.083333     16.000000
  0.166667  0.250000  0.083333     16.000000
  0.250000  0.250000  0.083333     16.000000
  0.333333  0.250000  0.083333     16.000000
  0.416667  0.250000  0.083333     16.000000
  0.500000  0.250000  0.083333      8.000000
  0.000000  0.333333  0.083333      8.000000
  0.083333  0.333333  0.083333     16.000000
  0.166667  0.333333  0.083333     16.000000
  0.250000  0.333333  0.083333     16.000000
  0.333333  0.333333  0.083333     16.000000
  0.416667  0.333333  0.083333     16.000000
  0.500000  0.333333  0.083333      8.000000
  0.000000  0.416667  0.083333      8.000000
  0.083333  0.416667  0.083333     16.000000
  0.166667  0.416667  0.083333     16.000000
  0.250000  0.416667  0.083333     16.000000
  0.333333  0.416667  0.083333     16.000000
  0.416667  0.416667  0.083333     16.000000
  0.500000  0.416667  0.083333      8.000000
  0.000000  0.500000  0.083333      4.000000
  0.083333  0.500000  0.083333      8.000000
  0.166667  0.500000  0.083333      8.000000
  0.250000  0.500000  0.083333      8.000000
  0.333333  0.500000  0.083333      8.000000
  0.416667  0.500000  0.083333      8.000000
  0.500000  0.500000  0.083333      4.000000
  0.000000  0.166667  0.166667      4.000000
  0.083333  0.166667  0.166667      8.000000
  0.166667  0.166667  0.166667      8.000000
  0.250000  0.166667  0.166667      8.000000
  0.333333  0.166667  0.166667      8.000000
  0.416667  0.166667  0.166667      8.000000
  0.500000  0.166667  0.166667      4.000000
  0.000000  0.250000  0.166667      8.000000
  0.083333  0.250000  0.166667     16.000000
  0.166667  0.250000  0.166667     16.000000
  0.250000  0.250000  0.166667     16.000000
  0.333333  0.250000  0.166667     16.000000
  0.416667  0.250000  0.166667     16.000000
  0.500000  0.250000  0.166667      8.000000
  0.000000  0.333333  0.166667      8.000000
  0.083333  0.333333  0.166667     16.000000
  0.166667  0.333333  0.166667     16.000000
  0.250000  0.333333  0.166667     16.000000
  0.333333  0.333333  0.166667     16.000000
  0.416667  0.333333  0.166667     16.000000
  0.500000  0.333333  0.166667      8.000000
  0.000000  0.416667  0.166667      8.000000
  0.083333  0.416667  0.166667     16.000000
  0.166667  0.416667  0.166667     16.000000
  0.250000  0.416667  0.166667     16.000000
  0.333333  0.416667  0.166667     16.000000
  0.416667  0.416667  0.166667     16.000000
  0.500000  0.416667  0.166667      8.000000
  0.000000  0.500000  0.166667      4.000000
  0.083333  0.500000  0.166667      8.000000
  0.166667  0.500000  0.166667      8.000000
  0.250000  0.500000  0.166667      8.000000
  0.333333  0.500000  0.166667      8.000000
  0.416667  0.500000  0.166667      8.000000
  0.500000  0.500000  0.166667      4.000000
  0.000000  0.250000  0.250000      4.000000
  0.083333  0.250000  0.250000      8.000000
  0.166667  0.250000  0.250000      8.000000
  0.250000  0.250000  0.250000      8.000000
  0.333333  0.250000  0.250000      8.000000
  0.416667  0.250000  0.250000      8.000000
  0.500000  0.250000  0.250000      4.000000
  0.000000  0.333333  0.250000      8.000000
  0.083333  0.333333  0.250000     16.000000
  0.166667  0.333333  0.250000     16.000000
  0.250000  0.333333  0.250000     16.000000
  0.333333  0.333333  0.250000     16.000000
  0.416667  0.333333  0.250000     16.000000
  0.500000  0.333333  0.250000      8.000000
  0.000000  0.416667  0.250000      8.000000
  0.083333  0.416667  0.250000     16.000000
  0.166667  0.416667  0.250000     16.000000
  0.250000  0.416667  0.250000     16.000000
  0.333333  0.416667  0.250000     16.000000
  0.416667  0.416667  0.250000     16.000000
  0.500000  0.416667  0.250000      8.000000
  0.000000  0.500000  0.250000      4.000000
  0.083333  0.500000  0.250000      8.000000
  0.166667  0.500000  0.250000      8.000000
  0.250000  0.500000  0.250000      8.000000
  0.333333  0.500000  0.250000      8.000000
  0.416667  0.500000  0.250000      8.000000
  0.500000  0.500000  0.250000      4.000000
  0.000000  0.333333  0.333333      4.000000
  0.083333  0.333333  0.333333      8.000000
  0.166667  0.333333  0.333333      8.000000
  0.250000  0.333333  0.333333      8.000000
  0.333333  0.333333  0.333333      8.000000
  0.416667  0.333333  0.333333      8.000000
  0.500000  0.333333  0.333333      4.000000
  0.000000  0.416667  0.333333      8.000000
  0.083333  0.416667  0.333333     16.000000
  0.166667  0.416667  0.333333     16.000000
  0.250000  0.416667  0.333333     16.000000
  0.333333  0.416667  0.333333     16.000000
  0.416667  0.416667  0.333333     16.000000
  0.500000  0.416667  0.333333      8.000000
  0.000000  0.500000  0.333333      4.000000
  0.083333  0.500000  0.333333      8.000000
  0.166667  0.500000  0.333333      8.000000
  0.250000  0.500000  0.333333      8.000000
  0.333333  0.500000  0.333333      8.000000
  0.416667  0.500000  0.333333      8.000000
  0.500000  0.500000  0.333333      4.000000
  0.000000  0.416667  0.416667      4.000000
  0.083333  0.416667  0.416667      8.000000
  0.166667  0.416667  0.416667      8.000000
  0.250000  0.416667  0.416667      8.000000
  0.333333  0.416667  0.416667      8.000000
  0.416667  0.416667  0.416667      8.000000
  0.500000  0.416667  0.416667      4.000000
  0.000000  0.500000  0.416667      4.000000
  0.083333  0.500000  0.416667      8.000000
  0.166667  0.500000  0.416667      8.000000
  0.250000  0.500000  0.416667      8.000000
  0.333333  0.500000  0.416667      8.000000
  0.416667  0.500000  0.416667      8.000000
  0.500000  0.500000  0.416667      4.000000
  0.000000  0.500000  0.500000      1.000000
  0.083333  0.500000  0.500000      2.000000
  0.166667  0.500000  0.500000      2.000000
  0.250000  0.500000  0.500000      2.000000
  0.333333  0.500000  0.500000      2.000000
  0.416667  0.500000  0.500000      2.000000
  0.500000  0.500000  0.500000      1.000000
 
 Following cartesian coordinates:
            Coordinates               Weight
  0.000000  0.000000  0.000000      1.000000
  0.010864  0.000000  0.000000      2.000000
  0.021727  0.000000  0.000000      2.000000
  0.032591  0.000000  0.000000      2.000000
  0.043454  0.000000  0.000000      2.000000
  0.054318  0.000000  0.000000      2.000000
  0.065182  0.000000  0.000000      1.000000
  0.000000  0.010864  0.000000      4.000000
  0.010864  0.010864  0.000000      8.000000
  0.021727  0.010864  0.000000      8.000000
  0.032591  0.010864  0.000000      8.000000
  0.043454  0.010864  0.000000      8.000000
  0.054318  0.010864  0.000000      8.000000
  0.065182  0.010864  0.000000      4.000000
  0.000000  0.021727  0.000000      4.000000
  0.010864  0.021727  0.000000      8.000000
  0.021727  0.021727  0.000000      8.000000
  0.032591  0.021727  0.000000      8.000000
  0.043454  0.021727  0.000000      8.000000
  0.054318  0.021727  0.000000      8.000000
  0.065182  0.021727  0.000000      4.000000
  0.000000  0.032591  0.000000      4.000000
  0.010864  0.032591  0.000000      8.000000
  0.021727  0.032591  0.000000      8.000000
  0.032591  0.032591  0.000000      8.000000
  0.043454  0.032591  0.000000      8.000000
  0.054318  0.032591  0.000000      8.000000
  0.065182  0.032591  0.000000      4.000000
  0.000000  0.043454  0.000000      4.000000
  0.010864  0.043454  0.000000      8.000000
  0.021727  0.043454  0.000000      8.000000
  0.032591  0.043454  0.000000      8.000000
  0.043454  0.043454  0.000000      8.000000
  0.054318  0.043454  0.000000      8.000000
  0.065182  0.043454  0.000000      4.000000
  0.000000  0.054318  0.000000      4.000000
  0.010864  0.054318  0.000000      8.000000
  0.021727  0.054318  0.000000      8.000000
  0.032591  0.054318  0.000000      8.000000
  0.043454  0.054318  0.000000      8.000000
  0.054318  0.054318  0.000000      8.000000
  0.065182  0.054318  0.000000      4.000000
  0.000000  0.065182  0.000000      2.000000
  0.010864  0.065182  0.000000      4.000000
  0.021727  0.065182  0.000000      4.000000
  0.032591  0.065182  0.000000      4.000000
  0.043454  0.065182  0.000000      4.000000
  0.054318  0.065182  0.000000      4.000000
  0.065182  0.065182  0.000000      2.000000
  0.000000  0.010864  0.010864      4.000000
  0.010864  0.010864  0.010864      8.000000
  0.021727  0.010864  0.010864      8.000000
  0.032591  0.010864  0.010864      8.000000
  0.043454  0.010864  0.010864      8.000000
  0.054318  0.010864  0.010864      8.000000
  0.065182  0.010864  0.010864      4.000000
  0.000000  0.021727  0.010864      8.000000
  0.010864  0.021727  0.010864     16.000000
  0.021727  0.021727  0.010864     16.000000
  0.032591  0.021727  0.010864     16.000000
  0.043454  0.021727  0.010864     16.000000
  0.054318  0.021727  0.010864     16.000000
  0.065182  0.021727  0.010864      8.000000
  0.000000  0.032591  0.010864      8.000000
  0.010864  0.032591  0.010864     16.000000
  0.021727  0.032591  0.010864     16.000000
  0.032591  0.032591  0.010864     16.000000
  0.043454  0.032591  0.010864     16.000000
  0.054318  0.032591  0.010864     16.000000
  0.065182  0.032591  0.010864      8.000000
  0.000000  0.043454  0.010864      8.000000
  0.010864  0.043454  0.010864     16.000000
  0.021727  0.043454  0.010864     16.000000
  0.032591  0.043454  0.010864     16.000000
  0.043454  0.043454  0.010864     16.000000
  0.054318  0.043454  0.010864     16.000000
  0.065182  0.043454  0.010864      8.000000
  0.000000  0.054318  0.010864      8.000000
  0.010864  0.054318  0.010864     16.000000
  0.021727  0.054318  0.010864     16.000000
  0.032591  0.054318  0.010864     16.000000
  0.043454  0.054318  0.010864     16.000000
  0.054318  0.054318  0.010864     16.000000
  0.065182  0.054318  0.010864      8.000000
  0.000000  0.065182  0.010864      4.000000
  0.010864  0.065182  0.010864      8.000000
  0.021727  0.065182  0.010864      8.000000
  0.032591  0.065182  0.010864      8.000000
  0.043454  0.065182  0.010864      8.000000
  0.054318  0.065182  0.010864      8.000000
  0.065182  0.065182  0.010864      4.000000
  0.000000  0.021727  0.021727      4.000000
  0.010864  0.021727  0.021727      8.000000
  0.021727  0.021727  0.021727      8.000000
  0.032591  0.021727  0.021727      8.000000
  0.043454  0.021727  0.021727      8.000000
  0.054318  0.021727  0.021727      8.000000
  0.065182  0.021727  0.021727      4.000000
  0.000000  0.032591  0.021727      8.000000
  0.010864  0.032591  0.021727     16.000000
  0.021727  0.032591  0.021727     16.000000
  0.032591  0.032591  0.021727     16.000000
  0.043454  0.032591  0.021727     16.000000
  0.054318  0.032591  0.021727     16.000000
  0.065182  0.032591  0.021727      8.000000
  0.000000  0.043454  0.021727      8.000000
  0.010864  0.043454  0.021727     16.000000
  0.021727  0.043454  0.021727     16.000000
  0.032591  0.043454  0.021727     16.000000
  0.043454  0.043454  0.021727     16.000000
  0.054318  0.043454  0.021727     16.000000
  0.065182  0.043454  0.021727      8.000000
  0.000000  0.054318  0.021727      8.000000
  0.010864  0.054318  0.021727     16.000000
  0.021727  0.054318  0.021727     16.000000
  0.032591  0.054318  0.021727     16.000000
  0.043454  0.054318  0.021727     16.000000
  0.054318  0.054318  0.021727     16.000000
  0.065182  0.054318  0.021727      8.000000
  0.000000  0.065182  0.021727      4.000000
  0.010864  0.065182  0.021727      8.000000
  0.021727  0.065182  0.021727      8.000000
  0.032591  0.065182  0.021727      8.000000
  0.043454  0.065182  0.021727      8.000000
  0.054318  0.065182  0.021727      8.000000
  0.065182  0.065182  0.021727      4.000000
  0.000000  0.032591  0.032591      4.000000
  0.010864  0.032591  0.032591      8.000000
  0.021727  0.032591  0.032591      8.000000
  0.032591  0.032591  0.032591      8.000000
  0.043454  0.032591  0.032591      8.000000
  0.054318  0.032591  0.032591      8.000000
  0.065182  0.032591  0.032591      4.000000
  0.000000  0.043454  0.032591      8.000000
  0.010864  0.043454  0.032591     16.000000
  0.021727  0.043454  0.032591     16.000000
  0.032591  0.043454  0.032591     16.000000
  0.043454  0.043454  0.032591     16.000000
  0.054318  0.043454  0.032591     16.000000
  0.065182  0.043454  0.032591      8.000000
  0.000000  0.054318  0.032591      8.000000
  0.010864  0.054318  0.032591     16.000000
  0.021727  0.054318  0.032591     16.000000
  0.032591  0.054318  0.032591     16.000000
  0.043454  0.054318  0.032591     16.000000
  0.054318  0.054318  0.032591     16.000000
  0.065182  0.054318  0.032591      8.000000
  0.000000  0.065182  0.032591      4.000000
  0.010864  0.065182  0.032591      8.000000
  0.021727  0.065182  0.032591      8.000000
  0.032591  0.065182  0.032591      8.000000
  0.043454  0.065182  0.032591      8.000000
  0.054318  0.065182  0.032591      8.000000
  0.065182  0.065182  0.032591      4.000000
  0.000000  0.043454  0.043454      4.000000
  0.010864  0.043454  0.043454      8.000000
  0.021727  0.043454  0.043454      8.000000
  0.032591  0.043454  0.043454      8.000000
  0.043454  0.043454  0.043454      8.000000
  0.054318  0.043454  0.043454      8.000000
  0.065182  0.043454  0.043454      4.000000
  0.000000  0.054318  0.043454      8.000000
  0.010864  0.054318  0.043454     16.000000
  0.021727  0.054318  0.043454     16.000000
  0.032591  0.054318  0.043454     16.000000
  0.043454  0.054318  0.043454     16.000000
  0.054318  0.054318  0.043454     16.000000
  0.065182  0.054318  0.043454      8.000000
  0.000000  0.065182  0.043454      4.000000
  0.010864  0.065182  0.043454      8.000000
  0.021727  0.065182  0.043454      8.000000
  0.032591  0.065182  0.043454      8.000000
  0.043454  0.065182  0.043454      8.000000
  0.054318  0.065182  0.043454      8.000000
  0.065182  0.065182  0.043454      4.000000
  0.000000  0.054318  0.054318      4.000000
  0.010864  0.054318  0.054318      8.000000
  0.021727  0.054318  0.054318      8.000000
  0.032591  0.054318  0.054318      8.000000
  0.043454  0.054318  0.054318      8.000000
  0.054318  0.054318  0.054318      8.000000
  0.065182  0.054318  0.054318      4.000000
  0.000000  0.065182  0.054318      4.000000
  0.010864  0.065182  0.054318      8.000000
  0.021727  0.065182  0.054318      8.000000
  0.032591  0.065182  0.054318      8.000000
  0.043454  0.065182  0.054318      8.000000
  0.054318  0.065182  0.054318      8.000000
  0.065182  0.065182  0.054318      4.000000
  0.000000  0.065182  0.065182      1.000000
  0.010864  0.065182  0.065182      2.000000
  0.021727  0.065182  0.065182      2.000000
  0.032591  0.065182  0.065182      2.000000
  0.043454  0.065182  0.065182      2.000000
  0.054318  0.065182  0.065182      2.000000
  0.065182  0.065182  0.065182      1.000000
 


--------------------------------------------------------------------------------------------------------




 Dimension of arrays:
   k-Points           NKPTS =    196   number of bands    NBANDS=     68
   number of dos      NEDOS =    301   number of ions     NIONS =     32
   non local maximal  LDIM  =      4   non local SUM 2l+1 LMDIM =      8
   total plane-waves  NPLWV = 175616
   max r-space proj   IRMAX =      1   max aug-charges    IRDMAX=  15340
   dimension x,y,z NGX =    56 NGY =   56 NGZ =   56
   dimension x,y,z NGXF=   112 NGYF=  112 NGZF=  112
   support grid    NGXF=   112 NGYF=  112 NGZF=  112
   ions per type =              32
 NGX,Y,Z   is equivalent  to a cutoff of  12.14, 12.14, 12.14 a.u.
 NGXF,Y,Z  is equivalent  to a cutoff of  24.27, 24.27, 24.27 a.u.


 I would recommend the setting:
   dimension x,y,z NGX =    56 NGY =   56 NGZ =   56
 SYSTEM =  unknown system                          
 POSCAR =  Al                                      

 Startparameter for this run:
   NWRITE =      2    write-flag & timer
   PREC   = accura    medium, high low
   ISTART =      0    job   : 0-new  1-cont  2-samecut
   ICHARG =      2    charge: 1-file 2-atom 10-const
   ISPIN  =      1    spin polarized calculation?
   LNONCOLLINEAR =      F non collinear calculations
   LSORBIT =      F    spin-orbit coupling
   INIWAV =      1    electr: 0-lowe 1-rand  2-diag
   LASPH  =      F    aspherical Exc in radial PAW
   METAGGA=      F    non-selfconsistent MetaGGA calc.

 Electronic Relaxation 1
   ENCUT  =  500.0 eV  36.75 Ry    6.06 a.u.  13.99 13.99 13.99*2*pi/ulx,y,z
   ENINI  =  500.0     initial cutoff
   ENAUG  =  291.1 eV  augmentation charge cutoff
   NELM   =     60;   NELMIN=  2; NELMDL=  0     # of ELM steps 
   EDIFF  = 0.1E-07   stopping-criterion for ELM
   LREAL  =      F    real-space projection
   LCOMPAT=      F    compatible to vasp.4.4
   LREAL_COMPAT= F    compatible to vasp.4.5.1-3
   GGA_COMPAT  = T    GGA compatible to vasp.4.4-vasp.4.6
   LMAXPAW     = -100 max onsite density
   LMAXMIX     =    2 max onsite mixed and CHGCAR
   VOSKOWN=      0    Vosko Wilk Nusair interpolation
   ROPT   =    0.00000
 Ionic relaxation
   EDIFFG = 0.1E-06   stopping-criterion for IOM
   NSW    =      0    number of steps for IOM
   NBLOCK =      1;   KBLOCK =      1    inner block; outer block 
   IBRION =     -1    ionic relax: 0-MD 1-quasi-New 2-CG
   NFREE  =      0    steps in history (QN), initial steepest desc. (CG)
   ISIF   =      2    stress and relaxation
   IWAVPR =     10    prediction:  0-non 1-charg 2-wave 3-comb
   ISYM   =      2    0-nonsym 1-usesym 2-fastsym
   LCORR  =      T    Harris-Foulkes like correction to forces

   POTIM  =   0.50    time-step for ionic-motion
   TEIN   =    0.0    initial temperature
   TEBEG  =    0.0;   TEEND  =   0.0 temperature during run
   SMASS  =  -3.00    Nose mass-parameter (am)
   estimated Nose-frequenzy (Omega)   =  0.10E-29 period in steps =****** mass=  -0.134E-26a.u.
   NPACO  =    256;   APACO  = 16.0  distance and # of slots for P.C.
   PSTRESS=    0.0 pullay stress

  Mass of Ions in am
   POMASS =  26.98
  Ionic Valenz
   ZVAL   =   3.00
  Atomic Wigner-Seitz radii
   RWIGS  =  -1.00
   NELECT =      96.0000    total number of electrons
   NUPDOWN=      -1.0000    fix difference up-down

 DOS related values:
   EMIN   =  10.00;   EMAX   =-10.00  energy-range for DOS
   ISMEAR =     0;   SIGMA  =   0.01  broadening in eV -4-tet -1-fermi 0-gaus

 Electronic relaxation 2 (details)
   IALGO  =     38    algorithm
   LDIAG  =      T    sub-space diagonalisation
   IMIX   =      4    mixing-type and parameters
     AMIX     =   0.40;   BMIX     =  1.00
     AMIX_MAG =   1.60;   BMIX_MAG =  1.00
     AMIN     =   0.10
     WC   =   100.;   INIMIX=   1;  MIXPRE=   1

 Intra band minimization:
   WEIMIN = 0.0000     energy-eigenvalue tresh-hold
   EBREAK =  0.38E-10  absolut break condition
   DEPER  =   0.30     relativ break condition  

   TIME   =   0.10     timestep for ELM

  volume/ion in A,a.u.               =      14.11        95.19
  Fermi-wavevector in a.u.,eV,Ry     =   0.977207 12.992661  0.954934

 Second variation
   LSECVAR=     F    do a second variation
 
 Write flags
   LWAVE  =      F    write WAVECAR
   LCHARG =      F    write CHGCAR
   LVTOT  =      F    write LOCPOT, local potential
   LELF   =      F    write electronic localiz. function (ELF)
   LORBIT =      0    0 simple, 1 ext, 2 COOP (PROOUT)


 Dipole corrections
   IDIPOL =      0    1-x, 2-y, 3-z
   LDIPOL =      F    correct potential



--------------------------------------------------------------------------------------------------------


 Static calculation
 charge density will be updated during run
 non-spin polarized calculation
 Variant of blocked Davidson
 Davidson routine will perform the subspace rotation
 performe sub-space diagonalisation
    after iterative eigenvector-optimisation
 modified Broyden-mixing scheme, WC =      100.0
 initial mixing is a Kerker type mixing with AMIX =  0.4000 and BMIX =      1.0000
 Hartree-type preconditioning will be used
 using additional bands           20
 reciprocal scheme for non local part
 use partial core corrections
 calculate Harris-corrections to forces 
   (improved forces if not selfconsistent)
 use gradient corrections 
 use of overlap-Matrix (Vanderbilt PP)
 Gauss-broadening in eV      SIGMA  =   0.01


--------------------------------------------------------------------------------------------------------


  energy-cutoff  :      500.00
  volume of cell :      451.37
      direct lattice vectors                 reciprocal lattice vectors
     7.670882102  0.000000000  0.000000000     0.130363104  0.000000000  0.000000000
     0.000000000  7.670882102  0.000000000     0.000000000  0.130363104  0.000000000
     0.000000000  0.000000000  7.670882102     0.000000000  0.000000000  0.130363104

  length of vectors
     7.670882102  7.670882102  7.670882102     0.130363104  0.130363104  0.130363104


 
 k-points in units of 2pi/SCALE and weight: Automatic mesh                          
   0.00000000  0.00000000  0.00000000       0.001
   0.01086359  0.00000000  0.00000000       0.001
   0.02172718  0.00000000  0.00000000       0.001
   0.03259078  0.00000000  0.00000000       0.001
   0.04345437  0.00000000  0.00000000       0.001
   0.05431796  0.00000000  0.00000000       0.001
   0.06518155  0.00000000  0.00000000       0.001
   0.00000000  0.01086359  0.00000000       0.002
   0.01086359  0.01086359  0.00000000       0.005
   0.02172718  0.01086359  0.00000000       0.005
   0.03259078  0.01086359  0.00000000       0.005
   0.04345437  0.01086359  0.00000000       0.005
   0.05431796  0.01086359  0.00000000       0.005
   0.06518155  0.01086359  0.00000000       0.002
   0.00000000  0.02172718  0.00000000       0.002
   0.01086359  0.02172718  0.00000000       0.005
   0.02172718  0.02172718  0.00000000       0.005
   0.03259078  0.02172718  0.00000000       0.005
   0.04345437  0.02172718  0.00000000       0.005
   0.05431796  0.02172718  0.00000000       0.005
   0.06518155  0.02172718  0.00000000       0.002
   0.00000000  0.03259078  0.00000000       0.002
   0.01086359  0.03259078  0.00000000       0.005
   0.02172718  0.03259078  0.00000000       0.005
   0.03259078  0.03259078  0.00000000       0.005
   0.04345437  0.03259078  0.00000000       0.005
   0.05431796  0.03259078  0.00000000       0.005
   0.06518155  0.03259078  0.00000000       0.002
   0.00000000  0.04345437  0.00000000       0.002
   0.01086359  0.04345437  0.00000000       0.005
   0.02172718  0.04345437  0.00000000       0.005
   0.03259078  0.04345437  0.00000000       0.005
   0.04345437  0.04345437  0.00000000       0.005
   0.05431796  0.04345437  0.00000000       0.005
   0.06518155  0.04345437  0.00000000       0.002
   0.00000000  0.05431796  0.00000000       0.002
   0.01086359  0.05431796  0.00000000       0.005
   0.02172718  0.05431796  0.00000000       0.005
   0.03259078  0.05431796  0.00000000       0.005
   0.04345437  0.05431796  0.00000000       0.005
   0.05431796  0.05431796  0.00000000       0.005
   0.06518155  0.05431796  0.00000000       0.002
   0.00000000  0.06518155  0.00000000       0.001
   0.01086359  0.06518155  0.00000000       0.002
   0.02172718  0.06518155  0.00000000       0.002
   0.03259078  0.06518155  0.00000000       0.002
   0.04345437  0.06518155  0.00000000       0.002
   0.05431796  0.06518155  0.00000000       0.002
   0.06518155  0.06518155  0.00000000       0.001
   0.00000000  0.01086359  0.01086359       0.002
   0.01086359  0.01086359  0.01086359       0.005
   0.02172718  0.01086359  0.01086359       0.005
   0.03259078  0.01086359  0.01086359       0.005
   0.04345437  0.01086359  0.01086359       0.005
   0.05431796  0.01086359  0.01086359       0.005
   0.06518155  0.01086359  0.01086359       0.002
   0.00000000  0.02172718  0.01086359       0.005
   0.01086359  0.02172718  0.01086359       0.009
   0.02172718  0.02172718  0.01086359       0.009
   0.03259078  0.02172718  0.01086359       0.009
   0.04345437  0.02172718  0.01086359       0.009
   0.05431796  0.02172718  0.01086359       0.009
   0.06518155  0.02172718  0.01086359       0.005
   0.00000000  0.03259078  0.01086359       0.005
   0.01086359  0.03259078  0.01086359       0.009
   0.02172718  0.03259078  0.01086359       0.009
   0.03259078  0.03259078  0.01086359       0.009
   0.04345437  0.03259078  0.01086359       0.009
   0.05431796  0.03259078  0.01086359       0.009
   0.06518155  0.03259078  0.01086359       0.005
   0.00000000  0.04345437  0.01086359       0.005
   0.01086359  0.04345437  0.01086359       0.009
   0.02172718  0.04345437  0.01086359       0.009
   0.03259078  0.04345437  0.01086359       0.009
   0.04345437  0.04345437  0.01086359       0.009
   0.05431796  0.04345437  0.01086359       0.009
   0.06518155  0.04345437  0.01086359       0.005
   0.00000000  0.05431796  0.01086359       0.005
   0.01086359  0.05431796  0.01086359       0.009
   0.02172718  0.05431796  0.01086359       0.009
   0.03259078  0.05431796  0.01086359       0.009
   0.04345437  0.05431796  0.01086359       0.009
   0.05431796  0.05431796  0.01086359       0.009
   0.06518155  0.05431796  0.01086359       0.005
   0.00000000  0.06518155  0.01086359       0.002
   0.01086359  0.06518155  0.01086359       0.005
   0.02172718  0.06518155  0.01086359       0.005
   0.03259078  0.06518155  0.01086359       0.005
   0.04345437  0.06518155  0.01086359       0.005
   0.05431796  0.06518155  0.01086359       0.005
   0.06518155  0.06518155  0.01086359       0.002
   0.00000000  0.02172718  0.02172718       0.002
   0.01086359  0.02172718  0.02172718       0.005
   0.02172718  0.02172718  0.02172718       0.005
   0.03259078  0.02172718  0.02172718       0.005
   0.04345437  0.02172718  0.02172718       0.005
   0.05431796  0.02172718  0.02172718       0.005
   0.06518155  0.02172718  0.02172718       0.002
   0.00000000  0.03259078  0.02172718       0.005
   0.01086359  0.03259078  0.02172718       0.009
   0.02172718  0.03259078  0.02172718       0.009
   0.03259078  0.03259078  0.02172718       0.009
   0.04345437  0.03259078  0.02172718       0.009
   0.05431796  0.03259078  0.02172718       0.009
   0.06518155  0.03259078  0.02172718       0.005
   0.00000000  0.04345437  0.02172718       0.005
   0.01086359  0.04345437  0.02172718       0.009
   0.02172718  0.04345437  0.02172718       0.009
   0.03259078  0.04345437  0.02172718       0.009
   0.04345437  0.04345437  0.02172718       0.009
   0.05431796  0.04345437  0.02172718       0.009
   0.06518155  0.04345437  0.02172718       0.005
   0.00000000  0.05431796  0.02172718       0.005
   0.01086359  0.05431796  0.02172718       0.009
   0.02172718  0.05431796  0.02172718       0.009
   0.03259078  0.05431796  0.02172718       0.009
   0.04345437  0.05431796  0.02172718       0.009
   0.05431796  0.05431796  0.02172718       0.009
   0.06518155  0.05431796  0.02172718       0.005
   0.00000000  0.06518155  0.02172718       0.002
   0.01086359  0.06518155  0.02172718       0.005
   0.02172718  0.06518155  0.02172718       0.005
   0.03259078  0.06518155  0.02172718       0.005
   0.04345437  0.06518155  0.02172718       0.005
   0.05431796  0.06518155  0.02172718       0.005
   0.06518155  0.06518155  0.02172718       0.002
   0.00000000  0.03259078  0.03259078       0.002
   0.01086359  0.03259078  0.03259078       0.005
   0.02172718  0.03259078  0.03259078       0.005
   0.03259078  0.03259078  0.03259078       0.005
   0.04345437  0.03259078  0.03259078       0.005
   0.05431796  0.03259078  0.03259078       0.005
   0.06518155  0.03259078  0.03259078       0.002
   0.00000000  0.04345437  0.03259078       0.005
   0.01086359  0.04345437  0.03259078       0.009
   0.02172718  0.04345437  0.03259078       0.009
   0.03259078  0.04345437  0.03259078       0.009
   0.04345437  0.04345437  0.03259078       0.009
   0.05431796  0.04345437  0.03259078       0.009
   0.06518155  0.04345437  0.03259078       0.005
   0.00000000  0.05431796  0.03259078       0.005
   0.01086359  0.05431796  0.03259078       0.009
   0.02172718  0.05431796  0.03259078       0.009
   0.03259078  0.05431796  0.03259078       0.009
   0.04345437  0.05431796  0.03259078       0.009
   0.05431796  0.05431796  0.03259078       0.009
   0.06518155  0.05431796  0.03259078       0.005
   0.00000000  0.06518155  0.03259078       0.002
   0.01086359  0.06518155  0.03259078       0.005
   0.02172718  0.06518155  0.03259078       0.005
   0.03259078  0.06518155  0.03259078       0.005
   0.04345437  0.06518155  0.03259078       0.005
   0.05431796  0.06518155  0.03259078       0.005
   0.06518155  0.06518155  0.03259078       0.002
   0.00000000  0.04345437  0.04345437       0.002
   0.01086359  0.04345437  0.04345437       0.005
   0.02172718  0.04345437  0.04345437       0.005
   0.03259078  0.04345437  0.04345437       0.005
   0.04345437  0.04345437  0.04345437       0.005
   0.05431796  0.04345437  0.04345437       0.005
   0.06518155  0.04345437  0.04345437       0.002
   0.00000000  0.05431796  0.04345437       0.005
   0.01086359  0.05431796  0.04345437       0.009
   0.02172718  0.05431796  0.04345437       0.009
   0.03259078  0.05431796  0.04345437       0.009
   0.04345437  0.05431796  0.04345437       0.009
   0.05431796  0.05431796  0.04345437       0.009
   0.06518155  0.05431796  0.04345437       0.005
   0.00000000  0.06518155  0.04345437       0.002
   0.01086359  0.06518155  0.04345437       0.005
   0.02172718  0.06518155  0.04345437       0.005
   0.03259078  0.06518155  0.04345437       0.005
   0.04345437  0.06518155  0.04345437       0.005
   0.05431796  0.06518155  0.04345437       0.005
   0.06518155  0.06518155  0.04345437       0.002
   0.00000000  0.05431796  0.05431796       0.002
   0.01086359  0.05431796  0.05431796       0.005
   0.02172718  0.05431796  0.05431796       0.005
   0.03259078  0.05431796  0.05431796       0.005
   0.04345437  0.05431796  0.05431796       0.005
   0.05431796  0.05431796  0.05431796       0.005
   0.06518155  0.05431796  0.05431796       0.002
   0.00000000  0.06518155  0.05431796       0.002
   0.01086359  0.06518155  0.05431796       0.005
   0.02172718  0.06518155  0.05431796       0.005
   0.03259078  0.06518155  0.05431796       0.005
   0.04345437  0.06518155  0.05431796       0.005
   0.05431796  0.06518155  0.05431796       0.005
   0.06518155  0.06518155  0.05431796       0.002
   0.00000000  0.06518155  0.06518155       0.001
   0.01086359  0.06518155  0.06518155       0.001
   0.02172718  0.06518155  0.06518155       0.001
   0.03259078  0.06518155  0.06518155       0.001
   0.04345437  0.06518155  0.06518155       0.001
   0.05431796  0.06518155  0.06518155       0.001
   0.06518155  0.06518155  0.06518155       0.001
 
 k-points in reciprocal lattice and weights: Automatic mesh                          
   0.00000000  0.00000000  0.00000000       0.001
   0.08333333  0.00000000  0.00000000       0.001
   0.16666667  0.00000000  0.00000000       0.001
   0.25000000  0.00000000  0.00000000       0.001
   0.33333333  0.00000000  0.00000000       0.001
   0.41666667  0.00000000  0.00000000       0.001
   0.50000000  0.00000000  0.00000000       0.001
   0.00000000  0.08333333  0.00000000       0.002
   0.08333333  0.08333333  0.00000000       0.005
   0.16666667  0.08333333  0.00000000       0.005
   0.25000000  0.08333333  0.00000000       0.005
   0.33333333  0.08333333  0.00000000       0.005
   0.41666667  0.08333333  0.00000000       0.005
   0.50000000  0.08333333  0.00000000       0.002
   0.00000000  0.16666667  0.00000000       0.002
   0.08333333  0.16666667  0.00000000       0.005
   0.16666667  0.16666667  0.00000000       0.005
   0.25000000  0.16666667  0.00000000       0.005
   0.33333333  0.16666667  0.00000000       0.005
   0.41666667  0.16666667  0.00000000       0.005
   0.50000000  0.16666667  0.00000000       0.002
   0.00000000  0.25000000  0.00000000       0.002
   0.08333333  0.25000000  0.00000000       0.005
   0.16666667  0.25000000  0.00000000       0.005
   0.25000000  0.25000000  0.00000000       0.005
   0.33333333  0.25000000  0.00000000       0.005
   0.41666667  0.25000000  0.00000000       0.005
   0.50000000  0.25000000  0.00000000       0.002
   0.00000000  0.33333333  0.00000000       0.002
   0.08333333  0.33333333  0.00000000       0.005
   0.16666667  0.33333333  0.00000000       0.005
   0.25000000  0.33333333  0.00000000       0.005
   0.33333333  0.33333333  0.00000000       0.005
   0.41666667  0.33333333  0.00000000       0.005
   0.50000000  0.33333333  0.00000000       0.002
   0.00000000  0.41666667  0.00000000       0.002
   0.08333333  0.41666667  0.00000000       0.005
   0.16666667  0.41666667  0.00000000       0.005
   0.25000000  0.41666667  0.00000000       0.005
   0.33333333  0.41666667  0.00000000       0.005
   0.41666667  0.41666667  0.00000000       0.005
   0.50000000  0.41666667  0.00000000       0.002
   0.00000000  0.50000000  0.00000000       0.001
   0.08333333  0.50000000  0.00000000       0.002
   0.16666667  0.50000000  0.00000000       0.002
   0.25000000  0.50000000  0.00000000       0.002
   0.33333333  0.50000000  0.00000000       0.002
   0.41666667  0.50000000  0.00000000       0.002
   0.50000000  0.50000000  0.00000000       0.001
   0.00000000  0.08333333  0.08333333       0.002
   0.08333333  0.08333333  0.08333333       0.005
   0.16666667  0.08333333  0.08333333       0.005
   0.25000000  0.08333333  0.08333333       0.005
   0.33333333  0.08333333  0.08333333       0.005
   0.41666667  0.08333333  0.08333333       0.005
   0.50000000  0.08333333  0.08333333       0.002
   0.00000000  0.16666667  0.08333333       0.005
   0.08333333  0.16666667  0.08333333       0.009
   0.16666667  0.16666667  0.08333333       0.009
   0.25000000  0.16666667  0.08333333       0.009
   0.33333333  0.16666667  0.08333333       0.009
   0.41666667  0.16666667  0.08333333       0.009
   0.50000000  0.16666667  0.08333333       0.005
   0.00000000  0.25000000  0.08333333       0.005
   0.08333333  0.25000000  0.08333333       0.009
   0.16666667  0.25000000  0.08333333       0.009
   0.25000000  0.25000000  0.08333333       0.009
   0.33333333  0.25000000  0.08333333       0.009
   0.41666667  0.25000000  0.08333333       0.009
   0.50000000  0.25000000  0.08333333       0.005
   0.00000000  0.33333333  0.08333333       0.005
   0.08333333  0.33333333  0.08333333       0.009
   0.16666667  0.33333333  0.08333333       0.009
   0.25000000  0.33333333  0.08333333       0.009
   0.33333333  0.33333333  0.08333333       0.009
   0.41666667  0.33333333  0.08333333       0.009
   0.50000000  0.33333333  0.08333333       0.005
   0.00000000  0.41666667  0.08333333       0.005
   0.08333333  0.41666667  0.08333333       0.009
   0.16666667  0.41666667  0.08333333       0.009
   0.25000000  0.41666667  0.08333333       0.009
   0.33333333  0.41666667  0.08333333       0.009
   0.41666667  0.41666667  0.08333333       0.009
   0.50000000  0.41666667  0.08333333       0.005
   0.00000000  0.50000000  0.08333333       0.002
   0.08333333  0.50000000  0.08333333       0.005
   0.16666667  0.50000000  0.08333333       0.005
   0.25000000  0.50000000  0.08333333       0.005
   0.33333333  0.50000000  0.08333333       0.005
   0.41666667  0.50000000  0.08333333       0.005
   0.50000000  0.50000000  0.08333333       0.002
   0.00000000  0.16666667  0.16666667       0.002
   0.08333333  0.16666667  0.16666667       0.005
   0.16666667  0.16666667  0.16666667       0.005
   0.25000000  0.16666667  0.16666667       0.005
   0.33333333  0.16666667  0.16666667       0.005
   0.41666667  0.16666667  0.16666667       0.005
   0.50000000  0.16666667  0.16666667       0.002
   0.00000000  0.25000000  0.16666667       0.005
   0.08333333  0.25000000  0.16666667       0.009
   0.16666667  0.25000000  0.16666667       0.009
   0.25000000  0.25000000  0.16666667       0.009
   0.33333333  0.25000000  0.16666667       0.009
   0.41666667  0.25000000  0.16666667       0.009
   0.50000000  0.25000000  0.16666667       0.005
   0.00000000  0.33333333  0.16666667       0.005
   0.08333333  0.33333333  0.16666667       0.009
   0.16666667  0.33333333  0.16666667       0.009
   0.25000000  0.33333333  0.16666667       0.009
   0.33333333  0.33333333  0.16666667       0.009
   0.41666667  0.33333333  0.16666667       0.009
   0.50000000  0.33333333  0.16666667       0.005
   0.00000000  0.41666667  0.16666667       0.005
   0.08333333  0.41666667  0.16666667       0.009
   0.16666667  0.41666667  0.16666667       0.009
   0.25000000  0.41666667  0.16666667       0.009
   0.33333333  0.41666667  0.16666667       0.009
   0.41666667  0.41666667  0.16666667       0.009
   0.50000000  0.41666667  0.16666667       0.005
   0.00000000  0.50000000  0.16666667       0.002
   0.08333333  0.50000000  0.16666667       0.005
   0.16666667  0.50000000  0.16666667       0.005
   0.25000000  0.50000000  0.16666667       0.005
   0.33333333  0.50000000  0.16666667       0.005
   0.41666667  0.50000000  0.16666667       0.005
   0.50000000  0.50000000  0.16666667       0.002
   0.00000000  0.25000000  0.25000000       0.002
   0.08333333  0.25000000  0.25000000       0.005
   0.16666667  0.25000000  0.25000000       0.005
   0.25000000  0.25000000  0.25000000       0.005
   0.33333333  0.25000000  0.25000000       0.005
   0.41666667  0.25000000  0.25000000       0.005
   0.50000000  0.25000000  0.25000000       0.002
   0.00000000  0.33333333  0.25000000       0.005
   0.08333333  0.33333333  0.25000000       0.009
   0.16666667  0.33333333  0.25000000       0.009
   0.25000000  0.33333333  0.25000000       0.009
   0.33333333  0.33333333  0.25000000       0.009
   0.41666667  0.33333333  0.25000000       0.009
   0.50000000  0.33333333  0.25000000       0.005
   0.00000000  0.41666667  0.25000000       0.005
   0.08333333  0.41666667  0.25000000       0.009
   0.16666667  0.41666667  0.25000000       0.009
   0.25000000  0.41666667  0.25000000       0.009
   0.33333333  0.41666667  0.25000000       0.009
   0.41666667  0.41666667  0.25000000       0.009
   0.50000000  0.41666667  0.25000000       0.005
   0.00000000  0.50000000  0.25000000       0.002
   0.08333333  0.50000000  0.25000000       0.005
   0.16666667  0.50000000  0.25000000       0.005
   0.25000000  0.50000000  0.25000000       0.005
   0.33333333  0.50000000  0.25000000       0.005
   0.41666667  0.50000000  0.25000000       0.005
   0.50000000  0.50000000  0.25000000       0.002
   0.00000000  0.33333333  0.33333333       0.002
   0.08333333  0.33333333  0.33333333       0.005
   0.16666667  0.33333333  0.33333333       0.005
   0.25000000  0.33333333  0.33333333       0.005
   0.33333333  0.33333333  0.33333333       0.005
   0.41666667  0.33333333  0.33333333       0.005
   0.50000000  0.33333333  0.33333333       0.002
   0.00000000  0.41666667  0.33333333       0.005
   0.08333333  0.41666667  0.33333333       0.009
   0.16666667  0.41666667  0.33333333       0.009
   0.25000000  0.41666667  0.33333333       0.009
   0.33333333  0.41666667  0.33333333       0.009
   0.41666667  0.41666667  0.33333333       0.009
   0.50000000  0.41666667  0.33333333       0.005
   0.00000000  0.50000000  0.33333333       0.002
   0.08333333  0.50000000  0.33333333       0.005
   0.16666667  0.50000000  0.33333333       0.005
   0.25000000  0.50000000  0.33333333       0.005
   0.33333333  0.50000000  0.33333333       0.005
   0.41666667  0.50000000  0.33333333       0.005
   0.50000000  0.50000000  0.33333333       0.002
   0.00000000  0.41666667  0.41666667       0.002
   0.08333333  0.41666667  0.41666667       0.005
   0.16666667  0.41666667  0.41666667       0.005
   0.25000000  0.41666667  0.41666667       0.005
   0.33333333  0.41666667  0.41666667       0.005
   0.41666667  0.41666667  0.41666667       0.005
   0.50000000  0.41666667  0.41666667       0.002
   0.00000000  0.50000000  0.41666667       0.002
   0.08333333  0.50000000  0.41666667       0.005
   0.16666667  0.50000000  0.41666667       0.005
   0.25000000  0.50000000  0.41666667       0.005
   0.33333333  0.50000000  0.41666667       0.005
   0.41666667  0.50000000  0.41666667       0.005
   0.50000000  0.50000000  0.41666667       0.002
   0.00000000  0.50000000  0.50000000       0.001
   0.08333333  0.50000000  0.50000000       0.001
   0.16666667  0.50000000  0.50000000       0.001
   0.25000000  0.50000000  0.50000000       0.001
   0.33333333  0.50000000  0.50000000       0.001
   0.41666667  0.50000000  0.50000000       0.001
   0.50000000  0.50000000  0.50000000       0.001
 
 position of ions in fractional coordinates (direct lattice) 
   0.25130363  0.25000000  0.00000000
   0.75000000  0.25000000  0.00000000
   0.25000000  0.75000000  0.00000000
   0.75000000  0.75000000  0.00000000
   0.25000000  0.25000000  0.50000000
   0.75000000  0.25000000  0.50000000
   0.25000000  0.75000000  0.50000000
   0.75000000  0.75000000  0.50000000
   0.25000000  0.00000000  0.25000000
   0.75000000  0.00000000  0.25000000
   0.25000000  0.50000000  0.25000000
   0.75000000  0.50000000  0.25000000
   0.25000000  0.00000000  0.75000000
   0.75000000  0.00000000  0.75000000
   0.25000000  0.50000000  0.75000000
   0.75000000  0.50000000  0.75000000
   0.00000000  0.25000000  0.25000000
   0.50000000  0.25000000  0.25000000
   0.00000000  0.75000000  0.25000000
   0.50000000  0.75000000  0.25000000
   0.00000000  0.25000000  0.75000000
   0.50000000  0.25000000  0.75000000
   0.00000000  0.75000000  0.75000000
   0.50000000  0.75000000  0.75000000
   0.00000000  0.00000000  0.00000000
   0.50000000  0.00000000  0.00000000
   0.00000000  0.50000000  0.00000000
   0.50000000  0.50000000  0.00000000
   0.00000000  0.00000000  0.50000000
   0.50000000  0.00000000  0.50000000
   0.00000000  0.50000000  0.50000000
   0.50000000  0.50000000  0.50000000
 
 position of ions in cartesian coordinates  (Angst):
   1.92772053  1.91772053  0.00000000
   5.75316158  1.91772053  0.00000000
   1.91772053  5.75316158  0.00000000
   5.75316158  5.75316158  0.00000000
   1.91772053  1.91772053  3.83544105
   5.75316158  1.91772053  3.83544105
   1.91772053  5.75316158  3.83544105
   5.75316158  5.75316158  3.83544105
   1.91772053  0.00000000  1.91772053
   5.75316158  0.00000000  1.91772053
   1.91772053  3.83544105  1.91772053
   5.75316158  3.83544105  1.91772053
   1.91772053  0.00000000  5.75316158
   5.75316158  0.00000000  5.75316158
   1.91772053  3.83544105  5.75316158
   5.75316158  3.83544105  5.75316158
   0.00000000  1.91772053  1.91772053
   3.83544105  1.91772053  1.91772053
   0.00000000  5.75316158  1.91772053
   3.83544105  5.75316158  1.91772053
   0.00000000  1.91772053  5.75316158
   3.83544105  1.91772053  5.75316158
   0.00000000  5.75316158  5.75316158
   3.83544105  5.75316158  5.75316158
   0.00000000  0.00000000  0.00000000
   3.83544105  0.00000000  0.00000000
   0.00000000  3.83544105  0.00000000
   3.83544105  3.83544105  0.00000000
   0.00000000  0.00000000  3.83544105
   3.83544105  0.00000000  3.83544105
   0.00000000  3.83544105  3.83544105
   3.83544105  3.83544105  3.83544105
 


--------------------------------------------------------------------------------------------------------


 k-point  1 :  0.00000.00000.0000  plane waves:  11459
 k-point  2 :  0.08330.00000.0000  plane waves:  11440
 k-point  3 :  0.16670.00000.0000  plane waves:  11416
 k-point  4 :  0.25000.00000.0000  plane waves:  11452
 k-point  5 :  0.33330.00000.0000  plane waves:  11416
 k-point  6 :  0.41670.00000.0000  plane waves:  11456
 k-point  7 :  0.50000.00000.0000  plane waves:  11460
 k-point  8 :  0.00000.08330.0000  plane waves:  11440
 k-point  9 :  0.08330.08330.0000  plane waves:  11429
 k-point 10 :  0.16670.08330.0000  plane waves:  11423
 k-point 11 :  0.25000.08330.0000  plane waves:  11441
 k-point 12 :  0.33330.08330.0000  plane waves:  11450
 k-point 13 :  0.41670.08330.0000  plane waves:  11455
 k-point 14 :  0.50000.08330.0000  plane waves:  11456
 k-point 15 :  0.00000.16670.0000  plane waves:  11416
 k-point 16 :  0.08330.16670.0000  plane waves:  11423
 k-point 17 :  0.16670.16670.0000  plane waves:  11440
 k-point 18 :  0.25000.16670.0000  plane waves:  11444
 k-point 19 :  0.33330.16670.0000  plane waves:  11443
 k-point 20 :  0.41670.16670.0000  plane waves:  11446
 k-point 21 :  0.50000.16670.0000  plane waves:  11434
 k-point 22 :  0.00000.25000.0000  plane waves:  11452
 k-point 23 :  0.08330.25000.0000  plane waves:  11441
 k-point 24 :  0.16670.25000.0000  plane waves:  11444
 k-point 25 :  0.25000.25000.0000  plane waves:  11432
 k-point 26 :  0.33330.25000.0000  plane waves:  11447
 k-point 27 :  0.41670.25000.0000  plane waves:  11452
 k-point 28 :  0.50000.25000.0000  plane waves:  11450
 k-point 29 :  0.00000.33330.0000  plane waves:  11416
 k-point 30 :  0.08330.33330.0000  plane waves:  11450
 k-point 31 :  0.16670.33330.0000  plane waves:  11443
 k-point 32 :  0.25000.33330.0000  plane waves:  11447
 k-point 33 :  0.33330.33330.0000  plane waves:  11442
 k-point 34 :  0.41670.33330.0000  plane waves:  11454
 k-point 35 :  0.50000.33330.0000  plane waves:  11458
 k-point 36 :  0.00000.41670.0000  plane waves:  11456
 k-point 37 :  0.08330.41670.0000  plane waves:  11455
 k-point 38 :  0.16670.41670.0000  plane waves:  11446
 k-point 39 :  0.25000.41670.0000  plane waves:  11452
 k-point 40 :  0.33330.41670.0000  plane waves:  11454
 k-point 41 :  0.41670.41670.0000  plane waves:  11472
 k-point 42 :  0.50000.41670.0000  plane waves:  11478
 k-point 43 :  0.00000.50000.0000  plane waves:  11460
 k-point 44 :  0.08330.50000.0000  plane waves:  11456
 k-point 45 :  0.16670.50000.0000  plane waves:  11434
 k-point 46 :  0.25000.50000.0000  plane waves:  11450
 k-point 47 :  0.33330.50000.0000  plane waves:  11458
 k-point 48 :  0.41670.50000.0000  plane waves:  11478
 k-point 49 :  0.50000.50000.0000  plane waves:  11512
 k-point 50 :  0.00000.08330.0833  plane waves:  11429
 k-point 51 :  0.08330.08330.0833  plane waves:  11416
 k-point 52 :  0.16670.08330.0833  plane waves:  11437
 k-point 53 :  0.25000.08330.0833  plane waves:  11455
 k-point 54 :  0.33330.08330.0833  plane waves:  11455
 k-point 55 :  0.41670.08330.0833  plane waves:  11455
 k-point 56 :  0.50000.08330.0833  plane waves:  11456
 k-point 57 :  0.00000.16670.0833  plane waves:  11423
 k-point 58 :  0.08330.16670.0833  plane waves:  11437
 k-point 59 :  0.16670.16670.0833  plane waves:  11442
 k-point 60 :  0.25000.16670.0833  plane waves:  11460
 k-point 61 :  0.33330.16670.0833  plane waves:  11452
 k-point 62 :  0.41670.16670.0833  plane waves:  11456
 k-point 63 :  0.50000.16670.0833  plane waves:  11456
 k-point 64 :  0.00000.25000.0833  plane waves:  11441
 k-point 65 :  0.08330.25000.0833  plane waves:  11455
 k-point 66 :  0.16670.25000.0833  plane waves:  11460
 k-point 67 :  0.25000.25000.0833  plane waves:  11446
 k-point 68 :  0.33330.25000.0833  plane waves:  11455
 k-point 69 :  0.41670.25000.0833  plane waves:  11463
 k-point 70 :  0.50000.25000.0833  plane waves:  11462
 k-point 71 :  0.00000.33330.0833  plane waves:  11450
 k-point 72 :  0.08330.33330.0833  plane waves:  11455
 k-point 73 :  0.16670.33330.0833  plane waves:  11452
 k-point 74 :  0.25000.33330.0833  plane waves:  11455
 k-point 75 :  0.33330.33330.0833  plane waves:  11452
 k-point 76 :  0.41670.33330.0833  plane waves:  11455
 k-point 77 :  0.50000.33330.0833  plane waves:  11476
 k-point 78 :  0.00000.41670.0833  plane waves:  11455
 k-point 79 :  0.08330.41670.0833  plane waves:  11455
 k-point 80 :  0.16670.41670.0833  plane waves:  11456
 k-point 81 :  0.25000.41670.0833  plane waves:  11463
 k-point 82 :  0.33330.41670.0833  plane waves:  11455
 k-point 83 :  0.41670.41670.0833  plane waves:  11461
 k-point 84 :  0.50000.41670.0833  plane waves:  11478
 k-point 85 :  0.00000.50000.0833  plane waves:  11456
 k-point 86 :  0.08330.50000.0833  plane waves:  11456
 k-point 87 :  0.16670.50000.0833  plane waves:  11456
 k-point 88 :  0.25000.50000.0833  plane waves:  11462
 k-point 89 :  0.33330.50000.0833  plane waves:  11476
 k-point 90 :  0.41670.50000.0833  plane waves:  11478
 k-point 91 :  0.50000.50000.0833  plane waves:  11472
 k-point 92 :  0.00000.16670.1667  plane waves:  11440
 k-point 93 :  0.08330.16670.1667  plane waves:  11442
 k-point 94 :  0.16670.16670.1667  plane waves:  11440
 k-point 95 :  0.25000.16670.1667  plane waves:  11449
 k-point 96 :  0.33330.16670.1667  plane waves:  11475
 k-point 97 :  0.41670.16670.1667  plane waves:  11464
 k-point 98 :  0.50000.16670.1667  plane waves:  11466
 k-point 99 :  0.00000.25000.1667  plane waves:  11444
 k-point ** :  0.08330.25000.1667  plane waves:  11460
 k-point ** :  0.16670.25000.1667  plane waves:  11449
 k-point ** :  0.25000.25000.1667  plane waves:  11471
 k-point ** :  0.33330.25000.1667  plane waves:  11465
 k-point ** :  0.41670.25000.1667  plane waves:  11481
 k-point ** :  0.50000.25000.1667  plane waves:  11472
 k-point ** :  0.00000.33330.1667  plane waves:  11443
 k-point ** :  0.08330.33330.1667  plane waves:  11452
 k-point ** :  0.16670.33330.1667  plane waves:  11475
 k-point ** :  0.25000.33330.1667  plane waves:  11465
 k-point ** :  0.33330.33330.1667  plane waves:  11488
 k-point ** :  0.41670.33330.1667  plane waves:  11468
 k-point ** :  0.50000.33330.1667  plane waves:  11462
 k-point ** :  0.00000.41670.1667  plane waves:  11446
 k-point ** :  0.08330.41670.1667  plane waves:  11456
 k-point ** :  0.16670.41670.1667  plane waves:  11464
 k-point ** :  0.25000.41670.1667  plane waves:  11481
 k-point ** :  0.33330.41670.1667  plane waves:  11468
 k-point ** :  0.41670.41670.1667  plane waves:  11465
 k-point ** :  0.50000.41670.1667  plane waves:  11460
 k-point ** :  0.00000.50000.1667  plane waves:  11434
 k-point ** :  0.08330.50000.1667  plane waves:  11456
 k-point ** :  0.16670.50000.1667  plane waves:  11466
 k-point ** :  0.25000.50000.1667  plane waves:  11472
 k-point ** :  0.33330.50000.1667  plane waves:  11462
 k-point ** :  0.41670.50000.1667  plane waves:  11460
 k-point ** :  0.50000.50000.1667  plane waves:  11444
 k-point ** :  0.00000.25000.2500  plane waves:  11432
 k-point ** :  0.08330.25000.2500  plane waves:  11446
 k-point ** :  0.16670.25000.2500  plane waves:  11471
 k-point ** :  0.25000.25000.2500  plane waves:  11452
 k-point ** :  0.33330.25000.2500  plane waves:  11463
 k-point ** :  0.41670.25000.2500  plane waves:  11455
 k-point ** :  0.50000.25000.2500  plane waves:  11454
 k-point ** :  0.00000.33330.2500  plane waves:  11447
 k-point ** :  0.08330.33330.2500  plane waves:  11455
 k-point ** :  0.16670.33330.2500  plane waves:  11465
 k-point ** :  0.25000.33330.2500  plane waves:  11463
 k-point ** :  0.33330.33330.2500  plane waves:  11461
 k-point ** :  0.41670.33330.2500  plane waves:  11478
 k-point ** :  0.50000.33330.2500  plane waves:  11474
 k-point ** :  0.00000.41670.2500  plane waves:  11452
 k-point ** :  0.08330.41670.2500  plane waves:  11463
 k-point ** :  0.16670.41670.2500  plane waves:  11481
 k-point ** :  0.25000.41670.2500  plane waves:  11455
 k-point ** :  0.33330.41670.2500  plane waves:  11478
 k-point ** :  0.41670.41670.2500  plane waves:  11470
 k-point ** :  0.50000.41670.2500  plane waves:  11468
 k-point ** :  0.00000.50000.2500  plane waves:  11450
 k-point ** :  0.08330.50000.2500  plane waves:  11462
 k-point ** :  0.16670.50000.2500  plane waves:  11472
 k-point ** :  0.25000.50000.2500  plane waves:  11454
 k-point ** :  0.33330.50000.2500  plane waves:  11474
 k-point ** :  0.41670.50000.2500  plane waves:  11468
 k-point ** :  0.50000.50000.2500  plane waves:  11480
 k-point ** :  0.00000.33330.3333  plane waves:  11442
 k-point ** :  0.08330.33330.3333  plane waves:  11452
 k-point ** :  0.16670.33330.3333  plane waves:  11488
 k-point ** :  0.25000.33330.3333  plane waves:  11461
 k-point ** :  0.33330.33330.3333  plane waves:  11479
 k-point ** :  0.41670.33330.3333  plane waves:  11482
 k-point ** :  0.50000.33330.3333  plane waves:  11474
 k-point ** :  0.00000.41670.3333  plane waves:  11454
 k-point ** :  0.08330.41670.3333  plane waves:  11455
 k-point ** :  0.16670.41670.3333  plane waves:  11468
 k-point ** :  0.25000.41670.3333  plane waves:  11478
 k-point ** :  0.33330.41670.3333  plane waves:  11482
 k-point ** :  0.41670.41670.3333  plane waves:  11469
 k-point ** :  0.50000.41670.3333  plane waves:  11464
 k-point ** :  0.00000.50000.3333  plane waves:  11458
 k-point ** :  0.08330.50000.3333  plane waves:  11476
 k-point ** :  0.16670.50000.3333  plane waves:  11462
 k-point ** :  0.25000.50000.3333  plane waves:  11474
 k-point ** :  0.33330.50000.3333  plane waves:  11474
 k-point ** :  0.41670.50000.3333  plane waves:  11464
 k-point ** :  0.50000.50000.3333  plane waves:  11448
 k-point ** :  0.00000.41670.4167  plane waves:  11472
 k-point ** :  0.08330.41670.4167  plane waves:  11461
 k-point ** :  0.16670.41670.4167  plane waves:  11465
 k-point ** :  0.25000.41670.4167  plane waves:  11470
 k-point ** :  0.33330.41670.4167  plane waves:  11469
 k-point ** :  0.41670.41670.4167  plane waves:  11482
 k-point ** :  0.50000.41670.4167  plane waves:  11490
 k-point ** :  0.00000.50000.4167  plane waves:  11478
 k-point ** :  0.08330.50000.4167  plane waves:  11478
 k-point ** :  0.16670.50000.4167  plane waves:  11460
 k-point ** :  0.25000.50000.4167  plane waves:  11468
 k-point ** :  0.33330.50000.4167  plane waves:  11464
 k-point ** :  0.41670.50000.4167  plane waves:  11490
 k-point ** :  0.50000.50000.4167  plane waves:  11492
 k-point ** :  0.00000.50000.5000  plane waves:  11512
 k-point ** :  0.08330.50000.5000  plane waves:  11472
 k-point ** :  0.16670.50000.5000  plane waves:  11444
 k-point ** :  0.25000.50000.5000  plane waves:  11480
 k-point ** :  0.33330.50000.5000  plane waves:  11448
 k-point ** :  0.41670.50000.5000  plane waves:  11492
 k-point ** :  0.50000.50000.5000  plane waves:  11536

 maximum and minimum number of plane-waves per node :  11536 11416

 maximum number of plane-waves:  11536
 maximal index in each direction: 
   IXMAX= 13   IYMAX= 13   IZMAX= 13
   IXMIN=-14   IYMIN=-14   IZMIN=-14

 NGX is ok and might be reduce to  56
 NGY is ok and might be reduce to  56
 NGZ is ok and might be reduce to  56

 parallel 3dFFT wavefunction:
    minimum data exchange during FFTs selected (reduces bandwidth)
 parallel 3dFFT charge:
    minimum data exchange during FFTs selected (reduces bandwidth)

 For storing wavefunctions 2443.53 MBYTES are necessary
 For predicting wavefunctions   29.28 MBYTES are necessary
Broyden mixing: mesh for mixing (old mesh)
   NGX = 27   NGY = 27   NGZ = 27
  (NGX  =112   NGY  =112   NGZ  =112)
 gives a total of  19683 points
 initial charge density was supplied:
 charge density of overlapping atoms calculated
 number of electron   96.0000000 magnetization 
 keeping initial charge density in first step


--------------------------------------------------------------------------------------------------------


 Maximum index for augmentation-charges         3671 (set IRDMAX)


--------------------------------------------------------------------------------------------------------


 First call to EWALD:  gamma=   0.231
 Maximum number of real-space cells 3x 3x 3
 Maximum number of reciprocal cells 3x 3x 3

    FEWALD:  VPU time    0.00: CPU time    0.00


----------------------------------------- Iteration    1(   1)  ---------------------------------------


    POTLOK:  VPU time    0.18: CPU time    0.18
    SETDIJ:  VPU time    0.01: CPU time    0.01
    EDDAV :  VPU time  133.03: CPU time  133.42
    DOS   :  VPU time    0.00: CPU time   -0.00
    ------------------------------------------
      LOOP:  VPU time  133.24: CPU time  133.63

 eigenvalue-minimisations  : 26656
 total energy-change (2. order) : 0.1503414E+03  (-0.3403873E+04)
 number of electron   96.0000000 magnetization 
 augmentation part    96.0000000 magnetization 

 Free energy of the ion-electron system (eV)
  ---------------------------------------------------
  alpha Z        PSCENC =        -7.61990802
  Ewald energy   TEWEN  =     -2478.73017096
  -1/2 Hartree   DENC   =        -2.10401837
  -V(xc)+E(xc)   XCENC  =      -830.39434498
  PAW double counting   =      1137.73615723     -115.16745734
  entropy T*S    EENTRO =        -0.00025959
  eigenvalues    EBANDS =       733.39225538
  atomic energy  EATOM  =      1713.22913220
  ---------------------------------------------------
  free energy    TOTEN  =       150.34138555 eV

  energy without entropy =      150.34164514  energy(sigma->0) =      150.34151535


--------------------------------------------------------------------------------------------------------




----------------------------------------- Iteration    1(   2)  ---------------------------------------


    EDDAV :  VPU time  154.78: CPU time  155.29
    DOS   :  VPU time    0.00: CPU time   -0.00
    ------------------------------------------
      LOOP:  VPU time  154.80: CPU time  155.31

 eigenvalue-minimisations  : 31324
 total energy-change (2. order) :-0.2527508E+03  (-0.2362466E+03)
 number of electron   96.0000000 magnetization 
 augmentation part    96.0000000 magnetization 

 Free energy of the ion-electron system (eV)
  ---------------------------------------------------
  alpha Z        PSCENC =        -7.61990802
  Ewald energy   TEWEN  =     -2478.73017096
  -1/2 Hartree   DENC   =        -2.10401837
  -V(xc)+E(xc)   XCENC  =      -830.39434498
  PAW double counting   =      1137.73615723     -115.16745734
  entropy T*S    EENTRO =        -0.00066497
  eigenvalues    EBANDS =       480.64185879
  atomic energy  EATOM  =      1713.22913220
  ---------------------------------------------------
  free energy    TOTEN  =      -102.40941642 eV

  energy without entropy =     -102.40875145  energy(sigma->0) =     -102.40908394


--------------------------------------------------------------------------------------------------------




----------------------------------------- Iteration    1(   3)  ---------------------------------------


    EDDAV :  VPU time  160.48: CPU time  160.92
    DOS   :  VPU time    0.00: CPU time   -0.00
    ------------------------------------------
      LOOP:  VPU time  160.50: CPU time  160.94

 eigenvalue-minimisations  : 32804
 total energy-change (2. order) :-0.1446113E+02  (-0.1370062E+02)
 number of electron   96.0000000 magnetization 
 augmentation part    96.0000000 magnetization 

 Free energy of the ion-electron system (eV)
  ---------------------------------------------------
  alpha Z        PSCENC =        -7.61990802
  Ewald energy   TEWEN  =     -2478.73017096
  -1/2 Hartree   DENC   =        -2.10401837
  -V(xc)+E(xc)   XCENC  =      -830.39434498
  PAW double counting   =      1137.73615723     -115.16745734
  entropy T*S    EENTRO =        -0.00048969
  eigenvalues    EBANDS =       466.18055157
  atomic energy  EATOM  =      1713.22913220
  ---------------------------------------------------
  free energy    TOTEN  =      -116.87054836 eV

  energy without entropy =     -116.87005867  energy(sigma->0) =     -116.87030352


--------------------------------------------------------------------------------------------------------




----------------------------------------- Iteration    1(   4)  ---------------------------------------


    EDDAV :  VPU time  154.60: CPU time  155.04
    DOS   :  VPU time    0.00: CPU time   -0.00
    ------------------------------------------
      LOOP:  VPU time  154.62: CPU time  155.06

 eigenvalue-minimisations  : 31256
 total energy-change (2. order) :-0.2984237E+00  (-0.2953120E+00)
 number of electron   96.0000000 magnetization 
 augmentation part    96.0000000 magnetization 

 Free energy of the ion-electron system (eV)
  ---------------------------------------------------
  alpha Z        PSCENC =        -7.61990802
  Ewald energy   TEWEN  =     -2478.73017096
  -1/2 Hartree   DENC   =        -2.10401837
  -V(xc)+E(xc)   XCENC  =      -830.39434498
  PAW double counting   =      1137.73615723     -115.16745734
  entropy T*S    EENTRO =        -0.00058582
  eigenvalues    EBANDS =       465.88222398
  atomic energy  EATOM  =      1713.22913220
  ---------------------------------------------------
  free energy    TOTEN  =      -117.16897208 eV

  energy without entropy =     -117.16838626  energy(sigma->0) =     -117.16867917


--------------------------------------------------------------------------------------------------------




----------------------------------------- Iteration    1(   5)  ---------------------------------------


    EDDAV :  VPU time  155.31: CPU time  155.75
    DOS   :  VPU time    0.00: CPU time   -0.00
    CHARGE:  VPU time    7.36: CPU time    7.39
    MIXING:  VPU time    0.01: CPU time    0.01
    ------------------------------------------
      LOOP:  VPU time  162.70: CPU time  163.16

 eigenvalue-minimisations  : 31500
 total energy-change (2. order) :-0.3973864E-02  (-0.3967579E-02)
 number of electron   95.9999996 magnetization 
 augmentation part    -1.0987577 magnetization 

 Broyden mixing:
  rms(total) = 0.56966E+00    rms(broyden)= 0.56966E+00
  rms(prec ) = 0.81446E+00
  weight for this iteration     100.00

 Free energy of the ion-electron system (eV)
  ---------------------------------------------------
  alpha Z        PSCENC =        -7.61990802
  Ewald energy   TEWEN  =     -2478.73017096
  -1/2 Hartree   DENC   =        -2.10401837
  -V(xc)+E(xc)   XCENC  =      -830.39434498
  PAW double counting   =      1137.73615723     -115.16745734
  entropy T*S    EENTRO =        -0.00058449
  eigenvalues    EBANDS =       465.87824879
  atomic energy  EATOM  =      1713.22913220
  ---------------------------------------------------
  free energy    TOTEN  =      -117.17294594 eV

  energy without entropy =     -117.17236145  energy(sigma->0) =     -117.17265370


--------------------------------------------------------------------------------------------------------




----------------------------------------- Iteration    1(   6)  ---------------------------------------


    POTLOK:  VPU time    0.21: CPU time    0.21
    SETDIJ:  VPU time    0.01: CPU time    0.01
    EDDAV :  VPU time  153.69: CPU time  153.95
    DOS   :  VPU time    0.00: CPU time   -0.00
    CHARGE:  VPU time    7.34: CPU time    7.35
    MIXING:  VPU time    0.01: CPU time    0.01
    ------------------------------------------
      LOOP:  VPU time  161.27: CPU time  161.55

 eigenvalue-minimisations  : 30764
 total energy-change (2. order) : 0.4997663E+00  (-0.3016906E-02)
 number of electron   95.9999996 magnetization 
 augmentation part    -1.1116561 magnetization 

 Broyden mixing:
  rms(total) = 0.35452E+00    rms(broyden)= 0.35452E+00
  rms(prec ) = 0.50908E+00
  weight for this iteration     100.00

 eigenvalues of (default mixing * dielectric matrix)
  average eigenvalue GAMMA=   2.6394
  2.6394

 Free energy of the ion-electron system (eV)
  ---------------------------------------------------
  alpha Z        PSCENC =        -7.61990802
  Ewald energy   TEWEN  =     -2478.73017096
  -1/2 Hartree   DENC   =        -2.48559620
  -V(xc)+E(xc)   XCENC  =      -828.84988173
  PAW double counting   =      1147.07248281     -125.00955869
  entropy T*S    EENTRO =        -0.00048067
  eigenvalues    EBANDS =       465.72080160
  atomic energy  EATOM  =      1713.22913220
  ---------------------------------------------------
  free energy    TOTEN  =      -116.67317965 eV

  energy without entropy =     -116.67269898  energy(sigma->0) =     -116.67293932


--------------------------------------------------------------------------------------------------------




----------------------------------------- Iteration    1(   7)  ---------------------------------------


    POTLOK:  VPU time    0.21: CPU time    0.21
    SETDIJ:  VPU time    0.01: CPU time    0.01
    EDDAV :  VPU time  146.17: CPU time  146.60
    DOS   :  VPU time    0.00: CPU time   -0.00
    CHARGE:  VPU time    7.29: CPU time    7.32
    MIXING:  VPU time    0.01: CPU time    0.01
    ------------------------------------------
      LOOP:  VPU time  153.71: CPU time  154.17

 eigenvalue-minimisations  : 28948
 total energy-change (2. order) : 0.3593115E+00  (-0.9612471E-02)
 number of electron   95.9999996 magnetization 
 augmentation part    -1.1402968 magnetization 

 Broyden mixing:
  rms(total) = 0.13525E-01    rms(broyden)= 0.13524E-01
  rms(prec ) = 0.15752E-01
  weight for this iteration     100.00

 eigenvalues of (default mixing * dielectric matrix)
  average eigenvalue GAMMA=   2.4390
  2.4048  2.4733

 Free energy of the ion-electron system (eV)
  ---------------------------------------------------
  alpha Z        PSCENC =        -7.61990802
  Ewald energy   TEWEN  =     -2478.73017096
  -1/2 Hartree   DENC   =        -4.56788317
  -V(xc)+E(xc)   XCENC  =      -825.84341859
  PAW double counting   =      1161.47259608     -140.33161833
  entropy T*S    EENTRO =        -0.00040827
  eigenvalues    EBANDS =       466.07781094
  atomic energy  EATOM  =      1713.22913220
  ---------------------------------------------------
  free energy    TOTEN  =      -116.31386811 eV

  energy without entropy =     -116.31345984  energy(sigma->0) =     -116.31366398


[...]
     64      11.9424      0.00000
     65      13.3123      0.00000
     66      13.3131      0.00000
     67      13.3136      0.00000
     68      13.3142      0.00000

 k-point 194 :       0.3333    0.5000    0.5000
  band No.  band energies     occupation 
      1      -0.9992      2.00000
      2      -0.9991      2.00000
      3      -0.9991      2.00000
      4      -0.9991      2.00000
      5      -0.1748      2.00000
      6      -0.1748      2.00000
      7      -0.1748      2.00000
      8      -0.1747      2.00000
      9       3.0612      2.00000
     10       3.0612      2.00000
     11       3.0612      2.00000
     12       3.0612      2.00000
     13       3.8510      2.00000
     14       3.8510      2.00000
     15       3.8510      2.00000
     16       3.8511      2.00000
     17       3.8511      2.00000
     18       3.8511      2.00000
     19       3.8511      2.00000
     20       3.8511      2.00000
     21       4.6304      2.00000
     22       4.6304      2.00000
     23       4.6306      2.00000
     24       4.6306      2.00000
     25       4.6306      2.00000
     26       4.6306      2.00000
     27       4.6308      2.00000
     28       4.6308      2.00000
     29       5.3959      2.00000
     30       5.3959      2.00000
     31       5.3959      2.00000
     32       5.3960      2.00000
     33       7.8290      2.00000
     34       7.8290      2.00000
     35       7.8297      2.00000
     36       7.8297      2.00000
     37       7.8297      2.00000
     38       7.8297      2.00000
     39       7.8304      2.00000
     40       7.8304      2.00000
     41       8.5606      2.00000
     42       8.5606      2.00000
     43       8.5606      2.00000
     44       8.5606      2.00000
     45       9.3559      2.00000
     46       9.3559      2.00000
     47       9.3559      2.00000
     48       9.3560      2.00000
     49      10.0647      0.00000
     50      10.0647      0.00000
     51      10.0654      0.00000
     52      10.0654      0.00000
     53      10.0654      0.00000
     54      10.0654      0.00000
     55      10.0661      0.00000
     56      10.0661      0.00000
     57      12.0188      0.00000
     58      12.0188      0.00000
     59      12.0188      0.00000
     60      12.0188      0.00000
     61      12.4337      0.00000
     62      12.4337      0.00000
     63      12.4337      0.00000
     64      12.4337      0.00000
     65      13.4590      0.00000
     66      13.4593      0.00000
     67      13.4595      0.00000
     68      13.4599      0.00000

 k-point 195 :       0.4167    0.5000    0.5000
  band No.  band energies     occupation 
      1      -0.8442      2.00000
      2      -0.8441      2.00000
      3      -0.8441      2.00000
      4      -0.8441      2.00000
      5      -0.4318      2.00000
      6      -0.4318      2.00000
      7      -0.4318      2.00000
      8      -0.4317      2.00000
      9       3.6056      2.00000
     10       3.6057      2.00000
     11       3.6057      2.00000
     12       3.6057      2.00000
     13       3.9984      2.00000
     14       3.9984      2.00000
     15       3.9985      2.00000
     16       3.9985      2.00000
     17       3.9985      2.00000
     18       3.9985      2.00000
     19       3.9986      2.00000
     20       3.9986      2.00000
     21       4.3890      2.00000
     22       4.3890      2.00000
     23       4.3892      2.00000
     24       4.3892      2.00000
     25       4.3892      2.00000
     26       4.3892      2.00000
     27       4.3893      2.00000
     28       4.3893      2.00000
     29       4.7761      2.00000
     30       4.7761      2.00000
     31       4.7761      2.00000
     32       4.7762      2.00000
     33       8.3487      2.00000
     34       8.3487      2.00000
     35       8.3494      2.00000
     36       8.3494      2.00000
     37       8.3494      2.00000
     38       8.3494      2.00000
     39       8.3500      2.00000
     40       8.3500      2.00000
     41       8.7148      2.00000
     42       8.7148      2.00000
     43       8.7148      2.00000
     44       8.7148      2.00000
     45       9.1113      2.00000
     46       9.1113      2.00000
     47       9.1113      2.00000
     48       9.1113      2.00000
     49       9.4708      2.00000
     50       9.4708      2.00000
     51       9.4715      2.00000
     52       9.4715      2.00000
     53       9.4715      2.00000
     54       9.4715      2.00000
     55       9.4722      2.00000
     56       9.4722      2.00000
     57      12.8884      0.00000
     58      12.8885      0.00000
     59      12.8885      0.00000
     60      12.8885      0.00000
     61      12.9537      0.00000
     62      12.9537      0.00000
     63      12.9537      0.00000
     64      12.9538      0.00000
     65      13.6171      0.00000
     66      13.6176      0.00000
     67      13.6180      0.00000
     68      13.6183      0.00000

 k-point 196 :       0.5000    0.5000    0.5000
  band No.  band energies     occupation 
      1      -0.6602      2.00000
      2      -0.6555      2.00000
      3      -0.6555      2.00000
      4      -0.6550      2.00000
      5      -0.6549      2.00000
      6      -0.6544      2.00000
      7      -0.6544      2.00000
      8      -0.6497      2.00000
      9       4.1675      2.00000
     10       4.1735      2.00000
     11       4.1735      2.00000
     12       4.1770      2.00000
     13       4.1774      2.00000
     14       4.1776      2.00000
     15       4.1780      2.00000
     16       4.1780      2.00000
     17       4.1781      2.00000
     18       4.1781      2.00000
     19       4.1781      2.00000
     20       4.1781      2.00000
     21       4.1781      2.00000
     22       4.1781      2.00000
     23       4.1781      2.00000
     24       4.1781      2.00000
     25       4.1782      2.00000
     26       4.1782      2.00000
     27       4.1786      2.00000
     28       4.1788      2.00000
     29       4.1792      2.00000
     30       4.1827      2.00000
     31       4.1827      2.00000
     32       4.1887      2.00000
     33       8.8911      2.00000
     34       8.8911      2.00000
     35       8.8937      2.00000
     36       8.8950      2.00000
     37       8.8969      2.00000
     38       8.8974      2.00000
     39       8.8975      2.00000
     40       8.8975      2.00000
     41       8.8978      2.00000
     42       8.8978      2.00000
     43       8.8978      2.00000
     44       8.8978      2.00000
     45       8.8978      2.00000
     46       8.8979      2.00000
     47       8.8979      2.00000
     48       8.8979      2.00000
     49       8.8982      2.00000
     50       8.8982      2.00000
     51       8.8983      2.00000
     52       8.8988      2.00000
     53       8.9007      2.00000
     54       8.9020      2.00000
     55       8.9046      2.00000
     56       8.9046      2.00000
     57      13.4991      0.00000
     58      13.4999      0.00000
     59      13.4999      0.00000
     60      13.5000      0.00000
     61      13.5021      0.00000
     62      13.5023      0.00000
     63      13.5023      0.00000
     64      13.5031      0.00000
     65      13.7930      0.00000
     66      13.7944      0.00000
     67      13.7952      0.00000
     68      13.7968      0.00000


--------------------------------------------------------------------------------------------------------


 soft charge-density along one line, spin component           1
         0         1         2         3         4         5         6         7         8         9
 total charge-density along one line
 
 pseudopotential strength for first ion, spin component:           1
  8.391  -0.009   0.000  -0.000   0.000   0.000  -0.000  -0.000
 -0.009   0.000   0.000  -0.000  -0.000  -0.000   0.000   0.000
  0.000   0.000   1.997   0.000   0.000  -0.032  -0.000  -0.000
 -0.000  -0.000   0.000   1.997  -0.000  -0.000  -0.032   0.000
  0.000  -0.000   0.000  -0.000   1.997  -0.000   0.000  -0.032
  0.000  -0.000  -0.032  -0.000  -0.000  -0.011  -0.000  -0.000
 -0.000   0.000  -0.000  -0.032   0.000  -0.000  -0.011   0.000
 -0.000   0.000  -0.000   0.000  -0.032  -0.000   0.000  -0.011
 total augmentation occupancy for first ion, spin component:           1
  1.291  -0.664  -0.000   0.000   0.004   0.000  -0.000  -0.002
 -0.664   0.682   0.000   0.000  -0.004   0.000  -0.000   0.002
 -0.000   0.000   0.865   0.002   0.006  -0.192  -0.001  -0.001
  0.000   0.000   0.002   0.869  -0.002  -0.001  -0.188  -0.001
  0.004  -0.004   0.006  -0.002   0.867  -0.001  -0.001  -0.190
  0.000   0.000  -0.192  -0.001  -0.001   0.049   0.000   0.000
 -0.000  -0.000  -0.001  -0.188  -0.001   0.000   0.048   0.000
 -0.002   0.002  -0.001  -0.001  -0.190   0.000   0.000   0.048


------------------------ aborting loop because EDIFF is reached ----------------------------------------




--------------------------------------------------------------------------------------------------------


    CHARGE:  VPU time    7.60: CPU time    7.62
    FORLOC:  VPU time    0.05: CPU time    0.05
    FORNL :  VPU time   42.67: CPU time   42.75
    STRESS:  VPU time   90.56: CPU time   90.74
    FORCOR:  VPU time    0.25: CPU time    0.25
    FORHAR:  VPU time    0.08: CPU time    0.08
    MIXING:  VPU time    0.01: CPU time    0.01


--------------------------------------------------------------------------------------------------------



  FREE ENERGIE OF THE ION-ELECTRON SYSTEM (eV)
  ---------------------------------------------------
  free  energy   TOTEN  =      -116.314115 eV

  energy  without entropy=     -116.313699  energy(sigma->0) =     -116.313907
 

  FORCE on cell =-STRESS in cart. coord.  units (eV/reduce length):
  Direction    X        Y        Z        XY       YZ       ZX
  --------------------------------------------------------------------------------------
  Alpha Z     -7.62     -7.62     -7.62
  Ewald     -826.25   -826.25   -826.25     -0.00      0.00      0.00
  Hartree      1.54      1.54      1.54     -0.00     -0.00     -0.00
  E(xc)     -288.90   -288.90   -288.90      0.00      0.00      0.00
  Local       30.88     30.88     30.88     -0.00     -0.00      0.00
  n-local    635.97    634.82    637.13     -2.03     -0.59      0.85
  augment    -30.39    -30.39    -30.39      0.00      0.00      0.00
  Kinetic    533.20    525.89    540.51      6.65     -0.19     -7.03
  -------------------------------------------------------------------------------------
  Total       48.44     48.44     48.44     -0.00      0.00      0.00
  in kB      171.94    171.94    171.94     -0.00      0.00      0.00
  external pressure =      171.94 kB  Pullay stress =        0.00 kB


 VOLUME and BASIS-vectors are now :
 -----------------------------------------------------------------------------
  energy-cutoff  :      500.00
  volume of cell :      451.37
      direct lattice vectors                 reciprocal lattice vectors
     7.670882102  0.000000000  0.000000000     0.130363104  0.000000000  0.000000000
     0.000000000  7.670882102  0.000000000     0.000000000  0.130363104  0.000000000
     0.000000000  0.000000000  7.670882102     0.000000000  0.000000000  0.130363104

  length of vectors
     7.670882102  7.670882102  7.670882102     0.130363104  0.130363104  0.130363104


 FORCES acting on ions
    electron-ion (+dipol)            ewald-force                    non-local-force                 convergence-correction
 -----------------------------------------------------------------------------------------------
   0.454E+00 0.311E-13 -.802E-08   -.373E+00 0.311E-14 0.444E-15   -.164E+00 -.590E-19 -.661E-19   -.880E-06 0.107E-13 -.737E-14
   -.977E-01 0.163E-12 -.748E-13   0.984E-01 -.222E-14 -.876E-14   0.199E-02 0.302E-19 0.753E-21   -.930E-06 0.116E-13 -.683E-14
   0.317E-01 -.357E-13 -.732E-13   -.312E-01 -.488E-14 -.565E-14   -.824E-03 -.107E-19 -.573E-20   -.122E-05 -.106E-13 -.597E-14
   -.245E-01 -.632E-13 0.361E-12   0.245E-01 -.488E-14 -.565E-14   0.731E-03 -.659E-20 -.352E-20   0.322E-06 -.117E-13 -.473E-14
   0.317E-01 -.326E-13 -.566E-15   -.312E-01 -.178E-14 -.750E-14   -.824E-03 0.854E-19 -.121E-19   -.122E-05 0.823E-14 0.707E-14
   -.245E-01 -.606E-14 0.959E-13   0.245E-01 -.178E-14 -.750E-14   0.731E-03 -.599E-20 0.816E-20   0.317E-06 0.859E-14 0.656E-14
   0.137E-01 0.389E-13 -.789E-14   -.129E-01 -.533E-14 -.351E-14   -.302E-03 -.806E-20 -.130E-19   -.271E-05 -.811E-14 0.569E-14
   -.131E-01 -.265E-12 0.123E-12   0.120E-01 -.533E-14 -.351E-14   0.473E-03 -.163E-19 0.670E-20   0.253E-05 -.874E-14 0.446E-14
   0.565E-01 -.276E-03 0.276E-03   -.588E-01 0.241E-03 -.241E-03   0.781E-03 0.746E-04 -.746E-04   -.133E-05 0.239E-06 -.239E-06
   -.355E-01 0.861E-04 -.861E-04   0.331E-01 -.722E-04 0.722E-04   0.214E-02 -.171E-04 0.171E-04   0.314E-06 0.171E-06 -.171E-06
   0.565E-01 0.276E-03 0.276E-03   -.588E-01 -.241E-03 -.241E-03   0.781E-03 -.746E-04 -.746E-04   -.133E-05 -.239E-06 -.239E-06
   -.355E-01 -.861E-04 -.861E-04   0.331E-01 0.722E-04 0.722E-04   0.214E-02 0.171E-04 0.171E-04   0.314E-06 -.171E-06 -.171E-06
   0.565E-01 -.276E-03 -.276E-03   -.588E-01 0.241E-03 0.241E-03   0.781E-03 0.746E-04 0.746E-04   -.133E-05 0.239E-06 0.239E-06
   -.355E-01 0.861E-04 0.861E-04   0.331E-01 -.722E-04 -.722E-04   0.214E-02 -.171E-04 -.171E-04   0.314E-06 0.171E-06 0.171E-06
   0.565E-01 0.276E-03 -.276E-03   -.588E-01 -.241E-03 0.241E-03   0.781E-03 -.746E-04 0.746E-04   -.133E-05 -.239E-06 0.239E-06
   -.355E-01 -.861E-04 0.861E-04   0.331E-01 0.722E-04 -.722E-04   0.214E-02 0.171E-04 -.171E-04   0.314E-06 -.171E-06 0.171E-06
   -.557E-01 -.423E-14 0.987E-01   0.476E-01 0.844E-14 -.901E-01   0.188E-01 0.485E-20 -.201E-01   0.712E-06 0.978E-14 0.120E-06
   -.555E-01 0.218E-12 -.997E-01   0.473E-01 0.888E-14 0.909E-01   0.191E-01 0.117E-20 0.206E-01   0.701E-06 0.112E-13 -.668E-06
   -.143E-02 -.116E-13 0.782E-02   0.159E-02 0.124E-13 -.746E-02   -.120E-03 0.101E-19 -.396E-03   0.220E-06 -.994E-14 0.796E-06
   -.128E-02 -.232E-13 -.783E-02   0.143E-02 0.124E-13 0.747E-02   -.112E-03 -.387E-21 0.391E-03   0.344E-06 -.109E-13 -.105E-05
   -.557E-01 -.547E-14 -.987E-01   0.476E-01 0.844E-14 0.901E-01   0.188E-01 -.167E-19 0.201E-01   0.712E-06 0.858E-14 -.120E-06
   -.555E-01 -.139E-12 0.997E-01   0.473E-01 0.888E-14 -.909E-01   0.191E-01 -.637E-20 -.206E-01   0.701E-06 0.939E-14 0.668E-06
   -.143E-02 -.155E-13 -.782E-02   0.159E-02 0.129E-13 0.746E-02   -.120E-03 -.231E-20 0.396E-03   0.220E-06 -.878E-14 -.796E-06
   -.128E-02 -.236E-12 0.783E-02   0.143E-02 0.124E-13 -.747E-02   -.112E-03 -.907E-20 -.391E-03   0.344E-06 -.919E-14 0.105E-05
   -.557E-01 -.987E-01 0.629E-14   0.476E-01 0.901E-01 0.541E-14   0.188E-01 0.201E-01 -.161E-19   0.712E-06 -.124E-06 -.621E-14
   -.555E-01 0.997E-01 0.214E-12   0.473E-01 -.909E-01 0.542E-14   0.191E-01 -.206E-01 -.648E-20   0.701E-06 0.672E-06 -.776E-14
   -.557E-01 0.987E-01 0.890E-15   0.476E-01 -.901E-01 0.808E-14   0.188E-01 -.201E-01 0.130E-19   0.712E-06 0.124E-06 -.501E-14
   -.555E-01 -.997E-01 -.889E-13   0.473E-01 0.909E-01 0.108E-13   0.191E-01 0.206E-01 -.691E-20   0.701E-06 -.672E-06 -.597E-14
   -.143E-02 -.782E-02 -.933E-14   0.159E-02 0.746E-02 0.697E-14   -.120E-03 0.396E-03 0.586E-20   0.220E-06 -.799E-06 0.593E-14
   -.128E-02 0.783E-02 -.140E-12   0.143E-02 -.747E-02 0.520E-14   -.112E-03 -.391E-03 -.125E-20   0.344E-06 0.105E-05 0.744E-14
   -.143E-02 0.782E-02 -.606E-14   0.159E-02 -.746E-02 0.101E-13   -.120E-03 -.396E-03 -.266E-20   0.220E-06 0.799E-06 0.476E-14
   -.128E-02 -.783E-02 0.157E-12   0.143E-02 0.747E-02 0.877E-14   -.112E-03 0.391E-03 0.644E-20   0.344E-06 -.105E-05 0.568E-14
 -----------------------------------------------------------------------------------------------
   0.239E-05 0.149E-12 -.802E-08   -.110E-14 0.625E-14 0.293E-13   0.281E-05 0.542E-19 -.304E-17   0.390E-07 -.146E-15 -.213E-15
 
 
 POSITION                                       TOTAL-FORCE (eV/Angst)
 -----------------------------------------------------------------------------------
      1.92772      1.91772      0.00000        -0.083112     -0.000000     -0.000000
      5.75316      1.91772      0.00000         0.002667      0.000000     -0.000000
      1.91772      5.75316      0.00000        -0.000271      0.000000      0.000000
      5.75316      5.75316      0.00000         0.000747      0.000000     -0.000000
      1.91772      1.91772      3.83544        -0.000271     -0.000000      0.000000
      5.75316      1.91772      3.83544         0.000747     -0.000000      0.000000
      1.91772      5.75316      3.83544         0.000584      0.000000     -0.000000
      5.75316      5.75316      3.83544        -0.000633      0.000000      0.000000
      1.91772      0.00000      1.91772        -0.001456      0.000039     -0.000039
      5.75316      0.00000      1.91772        -0.000284     -0.000003      0.000003
      1.91772      3.83544      1.91772        -0.001456     -0.000039     -0.000039
      5.75316      3.83544      1.91772        -0.000284      0.000003      0.000003
      1.91772      0.00000      5.75316        -0.001456      0.000039      0.000039
      5.75316      0.00000      5.75316        -0.000284     -0.000003     -0.000003
      1.91772      3.83544      5.75316        -0.001456     -0.000039      0.000039
      5.75316      3.83544      5.75316        -0.000284      0.000003     -0.000003
      0.00000      1.91772      1.91772         0.010654     -0.000000     -0.011483
      3.83544      1.91772      1.91772         0.010885      0.000000      0.011823
      0.00000      5.75316      1.91772         0.000040     -0.000000     -0.000028
      3.83544      5.75316      1.91772         0.000045     -0.000000      0.000031
      0.00000      1.91772      5.75316         0.010654     -0.000000      0.011483
      3.83544      1.91772      5.75316         0.010885     -0.000000     -0.011823
      0.00000      5.75316      5.75316         0.000040     -0.000000      0.000028
      3.83544      5.75316      5.75316         0.000045     -0.000000     -0.000031
      0.00000      0.00000      0.00000         0.010654      0.011483      0.000000
      3.83544      0.00000      0.00000         0.010885     -0.011823      0.000000
      0.00000      3.83544      0.00000         0.010654     -0.011483      0.000000
      3.83544      3.83544      0.00000         0.010885      0.011823      0.000000
      0.00000      0.00000      3.83544         0.000040      0.000028     -0.000000
      3.83544      0.00000      3.83544         0.000045     -0.000031      0.000000
      0.00000      3.83544      3.83544         0.000040     -0.000028      0.000000
      3.83544      3.83544      3.83544         0.000045      0.000031      0.000000
 -----------------------------------------------------------------------------------
    total drift:                                0.000005      0.000000     -0.000000


--------------------------------------------------------------------------------------------------------



 mean value of Nose-termostat <S>:     1.000 mean value of <T> :     0.000
 mean temperature <T/S>/<1/S>  :     0.000

     LOOP+:  VPU time 2325.33: CPU time 2330.88
  
  
 General timing and accounting informations for this job:
 ========================================================
  
                  Total CPU time used (sec):     2348.479
                            User time (sec):     2267.930
                          System time (sec):       80.549
                         Elapsed time (sec):     2354.097
  
                   Maximum memory used (kb):     3918584.
                   Average memory used (kb):           0.
  
                          Minor page faults:       787573
                          Major page faults:            0
                 Voluntary context switches:          967
