<?xml version="1.0" encoding="ISO-8859-1"?>
<modeling>
 <generator>
  <i name="program" type="string">vasp</i>
  <i name="version" type="string">4.6.28 </i>
  <i name="subversion" type="string">25Jul05 complex  parallel</i>
  <i name="platform" type="string">LinuxIFC</i>
  <i name="date" type="string">2016 10 21</i>
  <i name="time" type="string">16:37:27</i>
 </generator>
 <incar>
  <i type="string" name="PREC">accurate</i>
  <i type="int" name="IALGO">    38</i>
  <i name="EDIFF">      0.00000001</i>
  <i type="int" name="IBRION">    -1</i>
  <i name="ENCUT">    500.00000000</i>
  <i type="logical" name="LREAL"> F  </i>
  <i type="int" name="ISMEAR">     0</i>
  <i name="SIGMA">      0.01000000</i>
  <i type="logical" name="LWAVE"> F  </i>
  <i type="logical" name="LCHARG"> F  </i>
 </incar>
 <kpoints>
  <generation param="Gamma">
   <v type="int" name="divisions">      12      12      12</v>
   <v name="usershift">      0.00000000      0.00000000      0.00000000</v>
   <v name="genvec1">      0.08333333      0.00000000      0.00000000</v>
   <v name="genvec2">      0.00000000      0.08333333      0.00000000</v>
   <v name="genvec3">      0.00000000      0.00000000      0.08333333</v>
   <v name="shift">      0.00000000      0.00000000      0.00000000</v>
  </generation>
  <varray name="kpointlist" >
   <v>       0.00000000      0.00000000      0.00000000</v>
   <v>       0.08333333      0.00000000      0.00000000</v>
   <v>       0.16666667      0.00000000      0.00000000</v>
   <v>       0.25000000      0.00000000      0.00000000</v>
   <v>       0.33333333      0.00000000      0.00000000</v>
   <v>       0.41666667      0.00000000      0.00000000</v>
   <v>       0.50000000      0.00000000      0.00000000</v>
   <v>       0.00000000      0.08333333      0.00000000</v>
   <v>       0.08333333      0.08333333      0.00000000</v>
   <v>       0.16666667      0.08333333      0.00000000</v>
   <v>       0.25000000      0.08333333      0.00000000</v>
   <v>       0.33333333      0.08333333      0.00000000</v>
   <v>       0.41666667      0.08333333      0.00000000</v>
   <v>       0.50000000      0.08333333      0.00000000</v>
   <v>       0.00000000      0.16666667      0.00000000</v>
   <v>       0.08333333      0.16666667      0.00000000</v>
   <v>       0.16666667      0.16666667      0.00000000</v>
   <v>       0.25000000      0.16666667      0.00000000</v>
   <v>       0.33333333      0.16666667      0.00000000</v>
   <v>       0.41666667      0.16666667      0.00000000</v>
   <v>       0.50000000      0.16666667      0.00000000</v>
   <v>       0.00000000      0.25000000      0.00000000</v>
   <v>       0.08333333      0.25000000      0.00000000</v>
   <v>       0.16666667      0.25000000      0.00000000</v>
   <v>       0.25000000      0.25000000      0.00000000</v>
   <v>       0.33333333      0.25000000      0.00000000</v>
   <v>       0.41666667      0.25000000      0.00000000</v>
   <v>       0.50000000      0.25000000      0.00000000</v>
   <v>       0.00000000      0.33333333      0.00000000</v>
   <v>       0.08333333      0.33333333      0.00000000</v>
   <v>       0.16666667      0.33333333      0.00000000</v>
   <v>       0.25000000      0.33333333      0.00000000</v>
   <v>       0.33333333      0.33333333      0.00000000</v>
   <v>       0.41666667      0.33333333      0.00000000</v>
   <v>       0.50000000      0.33333333      0.00000000</v>
   <v>       0.00000000      0.41666667      0.00000000</v>
   <v>       0.08333333      0.41666667      0.00000000</v>
   <v>       0.16666667      0.41666667      0.00000000</v>
   <v>       0.25000000      0.41666667      0.00000000</v>
   <v>       0.33333333      0.41666667      0.00000000</v>
   <v>       0.41666667      0.41666667      0.00000000</v>
   <v>       0.50000000      0.41666667      0.00000000</v>
   <v>       0.00000000      0.50000000      0.00000000</v>
   <v>       0.08333333      0.50000000      0.00000000</v>
   <v>       0.16666667      0.50000000      0.00000000</v>
   <v>       0.25000000      0.50000000      0.00000000</v>
   <v>       0.33333333      0.50000000      0.00000000</v>
   <v>       0.41666667      0.50000000      0.00000000</v>
   <v>       0.50000000      0.50000000      0.00000000</v>
   <v>       0.00000000      0.08333333      0.08333333</v>
   <v>       0.08333333      0.08333333      0.08333333</v>
   <v>       0.16666667      0.08333333      0.08333333</v>
   <v>       0.25000000      0.08333333      0.08333333</v>
   <v>       0.33333333      0.08333333      0.08333333</v>
   <v>       0.41666667      0.08333333      0.08333333</v>
   <v>       0.50000000      0.08333333      0.08333333</v>
   <v>       0.00000000      0.16666667      0.08333333</v>
   <v>       0.08333333      0.16666667      0.08333333</v>
   <v>       0.16666667      0.16666667      0.08333333</v>
   <v>       0.25000000      0.16666667      0.08333333</v>
   <v>       0.33333333      0.16666667      0.08333333</v>
   <v>       0.41666667      0.16666667      0.08333333</v>
   <v>       0.50000000      0.16666667      0.08333333</v>
   <v>       0.00000000      0.25000000      0.08333333</v>
   <v>       0.08333333      0.25000000      0.08333333</v>
   <v>       0.16666667      0.25000000      0.08333333</v>
   <v>       0.25000000      0.25000000      0.08333333</v>
   <v>       0.33333333      0.25000000      0.08333333</v>
   <v>       0.41666667      0.25000000      0.08333333</v>
   <v>       0.50000000      0.25000000      0.08333333</v>
   <v>       0.00000000      0.33333333      0.08333333</v>
   <v>       0.08333333      0.33333333      0.08333333</v>
   <v>       0.16666667      0.33333333      0.08333333</v>
   <v>       0.25000000      0.33333333      0.08333333</v>
   <v>       0.33333333      0.33333333      0.08333333</v>
   <v>       0.41666667      0.33333333      0.08333333</v>
   <v>       0.50000000      0.33333333      0.08333333</v>
   <v>       0.00000000      0.41666667      0.08333333</v>
   <v>       0.08333333      0.41666667      0.08333333</v>
   <v>       0.16666667      0.41666667      0.08333333</v>
   <v>       0.25000000      0.41666667      0.08333333</v>
   <v>       0.33333333      0.41666667      0.08333333</v>
   <v>       0.41666667      0.41666667      0.08333333</v>
   <v>       0.50000000      0.41666667      0.08333333</v>
   <v>       0.00000000      0.50000000      0.08333333</v>
   <v>       0.08333333      0.50000000      0.08333333</v>
   <v>       0.16666667      0.50000000      0.08333333</v>
   <v>       0.25000000      0.50000000      0.08333333</v>
   <v>       0.33333333      0.50000000      0.08333333</v>
   <v>       0.41666667      0.50000000      0.08333333</v>
   <v>       0.50000000      0.50000000      0.08333333</v>
   <v>       0.00000000      0.16666667      0.16666667</v>
   <v>       0.08333333      0.16666667      0.16666667</v>
   <v>       0.16666667      0.16666667      0.16666667</v>
   <v>       0.25000000      0.16666667      0.16666667</v>
   <v>       0.33333333      0.16666667      0.16666667</v>
   <v>       0.41666667      0.16666667      0.16666667</v>
   <v>       0.50000000      0.16666667      0.16666667</v>
   <v>       0.00000000      0.25000000      0.16666667</v>
   <v>       0.08333333      0.25000000      0.16666667</v>
   <v>       0.16666667      0.25000000      0.16666667</v>
   <v>       0.25000000      0.25000000      0.16666667</v>
   <v>       0.33333333      0.25000000      0.16666667</v>
   <v>       0.41666667      0.25000000      0.16666667</v>
   <v>       0.50000000      0.25000000      0.16666667</v>
   <v>       0.00000000      0.33333333      0.16666667</v>
   <v>       0.08333333      0.33333333      0.16666667</v>
   <v>       0.16666667      0.33333333      0.16666667</v>
   <v>       0.25000000      0.33333333      0.16666667</v>
   <v>       0.33333333      0.33333333      0.16666667</v>
   <v>       0.41666667      0.33333333      0.16666667</v>
   <v>       0.50000000      0.33333333      0.16666667</v>
   <v>       0.00000000      0.41666667      0.16666667</v>
   <v>       0.08333333      0.41666667      0.16666667</v>
   <v>       0.16666667      0.41666667      0.16666667</v>
   <v>       0.25000000      0.41666667      0.16666667</v>
   <v>       0.33333333      0.41666667      0.16666667</v>
   <v>       0.41666667      0.41666667      0.16666667</v>
   <v>       0.50000000      0.41666667      0.16666667</v>
   <v>       0.00000000      0.50000000      0.16666667</v>
   <v>       0.08333333      0.50000000      0.16666667</v>
   <v>       0.16666667      0.50000000      0.16666667</v>
   <v>       0.25000000      0.50000000      0.16666667</v>
   <v>       0.33333333      0.50000000      0.16666667</v>
   <v>       0.41666667      0.50000000      0.16666667</v>
   <v>       0.50000000      0.50000000      0.16666667</v>
   <v>       0.00000000      0.25000000      0.25000000</v>
   <v>       0.08333333      0.25000000      0.25000000</v>
   <v>       0.16666667      0.25000000      0.25000000</v>
   <v>       0.25000000      0.25000000      0.25000000</v>
   <v>       0.33333333      0.25000000      0.25000000</v>
   <v>       0.41666667      0.25000000      0.25000000</v>
   <v>       0.50000000      0.25000000      0.25000000</v>
   <v>       0.00000000      0.33333333      0.25000000</v>
   <v>       0.08333333      0.33333333      0.25000000</v>
   <v>       0.16666667      0.33333333      0.25000000</v>
   <v>       0.25000000      0.33333333      0.25000000</v>
   <v>       0.33333333      0.33333333      0.25000000</v>
   <v>       0.41666667      0.33333333      0.25000000</v>
   <v>       0.50000000      0.33333333      0.25000000</v>
   <v>       0.00000000      0.41666667      0.25000000</v>
   <v>       0.08333333      0.41666667      0.25000000</v>
   <v>       0.16666667      0.41666667      0.25000000</v>
   <v>       0.25000000      0.41666667      0.25000000</v>
   <v>       0.33333333      0.41666667      0.25000000</v>
   <v>       0.41666667      0.41666667      0.25000000</v>
   <v>       0.50000000      0.41666667      0.25000000</v>
   <v>       0.00000000      0.50000000      0.25000000</v>
   <v>       0.08333333      0.50000000      0.25000000</v>
   <v>       0.16666667      0.50000000      0.25000000</v>
   <v>       0.25000000      0.50000000      0.25000000</v>
   <v>       0.33333333      0.50000000      0.25000000</v>
   <v>       0.41666667      0.50000000      0.25000000</v>
   <v>       0.50000000      0.50000000      0.25000000</v>
   <v>       0.00000000      0.33333333      0.33333333</v>
   <v>       0.08333333      0.33333333      0.33333333</v>
   <v>       0.16666667      0.33333333      0.33333333</v>
   <v>       0.25000000      0.33333333      0.33333333</v>
   <v>       0.33333333      0.33333333      0.33333333</v>
   <v>       0.41666667      0.33333333      0.33333333</v>
   <v>       0.50000000      0.33333333      0.33333333</v>
   <v>       0.00000000      0.41666667      0.33333333</v>
   <v>       0.08333333      0.41666667      0.33333333</v>
   <v>       0.16666667      0.41666667      0.33333333</v>
   <v>       0.25000000      0.41666667      0.33333333</v>
   <v>       0.33333333      0.41666667      0.33333333</v>
   <v>       0.41666667      0.41666667      0.33333333</v>
   <v>       0.50000000      0.41666667      0.33333333</v>
   <v>       0.00000000      0.50000000      0.33333333</v>
   <v>       0.08333333      0.50000000      0.33333333</v>
   <v>       0.16666667      0.50000000      0.33333333</v>
   <v>       0.25000000      0.50000000      0.33333333</v>
   <v>       0.33333333      0.50000000      0.33333333</v>
   <v>       0.41666667      0.50000000      0.33333333</v>
   <v>       0.50000000      0.50000000      0.33333333</v>
   <v>       0.00000000      0.41666667      0.41666667</v>
   <v>       0.08333333      0.41666667      0.41666667</v>
   <v>       0.16666667      0.41666667      0.41666667</v>
   <v>       0.25000000      0.41666667      0.41666667</v>
   <v>       0.33333333      0.41666667      0.41666667</v>
   <v>       0.41666667      0.41666667      0.41666667</v>
   <v>       0.50000000      0.41666667      0.41666667</v>
   <v>       0.00000000      0.50000000      0.41666667</v>
   <v>       0.08333333      0.50000000      0.41666667</v>
   <v>       0.16666667      0.50000000      0.41666667</v>
   <v>       0.25000000      0.50000000      0.41666667</v>
   <v>       0.33333333      0.50000000      0.41666667</v>
   <v>       0.41666667      0.50000000      0.41666667</v>
   <v>       0.50000000      0.50000000      0.41666667</v>
   <v>       0.00000000      0.50000000      0.50000000</v>
   <v>       0.08333333      0.50000000      0.50000000</v>
   <v>       0.16666667      0.50000000      0.50000000</v>
   <v>       0.25000000      0.50000000      0.50000000</v>
   <v>       0.33333333      0.50000000      0.50000000</v>
   <v>       0.41666667      0.50000000      0.50000000</v>
   <v>       0.50000000      0.50000000      0.50000000</v>
  </varray>
  <varray name="weights" >
   <v>       0.00057870</v>
   <v>       0.00115741</v>
   <v>       0.00115741</v>
   <v>       0.00115741</v>
   <v>       0.00115741</v>
   <v>       0.00115741</v>
   <v>       0.00057870</v>
   <v>       0.00231481</v>
   <v>       0.00462963</v>
   <v>       0.00462963</v>
   <v>       0.00462963</v>
   <v>       0.00462963</v>
   <v>       0.00462963</v>
   <v>       0.00231481</v>
   <v>       0.00231481</v>
   <v>       0.00462963</v>
   <v>       0.00462963</v>
   <v>       0.00462963</v>
   <v>       0.00462963</v>
   <v>       0.00462963</v>
   <v>       0.00231481</v>
   <v>       0.00231481</v>
   <v>       0.00462963</v>
   <v>       0.00462963</v>
   <v>       0.00462963</v>
   <v>       0.00462963</v>
   <v>       0.00462963</v>
   <v>       0.00231481</v>
   <v>       0.00231481</v>
   <v>       0.00462963</v>
   <v>       0.00462963</v>
   <v>       0.00462963</v>
   <v>       0.00462963</v>
   <v>       0.00462963</v>
   <v>       0.00231481</v>
   <v>       0.00231481</v>
   <v>       0.00462963</v>
   <v>       0.00462963</v>
   <v>       0.00462963</v>
   <v>       0.00462963</v>
   <v>       0.00462963</v>
   <v>       0.00231481</v>
   <v>       0.00115741</v>
   <v>       0.00231481</v>
   <v>       0.00231481</v>
   <v>       0.00231481</v>
   <v>       0.00231481</v>
   <v>       0.00231481</v>
   <v>       0.00115741</v>
   <v>       0.00231481</v>
   <v>       0.00462963</v>
   <v>       0.00462963</v>
   <v>       0.00462963</v>
   <v>       0.00462963</v>
   <v>       0.00462963</v>
   <v>       0.00231481</v>
   <v>       0.00462963</v>
   <v>       0.00925926</v>
   <v>       0.00925926</v>
   <v>       0.00925926</v>
   <v>       0.00925926</v>
   <v>       0.00925926</v>
   <v>       0.00462963</v>
   <v>       0.00462963</v>
   <v>       0.00925926</v>
   <v>       0.00925926</v>
   <v>       0.00925926</v>
   <v>       0.00925926</v>
   <v>       0.00925926</v>
   <v>       0.00462963</v>
   <v>       0.00462963</v>
   <v>       0.00925926</v>
   <v>       0.00925926</v>
   <v>       0.00925926</v>
   <v>       0.00925926</v>
   <v>       0.00925926</v>
   <v>       0.00462963</v>
   <v>       0.00462963</v>
   <v>       0.00925926</v>
   <v>       0.00925926</v>
   <v>       0.00925926</v>
   <v>       0.00925926</v>
   <v>       0.00925926</v>
   <v>       0.00462963</v>
   <v>       0.00231481</v>
   <v>       0.00462963</v>
   <v>       0.00462963</v>
   <v>       0.00462963</v>
   <v>       0.00462963</v>
   <v>       0.00462963</v>
   <v>       0.00231481</v>
   <v>       0.00231481</v>
   <v>       0.00462963</v>
   <v>       0.00462963</v>
   <v>       0.00462963</v>
   <v>       0.00462963</v>
   <v>       0.00462963</v>
   <v>       0.00231481</v>
   <v>       0.00462963</v>
   <v>       0.00925926</v>
   <v>       0.00925926</v>
   <v>       0.00925926</v>
   <v>       0.00925926</v>
   <v>       0.00925926</v>
   <v>       0.00462963</v>
   <v>       0.00462963</v>
   <v>       0.00925926</v>
   <v>       0.00925926</v>
   <v>       0.00925926</v>
   <v>       0.00925926</v>
   <v>       0.00925926</v>
   <v>       0.00462963</v>
   <v>       0.00462963</v>
   <v>       0.00925926</v>
   <v>       0.00925926</v>
   <v>       0.00925926</v>
   <v>       0.00925926</v>
   <v>       0.00925926</v>
   <v>       0.00462963</v>
   <v>       0.00231481</v>
   <v>       0.00462963</v>
   <v>       0.00462963</v>
   <v>       0.00462963</v>
   <v>       0.00462963</v>
   <v>       0.00462963</v>
   <v>       0.00231481</v>
   <v>       0.00231481</v>
   <v>       0.00462963</v>
   <v>       0.00462963</v>
   <v>       0.00462963</v>
   <v>       0.00462963</v>
   <v>       0.00462963</v>
   <v>       0.00231481</v>
   <v>       0.00462963</v>
   <v>       0.00925926</v>
   <v>       0.00925926</v>
   <v>       0.00925926</v>
   <v>       0.00925926</v>
   <v>       0.00925926</v>
   <v>       0.00462963</v>
   <v>       0.00462963</v>
   <v>       0.00925926</v>
   <v>       0.00925926</v>
   <v>       0.00925926</v>
   <v>       0.00925926</v>
   <v>       0.00925926</v>
   <v>       0.00462963</v>
   <v>       0.00231481</v>
   <v>       0.00462963</v>
   <v>       0.00462963</v>
   <v>       0.00462963</v>
   <v>       0.00462963</v>
   <v>       0.00462963</v>
   <v>       0.00231481</v>
   <v>       0.00231481</v>
   <v>       0.00462963</v>
   <v>       0.00462963</v>
   <v>       0.00462963</v>
   <v>       0.00462963</v>
   <v>       0.00462963</v>
   <v>       0.00231481</v>
   <v>       0.00462963</v>
   <v>       0.00925926</v>
   <v>       0.00925926</v>
   <v>       0.00925926</v>
   <v>       0.00925926</v>
   <v>       0.00925926</v>
   <v>       0.00462963</v>
   <v>       0.00231481</v>
   <v>       0.00462963</v>
   <v>       0.00462963</v>
   <v>       0.00462963</v>
   <v>       0.00462963</v>
   <v>       0.00462963</v>
   <v>       0.00231481</v>
   <v>       0.00231481</v>
   <v>       0.00462963</v>
   <v>       0.00462963</v>
   <v>       0.00462963</v>
   <v>       0.00462963</v>
   <v>       0.00462963</v>
   <v>       0.00231481</v>
   <v>       0.00231481</v>
   <v>       0.00462963</v>
   <v>       0.00462963</v>
   <v>       0.00462963</v>
   <v>       0.00462963</v>
   <v>       0.00462963</v>
   <v>       0.00231481</v>
   <v>       0.00057870</v>
   <v>       0.00115741</v>
   <v>       0.00115741</v>
   <v>       0.00115741</v>
   <v>       0.00115741</v>
   <v>       0.00115741</v>
   <v>       0.00057870</v>
  </varray>
 </kpoints>
 <parameters>
  <separator name="general" >
   <i type="string" name="SYSTEM">unknown system</i>
   <i type="logical" name="LCOMPAT"> F  </i>
  </separator>
  <separator name="electronic" >
   <i type="string" name="PREC">accura</i>
   <i name="ENMAX">    500.00000000</i>
   <i name="ENAUG">    291.05200000</i>
   <i name="EDIFF">      0.00000001</i>
   <i type="int" name="IALGO">    38</i>
   <i type="int" name="IWAVPR">    10</i>
   <i type="int" name="NBANDS">    65</i>
   <i name="NELECT">     96.00000000</i>
   <separator name="electronic smearing" >
    <i type="int" name="ISMEAR">     0</i>
    <i name="SIGMA">      0.01000000</i>
   </separator>
   <separator name="electronic projectors" >
    <i type="logical" name="LREAL"> F  </i>
    <v name="ROPT">      0.00000000</v>
    <i type="int" name="LMAXPAW">  -100</i>
    <i type="int" name="LMAXMIX">     2</i>
   </separator>
   <separator name="electronic startup" >
    <i type="int" name="ISTART">     0</i>
    <i type="int" name="ICHARG">     2</i>
    <i type="int" name="INIWAV">     1</i>
   </separator>
   <separator name="electronic spin" >
    <i type="int" name="ISPIN">     1</i>
    <i type="logical" name="LNONCOLLINEAR"> F  </i>
    <v name="MAGMOM">      1.00000000      1.00000000      1.00000000      1.00000000      1.00000000      1.00000000      1.00000000      1.00000000      1.00000000      1.00000000      1.00000000      1.00000000      1.00000000      1.00000000      1.00000000      1.00000000      1.00000000      1.00000000      1.00000000      1.00000000
      1.00000000      1.00000000      1.00000000      1.00000000      1.00000000      1.00000000      1.00000000      1.00000000      1.00000000      1.00000000      1.00000000      1.00000000</v>
    <i name="NUPDOWN">     -1.00000000</i>
    <i type="logical" name="LSORBIT"> F  </i>
    <v name="SAXIS">      0.00000000      0.00000000      1.00000000</v>
    <i type="logical" name="LSPIRAL"> F  </i>
    <v name="QSPIRAL">      0.00000000      0.00000000      0.00000000</v>
    <i type="logical" name="LZEROZ"> F  </i>
   </separator>
   <separator name="electronic exchange-correlation" >
    <i type="string" name="GGA">--</i>
    <i type="int" name="VOSKOWN">     0</i>
    <i type="logical" name="LASPH"> F  </i>
    <i type="logical" name="LMETAGGA"> F  </i>
    <i type="string" name="GGA2">--</i>
   </separator>
   <separator name="electronic convergence" >
    <i type="int" name="NELM">    60</i>
    <i type="int" name="NELMDL">     0</i>
    <i type="int" name="NELMIN">     2</i>
    <i name="ENINI">    500.00000000</i>
    <separator name="electronic convergence detail" >
     <i type="logical" name="LDIAG"> T  </i>
     <i name="WEIMIN">      0.00000000</i>
     <i name="EBREAK">      0.00000000</i>
     <i name="DEPER">      0.30000000</i>
     <i type="int" name="NRMM">     4</i>
     <i name="TIME">      0.10000000</i>
    </separator>
   </separator>
   <separator name="electronic mixer" >
    <i name="AMIX">      0.40000000</i>
    <i name="BMIX">      1.00000000</i>
    <i name="AMIN">      0.10000000</i>
    <i name="AMIX_MAG">      1.60000000</i>
    <i name="BMIX_MAG">      1.00000000</i>
    <separator name="electronic mixer details" >
     <i type="int" name="IMIX">     4</i>
     <i type="int" name="MAXMIX">   -45</i>
     <i name="WC">    100.00000000</i>
     <i type="int" name="INIMIX">     1</i>
     <i type="int" name="MIXPRE">     1</i>
     <i type="int" name="MREMOVE">     5</i>
    </separator>
   </separator>
   <separator name="electronic dipolcorrection" >
    <i type="int" name="IDIPOL">     0</i>
    <i type="logical" name="LDIPOL"> F  </i>
    <v name="DIPOL">   -100.00000000</v>
    <i name="EFIELD">      0.00000000</i>
   </separator>
  </separator>
  <separator name="grids" >
   <i type="int" name="NGX">    56</i>
   <i type="int" name="NGY">    56</i>
   <i type="int" name="NGZ">    56</i>
   <i type="int" name="NGXF">   112</i>
   <i type="int" name="NGYF">   112</i>
   <i type="int" name="NGZF">   112</i>
   <i type="logical" name="ADDGRID"> F  </i>
  </separator>
  <separator name="ionic" >
   <i type="int" name="NSW">     0</i>
   <i type="int" name="IBRION">    -1</i>
   <i type="int" name="ISIF">     2</i>
   <i name="PSTRESS">      0.00000000</i>
   <i name="EDIFFG">      0.00000010</i>
   <i type="int" name="NFREE">     0</i>
   <i name="POTIM">      0.50000000</i>
   <i name="SMASS">     -3.00000000</i>
  </separator>
  <separator name="ionic md" >
   <i name="TEBEG">      0.00010000</i>
   <i name="TEEND">      0.00010000</i>
   <i type="int" name="NBLOCK">     1</i>
   <i type="int" name="KBLOCK">     1</i>
   <i type="int" name="NPACO">   256</i>
   <i name="APACO">     16.00000000</i>
  </separator>
  <separator name="symmetry" >
   <i type="int" name="ISYM">     2</i>
   <i name="SYMPREC">      0.00001000</i>
  </separator>
  <separator name="dos" >
   <i type="logical" name="LORBIT"> F  </i>
   <v name="RWIGS">     -1.00000000</v>
   <i type="int" name="NEDOS">   301</i>
   <i name="EMIN">     10.00000000</i>
   <i name="EMAX">    -10.00000000</i>
  </separator>
  <separator name="writing" >
   <i type="int" name="NWRITE">     2</i>
   <i type="logical" name="LWAVE"> F  </i>
   <i type="logical" name="LCHARG"> F  </i>
   <i type="logical" name="LPARD"> F  </i>
   <i type="logical" name="LVTOT"> F  </i>
   <i type="logical" name="LELF"> F  </i>
   <i type="logical" name="LOPTICS"> F  </i>
   <i name="STM">      0.00000000</i>
  </separator>
  <separator name="performance" >
   <i type="int" name="NPAR">     4</i>
   <i type="int" name="NSIM">     4</i>
   <i type="int" name="NBLK">   256</i>
   <i type="logical" name="LPLANE"> T  </i>
   <i type="logical" name="LCRITICAL_MEM"> F  </i>
   <i type="logical" name="LSCALAPACK"> F  </i>
   <i type="logical" name="LSCALU"> F  </i>
   <i type="logical" name="LASYNC"> F  </i>
  </separator>
  <separator name="miscellaneous" >
   <i type="int" name="IDIOT">     3</i>
   <i type="logical" name="LMUSIC"> F  </i>
   <v name="POMASS">     26.98200000</v>
   <i type="logical" name="LCORR"> T  </i>
  </separator>
  <i type="logical" name="LREAL_COMPAT"> F  </i>
  <i type="logical" name="GGA_COMPAT"> T  </i>
  <i type="logical" name="LBERRY"> F  </i>
  <i type="int" name="ICORELEVEL">     0</i>
  <i type="logical" name="LDAU"> F  </i>
  <i type="int" name="I_CONSTRAINED_M">     0</i>
 </parameters>
 <atominfo>
  <atoms>      32</atoms>
  <types>       1</types>
  <array name="atoms" >
   <dimension dim="1">ion</dimension>
   <field type="string">element</field>
   <field type="int">atomtype</field>
   <set>
    <rc><c>Al</c><c>   1</c></rc>
    <rc><c>Al</c><c>   1</c></rc>
    <rc><c>Al</c><c>   1</c></rc>
    <rc><c>Al</c><c>   1</c></rc>
    <rc><c>Al</c><c>   1</c></rc>
    <rc><c>Al</c><c>   1</c></rc>
    <rc><c>Al</c><c>   1</c></rc>
    <rc><c>Al</c><c>   1</c></rc>
    <rc><c>Al</c><c>   1</c></rc>
    <rc><c>Al</c><c>   1</c></rc>
    <rc><c>Al</c><c>   1</c></rc>
    <rc><c>Al</c><c>   1</c></rc>
    <rc><c>Al</c><c>   1</c></rc>
    <rc><c>Al</c><c>   1</c></rc>
    <rc><c>Al</c><c>   1</c></rc>
    <rc><c>Al</c><c>   1</c></rc>
    <rc><c>Al</c><c>   1</c></rc>
    <rc><c>Al</c><c>   1</c></rc>
    <rc><c>Al</c><c>   1</c></rc>
    <rc><c>Al</c><c>   1</c></rc>
    <rc><c>Al</c><c>   1</c></rc>
    <rc><c>Al</c><c>   1</c></rc>
    <rc><c>Al</c><c>   1</c></rc>
    <rc><c>Al</c><c>   1</c></rc>
    <rc><c>Al</c><c>   1</c></rc>
    <rc><c>Al</c><c>   1</c></rc>
    <rc><c>Al</c><c>   1</c></rc>
    <rc><c>Al</c><c>   1</c></rc>
    <rc><c>Al</c><c>   1</c></rc>
    <rc><c>Al</c><c>   1</c></rc>
    <rc><c>Al</c><c>   1</c></rc>
    <rc><c>Al</c><c>   1</c></rc>
   </set>
  </array>
  <array name="atomtypes" >
   <dimension dim="1">type</dimension>
   <field type="int">atomspertype</field>
   <field type="string">element</field>
   <field>mass</field>
   <field>valence</field>
   <field type="string">pseudopotential</field>
   <set>
    <rc><c>  32</c><c>Al</c><c>     26.98200000</c><c>      3.00000000</c><c> PAW_PBE Al 04Jan2001                   </c></rc>
   </set>
  </array>
 </atominfo>
 <structure name="initialpos" >
  <crystal>
   <varray name="basis" >
    <v>       7.67088210      0.00000000      0.00000000</v>
    <v>       0.00000000      7.67088210      0.00000000</v>
    <v>       0.00000000      0.00000000      7.67088210</v>
   </varray>
   <i name="volume">    451.37336024</i>
   <varray name="rec_basis" >
    <v>       0.13036310      0.00000000      0.00000000</v>
    <v>       0.00000000      0.13036310      0.00000000</v>
    <v>       0.00000000      0.00000000      0.13036310</v>
   </varray>
  </crystal>
  <varray name="positions" >
   <v>       0.25130363      0.25000000      0.00000000</v>
   <v>       0.75000000      0.25000000      0.00000000</v>
   <v>       0.25000000      0.75000000      0.00000000</v>
   <v>       0.75000000      0.75000000      0.00000000</v>
   <v>       0.25000000      0.25000000      0.50000000</v>
   <v>       0.75000000      0.25000000      0.50000000</v>
   <v>       0.25000000      0.75000000      0.50000000</v>
   <v>       0.75000000      0.75000000      0.50000000</v>
   <v>       0.25000000      0.00000000      0.25000000</v>
   <v>       0.75000000      0.00000000      0.25000000</v>
   <v>       0.25000000      0.50000000      0.25000000</v>
   <v>       0.75000000      0.50000000      0.25000000</v>
   <v>       0.25000000      0.00000000      0.75000000</v>
   <v>       0.75000000      0.00000000      0.75000000</v>
   <v>       0.25000000      0.50000000      0.75000000</v>
   <v>       0.75000000      0.50000000      0.75000000</v>
   <v>       0.00000000      0.25000000      0.25000000</v>
   <v>       0.50000000      0.25000000      0.25000000</v>
   <v>       0.00000000      0.75000000      0.25000000</v>
   <v>       0.50000000      0.75000000      0.25000000</v>
   <v>       0.00000000      0.25000000      0.75000000</v>
   <v>       0.50000000      0.25000000      0.75000000</v>
   <v>       0.00000000      0.75000000      0.75000000</v>
   <v>       0.50000000      0.75000000      0.75000000</v>
   <v>       0.00000000      0.00000000      0.00000000</v>
   <v>       0.50000000      0.00000000      0.00000000</v>
   <v>       0.00000000      0.50000000      0.00000000</v>
   <v>       0.50000000      0.50000000      0.00000000</v>
   <v>       0.00000000      0.00000000      0.50000000</v>
   <v>       0.50000000      0.00000000      0.50000000</v>
   <v>       0.00000000      0.50000000      0.50000000</v>
   <v>       0.50000000      0.50000000      0.50000000</v>
  </varray>
 </structure>
 <calculation>
  <scstep>
   <time name="dav">  133.03  133.42</time>
   <time name="total">  133.24  133.63</time>
   <energy>
    <i name="alphaZ">     -7.61990802</i>
    <i name="ewald">  -2478.73017096</i>
    <i name="hartreedc">     -2.10401837</i>
    <i name="XCdc">   -830.39434498</i>
    <i name="pawpsdc">   1137.73615723</i>
    <i name="pawaedc">   -115.16745734</i>
    <i name="eentropy">     -0.00025959</i>
    <i name="bandstr">    733.39225538</i>
    <i name="atom">   1713.22913220</i>
    <i name="e_fr_energy">    150.34138555</i>
    <i name="e_wo_entrp">    150.34164514</i>
    <i name="e_0_energy">    150.34151535</i>
   </energy>
  </scstep>
  <scstep>
   <time name="dav">  154.78  155.29</time>
   <time name="total">  154.80  155.31</time>
   <energy>
    <i name="e_fr_energy">   -102.40941642</i>
    <i name="e_wo_entrp">   -102.40875145</i>
    <i name="e_0_energy">   -102.40908394</i>
   </energy>
  </scstep>
  <scstep>
   <time name="dav">  160.48  160.92</time>
   <time name="total">  160.50  160.94</time>
   <energy>
    <i name="e_fr_energy">   -116.87054836</i>
    <i name="e_wo_entrp">   -116.87005867</i>
    <i name="e_0_energy">   -116.87030352</i>
   </energy>
  </scstep>
  <scstep>
   <time name="dav">  154.60  155.04</time>
   <time name="total">  154.62  155.06</time>
   <energy>
    <i name="e_fr_energy">   -117.16897208</i>
    <i name="e_wo_entrp">   -117.16838626</i>
    <i name="e_0_energy">   -117.16867917</i>
   </energy>
  </scstep>
  <scstep>
   <time name="dav">  155.31  155.75</time>
   <time name="total">  162.70  163.16</time>
   <energy>
    <i name="e_fr_energy">   -117.17294594</i>
    <i name="e_wo_entrp">   -117.17236145</i>
    <i name="e_0_energy">   -117.17265370</i>
   </energy>
  </scstep>
  <scstep>
   <time name="dav">  153.69  153.95</time>
   <time name="total">  161.27  161.55</time>
   <energy>
    <i name="e_fr_energy">   -116.67317965</i>
    <i name="e_wo_entrp">   -116.67269898</i>
    <i name="e_0_energy">   -116.67293932</i>
   </energy>
  </scstep>
  <scstep>
   <time name="dav">  146.17  146.60</time>
   <time name="total">  153.71  154.17</time>
   <energy>
    <i name="e_fr_energy">   -116.31386811</i>
    <i name="e_wo_entrp">   -116.31345984</i>
    <i name="e_0_energy">   -116.31366398</i>
   </energy>
  </scstep>
  <scstep>
   <time name="dav">  158.48  158.76</time>
   <time name="total">  166.27  166.57</time>
   <energy>
    <i name="e_fr_energy">   -116.31407940</i>
    <i name="e_wo_entrp">   -116.31366659</i>
    <i name="e_0_energy">   -116.31387299</i>
   </energy>
  </scstep>
  <scstep>
   <time name="dav">  152.18  152.57</time>
   <time name="total">  159.69  160.10</time>
   <energy>
    <i name="e_fr_energy">   -116.31411288</i>
    <i name="e_wo_entrp">   -116.31369694</i>
    <i name="e_0_energy">   -116.31390491</i>
   </energy>
  </scstep>
  <scstep>
   <time name="dav">  155.75  156.10</time>
   <time name="total">  163.98  164.35</time>
   <energy>
    <i name="e_fr_energy">   -116.31411673</i>
    <i name="e_wo_entrp">   -116.31370041</i>
    <i name="e_0_energy">   -116.31390857</i>
   </energy>
  </scstep>
  <scstep>
   <time name="dav">  153.90  154.21</time>
   <time name="total">  161.75  162.07</time>
   <energy>
    <i name="e_fr_energy">   -116.31411586</i>
    <i name="e_wo_entrp">   -116.31369948</i>
    <i name="e_0_energy">   -116.31390767</i>
   </energy>
  </scstep>
  <scstep>
   <time name="dav">  116.79  117.06</time>
   <time name="total">  124.42  124.70</time>
   <energy>
    <i name="e_fr_energy">   -116.31411555</i>
    <i name="e_wo_entrp">   -116.31369913</i>
    <i name="e_0_energy">   -116.31390734</i>
   </energy>
  </scstep>
  <scstep>
   <time name="dav">  104.77  105.01</time>
   <time name="total">  112.64  112.89</time>
   <energy>
    <i name="e_fr_energy">   -116.31411544</i>
    <i name="e_wo_entrp">   -116.31369902</i>
    <i name="e_0_energy">   -116.31390723</i>
   </energy>
  </scstep>
  <scstep>
   <time name="dav">  103.51  103.68</time>
   <time name="total">  111.55  111.73</time>
   <energy>
    <i name="e_fr_energy">   -116.31411542</i>
    <i name="e_wo_entrp">   -116.31369901</i>
    <i name="e_0_energy">   -116.31390722</i>
   </energy>
  </scstep>
  <scstep>
   <time name="dav">  102.67  102.83</time>
   <time name="total">  102.93  103.10</time>
   <energy>
    <i name="alphaZ">     -7.61990802</i>
    <i name="ewald">  -2478.73017096</i>
    <i name="hartreedc">     -4.63374021</i>
    <i name="XCdc">   -825.75958914</i>
    <i name="pawpsdc">   1161.08089364</i>
    <i name="pawaedc">   -139.94358260</i>
    <i name="eentropy">     -0.00041642</i>
    <i name="bandstr">    466.06326608</i>
    <i name="atom">   1713.22913220</i>
    <i name="e_fr_energy">   -116.31411542</i>
    <i name="e_wo_entrp">   -116.31369900</i>
    <i name="e_0_energy">   -116.31390721</i>
   </energy>
  </scstep>
  <structure>
   <crystal>
    <varray name="basis" >
     <v>       7.67088210      0.00000000      0.00000000</v>
     <v>       0.00000000      7.67088210      0.00000000</v>
     <v>       0.00000000      0.00000000      7.67088210</v>
    </varray>
    <i name="volume">    451.37336024</i>
    <varray name="rec_basis" >
     <v>       0.13036310      0.00000000      0.00000000</v>
     <v>       0.00000000      0.13036310      0.00000000</v>
     <v>       0.00000000      0.00000000      0.13036310</v>
    </varray>
   </crystal>
   <varray name="positions" >
    <v>       0.25130363      0.25000000      0.00000000</v>
    <v>       0.75000000      0.25000000      0.00000000</v>
    <v>       0.25000000      0.75000000      0.00000000</v>
    <v>       0.75000000      0.75000000      0.00000000</v>
    <v>       0.25000000      0.25000000      0.50000000</v>
    <v>       0.75000000      0.25000000      0.50000000</v>
    <v>       0.25000000      0.75000000      0.50000000</v>
    <v>       0.75000000      0.75000000      0.50000000</v>
    <v>       0.25000000      0.00000000      0.25000000</v>
    <v>       0.75000000      0.00000000      0.25000000</v>
    <v>       0.25000000      0.50000000      0.25000000</v>
    <v>       0.75000000      0.50000000      0.25000000</v>
    <v>       0.25000000      0.00000000      0.75000000</v>
    <v>       0.75000000      0.00000000      0.75000000</v>
    <v>       0.25000000      0.50000000      0.75000000</v>
    <v>       0.75000000      0.50000000      0.75000000</v>
    <v>       0.00000000      0.25000000      0.25000000</v>
    <v>       0.50000000      0.25000000      0.25000000</v>
    <v>       0.00000000      0.75000000      0.25000000</v>
    <v>       0.50000000      0.75000000      0.25000000</v>
    <v>       0.00000000      0.25000000      0.75000000</v>
    <v>       0.50000000      0.25000000      0.75000000</v>
    <v>       0.00000000      0.75000000      0.75000000</v>
    <v>       0.50000000      0.75000000      0.75000000</v>
    <v>       0.00000000      0.00000000      0.00000000</v>
    <v>       0.50000000      0.00000000      0.00000000</v>
    <v>       0.00000000      0.50000000      0.00000000</v>
    <v>       0.50000000      0.50000000      0.00000000</v>
    <v>       0.00000000      0.00000000      0.50000000</v>
    <v>       0.50000000      0.00000000      0.50000000</v>
    <v>       0.00000000      0.50000000      0.50000000</v>
    <v>       0.50000000      0.50000000      0.50000000</v>
   </varray>
  </structure>
  <varray name="forces" >
   <v>      -0.08311207     -0.00000000     -0.00000000</v>
   <v>       0.00266719      0.00000000     -0.00000000</v>
   <v>      -0.00027147      0.00000000      0.00000000</v>
   <v>       0.00074726      0.00000000     -0.00000000</v>
   <v>      -0.00027147     -0.00000000      0.00000000</v>
   <v>       0.00074726     -0.00000000      0.00000000</v>
   <v>       0.00058399      0.00000000     -0.00000000</v>
   <v>      -0.00063326      0.00000000      0.00000000</v>
   <v>      -0.00145568      0.00003930     -0.00003930</v>
   <v>      -0.00028367     -0.00000307      0.00000307</v>
   <v>      -0.00145568     -0.00003930     -0.00003930</v>
   <v>      -0.00028367      0.00000307      0.00000307</v>
   <v>      -0.00145568      0.00003930      0.00003930</v>
   <v>      -0.00028367     -0.00000307     -0.00000307</v>
   <v>      -0.00145568     -0.00003930      0.00003930</v>
   <v>      -0.00028367      0.00000307     -0.00000307</v>
   <v>       0.01065427     -0.00000000     -0.01148282</v>
   <v>       0.01088487      0.00000000      0.01182321</v>
   <v>       0.00004038     -0.00000000     -0.00002762</v>
   <v>       0.00004547     -0.00000000      0.00003110</v>
   <v>       0.01065427     -0.00000000      0.01148282</v>
   <v>       0.01088487     -0.00000000     -0.01182321</v>
   <v>       0.00004038     -0.00000000      0.00002762</v>
   <v>       0.00004547     -0.00000000     -0.00003110</v>
   <v>       0.01065427      0.01148282      0.00000000</v>
   <v>       0.01088487     -0.01182321      0.00000000</v>
   <v>       0.01065427     -0.01148282      0.00000000</v>
   <v>       0.01088487      0.01182321      0.00000000</v>
   <v>       0.00004038      0.00002762     -0.00000000</v>
   <v>       0.00004547     -0.00003110      0.00000000</v>
   <v>       0.00004038     -0.00002762      0.00000000</v>
   <v>       0.00004547      0.00003110      0.00000000</v>
  </varray>
  <varray name="stress" >
   <v>     171.94114657      0.00000000      0.00000000</v>
   <v>      -0.00000000    171.93708956      0.00000000</v>
   <v>       0.00000000      0.00000000    171.93708956</v>
  </varray>
  <energy>
   <i name="e_fr_energy">   -116.31411542</i>
   <i name="e_wo_entrp">   -116.31390721</i>
   <i name="e_0_energy">     -0.00041642</i>
  </energy>
  <eigenvalues>
   <array>
    <dimension dim="1">band</dimension>
    <dimension dim="2">kpoint</dimension>
    <dimension dim="3">spin</dimension>
    <field>eigene</field>
    <field>occ</field>
    <set>
     <set comment="spin 1">
      <set comment="kpoint 1">
       <r>  -2.5254  1.0000</r>
       <r>  -0.0421  1.0000</r>
       <r>  -0.0380  1.0000</r>
       <r>  -0.0380  1.0000</r>
       <r>  -0.0380  1.0000</r>
       <r>  -0.0380  1.0000</r>
       <r>  -0.0340  1.0000</r>
       <r>   2.3904  1.0000</r>
       <r>   2.3949  1.0000</r>
       <r>   2.3949  1.0000</r>
       <r>   2.3968  1.0000</r>
       <r>   2.3970  1.0000</r>
       <r>   2.3970  1.0000</r>
       <r>   2.3970  1.0000</r>
       <r>   2.3970  1.0000</r>
       <r>   2.3972  1.0000</r>
       <r>   2.3991  1.0000</r>
       <r>   2.3991  1.0000</r>
       <r>   2.4036  1.0000</r>
       <r>   4.5017  1.0000</r>
       <r>   4.5017  1.0000</r>
       <r>   4.5017  1.0000</r>
       <r>   4.5017  1.0000</r>
       <r>   5.1328  1.0000</r>
       <r>   5.1328  1.0000</r>
       <r>   5.1328  1.0000</r>
       <r>   5.1329  1.0000</r>
       <r>   6.4354  1.0000</r>
       <r>   6.4354  1.0000</r>
       <r>   6.4355  1.0000</r>
       <r>   8.0622  1.0000</r>
       <r>   8.0623  1.0000</r>
       <r>   8.0623  1.0000</r>
       <r>   8.6885  1.0000</r>
       <r>   8.6885  1.0000</r>
       <r>   8.6933  1.0000</r>
       <r>   8.6933  1.0000</r>
       <r>   8.6935  1.0000</r>
       <r>   8.6935  1.0000</r>
       <r>   8.6935  1.0000</r>
       <r>   8.6935  1.0000</r>
       <r>   8.6937  1.0000</r>
       <r>   8.6937  1.0000</r>
       <r>   8.6984  1.0000</r>
       <r>   8.6984  1.0000</r>
       <r>   9.6049  1.0000</r>
       <r>   9.6096  1.0000</r>
       <r>   9.6096  1.0000</r>
       <r>   9.6096  1.0000</r>
       <r>   9.6096  1.0000</r>
       <r>   9.6143  1.0000</r>
       <r>  10.9633  0.0000</r>
       <r>  10.9633  0.0000</r>
       <r>  10.9646  0.0000</r>
       <r>  10.9675  0.0000</r>
       <r>  10.9677  0.0000</r>
       <r>  10.9677  0.0000</r>
       <r>  10.9677  0.0000</r>
       <r>  10.9677  0.0000</r>
       <r>  10.9678  0.0000</r>
       <r>  10.9708  0.0000</r>
       <r>  10.9720  0.0000</r>
       <r>  10.9720  0.0000</r>
       <r>  11.7789  0.0000</r>
       <r>  11.7793  0.0000</r>
       <r>  11.7793  0.0000</r>
       <r>  11.7793  0.0000</r>
       <r>  11.7807  0.0000</r>
      </set>
      <set comment="kpoint 2">
       <r>  -2.5079  1.0000</r>
       <r>  -0.4318  1.0000</r>
       <r>  -0.0210  1.0000</r>
       <r>  -0.0209  1.0000</r>
       <r>  -0.0209  1.0000</r>
       <r>  -0.0209  1.0000</r>
       <r>   0.3884  1.0000</r>
       <r>   2.0116  1.0000</r>
       <r>   2.0117  1.0000</r>
       <r>   2.0117  1.0000</r>
       <r>   2.0117  1.0000</r>
       <r>   2.4137  1.0000</r>
       <r>   2.4137  1.0000</r>
       <r>   2.4137  1.0000</r>
       <r>   2.4137  1.0000</r>
       <r>   2.8141  1.0000</r>
       <r>   2.8141  1.0000</r>
       <r>   2.8141  1.0000</r>
       <r>   2.8141  1.0000</r>
       <r>   4.3258  1.0000</r>
       <r>   4.3258  1.0000</r>
       <r>   4.3258  1.0000</r>
       <r>   4.3258  1.0000</r>
       <r>   5.3405  1.0000</r>
       <r>   5.3405  1.0000</r>
       <r>   5.3405  1.0000</r>
       <r>   5.3405  1.0000</r>
       <r>   6.1314  1.0000</r>
       <r>   6.4511  1.0000</r>
       <r>   6.4511  1.0000</r>
       <r>   8.0781  1.0000</r>
       <r>   8.0781  1.0000</r>
       <r>   8.3320  1.0000</r>
       <r>   8.3320  1.0000</r>
       <r>   8.3751  1.0000</r>
       <r>   8.3753  1.0000</r>
       <r>   8.3753  1.0000</r>
       <r>   8.3753  1.0000</r>
       <r>   8.3955  1.0000</r>
       <r>   8.7092  1.0000</r>
       <r>   8.7092  1.0000</r>
       <r>   8.7092  1.0000</r>
       <r>   8.7092  1.0000</r>
       <r>   9.0867  1.0000</r>
       <r>   9.0867  1.0000</r>
       <r>   9.5528  1.0000</r>
       <r>   9.5529  1.0000</r>
       <r>   9.8555  0.0000</r>
       <r>   9.8555  0.0000</r>
       <r>   9.8555  0.0000</r>
       <r>   9.8555  0.0000</r>
       <r>  10.6038  0.0000</r>
       <r>  10.6038  0.0000</r>
       <r>  10.6039  0.0000</r>
       <r>  10.6039  0.0000</r>
       <r>  10.7204  0.0000</r>
       <r>  10.7205  0.0000</r>
       <r>  10.7205  0.0000</r>
       <r>  10.7205  0.0000</r>
       <r>  11.3633  0.0000</r>
       <r>  11.3633  0.0000</r>
       <r>  11.3633  0.0000</r>
       <r>  11.3633  0.0000</r>
       <r>  11.8650  0.0000</r>
       <r>  11.8799  0.0000</r>
       <r>  11.8973  0.0000</r>
       <r>  11.8973  0.0000</r>
       <r>  11.8974  0.0000</r>
      </set>
      <set comment="kpoint 3">
       <r>  -2.4556  1.0000</r>
       <r>  -0.7925  1.0000</r>
       <r>   0.0303  1.0000</r>
       <r>   0.0303  1.0000</r>
       <r>   0.0303  1.0000</r>
       <r>   0.0303  1.0000</r>
       <r>   0.8470  1.0000</r>
       <r>   1.6586  1.0000</r>
       <r>   1.6587  1.0000</r>
       <r>   1.6587  1.0000</r>
       <r>   1.6587  1.0000</r>
       <r>   2.4638  1.0000</r>
       <r>   2.4638  1.0000</r>
       <r>   2.4638  1.0000</r>
       <r>   2.4638  1.0000</r>
       <r>   3.2625  1.0000</r>
       <r>   3.2625  1.0000</r>
       <r>   3.2625  1.0000</r>
       <r>   3.2625  1.0000</r>
       <r>   4.0262  1.0000</r>
       <r>   4.0262  1.0000</r>
       <r>   4.0262  1.0000</r>
       <r>   4.0262  1.0000</r>
       <r>   5.5351  1.0000</r>
       <r>   5.7353  1.0000</r>
       <r>   5.7353  1.0000</r>
       <r>   5.7353  1.0000</r>
       <r>   5.7353  1.0000</r>
       <r>   6.4980  1.0000</r>
       <r>   6.4980  1.0000</r>
       <r>   7.7980  1.0000</r>
       <r>   7.7980  1.0000</r>
       <r>   7.7980  1.0000</r>
       <r>   7.7980  1.0000</r>
       <r>   8.0022  1.0000</r>
       <r>   8.0022  1.0000</r>
       <r>   8.1254  1.0000</r>
       <r>   8.1254  1.0000</r>
       <r>   8.7565  1.0000</r>
       <r>   8.7565  1.0000</r>
       <r>   8.7565  1.0000</r>
       <r>   8.7565  1.0000</r>
       <r>   9.0788  1.0000</r>
       <r>   9.4057  1.0000</r>
       <r>   9.4057  1.0000</r>
       <r>   9.5115  1.0000</r>
       <r>   9.5115  1.0000</r>
       <r>  10.1897  0.0000</r>
       <r>  10.1899  0.0000</r>
       <r>  10.1899  0.0000</r>
       <r>  10.1900  0.0000</r>
       <r>  10.2139  0.0000</r>
       <r>  10.2140  0.0000</r>
       <r>  10.2140  0.0000</r>
       <r>  10.2143  0.0000</r>
       <r>  10.2719  0.0000</r>
       <r>  10.2719  0.0000</r>
       <r>  10.2720  0.0000</r>
       <r>  10.2720  0.0000</r>
       <r>  11.7907  0.0000</r>
       <r>  11.7907  0.0000</r>
       <r>  11.7907  0.0000</r>
       <r>  11.7907  0.0000</r>
       <r>  12.0988  0.0000</r>
       <r>  12.0988  0.0000</r>
       <r>  12.2535  0.0000</r>
       <r>  12.2564  0.0000</r>
       <r>  12.2600  0.0000</r>
      </set>
      <set comment="kpoint 4">
       <r>  -2.3684  1.0000</r>
       <r>  -1.1198  1.0000</r>
       <r>   0.1157  1.0000</r>
       <r>   0.1157  1.0000</r>
       <r>   0.1157  1.0000</r>
       <r>   0.1157  1.0000</r>
       <r>   1.3352  1.0000</r>
       <r>   1.3382  1.0000</r>
       <r>   1.3382  1.0000</r>
       <r>   1.3382  1.0000</r>
       <r>   1.3405  1.0000</r>
       <r>   2.5471  1.0000</r>
       <r>   2.5471  1.0000</r>
       <r>   2.5471  1.0000</r>
       <r>   2.5471  1.0000</r>
       <r>   3.7279  1.0000</r>
       <r>   3.7285  1.0000</r>
       <r>   3.7285  1.0000</r>
       <r>   3.7287  1.0000</r>
       <r>   3.7414  1.0000</r>
       <r>   3.7416  1.0000</r>
       <r>   3.7416  1.0000</r>
       <r>   3.7422  1.0000</r>
       <r>   4.8831  1.0000</r>
       <r>   6.1913  1.0000</r>
       <r>   6.1913  1.0000</r>
       <r>   6.1913  1.0000</r>
       <r>   6.1913  1.0000</r>
       <r>   6.5762  1.0000</r>
       <r>   6.5762  1.0000</r>
       <r>   7.1753  1.0000</r>
       <r>   7.1753  1.0000</r>
       <r>   7.1753  1.0000</r>
       <r>   7.1753  1.0000</r>
       <r>   7.7041  1.0000</r>
       <r>   7.7041  1.0000</r>
       <r>   8.2039  1.0000</r>
       <r>   8.2039  1.0000</r>
       <r>   8.8353  1.0000</r>
       <r>   8.8353  1.0000</r>
       <r>   8.8353  1.0000</r>
       <r>   8.8353  1.0000</r>
       <r>   9.2112  1.0000</r>
       <r>   9.2112  1.0000</r>
       <r>   9.5818  1.0000</r>
       <r>   9.5818  1.0000</r>
       <r>   9.5819  1.0000</r>
       <r>   9.5819  1.0000</r>
       <r>   9.8760  0.0000</r>
       <r>   9.9668  0.0000</r>
       <r>   9.9668  0.0000</r>
       <r>   9.9716  0.0000</r>
       <r>   9.9716  0.0000</r>
       <r>   9.9730  0.0000</r>
       <r>   9.9730  0.0000</r>
       <r>  10.4991  0.0000</r>
       <r>  10.4991  0.0000</r>
       <r>  10.4991  0.0000</r>
       <r>  10.4991  0.0000</r>
       <r>  11.9512  0.0000</r>
       <r>  11.9512  0.0000</r>
       <r>  11.9512  0.0000</r>
       <r>  11.9512  0.0000</r>
       <r>  12.2500  0.0000</r>
       <r>  12.2500  0.0000</r>
       <r>  12.2500  0.0000</r>
       <r>  12.2501  0.0000</r>
       <r>  12.4367  0.0000</r>
      </set>
      <set comment="kpoint 5">
       <r>  -2.2464  1.0000</r>
       <r>  -1.4134  1.0000</r>
       <r>   0.2351  1.0000</r>
       <r>   0.2351  1.0000</r>
       <r>   0.2351  1.0000</r>
       <r>   0.2351  1.0000</r>
       <r>   1.0508  1.0000</r>
       <r>   1.0508  1.0000</r>
       <r>   1.0508  1.0000</r>
       <r>   1.0508  1.0000</r>
       <r>   1.8589  1.0000</r>
       <r>   2.6636  1.0000</r>
       <r>   2.6637  1.0000</r>
       <r>   2.6637  1.0000</r>
       <r>   2.6637  1.0000</r>
       <r>   3.4545  1.0000</r>
       <r>   3.4545  1.0000</r>
       <r>   3.4545  1.0000</r>
       <r>   3.4545  1.0000</r>
       <r>   4.2325  1.0000</r>
       <r>   4.2502  1.0000</r>
       <r>   4.2502  1.0000</r>
       <r>   4.2502  1.0000</r>
       <r>   4.2502  1.0000</r>
       <r>   6.5513  1.0000</r>
       <r>   6.5513  1.0000</r>
       <r>   6.5514  1.0000</r>
       <r>   6.5514  1.0000</r>
       <r>   6.6843  1.0000</r>
       <r>   6.6843  1.0000</r>
       <r>   6.6867  1.0000</r>
       <r>   6.6867  1.0000</r>
       <r>   6.6881  1.0000</r>
       <r>   6.6881  1.0000</r>
       <r>   7.4375  1.0000</r>
       <r>   7.4375  1.0000</r>
       <r>   8.3124  1.0000</r>
       <r>   8.3124  1.0000</r>
       <r>   8.9453  1.0000</r>
       <r>   8.9453  1.0000</r>
       <r>   8.9456  1.0000</r>
       <r>   8.9457  1.0000</r>
       <r>   8.9635  1.0000</r>
       <r>   8.9637  1.0000</r>
       <r>   8.9639  1.0000</r>
       <r>   8.9639  1.0000</r>
       <r>   9.0028  1.0000</r>
       <r>   9.0029  1.0000</r>
       <r>   9.7031  1.0000</r>
       <r>   9.7031  1.0000</r>
       <r>   9.7031  1.0000</r>
       <r>   9.7031  1.0000</r>
       <r>  10.4563  0.0000</r>
       <r>  10.4563  0.0000</r>
       <r>  10.7295  0.0000</r>
       <r>  10.7296  0.0000</r>
       <r>  10.7297  0.0000</r>
       <r>  10.7297  0.0000</r>
       <r>  10.7299  0.0000</r>
       <r>  11.6635  0.0000</r>
       <r>  11.6635  0.0000</r>
       <r>  11.6635  0.0000</r>
       <r>  11.6635  0.0000</r>
       <r>  12.7187  0.0000</r>
       <r>  12.7202  0.0000</r>
       <r>  12.7411  0.0000</r>
       <r>  12.7411  0.0000</r>
       <r>  12.7420  0.0000</r>
      </set>
      <set comment="kpoint 6">
       <r>  -2.0898  1.0000</r>
       <r>  -1.6731  1.0000</r>
       <r>   0.3884  1.0000</r>
       <r>   0.3885  1.0000</r>
       <r>   0.3885  1.0000</r>
       <r>   0.3885  1.0000</r>
       <r>   0.7965  1.0000</r>
       <r>   0.7965  1.0000</r>
       <r>   0.7965  1.0000</r>
       <r>   0.7965  1.0000</r>
       <r>   2.4106  1.0000</r>
       <r>   2.8131  1.0000</r>
       <r>   2.8131  1.0000</r>
       <r>   2.8131  1.0000</r>
       <r>   2.8131  1.0000</r>
       <r>   3.2093  1.0000</r>
       <r>   3.2093  1.0000</r>
       <r>   3.2093  1.0000</r>
       <r>   3.2093  1.0000</r>
       <r>   3.5999  1.0000</r>
       <r>   4.7876  1.0000</r>
       <r>   4.7876  1.0000</r>
       <r>   4.7876  1.0000</r>
       <r>   4.7876  1.0000</r>
       <r>   5.9413  1.0000</r>
       <r>   5.9413  1.0000</r>
       <r>   5.9413  1.0000</r>
       <r>   5.9413  1.0000</r>
       <r>   6.8265  1.0000</r>
       <r>   6.8265  1.0000</r>
       <r>   7.2021  1.0000</r>
       <r>   7.2021  1.0000</r>
       <r>   7.2151  1.0000</r>
       <r>   7.2151  1.0000</r>
       <r>   7.2154  1.0000</r>
       <r>   7.2154  1.0000</r>
       <r>   8.3575  1.0000</r>
       <r>   8.3575  1.0000</r>
       <r>   8.3575  1.0000</r>
       <r>   8.3575  1.0000</r>
       <r>   8.4497  1.0000</r>
       <r>   8.4497  1.0000</r>
       <r>   8.7999  1.0000</r>
       <r>   8.7999  1.0000</r>
       <r>   9.0876  1.0000</r>
       <r>   9.0876  1.0000</r>
       <r>   9.0876  1.0000</r>
       <r>   9.0876  1.0000</r>
       <r>   9.4663  1.0000</r>
       <r>   9.4663  1.0000</r>
       <r>   9.4663  1.0000</r>
       <r>   9.4663  1.0000</r>
       <r>  10.9435  0.0000</r>
       <r>  10.9435  0.0000</r>
       <r>  10.9435  0.0000</r>
       <r>  10.9435  0.0000</r>
       <r>  10.9760  0.0000</r>
       <r>  10.9760  0.0000</r>
       <r>  11.4019  0.0000</r>
       <r>  11.4019  0.0000</r>
       <r>  11.4019  0.0000</r>
       <r>  11.4019  0.0000</r>
       <r>  11.6235  0.0000</r>
       <r>  12.1081  0.0000</r>
       <r>  12.1081  0.0000</r>
       <r>  13.2638  0.0000</r>
       <r>  13.2642  0.0000</r>
       <r>  13.2684  0.0000</r>
      </set>
      <set comment="kpoint 7">
       <r>  -1.9002  1.0000</r>
       <r>  -1.8970  1.0000</r>
       <r>   0.5713  1.0000</r>
       <r>   0.5747  1.0000</r>
       <r>   0.5747  1.0000</r>
       <r>   0.5756  1.0000</r>
       <r>   0.5758  1.0000</r>
       <r>   0.5766  1.0000</r>
       <r>   0.5766  1.0000</r>
       <r>   0.5800  1.0000</r>
       <r>   2.9883  1.0000</r>
       <r>   2.9915  1.0000</r>
       <r>   2.9938  1.0000</r>
       <r>   2.9938  1.0000</r>
       <r>   2.9940  1.0000</r>
       <r>   2.9947  1.0000</r>
       <r>   2.9957  1.0000</r>
       <r>   2.9966  1.0000</r>
       <r>   2.9966  1.0000</r>
       <r>   2.9996  1.0000</r>
       <r>   5.3511  1.0000</r>
       <r>   5.3511  1.0000</r>
       <r>   5.3519  1.0000</r>
       <r>   5.3521  1.0000</r>
       <r>   5.3522  1.0000</r>
       <r>   5.3523  1.0000</r>
       <r>   5.3530  1.0000</r>
       <r>   5.3530  1.0000</r>
       <r>   6.9970  1.0000</r>
       <r>   6.9970  1.0000</r>
       <r>   7.0004  1.0000</r>
       <r>   7.0004  1.0000</r>
       <r>   7.7722  1.0000</r>
       <r>   7.7722  1.0000</r>
       <r>   7.7724  1.0000</r>
       <r>   7.7730  1.0000</r>
       <r>   7.7732  1.0000</r>
       <r>   7.7739  1.0000</r>
       <r>   7.7740  1.0000</r>
       <r>   7.7740  1.0000</r>
       <r>   8.6112  1.0000</r>
       <r>   8.6126  1.0000</r>
       <r>   8.6143  1.0000</r>
       <r>   8.6157  1.0000</r>
       <r>   9.2585  1.0000</r>
       <r>   9.2585  1.0000</r>
       <r>   9.2594  1.0000</r>
       <r>   9.2611  1.0000</r>
       <r>   9.2612  1.0000</r>
       <r>   9.2629  1.0000</r>
       <r>   9.2638  1.0000</r>
       <r>   9.2638  1.0000</r>
       <r>  11.1614  0.0000</r>
       <r>  11.1623  0.0000</r>
       <r>  11.1623  0.0000</r>
       <r>  11.1624  0.0000</r>
       <r>  11.1651  0.0000</r>
       <r>  11.1653  0.0000</r>
       <r>  11.1653  0.0000</r>
       <r>  11.1662  0.0000</r>
       <r>  11.5256  0.0000</r>
       <r>  11.5256  0.0000</r>
       <r>  11.5279  0.0000</r>
       <r>  11.5279  0.0000</r>
       <r>  12.5504  0.0000</r>
       <r>  12.5511  0.0000</r>
       <r>  13.7851  0.0000</r>
       <r>  13.7875  0.0000</r>
      </set>
      <set comment="kpoint 8">
       <r>  -2.5079  1.0000</r>
       <r>  -0.4318  1.0000</r>
       <r>  -0.0241  1.0000</r>
       <r>  -0.0209  1.0000</r>
       <r>  -0.0209  1.0000</r>
       <r>  -0.0178  1.0000</r>
       <r>   0.3884  1.0000</r>
       <r>   2.0085  1.0000</r>
       <r>   2.0117  1.0000</r>
       <r>   2.0117  1.0000</r>
       <r>   2.0148  1.0000</r>
       <r>   2.4115  1.0000</r>
       <r>   2.4124  1.0000</r>
       <r>   2.4150  1.0000</r>
       <r>   2.4159  1.0000</r>
       <r>   2.8109  1.0000</r>
       <r>   2.8141  1.0000</r>
       <r>   2.8141  1.0000</r>
       <r>   2.8173  1.0000</r>
       <r>   4.3241  1.0000</r>
       <r>   4.3248  1.0000</r>
       <r>   4.3269  1.0000</r>
       <r>   4.3275  1.0000</r>
       <r>   5.3388  1.0000</r>
       <r>   5.3394  1.0000</r>
       <r>   5.3416  1.0000</r>
       <r>   5.3422  1.0000</r>
       <r>   6.1314  1.0000</r>
       <r>   6.4511  1.0000</r>
       <r>   6.4511  1.0000</r>
       <r>   8.0780  1.0000</r>
       <r>   8.0781  1.0000</r>
       <r>   8.3319  1.0000</r>
       <r>   8.3320  1.0000</r>
       <r>   8.3718  1.0000</r>
       <r>   8.3753  1.0000</r>
       <r>   8.3753  1.0000</r>
       <r>   8.3789  1.0000</r>
       <r>   8.3953  1.0000</r>
       <r>   8.7063  1.0000</r>
       <r>   8.7092  1.0000</r>
       <r>   8.7093  1.0000</r>
       <r>   8.7122  1.0000</r>
       <r>   9.0866  1.0000</r>
       <r>   9.0866  1.0000</r>
       <r>   9.5528  1.0000</r>
       <r>   9.5529  1.0000</r>
       <r>   9.8522  0.0000</r>
       <r>   9.8555  0.0000</r>
       <r>   9.8555  0.0000</r>
       <r>   9.8587  0.0000</r>
       <r>  10.6008  0.0000</r>
       <r>  10.6039  0.0000</r>
       <r>  10.6039  0.0000</r>
       <r>  10.6069  0.0000</r>
       <r>  10.7175  0.0000</r>
       <r>  10.7191  0.0000</r>
       <r>  10.7218  0.0000</r>
       <r>  10.7234  0.0000</r>
       <r>  11.3602  0.0000</r>
       <r>  11.3633  0.0000</r>
       <r>  11.3633  0.0000</r>
       <r>  11.3664  0.0000</r>
       <r>  11.8650  0.0000</r>
       <r>  11.8651  0.0000</r>
       <r>  11.8968  0.0000</r>
       <r>  11.8973  0.0000</r>
       <r>  11.8982  0.0000</r>
      </set>
      <set comment="kpoint 9">
       <r>  -2.4905  1.0000</r>
       <r>  -0.4159  1.0000</r>
       <r>  -0.4133  1.0000</r>
       <r>  -0.0039  1.0000</r>
       <r>  -0.0038  1.0000</r>
       <r>   0.4041  1.0000</r>
       <r>   0.4067  1.0000</r>
       <r>   1.6250  1.0000</r>
       <r>   2.0266  1.0000</r>
       <r>   2.0276  1.0000</r>
       <r>   2.0293  1.0000</r>
       <r>   2.0303  1.0000</r>
       <r>   2.4299  1.0000</r>
       <r>   2.4308  1.0000</r>
       <r>   2.8289  1.0000</r>
       <r>   2.8299  1.0000</r>
       <r>   2.8315  1.0000</r>
       <r>   2.8325  1.0000</r>
       <r>   3.2294  1.0000</r>
       <r>   3.9936  1.0000</r>
       <r>   3.9936  1.0000</r>
       <r>   4.5336  1.0000</r>
       <r>   4.5336  1.0000</r>
       <r>   5.1664  1.0000</r>
       <r>   5.1664  1.0000</r>
       <r>   5.7026  1.0000</r>
       <r>   5.7026  1.0000</r>
       <r>   6.1469  1.0000</r>
       <r>   6.1475  1.0000</r>
       <r>   6.4667  1.0000</r>
       <r>   8.0253  1.0000</r>
       <r>   8.0278  1.0000</r>
       <r>   8.0938  1.0000</r>
       <r>   8.2837  1.0000</r>
       <r>   8.2837  1.0000</r>
       <r>   8.3463  1.0000</r>
       <r>   8.3493  1.0000</r>
       <r>   8.4106  1.0000</r>
       <r>   8.4113  1.0000</r>
       <r>   8.5291  1.0000</r>
       <r>   8.5291  1.0000</r>
       <r>   8.7347  1.0000</r>
       <r>   8.7369  1.0000</r>
       <r>   9.1009  1.0000</r>
       <r>   9.1039  1.0000</r>
       <r>   9.7858  0.0000</r>
       <r>   9.7884  0.0000</r>
       <r>   9.8265  0.0000</r>
       <r>   9.8296  0.0000</r>
       <r>  10.0846  0.0000</r>
       <r>  10.0846  0.0000</r>
       <r>  10.2404  0.0000</r>
       <r>  10.3536  0.0000</r>
       <r>  10.3545  0.0000</r>
       <r>  10.3561  0.0000</r>
       <r>  10.3571  0.0000</r>
       <r>  10.9983  0.0000</r>
       <r>  11.0001  0.0000</r>
       <r>  11.1158  0.0000</r>
       <r>  11.1167  0.0000</r>
       <r>  11.1175  0.0000</r>
       <r>  11.1184  0.0000</r>
       <r>  11.7592  0.0000</r>
       <r>  11.9406  0.0000</r>
       <r>  11.9417  0.0000</r>
       <r>  12.0014  0.0000</r>
       <r>  12.0184  0.0000</r>
       <r>  12.0265  0.0000</r>
      </set>
      <set comment="kpoint 10">
       <r>  -2.4381  1.0000</r>
       <r>  -0.7753  1.0000</r>
       <r>  -0.3632  1.0000</r>
       <r>   0.0474  1.0000</r>
       <r>   0.0474  1.0000</r>
       <r>   0.4565  1.0000</r>
       <r>   0.8640  1.0000</r>
       <r>   1.2707  1.0000</r>
       <r>   1.6755  1.0000</r>
       <r>   1.6755  1.0000</r>
       <r>   2.0780  1.0000</r>
       <r>   2.0788  1.0000</r>
       <r>   2.0794  1.0000</r>
       <r>   2.8798  1.0000</r>
       <r>   2.8805  1.0000</r>
       <r>   2.8812  1.0000</r>
       <r>   3.2789  1.0000</r>
       <r>   3.2790  1.0000</r>
       <r>   3.6629  1.0000</r>
       <r>   3.6629  1.0000</r>
       <r>   3.6758  1.0000</r>
       <r>   4.3904  1.0000</r>
       <r>   4.3904  1.0000</r>
       <r>   5.4067  1.0000</r>
       <r>   5.4067  1.0000</r>
       <r>   5.5511  1.0000</r>
       <r>   6.1266  1.0000</r>
       <r>   6.1266  1.0000</r>
       <r>   6.1946  1.0000</r>
       <r>   6.5136  1.0000</r>
       <r>   7.4476  1.0000</r>
       <r>   7.7022  1.0000</r>
       <r>   7.7908  1.0000</r>
       <r>   7.7908  1.0000</r>
       <r>   8.0180  1.0000</r>
       <r>   8.1409  1.0000</r>
       <r>   8.1655  1.0000</r>
       <r>   8.3950  1.0000</r>
       <r>   8.4576  1.0000</r>
       <r>   8.5102  1.0000</r>
       <r>   8.5102  1.0000</r>
       <r>   9.0500  1.0000</r>
       <r>   9.0940  1.0000</r>
       <r>   9.1497  1.0000</r>
       <r>   9.5273  1.0000</r>
       <r>   9.7029  1.0000</r>
       <r>   9.7175  1.0000</r>
       <r>   9.8231  0.0000</r>
       <r>   9.8231  0.0000</r>
       <r>   9.9087  0.0000</r>
       <r>  10.0218  0.0000</r>
       <r>  10.0219  0.0000</r>
       <r>  10.0493  0.0000</r>
       <r>  10.2970  0.0000</r>
       <r>  10.4561  0.0000</r>
       <r>  10.4562  0.0000</r>
       <r>  10.5883  0.0000</r>
       <r>  10.5884  0.0000</r>
       <r>  10.6669  0.0000</r>
       <r>  11.4263  0.0000</r>
       <r>  11.5452  0.0000</r>
       <r>  11.5452  0.0000</r>
       <r>  11.8989  0.0000</r>
       <r>  12.1472  0.0000</r>
       <r>  12.1870  0.0000</r>
       <r>  12.1881  0.0000</r>
       <r>  12.3036  0.0000</r>
       <r>  12.3258  0.0000</r>
      </set>
      <set comment="kpoint 11">
       <r>  -2.3509  1.0000</r>
       <r>  -1.1025  1.0000</r>
       <r>  -0.2775  1.0000</r>
       <r>   0.1327  1.0000</r>
       <r>   0.1328  1.0000</r>
       <r>   0.5415  1.0000</r>
       <r>   0.9492  1.0000</r>
       <r>   1.3528  1.0000</r>
       <r>   1.3551  1.0000</r>
       <r>   1.3566  1.0000</r>
       <r>   1.7595  1.0000</r>
       <r>   2.1625  1.0000</r>
       <r>   2.1625  1.0000</r>
       <r>   2.9633  1.0000</r>
       <r>   2.9634  1.0000</r>
       <r>   3.3549  1.0000</r>
       <r>   3.3554  1.0000</r>
       <r>   3.3620  1.0000</r>
       <r>   3.7578  1.0000</r>
       <r>   3.7578  1.0000</r>
       <r>   4.1240  1.0000</r>
       <r>   4.1242  1.0000</r>
       <r>   4.1526  1.0000</r>
       <r>   4.8993  1.0000</r>
       <r>   5.8332  1.0000</r>
       <r>   5.8332  1.0000</r>
       <r>   6.2736  1.0000</r>
       <r>   6.5899  1.0000</r>
       <r>   6.5907  1.0000</r>
       <r>   6.5926  1.0000</r>
       <r>   6.8182  1.0000</r>
       <r>   7.1826  1.0000</r>
       <r>   7.1826  1.0000</r>
       <r>   7.4062  1.0000</r>
       <r>   7.5551  1.0000</r>
       <r>   7.7198  1.0000</r>
       <r>   8.2188  1.0000</r>
       <r>   8.4737  1.0000</r>
       <r>   8.5349  1.0000</r>
       <r>   8.5810  1.0000</r>
       <r>   8.5810  1.0000</r>
       <r>   9.1240  1.0000</r>
       <r>   9.2135  1.0000</r>
       <r>   9.2135  1.0000</r>
       <r>   9.2287  1.0000</r>
       <r>   9.5211  1.0000</r>
       <r>   9.6088  1.0000</r>
       <r>   9.7201  1.0000</r>
       <r>   9.7202  1.0000</r>
       <r>   9.8848  0.0000</r>
       <r>   9.8907  0.0000</r>
       <r>   9.9814  0.0000</r>
       <r>   9.9817  0.0000</r>
       <r>   9.9841  0.0000</r>
       <r>  10.2503  0.0000</r>
       <r>  10.3663  0.0000</r>
       <r>  10.7060  0.0000</r>
       <r>  10.7619  0.0000</r>
       <r>  10.7619  0.0000</r>
       <r>  11.5864  0.0000</r>
       <r>  11.8852  0.0000</r>
       <r>  12.0047  0.0000</r>
       <r>  12.0047  0.0000</r>
       <r>  12.2311  0.0000</r>
       <r>  12.2311  0.0000</r>
       <r>  12.3424  0.0000</r>
       <r>  12.4703  0.0000</r>
       <r>  12.6482  0.0000</r>
      </set>
      <set comment="kpoint 12">
       <r>  -2.2290  1.0000</r>
       <r>  -1.3961  1.0000</r>
       <r>  -0.1577  1.0000</r>
       <r>   0.2521  1.0000</r>
       <r>   0.2522  1.0000</r>
       <r>   0.6600  1.0000</r>
       <r>   0.6612  1.0000</r>
       <r>   1.0677  1.0000</r>
       <r>   1.0677  1.0000</r>
       <r>   1.4731  1.0000</r>
       <r>   1.8757  1.0000</r>
       <r>   2.2796  1.0000</r>
       <r>   2.2796  1.0000</r>
       <r>   3.0764  1.0000</r>
       <r>   3.0766  1.0000</r>
       <r>   3.0792  1.0000</r>
       <r>   3.0794  1.0000</r>
       <r>   3.8600  1.0000</r>
       <r>   3.8601  1.0000</r>
       <r>   3.8725  1.0000</r>
       <r>   4.2489  1.0000</r>
       <r>   4.2663  1.0000</r>
       <r>   4.2663  1.0000</r>
       <r>   4.6586  1.0000</r>
       <r>   6.1882  1.0000</r>
       <r>   6.3203  1.0000</r>
       <r>   6.3203  1.0000</r>
       <r>   6.3842  1.0000</r>
       <r>   6.5635  1.0000</r>
       <r>   6.5635  1.0000</r>
       <r>   6.7013  1.0000</r>
       <r>   6.9406  1.0000</r>
       <r>   7.0888  1.0000</r>
       <r>   7.0888  1.0000</r>
       <r>   7.1400  1.0000</r>
       <r>   7.4531  1.0000</r>
       <r>   8.3264  1.0000</r>
       <r>   8.5837  1.0000</r>
       <r>   8.5942  1.0000</r>
       <r>   8.5945  1.0000</r>
       <r>   8.6419  1.0000</r>
       <r>   8.6896  1.0000</r>
       <r>   8.6896  1.0000</r>
       <r>   8.9846  1.0000</r>
       <r>   9.3198  1.0000</r>
       <r>   9.3387  1.0000</r>
       <r>   9.3409  1.0000</r>
       <r>   9.3646  1.0000</r>
       <r>   9.3647  1.0000</r>
       <r>   9.4502  1.0000</r>
       <r>   9.4502  1.0000</r>
       <r>  10.0975  0.0000</r>
       <r>  10.2912  0.0000</r>
       <r>  10.4301  0.0000</r>
       <r>  10.4721  0.0000</r>
       <r>  10.7438  0.0000</r>
       <r>  11.0043  0.0000</r>
       <r>  11.0043  0.0000</r>
       <r>  11.0210  0.0000</r>
       <r>  11.3026  0.0000</r>
       <r>  11.9446  0.0000</r>
       <r>  11.9446  0.0000</r>
       <r>  12.0497  0.0000</r>
       <r>  12.3760  0.0000</r>
       <r>  12.4914  0.0000</r>
       <r>  12.4952  0.0000</r>
       <r>  12.4956  0.0000</r>
       <r>  12.7355  0.0000</r>
      </set>
      <set comment="kpoint 13">
       <r>  -2.0724  1.0000</r>
       <r>  -1.6558  1.0000</r>
       <r>  -0.0038  1.0000</r>
       <r>   0.4040  1.0000</r>
       <r>   0.4055  1.0000</r>
       <r>   0.4070  1.0000</r>
       <r>   0.8119  1.0000</r>
       <r>   0.8135  1.0000</r>
       <r>   0.8149  1.0000</r>
       <r>   1.2198  1.0000</r>
       <r>   2.4267  1.0000</r>
       <r>   2.4299  1.0000</r>
       <r>   2.4306  1.0000</r>
       <r>   2.8289  1.0000</r>
       <r>   2.8290  1.0000</r>
       <r>   3.2275  1.0000</r>
       <r>   3.2275  1.0000</r>
       <r>   3.6158  1.0000</r>
       <r>   3.6195  1.0000</r>
       <r>   3.6201  1.0000</r>
       <r>   4.4125  1.0000</r>
       <r>   4.8034  1.0000</r>
       <r>   4.8034  1.0000</r>
       <r>   5.1928  1.0000</r>
       <r>   5.5732  1.0000</r>
       <r>   5.9555  1.0000</r>
       <r>   5.9555  1.0000</r>
       <r>   6.3374  1.0000</r>
       <r>   6.5262  1.0000</r>
       <r>   6.8418  1.0000</r>
       <r>   6.8459  1.0000</r>
       <r>   6.8463  1.0000</r>
       <r>   6.9044  1.0000</r>
       <r>   7.2180  1.0000</r>
       <r>   7.6179  1.0000</r>
       <r>   7.6179  1.0000</r>
       <r>   7.9876  1.0000</r>
       <r>   7.9876  1.0000</r>
       <r>   8.4620  1.0000</r>
       <r>   8.7257  1.0000</r>
       <r>   8.7594  1.0000</r>
       <r>   8.7595  1.0000</r>
       <r>   8.7773  1.0000</r>
       <r>   8.8013  1.0000</r>
       <r>   8.8315  1.0000</r>
       <r>   8.8315  1.0000</r>
       <r>   9.1040  1.0000</r>
       <r>   9.1215  1.0000</r>
       <r>   9.2120  1.0000</r>
       <r>   9.2120  1.0000</r>
       <r>   9.4813  1.0000</r>
       <r>   9.8604  0.0000</r>
       <r>  10.6154  0.0000</r>
       <r>  10.7827  0.0000</r>
       <r>  10.9918  0.0000</r>
       <r>  11.0472  0.0000</r>
       <r>  11.2233  0.0000</r>
       <r>  11.2233  0.0000</r>
       <r>  11.2817  0.0000</r>
       <r>  11.6367  0.0000</r>
       <r>  11.6837  0.0000</r>
       <r>  11.6837  0.0000</r>
       <r>  11.7798  0.0000</r>
       <r>  11.8909  0.0000</r>
       <r>  12.1241  0.0000</r>
       <r>  12.8984  0.0000</r>
       <r>  13.0165  0.0000</r>
       <r>  13.0165  0.0000</r>
      </set>
      <set comment="kpoint 14">
       <r>  -1.8828  1.0000</r>
       <r>  -1.8797  1.0000</r>
       <r>   0.1824  1.0000</r>
       <r>   0.1856  1.0000</r>
       <r>   0.5905  1.0000</r>
       <r>   0.5917  1.0000</r>
       <r>   0.5936  1.0000</r>
       <r>   0.5949  1.0000</r>
       <r>   0.9982  1.0000</r>
       <r>   1.0014  1.0000</r>
       <r>   2.6109  1.0000</r>
       <r>   2.6122  1.0000</r>
       <r>   2.6141  1.0000</r>
       <r>   2.6154  1.0000</r>
       <r>   3.0076  1.0000</r>
       <r>   3.0087  1.0000</r>
       <r>   3.4057  1.0000</r>
       <r>   3.4070  1.0000</r>
       <r>   3.4089  1.0000</r>
       <r>   3.4102  1.0000</r>
       <r>   4.9796  1.0000</r>
       <r>   4.9807  1.0000</r>
       <r>   5.3663  1.0000</r>
       <r>   5.3672  1.0000</r>
       <r>   5.3674  1.0000</r>
       <r>   5.3682  1.0000</r>
       <r>   5.7528  1.0000</r>
       <r>   5.7539  1.0000</r>
       <r>   6.6980  1.0000</r>
       <r>   6.7014  1.0000</r>
       <r>   7.0126  1.0000</r>
       <r>   7.0161  1.0000</r>
       <r>   7.4023  1.0000</r>
       <r>   7.4027  1.0000</r>
       <r>   7.4035  1.0000</r>
       <r>   7.4039  1.0000</r>
       <r>   8.1749  1.0000</r>
       <r>   8.1754  1.0000</r>
       <r>   8.1762  1.0000</r>
       <r>   8.1766  1.0000</r>
       <r>   8.6207  1.0000</r>
       <r>   8.6238  1.0000</r>
       <r>   8.8973  1.0000</r>
       <r>   8.9008  1.0000</r>
       <r>   8.9368  1.0000</r>
       <r>   8.9399  1.0000</r>
       <r>   9.0033  1.0000</r>
       <r>   9.0048  1.0000</r>
       <r>   9.0067  1.0000</r>
       <r>   9.0083  1.0000</r>
       <r>   9.6533  1.0000</r>
       <r>   9.6568  1.0000</r>
       <r>  10.8174  0.0000</r>
       <r>  10.8207  0.0000</r>
       <r>  11.3184  0.0000</r>
       <r>  11.3205  0.0000</r>
       <r>  11.4434  0.0000</r>
       <r>  11.4440  0.0000</r>
       <r>  11.4468  0.0000</r>
       <r>  11.4474  0.0000</r>
       <r>  11.5256  0.0000</r>
       <r>  11.5291  0.0000</r>
       <r>  11.5416  0.0000</r>
       <r>  11.5439  0.0000</r>
       <r>  12.5623  0.0000</r>
       <r>  12.5630  0.0000</r>
       <r>  13.4543  0.0000</r>
       <r>  13.4730  0.0000</r>
      </set>
      <set comment="kpoint 15">
       <r>  -2.4556  1.0000</r>
       <r>  -0.7925  1.0000</r>
       <r>   0.0272  1.0000</r>
       <r>   0.0303  1.0000</r>
       <r>   0.0303  1.0000</r>
       <r>   0.0334  1.0000</r>
       <r>   0.8470  1.0000</r>
       <r>   1.6555  1.0000</r>
       <r>   1.6587  1.0000</r>
       <r>   1.6587  1.0000</r>
       <r>   1.6618  1.0000</r>
       <r>   2.4616  1.0000</r>
       <r>   2.4625  1.0000</r>
       <r>   2.4651  1.0000</r>
       <r>   2.4659  1.0000</r>
       <r>   3.2593  1.0000</r>
       <r>   3.2625  1.0000</r>
       <r>   3.2625  1.0000</r>
       <r>   3.2657  1.0000</r>
       <r>   4.0242  1.0000</r>
       <r>   4.0250  1.0000</r>
       <r>   4.0275  1.0000</r>
       <r>   4.0283  1.0000</r>
       <r>   5.5351  1.0000</r>
       <r>   5.7332  1.0000</r>
       <r>   5.7340  1.0000</r>
       <r>   5.7366  1.0000</r>
       <r>   5.7374  1.0000</r>
       <r>   6.4980  1.0000</r>
       <r>   6.4980  1.0000</r>
       <r>   7.7945  1.0000</r>
       <r>   7.7980  1.0000</r>
       <r>   7.7980  1.0000</r>
       <r>   7.8014  1.0000</r>
       <r>   8.0022  1.0000</r>
       <r>   8.0023  1.0000</r>
       <r>   8.1254  1.0000</r>
       <r>   8.1254  1.0000</r>
       <r>   8.7535  1.0000</r>
       <r>   8.7565  1.0000</r>
       <r>   8.7566  1.0000</r>
       <r>   8.7595  1.0000</r>
       <r>   9.0788  1.0000</r>
       <r>   9.4056  1.0000</r>
       <r>   9.4057  1.0000</r>
       <r>   9.5115  1.0000</r>
       <r>   9.5115  1.0000</r>
       <r>  10.1873  0.0000</r>
       <r>  10.1886  0.0000</r>
       <r>  10.1913  0.0000</r>
       <r>  10.1927  0.0000</r>
       <r>  10.2108  0.0000</r>
       <r>  10.2139  0.0000</r>
       <r>  10.2139  0.0000</r>
       <r>  10.2170  0.0000</r>
       <r>  10.2689  0.0000</r>
       <r>  10.2719  0.0000</r>
       <r>  10.2720  0.0000</r>
       <r>  10.2750  0.0000</r>
       <r>  11.7876  0.0000</r>
       <r>  11.7907  0.0000</r>
       <r>  11.7908  0.0000</r>
       <r>  11.7939  0.0000</r>
       <r>  12.0988  0.0000</r>
       <r>  12.0988  0.0000</r>
       <r>  12.2554  0.0000</r>
       <r>  12.2568  0.0000</r>
       <r>  12.2637  0.0000</r>
      </set>
      <set comment="kpoint 16">
       <r>  -2.4381  1.0000</r>
       <r>  -0.7753  1.0000</r>
       <r>  -0.3632  1.0000</r>
       <r>   0.0474  1.0000</r>
       <r>   0.0474  1.0000</r>
       <r>   0.4565  1.0000</r>
       <r>   0.8640  1.0000</r>
       <r>   1.2707  1.0000</r>
       <r>   1.6755  1.0000</r>
       <r>   1.6755  1.0000</r>
       <r>   2.0773  1.0000</r>
       <r>   2.0788  1.0000</r>
       <r>   2.0801  1.0000</r>
       <r>   2.8791  1.0000</r>
       <r>   2.8805  1.0000</r>
       <r>   2.8819  1.0000</r>
       <r>   3.2789  1.0000</r>
       <r>   3.2789  1.0000</r>
       <r>   3.6629  1.0000</r>
       <r>   3.6629  1.0000</r>
       <r>   3.6758  1.0000</r>
       <r>   4.3904  1.0000</r>
       <r>   4.3904  1.0000</r>
       <r>   5.4067  1.0000</r>
       <r>   5.4067  1.0000</r>
       <r>   5.5511  1.0000</r>
       <r>   6.1266  1.0000</r>
       <r>   6.1266  1.0000</r>
       <r>   6.1946  1.0000</r>
       <r>   6.5136  1.0000</r>
       <r>   7.4475  1.0000</r>
       <r>   7.7022  1.0000</r>
       <r>   7.7908  1.0000</r>
       <r>   7.7909  1.0000</r>
       <r>   8.0179  1.0000</r>
       <r>   8.1409  1.0000</r>
       <r>   8.1655  1.0000</r>
       <r>   8.3950  1.0000</r>
       <r>   8.4576  1.0000</r>
       <r>   8.5102  1.0000</r>
       <r>   8.5103  1.0000</r>
       <r>   9.0500  1.0000</r>
       <r>   9.0940  1.0000</r>
       <r>   9.1498  1.0000</r>
       <r>   9.5273  1.0000</r>
       <r>   9.7029  1.0000</r>
       <r>   9.7175  1.0000</r>
       <r>   9.8231  0.0000</r>
       <r>   9.8231  0.0000</r>
       <r>   9.9087  0.0000</r>
       <r>  10.0219  0.0000</r>
       <r>  10.0219  0.0000</r>
       <r>  10.0492  0.0000</r>
       <r>  10.2969  0.0000</r>
       <r>  10.4562  0.0000</r>
       <r>  10.4562  0.0000</r>
       <r>  10.5884  0.0000</r>
       <r>  10.5884  0.0000</r>
       <r>  10.6669  0.0000</r>
       <r>  11.4263  0.0000</r>
       <r>  11.5452  0.0000</r>
       <r>  11.5453  0.0000</r>
       <r>  11.8989  0.0000</r>
       <r>  12.1472  0.0000</r>
       <r>  12.1870  0.0000</r>
       <r>  12.1881  0.0000</r>
       <r>  12.2957  0.0000</r>
       <r>  12.3257  0.0000</r>
      </set>
      <set comment="kpoint 17">
       <r>  -2.3858  1.0000</r>
       <r>  -0.7250  1.0000</r>
       <r>  -0.7224  1.0000</r>
       <r>   0.0986  1.0000</r>
       <r>   0.0986  1.0000</r>
       <r>   0.9130  1.0000</r>
       <r>   0.9151  1.0000</r>
       <r>   0.9169  1.0000</r>
       <r>   1.7242  1.0000</r>
       <r>   1.7252  1.0000</r>
       <r>   1.7268  1.0000</r>
       <r>   1.7278  1.0000</r>
       <r>   2.5299  1.0000</r>
       <r>   2.5308  1.0000</r>
       <r>   3.3218  1.0000</r>
       <r>   3.3221  1.0000</r>
       <r>   3.3269  1.0000</r>
       <r>   3.3276  1.0000</r>
       <r>   3.3293  1.0000</r>
       <r>   3.3304  1.0000</r>
       <r>   4.1199  1.0000</r>
       <r>   4.6292  1.0000</r>
       <r>   4.6292  1.0000</r>
       <r>   5.2669  1.0000</r>
       <r>   5.2669  1.0000</r>
       <r>   5.5988  1.0000</r>
       <r>   5.5996  1.0000</r>
       <r>   6.5580  1.0000</r>
       <r>   6.5587  1.0000</r>
       <r>   6.5612  1.0000</r>
       <r>   7.1205  1.0000</r>
       <r>   7.1231  1.0000</r>
       <r>   7.6652  1.0000</r>
       <r>   7.6652  1.0000</r>
       <r>   8.0636  1.0000</r>
       <r>   8.0666  1.0000</r>
       <r>   8.1360  1.0000</r>
       <r>   8.1361  1.0000</r>
       <r>   8.1871  1.0000</r>
       <r>   8.5273  1.0000</r>
       <r>   8.5297  1.0000</r>
       <r>   9.1390  1.0000</r>
       <r>   9.1399  1.0000</r>
       <r>   9.4859  1.0000</r>
       <r>   9.4869  1.0000</r>
       <r>   9.4886  1.0000</r>
       <r>   9.4897  1.0000</r>
       <r>   9.5727  1.0000</r>
       <r>   9.5755  1.0000</r>
       <r>   9.5785  1.0000</r>
       <r>   9.8738  0.0000</r>
       <r>   9.8756  0.0000</r>
       <r>  10.2598  0.0000</r>
       <r>  10.2628  0.0000</r>
       <r>  10.8987  0.0000</r>
       <r>  10.8987  0.0000</r>
       <r>  11.0166  0.0000</r>
       <r>  11.0175  0.0000</r>
       <r>  11.0182  0.0000</r>
       <r>  11.0192  0.0000</r>
       <r>  11.0928  0.0000</r>
       <r>  11.0946  0.0000</r>
       <r>  11.5598  0.0000</r>
       <r>  12.3058  0.0000</r>
       <r>  12.3065  0.0000</r>
       <r>  12.5671  0.0000</r>
       <r>  12.5671  0.0000</r>
       <r>  12.6151  0.0000</r>
      </set>
      <set comment="kpoint 18">
       <r>  -2.2987  1.0000</r>
       <r>  -1.0508  1.0000</r>
       <r>  -0.6377  1.0000</r>
       <r>   0.1839  1.0000</r>
       <r>   0.1839  1.0000</r>
       <r>   0.5928  1.0000</r>
       <r>   0.9996  1.0000</r>
       <r>   1.4034  1.0000</r>
       <r>   1.4058  1.0000</r>
       <r>   1.4072  1.0000</r>
       <r>   1.8101  1.0000</r>
       <r>   1.8101  1.0000</r>
       <r>   2.2125  1.0000</r>
       <r>   3.0094  1.0000</r>
       <r>   3.0103  1.0000</r>
       <r>   3.0140  1.0000</r>
       <r>   3.4106  1.0000</r>
       <r>   3.4106  1.0000</r>
       <r>   3.8067  1.0000</r>
       <r>   3.8067  1.0000</r>
       <r>   4.5195  1.0000</r>
       <r>   4.5195  1.0000</r>
       <r>   4.5940  1.0000</r>
       <r>   4.9480  1.0000</r>
       <r>   5.5386  1.0000</r>
       <r>   5.5386  1.0000</r>
       <r>   5.6794  1.0000</r>
       <r>   6.4878  1.0000</r>
       <r>   6.6387  1.0000</r>
       <r>   6.8239  1.0000</r>
       <r>   7.0253  1.0000</r>
       <r>   7.0254  1.0000</r>
       <r>   7.1891  1.0000</r>
       <r>   7.1891  1.0000</r>
       <r>   7.7669  1.0000</r>
       <r>   7.9482  1.0000</r>
       <r>   8.0781  1.0000</r>
       <r>   8.0781  1.0000</r>
       <r>   8.1438  1.0000</r>
       <r>   8.2632  1.0000</r>
       <r>   8.8162  1.0000</r>
       <r>   8.8771  1.0000</r>
       <r>   8.8771  1.0000</r>
       <r>   9.1844  1.0000</r>
       <r>   9.1844  1.0000</r>
       <r>   9.2147  1.0000</r>
       <r>   9.2776  1.0000</r>
       <r>   9.6537  1.0000</r>
       <r>   9.7961  0.0000</r>
       <r>   9.9346  0.0000</r>
       <r>  10.0066  0.0000</r>
       <r>  10.0314  0.0000</r>
       <r>  10.1325  0.0000</r>
       <r>  10.4126  0.0000</r>
       <r>  10.4126  0.0000</r>
       <r>  10.7928  0.0000</r>
       <r>  10.8128  0.0000</r>
       <r>  11.2498  0.0000</r>
       <r>  11.2887  0.0000</r>
       <r>  11.2888  0.0000</r>
       <r>  11.4782  0.0000</r>
       <r>  11.4782  0.0000</r>
       <r>  11.5523  0.0000</r>
       <r>  12.5777  0.0000</r>
       <r>  12.6006  0.0000</r>
       <r>  12.6168  0.0000</r>
       <r>  12.7584  0.0000</r>
       <r>  12.8522  0.0000</r>
      </set>
      <set comment="kpoint 19">
       <r>  -2.1768  1.0000</r>
       <r>  -1.3442  1.0000</r>
       <r>  -0.5176  1.0000</r>
       <r>   0.3019  1.0000</r>
       <r>   0.3033  1.0000</r>
       <r>   0.3048  1.0000</r>
       <r>   1.1168  1.0000</r>
       <r>   1.1185  1.0000</r>
       <r>   1.1198  1.0000</r>
       <r>   1.9246  1.0000</r>
       <r>   1.9273  1.0000</r>
       <r>   1.9276  1.0000</r>
       <r>   1.9291  1.0000</r>
       <r>   2.7291  1.0000</r>
       <r>   2.7291  1.0000</r>
       <r>   3.5249  1.0000</r>
       <r>   3.5253  1.0000</r>
       <r>   3.5264  1.0000</r>
       <r>   4.2869  1.0000</r>
[...]
       <r>   3.6086  1.0000</r>
       <r>   3.9945  1.0000</r>
       <r>   3.9961  1.0000</r>
       <r>   3.9981  1.0000</r>
       <r>   3.9985  1.0000</r>
       <r>   3.9986  1.0000</r>
       <r>   3.9990  1.0000</r>
       <r>   4.0009  1.0000</r>
       <r>   4.0026  1.0000</r>
       <r>   4.3851  1.0000</r>
       <r>   4.3868  1.0000</r>
       <r>   4.3887  1.0000</r>
       <r>   4.3891  1.0000</r>
       <r>   4.3892  1.0000</r>
       <r>   4.3896  1.0000</r>
       <r>   4.3915  1.0000</r>
       <r>   4.3932  1.0000</r>
       <r>   4.7731  1.0000</r>
       <r>   4.7759  1.0000</r>
       <r>   4.7764  1.0000</r>
       <r>   4.7792  1.0000</r>
       <r>   8.3451  1.0000</r>
       <r>   8.3467  1.0000</r>
       <r>   8.3490  1.0000</r>
       <r>   8.3493  1.0000</r>
       <r>   8.3494  1.0000</r>
       <r>   8.3497  1.0000</r>
       <r>   8.3520  1.0000</r>
       <r>   8.3536  1.0000</r>
       <r>   8.7134  1.0000</r>
       <r>   8.7146  1.0000</r>
       <r>   8.7150  1.0000</r>
       <r>   8.7162  1.0000</r>
       <r>   9.1099  1.0000</r>
       <r>   9.1112  1.0000</r>
       <r>   9.1115  1.0000</r>
       <r>   9.1127  1.0000</r>
       <r>   9.4670  1.0000</r>
       <r>   9.4689  1.0000</r>
       <r>   9.4712  1.0000</r>
       <r>   9.4715  1.0000</r>
       <r>   9.4716  1.0000</r>
       <r>   9.4718  1.0000</r>
       <r>   9.4742  1.0000</r>
       <r>   9.4761  1.0000</r>
       <r>  12.8855  0.0000</r>
       <r>  12.8880  0.0000</r>
       <r>  12.8889  0.0000</r>
       <r>  12.8913  0.0000</r>
       <r>  12.9522  0.0000</r>
       <r>  12.9537  0.0000</r>
       <r>  12.9538  0.0000</r>
       <r>  12.9553  0.0000</r>
       <r>  13.6162  0.0000</r>
       <r>  13.6167  0.0000</r>
       <r>  13.6182  0.0000</r>
       <r>  13.6190  0.0000</r>
      </set>
      <set comment="kpoint 190">
       <r>  -1.2752  1.0000</r>
       <r>  -1.2751  1.0000</r>
       <r>  -1.2751  1.0000</r>
       <r>  -1.2751  1.0000</r>
       <r>   1.1808  1.0000</r>
       <r>   1.1854  1.0000</r>
       <r>   1.1854  1.0000</r>
       <r>   1.1860  1.0000</r>
       <r>   1.1862  1.0000</r>
       <r>   1.1869  1.0000</r>
       <r>   1.1869  1.0000</r>
       <r>   1.1915  1.0000</r>
       <r>   3.5879  1.0000</r>
       <r>   3.5879  1.0000</r>
       <r>   3.5879  1.0000</r>
       <r>   3.5879  1.0000</r>
       <r>   3.5879  1.0000</r>
       <r>   3.5879  1.0000</r>
       <r>   3.5879  1.0000</r>
       <r>   3.5879  1.0000</r>
       <r>   5.6469  1.0000</r>
       <r>   5.6469  1.0000</r>
       <r>   5.6485  1.0000</r>
       <r>   5.6485  1.0000</r>
       <r>   5.6485  1.0000</r>
       <r>   5.6486  1.0000</r>
       <r>   5.6502  1.0000</r>
       <r>   5.6502  1.0000</r>
       <r>   6.3112  1.0000</r>
       <r>   6.3112  1.0000</r>
       <r>   6.3133  1.0000</r>
       <r>   6.3133  1.0000</r>
       <r>   6.3133  1.0000</r>
       <r>   6.3134  1.0000</r>
       <r>   6.3154  1.0000</r>
       <r>   6.3154  1.0000</r>
       <r>   7.5632  1.0000</r>
       <r>   7.5632  1.0000</r>
       <r>   7.5632  1.0000</r>
       <r>   7.5632  1.0000</r>
       <r>   8.0581  1.0000</r>
       <r>   8.0581  1.0000</r>
       <r>   8.0581  1.0000</r>
       <r>   8.0581  1.0000</r>
       <r>   9.6334  1.0000</r>
       <r>   9.6334  1.0000</r>
       <r>   9.6334  1.0000</r>
       <r>   9.6335  1.0000</r>
       <r>  10.6456  0.0000</r>
       <r>  10.6456  0.0000</r>
       <r>  10.6457  0.0000</r>
       <r>  10.6474  0.0000</r>
       <r>  10.6487  0.0000</r>
       <r>  10.6504  0.0000</r>
       <r>  10.6505  0.0000</r>
       <r>  10.6505  0.0000</r>
       <r>  12.0999  0.0000</r>
       <r>  12.0999  0.0000</r>
       <r>  12.0999  0.0000</r>
       <r>  12.0999  0.0000</r>
       <r>  12.0999  0.0000</r>
       <r>  12.0999  0.0000</r>
       <r>  12.0999  0.0000</r>
       <r>  12.1000  0.0000</r>
       <r>  12.8170  0.0000</r>
       <r>  12.8170  0.0000</r>
       <r>  12.8170  0.0000</r>
       <r>  12.8170  0.0000</r>
      </set>
      <set comment="kpoint 191">
       <r>  -1.2579  1.0000</r>
       <r>  -1.2579  1.0000</r>
       <r>  -1.2579  1.0000</r>
       <r>  -1.2579  1.0000</r>
       <r>   0.7965  1.0000</r>
       <r>   0.7966  1.0000</r>
       <r>   0.7966  1.0000</r>
       <r>   0.7966  1.0000</r>
       <r>   1.6079  1.0000</r>
       <r>   1.6079  1.0000</r>
       <r>   1.6079  1.0000</r>
       <r>   1.6079  1.0000</r>
       <r>   3.6044  1.0000</r>
       <r>   3.6044  1.0000</r>
       <r>   3.6044  1.0000</r>
       <r>   3.6044  1.0000</r>
       <r>   3.6044  1.0000</r>
       <r>   3.6044  1.0000</r>
       <r>   3.6044  1.0000</r>
       <r>   3.6044  1.0000</r>
       <r>   5.4814  1.0000</r>
       <r>   5.4814  1.0000</r>
       <r>   5.4824  1.0000</r>
       <r>   5.4824  1.0000</r>
       <r>   5.4824  1.0000</r>
       <r>   5.4824  1.0000</r>
       <r>   5.4834  1.0000</r>
       <r>   5.4834  1.0000</r>
       <r>   6.5093  1.0000</r>
       <r>   6.5093  1.0000</r>
       <r>   6.5107  1.0000</r>
       <r>   6.5108  1.0000</r>
       <r>   6.5108  1.0000</r>
       <r>   6.5108  1.0000</r>
       <r>   6.5122  1.0000</r>
       <r>   6.5122  1.0000</r>
       <r>   7.2401  1.0000</r>
       <r>   7.2401  1.0000</r>
       <r>   7.2401  1.0000</r>
       <r>   7.2402  1.0000</r>
       <r>   8.1838  1.0000</r>
       <r>   8.1838  1.0000</r>
       <r>   8.1838  1.0000</r>
       <r>   8.1838  1.0000</r>
       <r>   9.8759  0.0000</r>
       <r>   9.8759  0.0000</r>
       <r>   9.8759  0.0000</r>
       <r>   9.8759  0.0000</r>
       <r>  10.2781  0.0000</r>
       <r>  10.2781  0.0000</r>
       <r>  10.2781  0.0000</r>
       <r>  10.2781  0.0000</r>
       <r>  11.0490  0.0000</r>
       <r>  11.0490  0.0000</r>
       <r>  11.0490  0.0000</r>
       <r>  11.0490  0.0000</r>
       <r>  11.8107  0.0000</r>
       <r>  11.8107  0.0000</r>
       <r>  11.8117  0.0000</r>
       <r>  11.8117  0.0000</r>
       <r>  11.8117  0.0000</r>
       <r>  11.8117  0.0000</r>
       <r>  11.8127  0.0000</r>
       <r>  11.8127  0.0000</r>
       <r>  12.9668  0.0000</r>
       <r>  12.9676  0.0000</r>
       <r>  12.9685  0.0000</r>
       <r>  12.9690  0.0000</r>
      </set>
      <set comment="kpoint 192">
       <r>  -1.2061  1.0000</r>
       <r>  -1.2061  1.0000</r>
       <r>  -1.2061  1.0000</r>
       <r>  -1.2061  1.0000</r>
       <r>   0.4397  1.0000</r>
       <r>   0.4397  1.0000</r>
       <r>   0.4397  1.0000</r>
       <r>   0.4397  1.0000</r>
       <r>   2.0614  1.0000</r>
       <r>   2.0614  1.0000</r>
       <r>   2.0614  1.0000</r>
       <r>   2.0615  1.0000</r>
       <r>   3.6538  1.0000</r>
       <r>   3.6538  1.0000</r>
       <r>   3.6538  1.0000</r>
       <r>   3.6538  1.0000</r>
       <r>   3.6538  1.0000</r>
       <r>   3.6538  1.0000</r>
       <r>   3.6538  1.0000</r>
       <r>   3.6538  1.0000</r>
       <r>   5.1912  1.0000</r>
       <r>   5.1912  1.0000</r>
       <r>   5.1918  1.0000</r>
       <r>   5.1918  1.0000</r>
       <r>   5.1918  1.0000</r>
       <r>   5.1918  1.0000</r>
       <r>   5.1923  1.0000</r>
       <r>   5.1923  1.0000</r>
       <r>   6.6607  1.0000</r>
       <r>   6.6607  1.0000</r>
       <r>   6.6607  1.0000</r>
       <r>   6.6608  1.0000</r>
       <r>   6.8942  1.0000</r>
       <r>   6.8942  1.0000</r>
       <r>   6.8951  1.0000</r>
       <r>   6.8951  1.0000</r>
       <r>   6.8951  1.0000</r>
       <r>   6.8952  1.0000</r>
       <r>   6.8961  1.0000</r>
       <r>   6.8961  1.0000</r>
       <r>   8.3156  1.0000</r>
       <r>   8.3156  1.0000</r>
       <r>   8.3156  1.0000</r>
       <r>   8.3156  1.0000</r>
       <r>   9.9393  0.0000</r>
       <r>   9.9393  0.0000</r>
       <r>   9.9393  0.0000</r>
       <r>   9.9393  0.0000</r>
       <r>  10.4587  0.0000</r>
       <r>  10.4587  0.0000</r>
       <r>  10.4587  0.0000</r>
       <r>  10.4588  0.0000</r>
       <r>  11.2684  0.0000</r>
       <r>  11.2684  0.0000</r>
       <r>  11.2694  0.0000</r>
       <r>  11.2694  0.0000</r>
       <r>  11.2694  0.0000</r>
       <r>  11.2694  0.0000</r>
       <r>  11.2703  0.0000</r>
       <r>  11.2703  0.0000</r>
       <r>  11.4806  0.0000</r>
       <r>  11.4806  0.0000</r>
       <r>  11.4806  0.0000</r>
       <r>  11.4806  0.0000</r>
       <r>  13.1586  0.0000</r>
       <r>  13.1594  0.0000</r>
       <r>  13.1597  0.0000</r>
       <r>  13.1606  0.0000</r>
      </set>
      <set comment="kpoint 193">
       <r>  -1.1198  1.0000</r>
       <r>  -1.1198  1.0000</r>
       <r>  -1.1198  1.0000</r>
       <r>  -1.1198  1.0000</r>
       <r>   0.1158  1.0000</r>
       <r>   0.1158  1.0000</r>
       <r>   0.1158  1.0000</r>
       <r>   0.1158  1.0000</r>
       <r>   2.5462  1.0000</r>
       <r>   2.5462  1.0000</r>
       <r>   2.5462  1.0000</r>
       <r>   2.5462  1.0000</r>
       <r>   3.7360  1.0000</r>
       <r>   3.7360  1.0000</r>
       <r>   3.7361  1.0000</r>
       <r>   3.7361  1.0000</r>
       <r>   3.7361  1.0000</r>
       <r>   3.7361  1.0000</r>
       <r>   3.7361  1.0000</r>
       <r>   3.7361  1.0000</r>
       <r>   4.8999  1.0000</r>
       <r>   4.8999  1.0000</r>
       <r>   4.9002  1.0000</r>
       <r>   4.9002  1.0000</r>
       <r>   4.9002  1.0000</r>
       <r>   4.9002  1.0000</r>
       <r>   4.9005  1.0000</r>
       <r>   4.9005  1.0000</r>
       <r>   6.0299  1.0000</r>
       <r>   6.0299  1.0000</r>
       <r>   6.0299  1.0000</r>
       <r>   6.0299  1.0000</r>
       <r>   7.3418  1.0000</r>
       <r>   7.3418  1.0000</r>
       <r>   7.3426  1.0000</r>
       <r>   7.3426  1.0000</r>
       <r>   7.3426  1.0000</r>
       <r>   7.3426  1.0000</r>
       <r>   7.3434  1.0000</r>
       <r>   7.3434  1.0000</r>
       <r>   8.4313  1.0000</r>
       <r>   8.4313  1.0000</r>
       <r>   8.4313  1.0000</r>
       <r>   8.4313  1.0000</r>
       <r>   9.6319  1.0000</r>
       <r>   9.6319  1.0000</r>
       <r>   9.6319  1.0000</r>
       <r>   9.6319  1.0000</r>
       <r>  10.6700  0.0000</r>
       <r>  10.6700  0.0000</r>
       <r>  10.6708  0.0000</r>
       <r>  10.6708  0.0000</r>
       <r>  10.6708  0.0000</r>
       <r>  10.6708  0.0000</r>
       <r>  10.6716  0.0000</r>
       <r>  10.6716  0.0000</r>
       <r>  11.1993  0.0000</r>
       <r>  11.1993  0.0000</r>
       <r>  11.1993  0.0000</r>
       <r>  11.1993  0.0000</r>
       <r>  11.9424  0.0000</r>
       <r>  11.9424  0.0000</r>
       <r>  11.9424  0.0000</r>
       <r>  11.9424  0.0000</r>
       <r>  13.3123  0.0000</r>
       <r>  13.3131  0.0000</r>
       <r>  13.3136  0.0000</r>
       <r>  13.3142  0.0000</r>
      </set>
      <set comment="kpoint 194">
       <r>  -0.9992  1.0000</r>
       <r>  -0.9991  1.0000</r>
       <r>  -0.9991  1.0000</r>
       <r>  -0.9991  1.0000</r>
       <r>  -0.1748  1.0000</r>
       <r>  -0.1748  1.0000</r>
       <r>  -0.1748  1.0000</r>
       <r>  -0.1747  1.0000</r>
       <r>   3.0612  1.0000</r>
       <r>   3.0612  1.0000</r>
       <r>   3.0612  1.0000</r>
       <r>   3.0612  1.0000</r>
       <r>   3.8510  1.0000</r>
       <r>   3.8510  1.0000</r>
       <r>   3.8510  1.0000</r>
       <r>   3.8511  1.0000</r>
       <r>   3.8511  1.0000</r>
       <r>   3.8511  1.0000</r>
       <r>   3.8511  1.0000</r>
       <r>   3.8511  1.0000</r>
       <r>   4.6304  1.0000</r>
       <r>   4.6304  1.0000</r>
       <r>   4.6306  1.0000</r>
       <r>   4.6306  1.0000</r>
       <r>   4.6306  1.0000</r>
       <r>   4.6306  1.0000</r>
       <r>   4.6308  1.0000</r>
       <r>   4.6308  1.0000</r>
       <r>   5.3959  1.0000</r>
       <r>   5.3959  1.0000</r>
       <r>   5.3959  1.0000</r>
       <r>   5.3960  1.0000</r>
       <r>   7.8290  1.0000</r>
       <r>   7.8290  1.0000</r>
       <r>   7.8297  1.0000</r>
       <r>   7.8297  1.0000</r>
       <r>   7.8297  1.0000</r>
       <r>   7.8297  1.0000</r>
       <r>   7.8304  1.0000</r>
       <r>   7.8304  1.0000</r>
       <r>   8.5606  1.0000</r>
       <r>   8.5606  1.0000</r>
       <r>   8.5606  1.0000</r>
       <r>   8.5606  1.0000</r>
       <r>   9.3559  1.0000</r>
       <r>   9.3559  1.0000</r>
       <r>   9.3559  1.0000</r>
       <r>   9.3560  1.0000</r>
       <r>  10.0647  0.0000</r>
       <r>  10.0647  0.0000</r>
       <r>  10.0654  0.0000</r>
       <r>  10.0654  0.0000</r>
       <r>  10.0654  0.0000</r>
       <r>  10.0654  0.0000</r>
       <r>  10.0661  0.0000</r>
       <r>  10.0661  0.0000</r>
       <r>  12.0188  0.0000</r>
       <r>  12.0188  0.0000</r>
       <r>  12.0188  0.0000</r>
       <r>  12.0188  0.0000</r>
       <r>  12.4337  0.0000</r>
       <r>  12.4337  0.0000</r>
       <r>  12.4337  0.0000</r>
       <r>  12.4337  0.0000</r>
       <r>  13.4590  0.0000</r>
       <r>  13.4593  0.0000</r>
       <r>  13.4595  0.0000</r>
       <r>  13.4599  0.0000</r>
      </set>
      <set comment="kpoint 195">
       <r>  -0.8442  1.0000</r>
       <r>  -0.8441  1.0000</r>
       <r>  -0.8441  1.0000</r>
       <r>  -0.8441  1.0000</r>
       <r>  -0.4318  1.0000</r>
       <r>  -0.4318  1.0000</r>
       <r>  -0.4318  1.0000</r>
       <r>  -0.4317  1.0000</r>
       <r>   3.6056  1.0000</r>
       <r>   3.6057  1.0000</r>
       <r>   3.6057  1.0000</r>
       <r>   3.6057  1.0000</r>
       <r>   3.9984  1.0000</r>
       <r>   3.9984  1.0000</r>
       <r>   3.9985  1.0000</r>
       <r>   3.9985  1.0000</r>
       <r>   3.9985  1.0000</r>
       <r>   3.9985  1.0000</r>
       <r>   3.9986  1.0000</r>
       <r>   3.9986  1.0000</r>
       <r>   4.3890  1.0000</r>
       <r>   4.3890  1.0000</r>
       <r>   4.3892  1.0000</r>
       <r>   4.3892  1.0000</r>
       <r>   4.3892  1.0000</r>
       <r>   4.3892  1.0000</r>
       <r>   4.3893  1.0000</r>
       <r>   4.3893  1.0000</r>
       <r>   4.7761  1.0000</r>
       <r>   4.7761  1.0000</r>
       <r>   4.7761  1.0000</r>
       <r>   4.7762  1.0000</r>
       <r>   8.3487  1.0000</r>
       <r>   8.3487  1.0000</r>
       <r>   8.3494  1.0000</r>
       <r>   8.3494  1.0000</r>
       <r>   8.3494  1.0000</r>
       <r>   8.3494  1.0000</r>
       <r>   8.3500  1.0000</r>
       <r>   8.3500  1.0000</r>
       <r>   8.7148  1.0000</r>
       <r>   8.7148  1.0000</r>
       <r>   8.7148  1.0000</r>
       <r>   8.7148  1.0000</r>
       <r>   9.1113  1.0000</r>
       <r>   9.1113  1.0000</r>
       <r>   9.1113  1.0000</r>
       <r>   9.1113  1.0000</r>
       <r>   9.4708  1.0000</r>
       <r>   9.4708  1.0000</r>
       <r>   9.4715  1.0000</r>
       <r>   9.4715  1.0000</r>
       <r>   9.4715  1.0000</r>
       <r>   9.4715  1.0000</r>
       <r>   9.4722  1.0000</r>
       <r>   9.4722  1.0000</r>
       <r>  12.8884  0.0000</r>
       <r>  12.8885  0.0000</r>
       <r>  12.8885  0.0000</r>
       <r>  12.8885  0.0000</r>
       <r>  12.9537  0.0000</r>
       <r>  12.9537  0.0000</r>
       <r>  12.9537  0.0000</r>
       <r>  12.9538  0.0000</r>
       <r>  13.6171  0.0000</r>
       <r>  13.6176  0.0000</r>
       <r>  13.6180  0.0000</r>
       <r>  13.6183  0.0000</r>
      </set>
      <set comment="kpoint 196">
       <r>  -0.6602  1.0000</r>
       <r>  -0.6555  1.0000</r>
       <r>  -0.6555  1.0000</r>
       <r>  -0.6550  1.0000</r>
       <r>  -0.6549  1.0000</r>
       <r>  -0.6544  1.0000</r>
       <r>  -0.6544  1.0000</r>
       <r>  -0.6497  1.0000</r>
       <r>   4.1675  1.0000</r>
       <r>   4.1735  1.0000</r>
       <r>   4.1735  1.0000</r>
       <r>   4.1770  1.0000</r>
       <r>   4.1774  1.0000</r>
       <r>   4.1776  1.0000</r>
       <r>   4.1780  1.0000</r>
       <r>   4.1780  1.0000</r>
       <r>   4.1781  1.0000</r>
       <r>   4.1781  1.0000</r>
       <r>   4.1781  1.0000</r>
       <r>   4.1781  1.0000</r>
       <r>   4.1781  1.0000</r>
       <r>   4.1781  1.0000</r>
       <r>   4.1781  1.0000</r>
       <r>   4.1781  1.0000</r>
       <r>   4.1782  1.0000</r>
       <r>   4.1782  1.0000</r>
       <r>   4.1786  1.0000</r>
       <r>   4.1788  1.0000</r>
       <r>   4.1792  1.0000</r>
       <r>   4.1827  1.0000</r>
       <r>   4.1827  1.0000</r>
       <r>   4.1887  1.0000</r>
       <r>   8.8911  1.0000</r>
       <r>   8.8911  1.0000</r>
       <r>   8.8937  1.0000</r>
       <r>   8.8950  1.0000</r>
       <r>   8.8969  1.0000</r>
       <r>   8.8974  1.0000</r>
       <r>   8.8975  1.0000</r>
       <r>   8.8975  1.0000</r>
       <r>   8.8978  1.0000</r>
       <r>   8.8978  1.0000</r>
       <r>   8.8978  1.0000</r>
       <r>   8.8978  1.0000</r>
       <r>   8.8978  1.0000</r>
       <r>   8.8979  1.0000</r>
       <r>   8.8979  1.0000</r>
       <r>   8.8979  1.0000</r>
       <r>   8.8982  1.0000</r>
       <r>   8.8982  1.0000</r>
       <r>   8.8983  1.0000</r>
       <r>   8.8988  1.0000</r>
       <r>   8.9007  1.0000</r>
       <r>   8.9020  1.0000</r>
       <r>   8.9046  1.0000</r>
       <r>   8.9046  1.0000</r>
       <r>  13.4991  0.0000</r>
       <r>  13.4999  0.0000</r>
       <r>  13.4999  0.0000</r>
       <r>  13.5000  0.0000</r>
       <r>  13.5021  0.0000</r>
       <r>  13.5023  0.0000</r>
       <r>  13.5023  0.0000</r>
       <r>  13.5031  0.0000</r>
       <r>  13.7930  0.0000</r>
       <r>  13.7944  0.0000</r>
       <r>  13.7952  0.0000</r>
       <r>  13.7968  0.0000</r>
      </set>
     </set>
    </set>
   </array>
  </eigenvalues>
 </calculation>
 <structure name="finalpos" >
  <crystal>
   <varray name="basis" >
    <v>       7.67088210      0.00000000      0.00000000</v>
    <v>       0.00000000      7.67088210      0.00000000</v>
    <v>       0.00000000      0.00000000      7.67088210</v>
   </varray>
   <i name="volume">    451.37336024</i>
   <varray name="rec_basis" >
    <v>       0.13036310      0.00000000      0.00000000</v>
    <v>       0.00000000      0.13036310      0.00000000</v>
    <v>       0.00000000      0.00000000      0.13036310</v>
   </varray>
  </crystal>
  <varray name="positions" >
   <v>       0.25130363      0.25000000      0.00000000</v>
   <v>       0.75000000      0.25000000      0.00000000</v>
   <v>       0.25000000      0.75000000      0.00000000</v>
   <v>       0.75000000      0.75000000      0.00000000</v>
   <v>       0.25000000      0.25000000      0.50000000</v>
   <v>       0.75000000      0.25000000      0.50000000</v>
   <v>       0.25000000      0.75000000      0.50000000</v>
   <v>       0.75000000      0.75000000      0.50000000</v>
   <v>       0.25000000      0.00000000      0.25000000</v>
   <v>       0.75000000      0.00000000      0.25000000</v>
   <v>       0.25000000      0.50000000      0.25000000</v>
   <v>       0.75000000      0.50000000      0.25000000</v>
   <v>       0.25000000      0.00000000      0.75000000</v>
   <v>       0.75000000      0.00000000      0.75000000</v>
   <v>       0.25000000      0.50000000      0.75000000</v>
   <v>       0.75000000      0.50000000      0.75000000</v>
   <v>       0.00000000      0.25000000      0.25000000</v>
   <v>       0.50000000      0.25000000      0.25000000</v>
   <v>       0.00000000      0.75000000      0.25000000</v>
   <v>       0.50000000      0.75000000      0.25000000</v>
   <v>       0.00000000      0.25000000      0.75000000</v>
   <v>       0.50000000      0.25000000      0.75000000</v>
   <v>       0.00000000      0.75000000      0.75000000</v>
   <v>       0.50000000      0.75000000      0.75000000</v>
   <v>       0.00000000      0.00000000      0.00000000</v>
   <v>       0.50000000      0.00000000      0.00000000</v>
   <v>       0.00000000      0.50000000      0.00000000</v>
   <v>       0.50000000      0.50000000      0.00000000</v>
   <v>       0.00000000      0.00000000      0.50000000</v>
   <v>       0.50000000      0.00000000      0.50000000</v>
   <v>       0.00000000      0.50000000      0.50000000</v>
   <v>       0.50000000      0.50000000      0.50000000</v>
  </varray>
 </structure>
</modeling>
