32   
1    

1    
  0.0100000000000000   0.0000000000000000   0.0000000000000000
  -0.0447364400    0.0000000000   -0.0000000000
   0.0035192200   -0.0000000000   -0.0000000000
   0.0001216500    0.0000000000    0.0000000000
  -0.0005522900    0.0000000000   -0.0000000000
   0.0001216500   -0.0000000000    0.0000000000
  -0.0005522900    0.0000000000    0.0000000000
  -0.0010241400   -0.0000000000    0.0000000000
  -0.0018468300    0.0000000000   -0.0000000000
  -0.0018109600   -0.0000051500    0.0000051500
  -0.0003699900    0.0000437800   -0.0000437800
  -0.0018109600    0.0000051500    0.0000051500
  -0.0003699900   -0.0000437800   -0.0000437800
  -0.0018109600   -0.0000051500   -0.0000051500
  -0.0003699900    0.0000437800    0.0000437800
  -0.0018109600    0.0000051500   -0.0000051500
  -0.0003699900   -0.0000437800    0.0000437800
   0.0057817800    0.0000000000   -0.0067209400
   0.0060050300    0.0000000000    0.0069581600
   0.0008458400   -0.0000000000    0.0004990000
   0.0007856600   -0.0000000000   -0.0004790600
   0.0057817800    0.0000000000    0.0067209400
   0.0060050300   -0.0000000000   -0.0069581600
   0.0008458400    0.0000000000   -0.0004990000
   0.0007856600    0.0000000000    0.0004790600
   0.0057817800    0.0067209400    0.0000000000
   0.0060050300   -0.0069581600    0.0000000000
   0.0057817800   -0.0067209400    0.0000000000
   0.0060050300    0.0069581600    0.0000000000
   0.0008458400   -0.0004990000   -0.0000000000
   0.0007856600    0.0004790600    0.0000000000
   0.0008458400    0.0004990000   -0.0000000000
   0.0007856600   -0.0004790600   -0.0000000000
