<?xml version="1.0" encoding="ISO-8859-1"?>
<modeling>
 <generator>
  <i name="program" type="string">vasp</i>
  <i name="version" type="string">4.6.28 </i>
  <i name="subversion" type="string">25Jul05 complex  parallel</i>
  <i name="platform" type="string">LinuxIFC</i>
  <i name="date" type="string">2016 10 19</i>
  <i name="time" type="string">12:07:28</i>
 </generator>
 <incar>
  <i type="string" name="PREC">accurate</i>
  <i type="int" name="IALGO">    38</i>
  <i name="EDIFF">      0.00000001</i>
  <i type="int" name="IBRION">    -1</i>
  <i name="ENCUT">    500.00000000</i>
  <i type="logical" name="LREAL"> F  </i>
  <i type="int" name="ISMEAR">     0</i>
  <i name="SIGMA">      0.01000000</i>
  <i type="logical" name="LWAVE"> F  </i>
  <i type="logical" name="LCHARG"> F  </i>
 </incar>
 <kpoints>
  <generation param="Auto">
   <i name="subdivisionlength">     50.00000000</i>
   <v type="int" name="divisions">       6       6       6</v>
   <v name="usershift">      0.00000000      0.00000000      0.00000000</v>
   <v name="genvec1">      0.16666667      0.00000000      0.00000000</v>
   <v name="genvec2">      0.00000000      0.16666667      0.00000000</v>
   <v name="genvec3">      0.00000000      0.00000000      0.16666667</v>
   <v name="shift">      0.00000000      0.00000000      0.00000000</v>
  </generation>
  <varray name="kpointlist" >
   <v>       0.00000000      0.00000000      0.00000000</v>
   <v>       0.16666667      0.00000000      0.00000000</v>
   <v>       0.33333333      0.00000000      0.00000000</v>
   <v>       0.50000000      0.00000000      0.00000000</v>
   <v>       0.00000000      0.16666667      0.00000000</v>
   <v>       0.16666667      0.16666667      0.00000000</v>
   <v>       0.33333333      0.16666667      0.00000000</v>
   <v>       0.50000000      0.16666667      0.00000000</v>
   <v>       0.00000000      0.33333333      0.00000000</v>
   <v>       0.16666667      0.33333333      0.00000000</v>
   <v>       0.33333333      0.33333333      0.00000000</v>
   <v>       0.50000000      0.33333333      0.00000000</v>
   <v>       0.00000000      0.50000000      0.00000000</v>
   <v>       0.16666667      0.50000000      0.00000000</v>
   <v>       0.33333333      0.50000000      0.00000000</v>
   <v>       0.50000000      0.50000000      0.00000000</v>
   <v>       0.00000000      0.16666667      0.16666667</v>
   <v>       0.16666667      0.16666667      0.16666667</v>
   <v>       0.33333333      0.16666667      0.16666667</v>
   <v>       0.50000000      0.16666667      0.16666667</v>
   <v>       0.00000000      0.33333333      0.16666667</v>
   <v>       0.16666667      0.33333333      0.16666667</v>
   <v>       0.33333333      0.33333333      0.16666667</v>
   <v>       0.50000000      0.33333333      0.16666667</v>
   <v>       0.00000000      0.50000000      0.16666667</v>
   <v>       0.16666667      0.50000000      0.16666667</v>
   <v>       0.33333333      0.50000000      0.16666667</v>
   <v>       0.50000000      0.50000000      0.16666667</v>
   <v>       0.00000000      0.33333333      0.33333333</v>
   <v>       0.16666667      0.33333333      0.33333333</v>
   <v>       0.33333333      0.33333333      0.33333333</v>
   <v>       0.50000000      0.33333333      0.33333333</v>
   <v>       0.00000000      0.50000000      0.33333333</v>
   <v>       0.16666667      0.50000000      0.33333333</v>
   <v>       0.33333333      0.50000000      0.33333333</v>
   <v>       0.50000000      0.50000000      0.33333333</v>
   <v>       0.00000000      0.50000000      0.50000000</v>
   <v>       0.16666667      0.50000000      0.50000000</v>
   <v>       0.33333333      0.50000000      0.50000000</v>
   <v>       0.50000000      0.50000000      0.50000000</v>
  </varray>
  <varray name="weights" >
   <v>       0.00462963</v>
   <v>       0.00925926</v>
   <v>       0.00925926</v>
   <v>       0.00462963</v>
   <v>       0.01851852</v>
   <v>       0.03703704</v>
   <v>       0.03703704</v>
   <v>       0.01851852</v>
   <v>       0.01851852</v>
   <v>       0.03703704</v>
   <v>       0.03703704</v>
   <v>       0.01851852</v>
   <v>       0.00925926</v>
   <v>       0.01851852</v>
   <v>       0.01851852</v>
   <v>       0.00925926</v>
   <v>       0.01851852</v>
   <v>       0.03703704</v>
   <v>       0.03703704</v>
   <v>       0.01851852</v>
   <v>       0.03703704</v>
   <v>       0.07407407</v>
   <v>       0.07407407</v>
   <v>       0.03703704</v>
   <v>       0.01851852</v>
   <v>       0.03703704</v>
   <v>       0.03703704</v>
   <v>       0.01851852</v>
   <v>       0.01851852</v>
   <v>       0.03703704</v>
   <v>       0.03703704</v>
   <v>       0.01851852</v>
   <v>       0.01851852</v>
   <v>       0.03703704</v>
   <v>       0.03703704</v>
   <v>       0.01851852</v>
   <v>       0.00462963</v>
   <v>       0.00925926</v>
   <v>       0.00925926</v>
   <v>       0.00462963</v>
  </varray>
 </kpoints>
 <parameters>
  <separator name="general" >
   <i type="string" name="SYSTEM">unknown system</i>
   <i type="logical" name="LCOMPAT"> F  </i>
  </separator>
  <separator name="electronic" >
   <i type="string" name="PREC">accura</i>
   <i name="ENMAX">    500.00000000</i>
   <i name="ENAUG">    291.05200000</i>
   <i name="EDIFF">      0.00000001</i>
   <i type="int" name="IALGO">    38</i>
   <i type="int" name="IWAVPR">    10</i>
   <i type="int" name="NBANDS">    65</i>
   <i name="NELECT">     96.00000000</i>
   <separator name="electronic smearing" >
    <i type="int" name="ISMEAR">     0</i>
    <i name="SIGMA">      0.01000000</i>
   </separator>
   <separator name="electronic projectors" >
    <i type="logical" name="LREAL"> F  </i>
    <v name="ROPT">      0.00000000</v>
    <i type="int" name="LMAXPAW">  -100</i>
    <i type="int" name="LMAXMIX">     2</i>
   </separator>
   <separator name="electronic startup" >
    <i type="int" name="ISTART">     0</i>
    <i type="int" name="ICHARG">     2</i>
    <i type="int" name="INIWAV">     1</i>
   </separator>
   <separator name="electronic spin" >
    <i type="int" name="ISPIN">     1</i>
    <i type="logical" name="LNONCOLLINEAR"> F  </i>
    <v name="MAGMOM">      1.00000000      1.00000000      1.00000000      1.00000000      1.00000000      1.00000000      1.00000000      1.00000000      1.00000000      1.00000000      1.00000000      1.00000000      1.00000000      1.00000000      1.00000000      1.00000000      1.00000000      1.00000000      1.00000000      1.00000000
      1.00000000      1.00000000      1.00000000      1.00000000      1.00000000      1.00000000      1.00000000      1.00000000      1.00000000      1.00000000      1.00000000      1.00000000</v>
    <i name="NUPDOWN">     -1.00000000</i>
    <i type="logical" name="LSORBIT"> F  </i>
    <v name="SAXIS">      0.00000000      0.00000000      1.00000000</v>
    <i type="logical" name="LSPIRAL"> F  </i>
    <v name="QSPIRAL">      0.00000000      0.00000000      0.00000000</v>
    <i type="logical" name="LZEROZ"> F  </i>
   </separator>
   <separator name="electronic exchange-correlation" >
    <i type="string" name="GGA">--</i>
    <i type="int" name="VOSKOWN">     0</i>
    <i type="logical" name="LASPH"> F  </i>
    <i type="logical" name="LMETAGGA"> F  </i>
    <i type="string" name="GGA2">--</i>
   </separator>
   <separator name="electronic convergence" >
    <i type="int" name="NELM">    60</i>
    <i type="int" name="NELMDL">     0</i>
    <i type="int" name="NELMIN">     2</i>
    <i name="ENINI">    500.00000000</i>
    <separator name="electronic convergence detail" >
     <i type="logical" name="LDIAG"> T  </i>
     <i name="WEIMIN">      0.00000000</i>
     <i name="EBREAK">      0.00000000</i>
     <i name="DEPER">      0.30000000</i>
     <i type="int" name="NRMM">     4</i>
     <i name="TIME">      0.10000000</i>
    </separator>
   </separator>
   <separator name="electronic mixer" >
    <i name="AMIX">      0.40000000</i>
    <i name="BMIX">      1.00000000</i>
    <i name="AMIN">      0.10000000</i>
    <i name="AMIX_MAG">      1.60000000</i>
    <i name="BMIX_MAG">      1.00000000</i>
    <separator name="electronic mixer details" >
     <i type="int" name="IMIX">     4</i>
     <i type="int" name="MAXMIX">   -45</i>
     <i name="WC">    100.00000000</i>
     <i type="int" name="INIMIX">     1</i>
     <i type="int" name="MIXPRE">     1</i>
     <i type="int" name="MREMOVE">     5</i>
    </separator>
   </separator>
   <separator name="electronic dipolcorrection" >
    <i type="int" name="IDIPOL">     0</i>
    <i type="logical" name="LDIPOL"> F  </i>
    <v name="DIPOL">   -100.00000000</v>
    <i name="EFIELD">      0.00000000</i>
   </separator>
  </separator>
  <separator name="grids" >
   <i type="int" name="NGX">    60</i>
   <i type="int" name="NGY">    60</i>
   <i type="int" name="NGZ">    60</i>
   <i type="int" name="NGXF">   120</i>
   <i type="int" name="NGYF">   120</i>
   <i type="int" name="NGZF">   120</i>
   <i type="logical" name="ADDGRID"> F  </i>
  </separator>
  <separator name="ionic" >
   <i type="int" name="NSW">     0</i>
   <i type="int" name="IBRION">    -1</i>
   <i type="int" name="ISIF">     2</i>
   <i name="PSTRESS">      0.00000000</i>
   <i name="EDIFFG">      0.00000010</i>
   <i type="int" name="NFREE">     0</i>
   <i name="POTIM">      0.50000000</i>
   <i name="SMASS">     -3.00000000</i>
  </separator>
  <separator name="ionic md" >
   <i name="TEBEG">      0.00010000</i>
   <i name="TEEND">      0.00010000</i>
   <i type="int" name="NBLOCK">     1</i>
   <i type="int" name="KBLOCK">     1</i>
   <i type="int" name="NPACO">   256</i>
   <i name="APACO">     16.00000000</i>
  </separator>
  <separator name="symmetry" >
   <i type="int" name="ISYM">     2</i>
   <i name="SYMPREC">      0.00001000</i>
  </separator>
  <separator name="dos" >
   <i type="logical" name="LORBIT"> F  </i>
   <v name="RWIGS">     -1.00000000</v>
   <i type="int" name="NEDOS">   301</i>
   <i name="EMIN">     10.00000000</i>
   <i name="EMAX">    -10.00000000</i>
  </separator>
  <separator name="writing" >
   <i type="int" name="NWRITE">     2</i>
   <i type="logical" name="LWAVE"> F  </i>
   <i type="logical" name="LCHARG"> F  </i>
   <i type="logical" name="LPARD"> F  </i>
   <i type="logical" name="LVTOT"> F  </i>
   <i type="logical" name="LELF"> F  </i>
   <i type="logical" name="LOPTICS"> F  </i>
   <i name="STM">      0.00000000</i>
  </separator>
  <separator name="performance" >
   <i type="int" name="NPAR">     8</i>
   <i type="int" name="NSIM">     4</i>
   <i type="int" name="NBLK">   256</i>
   <i type="logical" name="LPLANE"> T  </i>
   <i type="logical" name="LCRITICAL_MEM"> F  </i>
   <i type="logical" name="LSCALAPACK"> F  </i>
   <i type="logical" name="LSCALU"> F  </i>
   <i type="logical" name="LASYNC"> F  </i>
  </separator>
  <separator name="miscellaneous" >
   <i type="int" name="IDIOT">     3</i>
   <i type="logical" name="LMUSIC"> F  </i>
   <v name="POMASS">     26.98200000</v>
   <i type="logical" name="LCORR"> T  </i>
  </separator>
  <i type="logical" name="LREAL_COMPAT"> F  </i>
  <i type="logical" name="GGA_COMPAT"> T  </i>
  <i type="logical" name="LBERRY"> F  </i>
  <i type="int" name="ICORELEVEL">     0</i>
  <i type="logical" name="LDAU"> F  </i>
  <i type="int" name="I_CONSTRAINED_M">     0</i>
 </parameters>
 <atominfo>
  <atoms>      32</atoms>
  <types>       1</types>
  <array name="atoms" >
   <dimension dim="1">ion</dimension>
   <field type="string">element</field>
   <field type="int">atomtype</field>
   <set>
    <rc><c>Al</c><c>   1</c></rc>
    <rc><c>Al</c><c>   1</c></rc>
    <rc><c>Al</c><c>   1</c></rc>
    <rc><c>Al</c><c>   1</c></rc>
    <rc><c>Al</c><c>   1</c></rc>
    <rc><c>Al</c><c>   1</c></rc>
    <rc><c>Al</c><c>   1</c></rc>
    <rc><c>Al</c><c>   1</c></rc>
    <rc><c>Al</c><c>   1</c></rc>
    <rc><c>Al</c><c>   1</c></rc>
    <rc><c>Al</c><c>   1</c></rc>
    <rc><c>Al</c><c>   1</c></rc>
    <rc><c>Al</c><c>   1</c></rc>
    <rc><c>Al</c><c>   1</c></rc>
    <rc><c>Al</c><c>   1</c></rc>
    <rc><c>Al</c><c>   1</c></rc>
    <rc><c>Al</c><c>   1</c></rc>
    <rc><c>Al</c><c>   1</c></rc>
    <rc><c>Al</c><c>   1</c></rc>
    <rc><c>Al</c><c>   1</c></rc>
    <rc><c>Al</c><c>   1</c></rc>
    <rc><c>Al</c><c>   1</c></rc>
    <rc><c>Al</c><c>   1</c></rc>
    <rc><c>Al</c><c>   1</c></rc>
    <rc><c>Al</c><c>   1</c></rc>
    <rc><c>Al</c><c>   1</c></rc>
    <rc><c>Al</c><c>   1</c></rc>
    <rc><c>Al</c><c>   1</c></rc>
    <rc><c>Al</c><c>   1</c></rc>
    <rc><c>Al</c><c>   1</c></rc>
    <rc><c>Al</c><c>   1</c></rc>
    <rc><c>Al</c><c>   1</c></rc>
   </set>
  </array>
  <array name="atomtypes" >
   <dimension dim="1">type</dimension>
   <field type="int">atomspertype</field>
   <field type="string">element</field>
   <field>mass</field>
   <field>valence</field>
   <field type="string">pseudopotential</field>
   <set>
    <rc><c>  32</c><c>Al</c><c>     26.98200000</c><c>      3.00000000</c><c> PAW_PBE Al 04Jan2001                   </c></rc>
   </set>
  </array>
 </atominfo>
 <structure name="initialpos" >
  <crystal>
   <varray name="basis" >
    <v>       8.07439980      0.00000000      0.00000000</v>
    <v>       0.00000000      8.07439980      0.00000000</v>
    <v>       0.00000000      0.00000000      8.07439980</v>
   </varray>
   <i name="volume">    526.41802135</i>
   <varray name="rec_basis" >
    <v>       0.12384821      0.00000000      0.00000000</v>
    <v>       0.00000000      0.12384821      0.00000000</v>
    <v>       0.00000000      0.00000000      0.12384821</v>
   </varray>
  </crystal>
  <varray name="positions" >
   <v>       0.25123848      0.25000000      0.00000000</v>
   <v>       0.75000000      0.25000000      0.00000000</v>
   <v>       0.25000000      0.75000000      0.00000000</v>
   <v>       0.75000000      0.75000000      0.00000000</v>
   <v>       0.25000000      0.25000000      0.50000000</v>
   <v>       0.75000000      0.25000000      0.50000000</v>
   <v>       0.25000000      0.75000000      0.50000000</v>
   <v>       0.75000000      0.75000000      0.50000000</v>
   <v>       0.25000000      0.00000000      0.25000000</v>
   <v>       0.75000000      0.00000000      0.25000000</v>
   <v>       0.25000000      0.50000000      0.25000000</v>
   <v>       0.75000000      0.50000000      0.25000000</v>
   <v>       0.25000000      0.00000000      0.75000000</v>
   <v>       0.75000000      0.00000000      0.75000000</v>
   <v>       0.25000000      0.50000000      0.75000000</v>
   <v>       0.75000000      0.50000000      0.75000000</v>
   <v>       0.00000000      0.25000000      0.25000000</v>
   <v>       0.50000000      0.25000000      0.25000000</v>
   <v>       0.00000000      0.75000000      0.25000000</v>
   <v>       0.50000000      0.75000000      0.25000000</v>
   <v>       0.00000000      0.25000000      0.75000000</v>
   <v>       0.50000000      0.25000000      0.75000000</v>
   <v>       0.00000000      0.75000000      0.75000000</v>
   <v>       0.50000000      0.75000000      0.75000000</v>
   <v>       0.00000000      0.00000000      0.00000000</v>
   <v>       0.50000000      0.00000000      0.00000000</v>
   <v>       0.00000000      0.50000000      0.00000000</v>
   <v>       0.50000000      0.50000000      0.00000000</v>
   <v>       0.00000000      0.00000000      0.50000000</v>
   <v>       0.50000000      0.00000000      0.50000000</v>
   <v>       0.00000000      0.50000000      0.50000000</v>
   <v>       0.50000000      0.50000000      0.50000000</v>
  </varray>
 </structure>
 <calculation>
  <scstep>
   <time name="dav">   17.47   17.48</time>
   <time name="total">   17.61   17.62</time>
   <energy>
    <i name="alphaZ">     -6.53363553</i>
    <i name="ewald">  -2354.85593599</i>
    <i name="hartreedc">     -3.20992959</i>
    <i name="XCdc">   -839.49879349</i>
    <i name="pawpsdc">   1137.73615723</i>
    <i name="pawaedc">   -115.16745734</i>
    <i name="eentropy">     -0.00052754</i>
    <i name="bandstr">    588.08457804</i>
    <i name="atom">   1713.22913220</i>
    <i name="e_fr_energy">    119.78358799</i>
    <i name="e_wo_entrp">    119.78411553</i>
    <i name="e_0_energy">    119.78385176</i>
   </energy>
  </scstep>
  <scstep>
   <time name="dav">   19.69   19.69</time>
   <time name="total">   19.70   19.70</time>
   <energy>
    <i name="e_fr_energy">   -107.31295674</i>
    <i name="e_wo_entrp">   -107.31227838</i>
    <i name="e_0_energy">   -107.31261756</i>
   </energy>
  </scstep>
  <scstep>
   <time name="dav">   20.58   20.58</time>
   <time name="total">   20.58   20.58</time>
   <energy>
    <i name="e_fr_energy">   -120.25621682</i>
    <i name="e_wo_entrp">   -120.25592835</i>
    <i name="e_0_energy">   -120.25607258</i>
   </energy>
  </scstep>
  <scstep>
   <time name="dav">   19.50   19.50</time>
   <time name="total">   19.51   19.50</time>
   <energy>
    <i name="e_fr_energy">   -120.49060284</i>
    <i name="e_wo_entrp">   -120.49024333</i>
    <i name="e_0_energy">   -120.49042309</i>
   </energy>
  </scstep>
  <scstep>
   <time name="dav">   19.57   19.56</time>
   <time name="total">   20.24   20.23</time>
   <energy>
    <i name="e_fr_energy">   -120.49342481</i>
    <i name="e_wo_entrp">   -120.49306593</i>
    <i name="e_0_energy">   -120.49324537</i>
   </energy>
  </scstep>
  <scstep>
   <time name="dav">   19.31   19.30</time>
   <time name="total">   20.13   20.13</time>
   <energy>
    <i name="e_fr_energy">   -120.06935605</i>
    <i name="e_wo_entrp">   -120.06898789</i>
    <i name="e_0_energy">   -120.06917197</i>
   </energy>
  </scstep>
  <scstep>
   <time name="dav">   18.82   18.82</time>
   <time name="total">   19.65   19.64</time>
   <energy>
    <i name="e_fr_energy">   -119.76019810</i>
    <i name="e_wo_entrp">   -119.75967859</i>
    <i name="e_0_energy">   -119.75993835</i>
   </energy>
  </scstep>
  <scstep>
   <time name="dav">   19.70   19.70</time>
   <time name="total">   20.52   20.52</time>
   <energy>
    <i name="e_fr_energy">   -119.76031025</i>
    <i name="e_wo_entrp">   -119.75978289</i>
    <i name="e_0_energy">   -119.76004657</i>
   </energy>
  </scstep>
  <scstep>
   <time name="dav">   19.55   19.55</time>
   <time name="total">   20.39   20.39</time>
   <energy>
    <i name="e_fr_energy">   -119.76033906</i>
    <i name="e_wo_entrp">   -119.75980178</i>
    <i name="e_0_energy">   -119.76007042</i>
   </energy>
  </scstep>
  <scstep>
   <time name="dav">   19.67   19.67</time>
   <time name="total">   20.49   20.49</time>
   <energy>
    <i name="e_fr_energy">   -119.76034069</i>
    <i name="e_wo_entrp">   -119.75980289</i>
    <i name="e_0_energy">   -119.76007179</i>
   </energy>
  </scstep>
  <scstep>
   <time name="dav">   19.56   19.56</time>
   <time name="total">   20.37   20.37</time>
   <energy>
    <i name="e_fr_energy">   -119.76033778</i>
    <i name="e_wo_entrp">   -119.75979984</i>
    <i name="e_0_energy">   -119.76006881</i>
   </energy>
  </scstep>
  <scstep>
   <time name="dav">   15.45   15.45</time>
   <time name="total">   16.28   16.28</time>
   <energy>
    <i name="e_fr_energy">   -119.76033671</i>
    <i name="e_wo_entrp">   -119.75979870</i>
    <i name="e_0_energy">   -119.76006771</i>
   </energy>
  </scstep>
  <scstep>
   <time name="dav">   13.17   13.17</time>
   <time name="total">   14.00   14.00</time>
   <energy>
    <i name="e_fr_energy">   -119.76033651</i>
    <i name="e_wo_entrp">   -119.75979850</i>
    <i name="e_0_energy">   -119.76006751</i>
   </energy>
  </scstep>
  <scstep>
   <time name="dav">   13.00   13.00</time>
   <time name="total">   13.14   13.14</time>
   <energy>
    <i name="alphaZ">     -6.53363553</i>
    <i name="ewald">  -2354.85593599</i>
    <i name="hartreedc">     -3.33088822</i>
    <i name="XCdc">   -835.97087550</i>
    <i name="pawpsdc">   1141.38402529</i>
    <i name="pawaedc">   -119.22309912</i>
    <i name="eentropy">     -0.00053801</i>
    <i name="bandstr">    345.54147838</i>
    <i name="atom">   1713.22913220</i>
    <i name="e_fr_energy">   -119.76033650</i>
    <i name="e_wo_entrp">   -119.75979849</i>
    <i name="e_0_energy">   -119.76006750</i>
   </energy>
  </scstep>
  <structure>
   <crystal>
    <varray name="basis" >
     <v>       8.07439980      0.00000000      0.00000000</v>
     <v>       0.00000000      8.07439980      0.00000000</v>
     <v>       0.00000000      0.00000000      8.07439980</v>
    </varray>
    <i name="volume">    526.41802135</i>
    <varray name="rec_basis" >
     <v>       0.12384821      0.00000000      0.00000000</v>
     <v>       0.00000000      0.12384821      0.00000000</v>
     <v>       0.00000000      0.00000000      0.12384821</v>
    </varray>
   </crystal>
   <varray name="positions" >
    <v>       0.25123848      0.25000000      0.00000000</v>
    <v>       0.75000000      0.25000000      0.00000000</v>
    <v>       0.25000000      0.75000000      0.00000000</v>
    <v>       0.75000000      0.75000000      0.00000000</v>
    <v>       0.25000000      0.25000000      0.50000000</v>
    <v>       0.75000000      0.25000000      0.50000000</v>
    <v>       0.25000000      0.75000000      0.50000000</v>
    <v>       0.75000000      0.75000000      0.50000000</v>
    <v>       0.25000000      0.00000000      0.25000000</v>
    <v>       0.75000000      0.00000000      0.25000000</v>
    <v>       0.25000000      0.50000000      0.25000000</v>
    <v>       0.75000000      0.50000000      0.25000000</v>
    <v>       0.25000000      0.00000000      0.75000000</v>
    <v>       0.75000000      0.00000000      0.75000000</v>
    <v>       0.25000000      0.50000000      0.75000000</v>
    <v>       0.75000000      0.50000000      0.75000000</v>
    <v>       0.00000000      0.25000000      0.25000000</v>
    <v>       0.50000000      0.25000000      0.25000000</v>
    <v>       0.00000000      0.75000000      0.25000000</v>
    <v>       0.50000000      0.75000000      0.25000000</v>
    <v>       0.00000000      0.25000000      0.75000000</v>
    <v>       0.50000000      0.25000000      0.75000000</v>
    <v>       0.00000000      0.75000000      0.75000000</v>
    <v>       0.50000000      0.75000000      0.75000000</v>
    <v>       0.00000000      0.00000000      0.00000000</v>
    <v>       0.50000000      0.00000000      0.00000000</v>
    <v>       0.00000000      0.50000000      0.00000000</v>
    <v>       0.50000000      0.50000000      0.00000000</v>
    <v>       0.00000000      0.00000000      0.50000000</v>
    <v>       0.50000000      0.00000000      0.50000000</v>
    <v>       0.00000000      0.50000000      0.50000000</v>
    <v>       0.50000000      0.50000000      0.50000000</v>
   </varray>
  </structure>
  <varray name="forces" >
   <v>      -0.04473644      0.00000000     -0.00000000</v>
   <v>       0.00351922     -0.00000000     -0.00000000</v>
   <v>       0.00012165      0.00000000      0.00000000</v>
   <v>      -0.00055229      0.00000000     -0.00000000</v>
   <v>       0.00012165     -0.00000000      0.00000000</v>
   <v>      -0.00055229      0.00000000      0.00000000</v>
   <v>      -0.00102414     -0.00000000      0.00000000</v>
   <v>      -0.00184683      0.00000000     -0.00000000</v>
   <v>      -0.00181096     -0.00000515      0.00000515</v>
   <v>      -0.00036999      0.00004378     -0.00004378</v>
   <v>      -0.00181096      0.00000515      0.00000515</v>
   <v>      -0.00036999     -0.00004378     -0.00004378</v>
   <v>      -0.00181096     -0.00000515     -0.00000515</v>
   <v>      -0.00036999      0.00004378      0.00004378</v>
   <v>      -0.00181096      0.00000515     -0.00000515</v>
   <v>      -0.00036999     -0.00004378      0.00004378</v>
   <v>       0.00578178      0.00000000     -0.00672094</v>
   <v>       0.00600503      0.00000000      0.00695816</v>
   <v>       0.00084584     -0.00000000      0.00049900</v>
   <v>       0.00078566     -0.00000000     -0.00047906</v>
   <v>       0.00578178      0.00000000      0.00672094</v>
   <v>       0.00600503     -0.00000000     -0.00695816</v>
   <v>       0.00084584      0.00000000     -0.00049900</v>
   <v>       0.00078566      0.00000000      0.00047906</v>
   <v>       0.00578178      0.00672094      0.00000000</v>
   <v>       0.00600503     -0.00695816      0.00000000</v>
   <v>       0.00578178     -0.00672094      0.00000000</v>
   <v>       0.00600503      0.00695816      0.00000000</v>
   <v>       0.00084584     -0.00049900     -0.00000000</v>
   <v>       0.00078566      0.00047906      0.00000000</v>
   <v>       0.00084584      0.00049900     -0.00000000</v>
   <v>       0.00078566     -0.00047906     -0.00000000</v>
  </varray>
  <varray name="stress" >
   <v>       0.07102158      0.00000000      0.00000000</v>
   <v>       0.00000000      0.05153271      0.00000000</v>
   <v>       0.00000000      0.00000000      0.05153271</v>
  </varray>
  <energy>
   <i name="e_fr_energy">   -119.76033650</i>
   <i name="e_wo_entrp">   -119.76006750</i>
   <i name="e_0_energy">     -0.00053801</i>
  </energy>
  <eigenvalues>
   <array>
    <dimension dim="1">band</dimension>
    <dimension dim="2">kpoint</dimension>
    <dimension dim="3">spin</dimension>
    <field>eigene</field>
    <field>occ</field>
    <set>
     <set comment="spin 1">
      <set comment="kpoint 1">
       <r>  -3.1240  1.0000</r>
       <r>  -0.8751  1.0000</r>
       <r>  -0.8714  1.0000</r>
       <r>  -0.8714  1.0000</r>
       <r>  -0.8714  1.0000</r>
       <r>  -0.8714  1.0000</r>
       <r>  -0.8677  1.0000</r>
       <r>   1.3397  1.0000</r>
       <r>   1.3441  1.0000</r>
       <r>   1.3441  1.0000</r>
       <r>   1.3457  1.0000</r>
       <r>   1.3459  1.0000</r>
       <r>   1.3459  1.0000</r>
       <r>   1.3459  1.0000</r>
       <r>   1.3459  1.0000</r>
       <r>   1.3461  1.0000</r>
       <r>   1.3478  1.0000</r>
       <r>   1.3478  1.0000</r>
       <r>   1.3522  1.0000</r>
       <r>   3.4263  1.0000</r>
       <r>   3.4264  1.0000</r>
       <r>   3.4264  1.0000</r>
       <r>   3.4264  1.0000</r>
       <r>   3.6471  1.0000</r>
       <r>   3.6471  1.0000</r>
       <r>   3.6471  1.0000</r>
       <r>   3.6471  1.0000</r>
       <r>   5.0999  1.0000</r>
       <r>   5.0999  1.0000</r>
       <r>   5.1000  1.0000</r>
       <r>   6.4300  1.0000</r>
       <r>   6.4300  1.0000</r>
       <r>   6.4300  1.0000</r>
       <r>   7.1767  1.0000</r>
       <r>   7.1767  1.0000</r>
       <r>   7.1811  1.0000</r>
       <r>   7.1811  1.0000</r>
       <r>   7.1812  1.0000</r>
       <r>   7.1812  1.0000</r>
       <r>   7.1812  1.0000</r>
       <r>   7.1812  1.0000</r>
       <r>   7.1813  1.0000</r>
       <r>   7.1813  1.0000</r>
       <r>   7.1856  1.0000</r>
       <r>   7.1856  1.0000</r>
       <r>   8.1920  0.0000</r>
       <r>   8.1961  0.0000</r>
       <r>   8.1961  0.0000</r>
       <r>   8.1961  0.0000</r>
       <r>   8.1961  0.0000</r>
       <r>   8.2002  0.0000</r>
       <r>   9.1533  0.0000</r>
       <r>   9.1543  0.0000</r>
       <r>   9.1543  0.0000</r>
       <r>   9.1543  0.0000</r>
       <r>   9.1543  0.0000</r>
       <r>   9.1554  0.0000</r>
       <r>   9.2648  0.0000</r>
       <r>   9.2648  0.0000</r>
       <r>   9.2664  0.0000</r>
       <r>   9.2687  0.0000</r>
       <r>   9.2689  0.0000</r>
       <r>   9.2689  0.0000</r>
       <r>   9.2689  0.0000</r>
       <r>   9.2689  0.0000</r>
       <r>   9.2690  0.0000</r>
       <r>   9.2713  0.0000</r>
       <r>   9.2730  0.0000</r>
       <r>   9.2730  0.0000</r>
       <r>  10.7912  0.0000</r>
       <r>  10.7933  0.0000</r>
       <r>  10.7940  0.0000</r>
      </set>
      <set comment="kpoint 2">
       <r>  -3.0610  1.0000</r>
       <r>  -1.5558  1.0000</r>
       <r>  -0.8094  1.0000</r>
       <r>  -0.8094  1.0000</r>
       <r>  -0.8094  1.0000</r>
       <r>  -0.8094  1.0000</r>
       <r>  -0.0672  1.0000</r>
       <r>   0.6722  1.0000</r>
       <r>   0.6722  1.0000</r>
       <r>   0.6722  1.0000</r>
       <r>   0.6722  1.0000</r>
       <r>   1.4070  1.0000</r>
       <r>   1.4070  1.0000</r>
       <r>   1.4070  1.0000</r>
       <r>   1.4070  1.0000</r>
       <r>   2.1376  1.0000</r>
       <r>   2.1376  1.0000</r>
       <r>   2.1376  1.0000</r>
       <r>   2.1376  1.0000</r>
       <r>   2.8628  1.0000</r>
       <r>   2.8628  1.0000</r>
       <r>   2.8628  1.0000</r>
       <r>   2.8628  1.0000</r>
       <r>   4.2315  1.0000</r>
       <r>   4.3275  1.0000</r>
       <r>   4.3275  1.0000</r>
       <r>   4.3275  1.0000</r>
       <r>   4.3275  1.0000</r>
       <r>   5.1576  1.0000</r>
       <r>   5.1576  1.0000</r>
       <r>   6.3464  1.0000</r>
       <r>   6.3464  1.0000</r>
       <r>   6.3464  1.0000</r>
       <r>   6.3464  1.0000</r>
       <r>   6.4910  1.0000</r>
       <r>   6.4910  1.0000</r>
       <r>   6.5444  1.0000</r>
       <r>   6.5444  1.0000</r>
       <r>   7.2391  1.0000</r>
       <r>   7.2391  1.0000</r>
       <r>   7.2391  1.0000</r>
       <r>   7.2391  1.0000</r>
       <r>   7.4076  1.0000</r>
       <r>   7.8649  1.0000</r>
       <r>   7.8649  1.0000</r>
       <r>   7.9346  1.0000</r>
       <r>   7.9346  1.0000</r>
       <r>   8.4822  0.0000</r>
       <r>   8.4822  0.0000</r>
       <r>   8.4822  0.0000</r>
       <r>   8.4823  0.0000</r>
       <r>   8.5891  0.0000</r>
       <r>   8.5891  0.0000</r>
       <r>   8.5891  0.0000</r>
       <r>   8.5892  0.0000</r>
       <r>   8.6304  0.0000</r>
       <r>   8.6304  0.0000</r>
       <r>   8.6305  0.0000</r>
       <r>   8.6305  0.0000</r>
       <r>   9.5936  0.0000</r>
       <r>   9.5936  0.0000</r>
       <r>   9.7632  0.0000</r>
       <r>   9.7632  0.0000</r>
       <r>   9.7632  0.0000</r>
       <r>   9.7632  0.0000</r>
       <r>  10.0238  0.0000</r>
       <r>  10.0238  0.0000</r>
       <r>  10.0238  0.0000</r>
       <r>  10.0238  0.0000</r>
       <r>  10.1495  0.0000</r>
       <r>  10.1495  0.0000</r>
       <r>  10.1495  0.0000</r>
      </set>
      <set comment="kpoint 3">
       <r>  -2.8720  1.0000</r>
       <r>  -2.1183  1.0000</r>
       <r>  -0.6234  1.0000</r>
       <r>  -0.6233  1.0000</r>
       <r>  -0.6233  1.0000</r>
       <r>  -0.6233  1.0000</r>
       <r>   0.1184  1.0000</r>
       <r>   0.1184  1.0000</r>
       <r>   0.1184  1.0000</r>
       <r>   0.1184  1.0000</r>
       <r>   0.8541  1.0000</r>
       <r>   1.5902  1.0000</r>
       <r>   1.5903  1.0000</r>
       <r>   1.5903  1.0000</r>
       <r>   1.5903  1.0000</r>
       <r>   2.3202  1.0000</r>
       <r>   2.3203  1.0000</r>
       <r>   2.3203  1.0000</r>
       <r>   2.3203  1.0000</r>
       <r>   3.0257  1.0000</r>
       <r>   3.0440  1.0000</r>
       <r>   3.0440  1.0000</r>
       <r>   3.0440  1.0000</r>
       <r>   3.0441  1.0000</r>
       <r>   5.1744  1.0000</r>
       <r>   5.1744  1.0000</r>
       <r>   5.1744  1.0000</r>
       <r>   5.1744  1.0000</r>
       <r>   5.2198  1.0000</r>
       <r>   5.2198  1.0000</r>
       <r>   5.2198  1.0000</r>
       <r>   5.2198  1.0000</r>
       <r>   5.3308  1.0000</r>
       <r>   5.3308  1.0000</r>
       <r>   6.0239  1.0000</r>
       <r>   6.0239  1.0000</r>
       <r>   6.6728  1.0000</r>
       <r>   6.6728  1.0000</r>
       <r>   7.3265  1.0000</r>
       <r>   7.3265  1.0000</r>
       <r>   7.3265  1.0000</r>
       <r>   7.3265  1.0000</r>
       <r>   7.3805  1.0000</r>
       <r>   7.3806  1.0000</r>
       <r>   7.4129  1.0000</r>
       <r>   7.4129  1.0000</r>
       <r>   7.4129  1.0000</r>
       <r>   7.4129  1.0000</r>
       <r>   8.1084  0.0000</r>
       <r>   8.1084  0.0000</r>
       <r>   8.1084  0.0000</r>
       <r>   8.1084  0.0000</r>
       <r>   8.8048  0.0000</r>
       <r>   8.8048  0.0000</r>
       <r>   8.8673  0.0000</r>
       <r>   8.8673  0.0000</r>
       <r>   8.8673  0.0000</r>
       <r>   8.8673  0.0000</r>
       <r>   8.9407  0.0000</r>
       <r>   9.6141  0.0000</r>
       <r>   9.6141  0.0000</r>
       <r>   9.6141  0.0000</r>
       <r>   9.6141  0.0000</r>
       <r>  10.3984  0.0000</r>
       <r>  10.3984  0.0000</r>
       <r>  10.8941  0.0000</r>
       <r>  10.8941  0.0000</r>
       <r>  10.8952  0.0000</r>
       <r>  10.8952  0.0000</r>
       <r>  10.8968  0.0000</r>
       <r>  10.8968  0.0000</r>
       <r>  11.1568  0.0000</r>
      </set>
      <set comment="kpoint 4">
       <r>  -2.5589  1.0000</r>
       <r>  -2.5560  1.0000</r>
       <r>  -0.3178  1.0000</r>
       <r>  -0.3147  1.0000</r>
       <r>  -0.3147  1.0000</r>
       <r>  -0.3138  1.0000</r>
       <r>  -0.3138  1.0000</r>
       <r>  -0.3130  1.0000</r>
       <r>  -0.3130  1.0000</r>
       <r>  -0.3099  1.0000</r>
       <r>   1.8860  1.0000</r>
       <r>   1.8883  1.0000</r>
       <r>   1.8934  1.0000</r>
       <r>   1.8938  1.0000</r>
       <r>   1.8938  1.0000</r>
       <r>   1.8946  1.0000</r>
       <r>   1.8955  1.0000</r>
       <r>   1.8963  1.0000</r>
       <r>   1.8963  1.0000</r>
       <r>   1.8987  1.0000</r>
       <r>   4.0593  1.0000</r>
       <r>   4.0593  1.0000</r>
       <r>   4.0593  1.0000</r>
       <r>   4.0600  1.0000</r>
       <r>   4.0603  1.0000</r>
       <r>   4.0609  1.0000</r>
       <r>   4.0610  1.0000</r>
       <r>   4.0610  1.0000</r>
       <r>   5.6179  1.0000</r>
       <r>   5.6179  1.0000</r>
       <r>   5.6210  1.0000</r>
       <r>   5.6210  1.0000</r>
       <r>   6.2230  1.0000</r>
       <r>   6.2230  1.0000</r>
       <r>   6.2235  1.0000</r>
       <r>   6.2238  1.0000</r>
       <r>   6.2242  1.0000</r>
       <r>   6.2246  1.0000</r>
       <r>   6.2251  1.0000</r>
       <r>   6.2251  1.0000</r>
       <r>   6.9704  1.0000</r>
       <r>   6.9714  1.0000</r>
       <r>   6.9732  1.0000</r>
       <r>   6.9742  1.0000</r>
       <r>   7.7003  1.0000</r>
       <r>   7.7003  1.0000</r>
       <r>   7.7012  1.0000</r>
       <r>   7.7026  1.0000</r>
       <r>   7.7027  1.0000</r>
       <r>   7.7041  1.0000</r>
       <r>   7.7049  1.0000</r>
       <r>   7.7049  1.0000</r>
       <r>   9.1869  0.0000</r>
       <r>   9.1879  0.0000</r>
       <r>   9.1879  0.0000</r>
       <r>   9.1880  0.0000</r>
       <r>   9.1901  0.0000</r>
       <r>   9.1903  0.0000</r>
       <r>   9.1903  0.0000</r>
       <r>   9.1913  0.0000</r>
       <r>   9.7908  0.0000</r>
       <r>   9.7908  0.0000</r>
       <r>   9.7931  0.0000</r>
       <r>   9.7931  0.0000</r>
       <r>  10.6223  0.0000</r>
       <r>  10.6237  0.0000</r>
       <r>  11.3243  0.0000</r>
       <r>  11.3248  0.0000</r>
       <r>  11.3261  0.0000</r>
       <r>  11.3266  0.0000</r>
       <r>  11.8821  0.0000</r>
       <r>  11.8836  0.0000</r>
      </set>
      <set comment="kpoint 5">
       <r>  -3.0610  1.0000</r>
       <r>  -1.5558  1.0000</r>
       <r>  -0.8122  1.0000</r>
       <r>  -0.8094  1.0000</r>
       <r>  -0.8093  1.0000</r>
       <r>  -0.8065  1.0000</r>
       <r>  -0.0672  1.0000</r>
       <r>   0.6693  1.0000</r>
       <r>   0.6722  1.0000</r>
       <r>   0.6722  1.0000</r>
       <r>   0.6750  1.0000</r>
       <r>   1.4049  1.0000</r>
       <r>   1.4059  1.0000</r>
       <r>   1.4082  1.0000</r>
       <r>   1.4092  1.0000</r>
       <r>   2.1347  1.0000</r>
       <r>   2.1376  1.0000</r>
       <r>   2.1376  1.0000</r>
       <r>   2.1405  1.0000</r>
       <r>   2.8607  1.0000</r>
       <r>   2.8617  1.0000</r>
       <r>   2.8640  1.0000</r>
       <r>   2.8650  1.0000</r>
       <r>   4.2315  1.0000</r>
       <r>   4.3253  1.0000</r>
       <r>   4.3263  1.0000</r>
       <r>   4.3287  1.0000</r>
       <r>   4.3297  1.0000</r>
       <r>   5.1576  1.0000</r>
       <r>   5.1577  1.0000</r>
       <r>   6.3433  1.0000</r>
       <r>   6.3464  1.0000</r>
       <r>   6.3464  1.0000</r>
       <r>   6.3495  1.0000</r>
       <r>   6.4909  1.0000</r>
       <r>   6.4910  1.0000</r>
       <r>   6.5444  1.0000</r>
       <r>   6.5444  1.0000</r>
       <r>   7.2363  1.0000</r>
       <r>   7.2391  1.0000</r>
       <r>   7.2391  1.0000</r>
       <r>   7.2418  1.0000</r>
       <r>   7.4076  1.0000</r>
       <r>   7.8649  1.0000</r>
       <r>   7.8649  1.0000</r>
       <r>   7.9346  1.0000</r>
       <r>   7.9346  1.0000</r>
       <r>   8.4797  0.0000</r>
       <r>   8.4811  0.0000</r>
       <r>   8.4834  0.0000</r>
       <r>   8.4848  0.0000</r>
       <r>   8.5866  0.0000</r>
       <r>   8.5891  0.0000</r>
       <r>   8.5891  0.0000</r>
       <r>   8.5916  0.0000</r>
       <r>   8.6277  0.0000</r>
       <r>   8.6305  0.0000</r>
       <r>   8.6305  0.0000</r>
       <r>   8.6332  0.0000</r>
       <r>   9.5936  0.0000</r>
       <r>   9.5936  0.0000</r>
       <r>   9.7614  0.0000</r>
       <r>   9.7632  0.0000</r>
       <r>   9.7632  0.0000</r>
       <r>   9.7650  0.0000</r>
       <r>  10.0210  0.0000</r>
       <r>  10.0238  0.0000</r>
       <r>  10.0238  0.0000</r>
       <r>  10.0266  0.0000</r>
       <r>  10.1480  0.0000</r>
       <r>  10.1495  0.0000</r>
       <r>  10.1512  0.0000</r>
      </set>
      <set comment="kpoint 6">
       <r>  -2.9979  1.0000</r>
       <r>  -1.4946  1.0000</r>
       <r>  -1.4923  1.0000</r>
       <r>  -0.7473  1.0000</r>
       <r>  -0.7473  1.0000</r>
       <r>  -0.0071  1.0000</r>
       <r>  -0.0052  1.0000</r>
       <r>  -0.0035  1.0000</r>
       <r>   0.7319  1.0000</r>
       <r>   0.7329  1.0000</r>
       <r>   0.7343  1.0000</r>
       <r>   0.7352  1.0000</r>
       <r>   1.4671  1.0000</r>
       <r>   1.4682  1.0000</r>
       <r>   2.1961  1.0000</r>
       <r>   2.1973  1.0000</r>
       <r>   2.1986  1.0000</r>
       <r>   2.1987  1.0000</r>
       <r>   2.1999  1.0000</r>
       <r>   2.2010  1.0000</r>
       <r>   2.9246  1.0000</r>
       <r>   3.5430  1.0000</r>
       <r>   3.5430  1.0000</r>
       <r>   3.7703  1.0000</r>
       <r>   3.7703  1.0000</r>
       <r>   4.2904  1.0000</r>
       <r>   4.2913  1.0000</r>
       <r>   5.1019  1.0000</r>
       <r>   5.1019  1.0000</r>
       <r>   5.2154  1.0000</r>
       <r>   5.7047  1.0000</r>
       <r>   5.7071  1.0000</r>
       <r>   6.3029  1.0000</r>
       <r>   6.3029  1.0000</r>
       <r>   6.5287  1.0000</r>
       <r>   6.5287  1.0000</r>
       <r>   6.5516  1.0000</r>
       <r>   6.6009  1.0000</r>
       <r>   6.6036  1.0000</r>
       <r>   7.0757  1.0000</r>
       <r>   7.0776  1.0000</r>
       <r>   7.4662  1.0000</r>
       <r>   7.4671  1.0000</r>
       <r>   7.8363  1.0000</r>
       <r>   7.8373  1.0000</r>
       <r>   7.8387  1.0000</r>
       <r>   7.8397  1.0000</r>
       <r>   7.9903  0.9522</r>
       <r>   7.9925  0.9117</r>
       <r>   7.9947  0.8497</r>
       <r>   8.0539  0.0000</r>
       <r>   8.0555  0.0000</r>
       <r>   8.7271  0.0000</r>
       <r>   8.7295  0.0000</r>
       <r>   9.2403  0.0000</r>
       <r>   9.2413  0.0000</r>
       <r>   9.2416  0.0000</r>
       <r>   9.2426  0.0000</r>
       <r>   9.3098  0.0000</r>
       <r>   9.3099  0.0000</r>
       <r>   9.3842  0.0000</r>
       <r>   9.3861  0.0000</r>
       <r>   9.5021  0.0000</r>
       <r>   9.7358  0.0000</r>
       <r>   9.7365  0.0000</r>
       <r>  10.0213  0.0000</r>
       <r>  10.0213  0.0000</r>
       <r>  10.4265  0.0000</r>
       <r>  10.4286  0.0000</r>
       <r>  10.7788  0.0000</r>
       <r>  10.9017  0.0000</r>
       <r>  10.9019  0.0000</r>
      </set>
      <set comment="kpoint 7">
       <r>  -2.8090  1.0000</r>
       <r>  -2.0557  1.0000</r>
       <r>  -1.3065  1.0000</r>
       <r>  -0.5627  1.0000</r>
       <r>  -0.5614  1.0000</r>
       <r>  -0.5599  1.0000</r>
       <r>   0.1783  1.0000</r>
       <r>   0.1800  1.0000</r>
       <r>   0.1812  1.0000</r>
       <r>   0.9142  1.0000</r>
       <r>   0.9171  1.0000</r>
       <r>   0.9177  1.0000</r>
       <r>   0.9188  1.0000</r>
       <r>   1.6516  1.0000</r>
       <r>   1.6516  1.0000</r>
       <r>   2.3785  1.0000</r>
       <r>   2.3804  1.0000</r>
       <r>   2.3806  1.0000</r>
       <r>   3.0858  1.0000</r>
       <r>   3.1021  1.0000</r>
       <r>   3.1026  1.0000</r>
       <r>   3.1047  1.0000</r>
       <r>   3.1054  1.0000</r>
       <r>   3.8253  1.0000</r>
       <r>   4.4685  1.0000</r>
       <r>   4.5225  1.0000</r>
       <r>   4.5660  1.0000</r>
       <r>   4.5660  1.0000</r>
       <r>   5.1772  1.0000</r>
       <r>   5.2296  1.0000</r>
       <r>   5.2297  1.0000</r>
       <r>   5.3885  1.0000</r>
       <r>   5.9355  1.0000</r>
       <r>   5.9929  1.0000</r>
       <r>   5.9929  1.0000</r>
       <r>   6.0817  1.0000</r>
       <r>   6.6087  1.0000</r>
       <r>   6.6087  1.0000</r>
       <r>   6.6772  1.0000</r>
       <r>   6.6772  1.0000</r>
       <r>   6.7318  1.0000</r>
       <r>   6.7759  1.0000</r>
       <r>   7.3099  1.0000</r>
       <r>   7.3099  1.0000</r>
       <r>   7.3873  1.0000</r>
       <r>   7.4708  1.0000</r>
       <r>   7.6429  1.0000</r>
       <r>   8.0911  0.0000</r>
       <r>   8.0911  0.0000</r>
       <r>   8.0989  0.0000</r>
       <r>   8.1665  0.0000</r>
       <r>   8.2412  0.0000</r>
       <r>   8.3219  0.0000</r>
       <r>   8.8612  0.0000</r>
       <r>   8.8644  0.0000</r>
       <r>   8.9657  0.0000</r>
       <r>   8.9978  0.0000</r>
       <r>   9.5391  0.0000</r>
       <r>   9.7635  0.0000</r>
       <r>   9.7635  0.0000</r>
       <r>  10.1087  0.0000</r>
       <r>  10.1137  0.0000</r>
       <r>  10.1139  0.0000</r>
       <r>  10.2565  0.0000</r>
       <r>  10.3666  0.0000</r>
       <r>  10.4710  0.0000</r>
       <r>  10.5181  0.0000</r>
       <r>  10.5181  0.0000</r>
       <r>  10.6101  0.0000</r>
       <r>  10.9540  0.0000</r>
       <r>  11.2340  0.0000</r>
       <r>  11.2364  0.0000</r>
      </set>
      <set comment="kpoint 8">
       <r>  -2.4960  1.0000</r>
       <r>  -2.4932  1.0000</r>
       <r>  -0.9969  1.0000</r>
       <r>  -0.9941  1.0000</r>
       <r>  -0.2540  1.0000</r>
       <r>  -0.2528  1.0000</r>
       <r>  -0.2512  1.0000</r>
       <r>  -0.2500  1.0000</r>
       <r>   0.4858  1.0000</r>
       <r>   0.4887  1.0000</r>
       <r>   1.2219  1.0000</r>
       <r>   1.2231  1.0000</r>
       <r>   1.2248  1.0000</r>
       <r>   1.2259  1.0000</r>
       <r>   1.9483  1.0000</r>
       <r>   1.9496  1.0000</r>
       <r>   2.6809  1.0000</r>
       <r>   2.6821  1.0000</r>
       <r>   2.6838  1.0000</r>
       <r>   2.6849  1.0000</r>
       <r>   3.3998  1.0000</r>
       <r>   3.4012  1.0000</r>
       <r>   4.1184  1.0000</r>
       <r>   4.1188  1.0000</r>
       <r>   4.1197  1.0000</r>
       <r>   4.1201  1.0000</r>
       <r>   4.7628  1.0000</r>
       <r>   4.7657  1.0000</r>
       <r>   4.8330  1.0000</r>
       <r>   4.8343  1.0000</r>
       <r>   5.5702  1.0000</r>
       <r>   5.5704  1.0000</r>
       <r>   5.5717  1.0000</r>
       <r>   5.5718  1.0000</r>
       <r>   5.6757  1.0000</r>
       <r>   5.6788  1.0000</r>
       <r>   6.8971  1.0000</r>
       <r>   6.8983  1.0000</r>
       <r>   6.9001  1.0000</r>
       <r>   6.9013  1.0000</r>
       <r>   6.9925  1.0000</r>
       <r>   6.9927  1.0000</r>
       <r>   6.9939  1.0000</r>
       <r>   6.9941  1.0000</r>
       <r>   7.0242  1.0000</r>
       <r>   7.0270  1.0000</r>
       <r>   7.0638  1.0000</r>
       <r>   7.0669  1.0000</r>
       <r>   7.9310  1.0000</r>
       <r>   7.9338  1.0000</r>
       <r>   8.4550  0.0000</r>
       <r>   8.4581  0.0000</r>
       <r>   8.5432  0.0000</r>
       <r>   8.5459  0.0000</r>
       <r>   9.0283  0.0000</r>
       <r>   9.0301  0.0000</r>
       <r>   9.8490  0.0000</r>
       <r>   9.8513  0.0000</r>
       <r>   9.9295  0.0000</r>
       <r>   9.9325  0.0000</r>
       <r>  10.0944  0.0000</r>
       <r>  10.0951  0.0000</r>
       <r>  10.0974  0.0000</r>
       <r>  10.0981  0.0000</r>
       <r>  10.6764  0.0000</r>
       <r>  10.6777  0.0000</r>
       <r>  11.0945  0.0000</r>
       <r>  11.0946  0.0000</r>
       <r>  11.0963  0.0000</r>
       <r>  11.0965  0.0000</r>
       <r>  11.2435  0.0000</r>
       <r>  11.2459  0.0000</r>
      </set>
      <set comment="kpoint 9">
       <r>  -2.8719  1.0000</r>
       <r>  -2.1183  1.0000</r>
       <r>  -0.6262  1.0000</r>
       <r>  -0.6233  1.0000</r>
       <r>  -0.6233  1.0000</r>
       <r>  -0.6205  1.0000</r>
       <r>   0.1155  1.0000</r>
       <r>   0.1184  1.0000</r>
       <r>   0.1184  1.0000</r>
       <r>   0.1213  1.0000</r>
       <r>   0.8541  1.0000</r>
       <r>   1.5881  1.0000</r>
       <r>   1.5891  1.0000</r>
       <r>   1.5914  1.0000</r>
       <r>   1.5924  1.0000</r>
       <r>   2.3181  1.0000</r>
       <r>   2.3191  1.0000</r>
       <r>   2.3214  1.0000</r>
       <r>   2.3224  1.0000</r>
       <r>   3.0257  1.0000</r>
       <r>   3.0411  1.0000</r>
       <r>   3.0440  1.0000</r>
       <r>   3.0440  1.0000</r>
       <r>   3.0469  1.0000</r>
       <r>   5.1714  1.0000</r>
       <r>   5.1744  1.0000</r>
       <r>   5.1745  1.0000</r>
       <r>   5.1774  1.0000</r>
       <r>   5.2176  1.0000</r>
       <r>   5.2186  1.0000</r>
       <r>   5.2210  1.0000</r>
       <r>   5.2220  1.0000</r>
       <r>   5.3308  1.0000</r>
       <r>   5.3308  1.0000</r>
       <r>   6.0239  1.0000</r>
       <r>   6.0239  1.0000</r>
       <r>   6.6728  1.0000</r>
       <r>   6.6728  1.0000</r>
       <r>   7.3242  1.0000</r>
       <r>   7.3254  1.0000</r>
       <r>   7.3277  1.0000</r>
       <r>   7.3289  1.0000</r>
       <r>   7.3805  1.0000</r>
       <r>   7.3805  1.0000</r>
       <r>   7.4101  1.0000</r>
       <r>   7.4129  1.0000</r>
       <r>   7.4130  1.0000</r>
       <r>   7.4156  1.0000</r>
       <r>   8.1057  0.0000</r>
       <r>   8.1084  0.0000</r>
       <r>   8.1084  0.0000</r>
       <r>   8.1112  0.0000</r>
       <r>   8.8047  0.0000</r>
       <r>   8.8048  0.0000</r>
       <r>   8.8650  0.0000</r>
       <r>   8.8673  0.0000</r>
       <r>   8.8673  0.0000</r>
       <r>   8.8696  0.0000</r>
       <r>   8.9407  0.0000</r>
       <r>   9.6119  0.0000</r>
       <r>   9.6141  0.0000</r>
       <r>   9.6141  0.0000</r>
       <r>   9.6164  0.0000</r>
       <r>  10.3984  0.0000</r>
       <r>  10.3984  0.0000</r>
       <r>  10.8923  0.0000</r>
       <r>  10.8952  0.0000</r>
       <r>  10.8952  0.0000</r>
       <r>  10.8957  0.0000</r>
       <r>  10.8957  0.0000</r>
       <r>  10.8981  0.0000</r>
       <r>  11.1553  0.0000</r>
      </set>
      <set comment="kpoint 10">
       <r>  -2.8090  1.0000</r>
       <r>  -2.0557  1.0000</r>
       <r>  -1.3065  1.0000</r>
       <r>  -0.5627  1.0000</r>
       <r>  -0.5614  1.0000</r>
       <r>  -0.5599  1.0000</r>
       <r>   0.1783  1.0000</r>
       <r>   0.1800  1.0000</r>
       <r>   0.1812  1.0000</r>
       <r>   0.9144  1.0000</r>
       <r>   0.9165  1.0000</r>
       <r>   0.9177  1.0000</r>
       <r>   0.9192  1.0000</r>
       <r>   1.6516  1.0000</r>
       <r>   1.6516  1.0000</r>
       <r>   2.3779  1.0000</r>
       <r>   2.3804  1.0000</r>
       <r>   2.3812  1.0000</r>
       <r>   3.0858  1.0000</r>
       <r>   3.1027  1.0000</r>
       <r>   3.1030  1.0000</r>
       <r>   3.1043  1.0000</r>
       <r>   3.1047  1.0000</r>
       <r>   3.8253  1.0000</r>
       <r>   4.4685  1.0000</r>
       <r>   4.5225  1.0000</r>
       <r>   4.5660  1.0000</r>
       <r>   4.5660  1.0000</r>
       <r>   5.1772  1.0000</r>
       <r>   5.2297  1.0000</r>
       <r>   5.2297  1.0000</r>
       <r>   5.3885  1.0000</r>
       <r>   5.9355  1.0000</r>
       <r>   5.9929  1.0000</r>
       <r>   5.9929  1.0000</r>
       <r>   6.0817  1.0000</r>
       <r>   6.6087  1.0000</r>
       <r>   6.6087  1.0000</r>
       <r>   6.6772  1.0000</r>
       <r>   6.6772  1.0000</r>
       <r>   6.7318  1.0000</r>
       <r>   6.7758  1.0000</r>
       <r>   7.3099  1.0000</r>
       <r>   7.3099  1.0000</r>
       <r>   7.3873  1.0000</r>
       <r>   7.4708  1.0000</r>
       <r>   7.6429  1.0000</r>
       <r>   8.0911  0.0000</r>
       <r>   8.0912  0.0000</r>
       <r>   8.0989  0.0000</r>
       <r>   8.1665  0.0000</r>
       <r>   8.2412  0.0000</r>
       <r>   8.3219  0.0000</r>
       <r>   8.8620  0.0000</r>
       <r>   8.8636  0.0000</r>
       <r>   8.9657  0.0000</r>
       <r>   8.9978  0.0000</r>
       <r>   9.5391  0.0000</r>
       <r>   9.7635  0.0000</r>
       <r>   9.7635  0.0000</r>
       <r>  10.1089  0.0000</r>
       <r>  10.1137  0.0000</r>
       <r>  10.1137  0.0000</r>
       <r>  10.2565  0.0000</r>
       <r>  10.3666  0.0000</r>
       <r>  10.4710  0.0000</r>
       <r>  10.5181  0.0000</r>
       <r>  10.5181  0.0000</r>
       <r>  10.6101  0.0000</r>
       <r>  10.9540  0.0000</r>
       <r>  11.2340  0.0000</r>
       <r>  11.2479  0.0000</r>
      </set>
      <set comment="kpoint 11">
       <r>  -2.6203  1.0000</r>
       <r>  -1.8692  1.0000</r>
       <r>  -1.8669  1.0000</r>
       <r>  -1.1198  1.0000</r>
       <r>  -0.3757  1.0000</r>
       <r>  -0.3757  1.0000</r>
       <r>   0.3632  1.0000</r>
       <r>   0.3641  1.0000</r>
       <r>   0.3655  1.0000</r>
       <r>   0.3665  1.0000</r>
       <r>   1.0976  1.0000</r>
       <r>   1.0998  1.0000</r>
       <r>   1.1016  1.0000</r>
       <r>   1.1024  1.0000</r>
       <r>   1.8313  1.0000</r>
       <r>   1.8323  1.0000</r>
       <r>   3.2658  1.0000</r>
       <r>   3.2668  1.0000</r>
       <r>   3.2828  1.0000</r>
       <r>   3.2837  1.0000</r>
       <r>   3.2851  1.0000</r>
       <r>   3.2861  1.0000</r>
       <r>   3.8928  1.0000</r>
       <r>   3.8928  1.0000</r>
       <r>   3.9846  1.0000</r>
       <r>   3.9870  1.0000</r>
       <r>   4.1377  1.0000</r>
       <r>   4.1378  1.0000</r>
       <r>   4.7183  1.0000</r>
       <r>   5.2848  1.0000</r>
       <r>   5.2848  1.0000</r>
       <r>   5.5606  1.0000</r>
       <r>   5.5616  1.0000</r>
       <r>   5.5627  1.0000</r>
       <r>   6.1436  1.0000</r>
       <r>   6.1446  1.0000</r>
       <r>   6.1460  1.0000</r>
       <r>   6.1471  1.0000</r>
       <r>   6.2539  1.0000</r>
       <r>   6.2565  1.0000</r>
       <r>   6.7729  1.0000</r>
       <r>   6.7748  1.0000</r>
       <r>   6.8800  1.0000</r>
       <r>   6.8800  1.0000</r>
       <r>   6.9044  1.0000</r>
       <r>   6.9495  1.0000</r>
       <r>   7.7504  1.0000</r>
       <r>   7.7517  1.0000</r>
       <r>   8.4301  0.0000</r>
       <r>   8.9671  0.0000</r>
       <r>   8.9682  0.0000</r>
       <r>   8.9684  0.0000</r>
       <r>   8.9694  0.0000</r>
       <r>   8.9754  0.0000</r>
       <r>   9.0357  0.0000</r>
       <r>   9.0384  0.0000</r>
       <r>   9.1666  0.0000</r>
       <r>   9.1678  0.0000</r>
       <r>   9.7329  0.0000</r>
       <r>   9.7348  0.0000</r>
       <r>   9.7451  0.0000</r>
       <r>   9.7475  0.0000</r>
       <r>  10.7386  0.0000</r>
       <r>  10.7393  0.0000</r>
       <r>  11.0323  0.0000</r>
       <r>  11.0323  0.0000</r>
       <r>  11.0364  0.0000</r>
       <r>  11.0365  0.0000</r>
       <r>  11.1276  0.0000</r>
       <r>  11.1296  0.0000</r>
       <r>  11.2071  0.0000</r>
       <r>  11.2074  0.0000</r>
      </set>
      <set comment="kpoint 12">
       <r>  -2.3078  1.0000</r>
       <r>  -2.3050  1.0000</r>
       <r>  -1.5572  1.0000</r>
       <r>  -1.5544  1.0000</r>
       <r>  -0.0687  1.0000</r>
       <r>  -0.0675  1.0000</r>
       <r>  -0.0658  1.0000</r>
       <r>  -0.0647  1.0000</r>
       <r>   0.6703  1.0000</r>
       <r>   0.6714  1.0000</r>
       <r>   0.6731  1.0000</r>
       <r>   0.6743  1.0000</r>
       <r>   1.4034  1.0000</r>
       <r>   1.4063  1.0000</r>
       <r>   2.1306  1.0000</r>
       <r>   2.1319  1.0000</r>
       <r>   2.8574  1.0000</r>
       <r>   2.8587  1.0000</r>
       <r>   3.5651  1.0000</r>
       <r>   3.5680  1.0000</r>
       <r>   3.5796  1.0000</r>
       <r>   3.5809  1.0000</r>
       <r>   3.5825  1.0000</r>
       <r>   3.5838  1.0000</r>
       <r>   4.2932  1.0000</r>
       <r>   4.2937  1.0000</r>
       <r>   4.2945  1.0000</r>
       <r>   4.2950  1.0000</r>
       <r>   5.0384  1.0000</r>
       <r>   5.0385  1.0000</r>
       <r>   5.0398  1.0000</r>
       <r>   5.0399  1.0000</r>
       <r>   5.7133  1.0000</r>
       <r>   5.7146  1.0000</r>
       <r>   5.7335  1.0000</r>
       <r>   5.7345  1.0000</r>
       <r>   5.7363  1.0000</r>
       <r>   5.7373  1.0000</r>
       <r>   5.8490  1.0000</r>
       <r>   5.8521  1.0000</r>
       <r>   6.5428  1.0000</r>
       <r>   6.5459  1.0000</r>
       <r>   7.1441  1.0000</r>
       <r>   7.1466  1.0000</r>
       <r>   7.8749  1.0000</r>
       <r>   7.8750  1.0000</r>
       <r>   7.8763  1.0000</r>
       <r>   7.8765  1.0000</r>
       <r>   7.9485  1.0000</r>
       <r>   7.9498  1.0000</r>
       <r>   8.0144  0.0401</r>
       <r>   8.0171  0.0170</r>
       <r>   9.3258  0.0000</r>
       <r>   9.3289  0.0000</r>
       <r>   9.4374  0.0000</r>
       <r>   9.4403  0.0000</r>
       <r>   9.9527  0.0000</r>
       <r>   9.9527  0.0000</r>
       <r>   9.9543  0.0000</r>
       <r>   9.9544  0.0000</r>
       <r>  10.0233  0.0000</r>
       <r>  10.0257  0.0000</r>
       <r>  10.7092  0.0000</r>
       <r>  10.7123  0.0000</r>
       <r>  10.7207  0.0000</r>
       <r>  10.7230  0.0000</r>
       <r>  10.8319  0.0000</r>
       <r>  10.8330  0.0000</r>
       <r>  11.4181  0.0000</r>
       <r>  11.4213  0.0000</r>
       <r>  11.5669  0.0000</r>
       <r>  11.5686  0.0000</r>
      </set>
      <set comment="kpoint 13">
       <r>  -2.5575  1.0000</r>
       <r>  -2.5574  1.0000</r>
       <r>  -0.3190  1.0000</r>
       <r>  -0.3144  1.0000</r>
       <r>  -0.3138  1.0000</r>
       <r>  -0.3138  1.0000</r>
       <r>  -0.3138  1.0000</r>
       <r>  -0.3138  1.0000</r>
       <r>  -0.3133  1.0000</r>
       <r>  -0.3086  1.0000</r>
       <r>   1.8868  1.0000</r>
       <r>   1.8880  1.0000</r>
       <r>   1.8922  1.0000</r>
       <r>   1.8930  1.0000</r>
       <r>   1.8945  1.0000</r>
       <r>   1.8948  1.0000</r>
       <r>   1.8953  1.0000</r>
       <r>   1.8957  1.0000</r>
       <r>   1.8971  1.0000</r>
       <r>   1.8992  1.0000</r>
       <r>   4.0569  1.0000</r>
       <r>   4.0574  1.0000</r>
       <r>   4.0601  1.0000</r>
       <r>   4.0601  1.0000</r>
       <r>   4.0601  1.0000</r>
       <r>   4.0601  1.0000</r>
       <r>   4.0628  1.0000</r>
       <r>   4.0633  1.0000</r>
       <r>   5.6194  1.0000</r>
       <r>   5.6195  1.0000</r>
       <r>   5.6195  1.0000</r>
       <r>   5.6195  1.0000</r>
       <r>   6.2210  1.0000</r>
       <r>   6.2225  1.0000</r>
       <r>   6.2227  1.0000</r>
       <r>   6.2230  1.0000</r>
       <r>   6.2251  1.0000</r>
       <r>   6.2253  1.0000</r>
       <r>   6.2256  1.0000</r>
       <r>   6.2270  1.0000</r>
       <r>   6.9722  1.0000</r>
       <r>   6.9723  1.0000</r>
       <r>   6.9723  1.0000</r>
       <r>   6.9723  1.0000</r>
       <r>   7.6976  1.0000</r>
       <r>   7.7021  1.0000</r>
       <r>   7.7026  1.0000</r>
       <r>   7.7026  1.0000</r>
       <r>   7.7026  1.0000</r>
       <r>   7.7027  1.0000</r>
       <r>   7.7031  1.0000</r>
       <r>   7.7076  1.0000</r>
       <r>   9.1850  0.0000</r>
       <r>   9.1886  0.0000</r>
       <r>   9.1891  0.0000</r>
       <r>   9.1891  0.0000</r>
       <r>   9.1891  0.0000</r>
       <r>   9.1891  0.0000</r>
       <r>   9.1896  0.0000</r>
       <r>   9.1931  0.0000</r>
       <r>   9.7920  0.0000</r>
       <r>   9.7920  0.0000</r>
       <r>   9.7920  0.0000</r>
       <r>   9.7920  0.0000</r>
       <r>  10.6230  0.0000</r>
       <r>  10.6230  0.0000</r>
       <r>  11.3254  0.0000</r>
       <r>  11.3254  0.0000</r>
       <r>  11.3254  0.0000</r>
       <r>  11.3255  0.0000</r>
       <r>  11.8826  0.0000</r>
       <r>  11.8832  0.0000</r>
      </set>
      <set comment="kpoint 14">
       <r>  -2.4946  1.0000</r>
       <r>  -2.4946  1.0000</r>
       <r>  -0.9955  1.0000</r>
       <r>  -0.9955  1.0000</r>
       <r>  -0.2520  1.0000</r>
       <r>  -0.2520  1.0000</r>
       <r>  -0.2520  1.0000</r>
       <r>  -0.2520  1.0000</r>
       <r>   0.4873  1.0000</r>
       <r>   0.4873  1.0000</r>
       <r>   1.2239  1.0000</r>
       <r>   1.2239  1.0000</r>
       <r>   1.2240  1.0000</r>
       <r>   1.2240  1.0000</r>
       <r>   1.9490  1.0000</r>
       <r>   1.9490  1.0000</r>
       <r>   2.6829  1.0000</r>
       <r>   2.6829  1.0000</r>
       <r>   2.6829  1.0000</r>
       <r>   2.6829  1.0000</r>
       <r>   3.4005  1.0000</r>
       <r>   3.4005  1.0000</r>
       <r>   4.1192  1.0000</r>
       <r>   4.1192  1.0000</r>
       <r>   4.1193  1.0000</r>
       <r>   4.1193  1.0000</r>
       <r>   4.7642  1.0000</r>
       <r>   4.7643  1.0000</r>
       <r>   4.8337  1.0000</r>
       <r>   4.8337  1.0000</r>
       <r>   5.5710  1.0000</r>
       <r>   5.5710  1.0000</r>
       <r>   5.5710  1.0000</r>
       <r>   5.5710  1.0000</r>
       <r>   5.6772  1.0000</r>
       <r>   5.6772  1.0000</r>
       <r>   6.8992  1.0000</r>
       <r>   6.8992  1.0000</r>
       <r>   6.8992  1.0000</r>
       <r>   6.8992  1.0000</r>
       <r>   6.9933  1.0000</r>
       <r>   6.9933  1.0000</r>
       <r>   6.9933  1.0000</r>
       <r>   6.9933  1.0000</r>
       <r>   7.0255  1.0000</r>
       <r>   7.0256  1.0000</r>
       <r>   7.0653  1.0000</r>
       <r>   7.0654  1.0000</r>
       <r>   7.9324  1.0000</r>
       <r>   7.9324  1.0000</r>
       <r>   8.4565  0.0000</r>
       <r>   8.4566  0.0000</r>
       <r>   8.5446  0.0000</r>
       <r>   8.5446  0.0000</r>
       <r>   9.0292  0.0000</r>
       <r>   9.0292  0.0000</r>
       <r>   9.8501  0.0000</r>
       <r>   9.8501  0.0000</r>
       <r>   9.9309  0.0000</r>
       <r>   9.9310  0.0000</r>
       <r>  10.0962  0.0000</r>
       <r>  10.0962  0.0000</r>
       <r>  10.0962  0.0000</r>
       <r>  10.0963  0.0000</r>
       <r>  10.6770  0.0000</r>
       <r>  10.6770  0.0000</r>
       <r>  11.0955  0.0000</r>
       <r>  11.0955  0.0000</r>
       <r>  11.0955  0.0000</r>
       <r>  11.0955  0.0000</r>
       <r>  11.2446  0.0000</r>
       <r>  11.2449  0.0000</r>
      </set>
      <set comment="kpoint 15">
       <r>  -2.3064  1.0000</r>
       <r>  -2.3064  1.0000</r>
       <r>  -1.5558  1.0000</r>
       <r>  -1.5558  1.0000</r>
       <r>  -0.0667  1.0000</r>
       <r>  -0.0667  1.0000</r>
       <r>  -0.0667  1.0000</r>
       <r>  -0.0667  1.0000</r>
       <r>   0.6723  1.0000</r>
       <r>   0.6723  1.0000</r>
       <r>   0.6723  1.0000</r>
       <r>   0.6723  1.0000</r>
       <r>   1.4049  1.0000</r>
       <r>   1.4049  1.0000</r>
       <r>   2.1312  1.0000</r>
       <r>   2.1312  1.0000</r>
       <r>   2.8580  1.0000</r>
       <r>   2.8580  1.0000</r>
       <r>   3.5666  1.0000</r>
       <r>   3.5666  1.0000</r>
       <r>   3.5817  1.0000</r>
       <r>   3.5817  1.0000</r>
       <r>   3.5817  1.0000</r>
       <r>   3.5817  1.0000</r>
       <r>   4.2941  1.0000</r>
       <r>   4.2941  1.0000</r>
       <r>   4.2941  1.0000</r>
       <r>   4.2941  1.0000</r>
       <r>   5.0392  1.0000</r>
       <r>   5.0392  1.0000</r>
       <r>   5.0392  1.0000</r>
       <r>   5.0392  1.0000</r>
       <r>   5.7139  1.0000</r>
       <r>   5.7139  1.0000</r>
       <r>   5.7353  1.0000</r>
       <r>   5.7354  1.0000</r>
       <r>   5.7354  1.0000</r>
       <r>   5.7354  1.0000</r>
       <r>   5.8505  1.0000</r>
       <r>   5.8506  1.0000</r>
       <r>   6.5444  1.0000</r>
       <r>   6.5444  1.0000</r>
       <r>   7.1453  1.0000</r>
       <r>   7.1453  1.0000</r>
       <r>   7.8757  1.0000</r>
       <r>   7.8757  1.0000</r>
       <r>   7.8757  1.0000</r>
       <r>   7.8757  1.0000</r>
       <r>   7.9491  1.0000</r>
       <r>   7.9491  1.0000</r>
       <r>   8.0157  0.0265</r>
       <r>   8.0157  0.0265</r>
       <r>   9.3273  0.0000</r>
       <r>   9.3273  0.0000</r>
       <r>   9.4389  0.0000</r>
       <r>   9.4389  0.0000</r>
       <r>   9.9535  0.0000</r>
       <r>   9.9535  0.0000</r>
       <r>   9.9535  0.0000</r>
       <r>   9.9535  0.0000</r>
       <r>  10.0245  0.0000</r>
       <r>  10.0245  0.0000</r>
       <r>  10.7107  0.0000</r>
       <r>  10.7107  0.0000</r>
       <r>  10.7219  0.0000</r>
       <r>  10.7219  0.0000</r>
       <r>  10.8325  0.0000</r>
       <r>  10.8325  0.0000</r>
       <r>  11.4196  0.0000</r>
       <r>  11.4198  0.0000</r>
       <r>  11.5643  0.0000</r>
       <r>  11.5666  0.0000</r>
      </set>
      <set comment="kpoint 16">
       <r>  -1.9958  1.0000</r>
       <r>  -1.9934  1.0000</r>
       <r>  -1.9929  1.0000</r>
       <r>  -1.9906  1.0000</r>
       <r>   0.2380  1.0000</r>
       <r>   0.2401  1.0000</r>
       <r>   0.2413  1.0000</r>
       <r>   0.2415  1.0000</r>
       <r>   0.2418  1.0000</r>
       <r>   0.2420  1.0000</r>
       <r>   0.2432  1.0000</r>
       <r>   0.2453  1.0000</r>
       <r>   2.4306  1.0000</r>
       <r>   2.4325  1.0000</r>
       <r>   2.4342  1.0000</r>
       <r>   2.4344  1.0000</r>
       <r>   2.4346  1.0000</r>
       <r>   2.4349  1.0000</r>
       <r>   2.4365  1.0000</r>
       <r>   2.4384  1.0000</r>
       <r>   4.4718  1.0000</r>
       <r>   4.4733  1.0000</r>
       <r>   4.4741  1.0000</r>
       <r>   4.4746  1.0000</r>
       <r>   4.4747  1.0000</r>
       <r>   4.4753  1.0000</r>
       <r>   4.4760  1.0000</r>
       <r>   4.4775  1.0000</r>
       <r>   4.7394  1.0000</r>
       <r>   4.7396  1.0000</r>
       <r>   4.7405  1.0000</r>
       <r>   4.7414  1.0000</r>
       <r>   4.7415  1.0000</r>
       <r>   4.7424  1.0000</r>
       <r>   4.7434  1.0000</r>
       <r>   4.7435  1.0000</r>
       <r>   6.1367  1.0000</r>
       <r>   6.1393  1.0000</r>
       <r>   6.1397  1.0000</r>
       <r>   6.1423  1.0000</r>
       <r>   6.6639  1.0000</r>
       <r>   6.6648  1.0000</r>
       <r>   6.6659  1.0000</r>
       <r>   6.6667  1.0000</r>
       <r>   7.6375  1.0000</r>
       <r>   7.6387  1.0000</r>
       <r>   7.6396  1.0000</r>
       <r>   7.6409  1.0000</r>
       <r>   8.8643  0.0000</r>
       <r>   8.8652  0.0000</r>
       <r>   8.8654  0.0000</r>
       <r>   8.8657  0.0000</r>
       <r>   8.8666  0.0000</r>
       <r>   8.8669  0.0000</r>
       <r>   8.8671  0.0000</r>
       <r>   8.8680  0.0000</r>
       <r>  10.3095  0.0000</r>
       <r>  10.3133  0.0000</r>
       <r>  10.3148  0.0000</r>
       <r>  10.3150  0.0000</r>
       <r>  10.3152  0.0000</r>
       <r>  10.3154  0.0000</r>
       <r>  10.3169  0.0000</r>
       <r>  10.3207  0.0000</r>
       <r>  11.0252  0.0000</r>
       <r>  11.0269  0.0000</r>
       <r>  11.0284  0.0000</r>
       <r>  11.0285  0.0000</r>
       <r>  11.0289  0.0000</r>
       <r>  11.0290  0.0000</r>
       <r>  11.0306  0.0000</r>
       <r>  11.0322  0.0000</r>
      </set>
      <set comment="kpoint 17">
       <r>  -2.9979  1.0000</r>
       <r>  -1.4935  1.0000</r>
       <r>  -1.4935  1.0000</r>
       <r>  -0.7490  1.0000</r>
       <r>  -0.7457  1.0000</r>
       <r>  -0.0055  1.0000</r>
       <r>  -0.0055  1.0000</r>
       <r>  -0.0048  1.0000</r>
       <r>   0.7309  1.0000</r>
       <r>   0.7329  1.0000</r>
       <r>   0.7343  1.0000</r>
       <r>   0.7362  1.0000</r>
       <r>   1.4676  1.0000</r>
       <r>   1.4676  1.0000</r>
       <r>   2.1955  1.0000</r>
       <r>   2.1975  1.0000</r>
       <r>   2.1976  1.0000</r>
       <r>   2.1990  1.0000</r>
       <r>   2.2004  1.0000</r>
       <r>   2.2014  1.0000</r>
       <r>   2.9246  1.0000</r>
       <r>   3.5430  1.0000</r>
       <r>   3.5430  1.0000</r>
       <r>   3.7703  1.0000</r>
       <r>   3.7703  1.0000</r>
       <r>   4.2908  1.0000</r>
       <r>   4.2908  1.0000</r>
       <r>   5.1002  1.0000</r>
       <r>   5.1036  1.0000</r>
       <r>   5.2154  1.0000</r>
       <r>   5.7059  1.0000</r>
       <r>   5.7059  1.0000</r>
       <r>   6.3029  1.0000</r>
       <r>   6.3029  1.0000</r>
       <r>   6.5287  1.0000</r>
       <r>   6.5287  1.0000</r>
       <r>   6.5515  1.0000</r>
       <r>   6.6022  1.0000</r>
       <r>   6.6023  1.0000</r>
       <r>   7.0767  1.0000</r>
       <r>   7.0767  1.0000</r>
       <r>   7.4666  1.0000</r>
       <r>   7.4666  1.0000</r>
       <r>   7.8351  1.0000</r>
       <r>   7.8372  1.0000</r>
       <r>   7.8388  1.0000</r>
       <r>   7.8408  1.0000</r>
       <r>   7.9924  0.9131</r>
       <r>   7.9925  0.9112</r>
       <r>   7.9925  0.9108</r>
       <r>   8.0547  0.0000</r>
       <r>   8.0547  0.0000</r>
       <r>   8.7283  0.0000</r>
       <r>   8.7283  0.0000</r>
       <r>   9.2392  0.0000</r>
       <r>   9.2400  0.0000</r>
       <r>   9.2430  0.0000</r>
       <r>   9.2437  0.0000</r>
       <r>   9.3098  0.0000</r>
       <r>   9.3098  0.0000</r>
       <r>   9.3851  0.0000</r>
       <r>   9.3852  0.0000</r>
       <r>   9.5021  0.0000</r>
       <r>   9.7362  0.0000</r>
       <r>   9.7362  0.0000</r>
       <r>  10.0213  0.0000</r>
       <r>  10.0213  0.0000</r>
       <r>  10.4276  0.0000</r>
       <r>  10.4276  0.0000</r>
       <r>  10.7788  0.0000</r>
       <r>  10.9018  0.0000</r>
       <r>  10.9018  0.0000</r>
      </set>
      <set comment="kpoint 18">
       <r>  -2.9349  1.0000</r>
       <r>  -1.4328  1.0000</r>
       <r>  -1.4311  1.0000</r>
       <r>  -1.4295  1.0000</r>
       <r>   0.0530  1.0000</r>
       <r>   0.0560  1.0000</r>
       <r>   0.0562  1.0000</r>
       <r>   0.0569  1.0000</r>
       <r>   0.0571  1.0000</r>
       <r>   0.0600  1.0000</r>
       <r>   1.5255  1.0000</r>
       <r>   1.5276  1.0000</r>
       <r>   1.5285  1.0000</r>
       <r>   1.5287  1.0000</r>
       <r>   1.5297  1.0000</r>
       <r>   1.5298  1.0000</r>
       <r>   1.5323  1.0000</r>
       <r>   2.9813  1.0000</r>
       <r>   2.9825  1.0000</r>
       <r>   2.9830  1.0000</r>
       <r>   2.9841  1.0000</r>
       <r>   2.9852  1.0000</r>
       <r>   2.9870  1.0000</r>
       <r>   4.3494  1.0000</r>
       <r>   4.3500  1.0000</r>
       <r>   4.3507  1.0000</r>
       <r>   4.4466  1.0000</r>
       <r>   4.4473  1.0000</r>
       <r>   4.4480  1.0000</r>
       <r>   5.7587  1.0000</r>
       <r>   5.7602  1.0000</r>
       <r>   5.7615  1.0000</r>
       <r>   5.7615  1.0000</r>
       <r>   5.7629  1.0000</r>
       <r>   5.7643  1.0000</r>
       <r>   5.8758  1.0000</r>
       <r>   7.1776  1.0000</r>
       <r>   7.1780  1.0000</r>
       <r>   7.1795  1.0000</r>
       <r>   7.1796  1.0000</r>
       <r>   7.1809  1.0000</r>
       <r>   7.1813  1.0000</r>
       <r>   7.1915  1.0000</r>
       <r>   7.1932  1.0000</r>
       <r>   7.1949  1.0000</r>
       <r>   7.5245  1.0000</r>
       <r>   7.5252  1.0000</r>
       <r>   7.5259  1.0000</r>
       <r>   8.5962  0.0000</r>
       <r>   8.5971  0.0000</r>
       <r>   8.5982  0.0000</r>
       <r>   8.5982  0.0000</r>
       <r>   8.5994  0.0000</r>
       <r>   8.6003  0.0000</r>
       <r>   8.9370  0.0000</r>
       <r>   8.9378  0.0000</r>
       <r>   8.9390  0.0000</r>
       <r>   8.9390  0.0000</r>
       <r>   8.9401  0.0000</r>
       <r>   8.9410  0.0000</r>
       <r>   9.9982  0.0000</r>
       <r>   9.9992  0.0000</r>
       <r>  10.0001  0.0000</r>
       <r>  10.4072  0.0000</r>
       <r>  10.4081  0.0000</r>
       <r>  10.4089  0.0000</r>
       <r>  10.5046  0.0000</r>
       <r>  10.5055  0.0000</r>
       <r>  10.5065  0.0000</r>
       <r>  10.5065  0.0000</r>
       <r>  10.5075  0.0000</r>
       <r>  10.5084  0.0000</r>
      </set>
      <set comment="kpoint 19">
       <r>  -2.7461  1.0000</r>
       <r>  -1.9932  1.0000</r>
       <r>  -1.2443  1.0000</r>
       <r>  -1.2443  1.0000</r>
       <r>  -0.4993  1.0000</r>
       <r>  -0.4993  1.0000</r>
       <r>   0.2411  1.0000</r>
       <r>   0.2411  1.0000</r>
       <r>   0.2418  1.0000</r>
       <r>   0.9754  1.0000</r>
       <r>   0.9783  1.0000</r>
       <r>   0.9789  1.0000</r>
       <r>   0.9800  1.0000</r>
       <r>   1.7117  1.0000</r>
       <r>   1.7117  1.0000</r>
       <r>   2.4384  1.0000</r>
       <r>   2.4389  1.0000</r>
       <r>   2.4414  1.0000</r>
       <r>   2.4419  1.0000</r>
       <r>   3.1460  1.0000</r>
       <r>   3.1653  1.0000</r>
       <r>   3.7762  1.0000</r>
       <r>   3.8846  1.0000</r>
       <r>   3.8846  1.0000</r>
       <r>   4.0157  1.0000</r>
       <r>   4.5276  1.0000</r>
       <r>   4.5276  1.0000</r>
       <r>   4.5813  1.0000</r>
       <r>   4.5813  1.0000</r>
       <r>   5.2355  1.0000</r>
       <r>   5.2355  1.0000</r>
       <r>   5.3386  1.0000</r>
       <r>   5.3386  1.0000</r>
       <r>   5.8499  1.0000</r>
       <r>   5.8499  1.0000</r>
       <r>   6.0272  1.0000</r>
       <r>   6.1091  1.0000</r>
       <r>   6.1091  1.0000</r>
       <r>   6.6652  1.0000</r>
       <r>   6.6652  1.0000</r>
       <r>   6.7637  1.0000</r>
       <r>   7.3635  1.0000</r>
       <r>   7.3635  1.0000</r>
       <r>   7.4434  1.0000</r>
       <r>   7.4434  1.0000</r>
       <r>   7.6990  1.0000</r>
       <r>   7.6990  1.0000</r>
       <r>   7.9843  0.9940</r>
       <r>   7.9843  0.9939</r>
       <r>   8.0706  0.0000</r>
       <r>   8.0706  0.0000</r>
       <r>   8.5105  0.0000</r>
       <r>   8.5105  0.0000</r>
       <r>   8.8536  0.0000</r>
       <r>   9.0535  0.0000</r>
       <r>   9.1565  0.0000</r>
       <r>   9.1565  0.0000</r>
       <r>   9.4718  0.0000</r>
       <r>   9.4718  0.0000</r>
       <r>   9.8790  0.0000</r>
       <r>   9.8790  0.0000</r>
       <r>  10.1694  0.0000</r>
       <r>  10.1694  0.0000</r>
       <r>  10.2293  0.0000</r>
       <r>  10.2293  0.0000</r>
       <r>  10.8694  0.0000</r>
       <r>  10.8694  0.0000</r>
       <r>  10.8873  0.0000</r>
       <r>  10.8873  0.0000</r>
       <r>  11.2600  0.0000</r>
       <r>  11.2602  0.0000</r>
       <r>  11.3227  0.0000</r>
      </set>
      <set comment="kpoint 20">
       <r>  -2.4333  1.0000</r>
       <r>  -2.4304  1.0000</r>
       <r>  -0.9358  1.0000</r>
       <r>  -0.9338  1.0000</r>
       <r>  -0.9330  1.0000</r>
       <r>  -0.9310  1.0000</r>
       <r>   0.5461  1.0000</r>
       <r>   0.5483  1.0000</r>
       <r>   0.5484  1.0000</r>
       <r>   0.5492  1.0000</r>
       <r>   0.5504  1.0000</r>
       <r>   0.5517  1.0000</r>
       <r>   2.0084  1.0000</r>
       <r>   2.0100  1.0000</r>
       <r>   2.0150  1.0000</r>
       <r>   2.0152  1.0000</r>
       <r>   2.0175  1.0000</r>
       <r>   2.0184  1.0000</r>
       <r>   3.4595  1.0000</r>
       <r>   3.4600  1.0000</r>
       <r>   3.4609  1.0000</r>
       <r>   3.4610  1.0000</r>
       <r>   3.4621  1.0000</r>
       <r>   3.4646  1.0000</r>
       <r>   4.8215  1.0000</r>
       <r>   4.8218  1.0000</r>
       <r>   4.8245  1.0000</r>
       <r>   4.8247  1.0000</r>
       <r>   4.8883  1.0000</r>
       <r>   4.8887  1.0000</r>
       <r>   4.8896  1.0000</r>
       <r>   4.8899  1.0000</r>
       <r>   4.9191  1.0000</r>
       <r>   4.9204  1.0000</r>
       <r>   6.2558  1.0000</r>
       <r>   6.2578  1.0000</r>
       <r>   6.2587  1.0000</r>
       <r>   6.2607  1.0000</r>
       <r>   6.3408  1.0000</r>
       <r>   6.3415  1.0000</r>
       <r>   6.3422  1.0000</r>
       <r>   6.3429  1.0000</r>
       <r>   7.6572  1.0000</r>
       <r>   7.6579  1.0000</r>
       <r>   7.6602  1.0000</r>
       <r>   7.6609  1.0000</r>
       <r>   7.7594  1.0000</r>
       <r>   7.7609  1.0000</r>
       <r>   7.9729  1.0000</r>
       <r>   7.9736  1.0000</r>
       <r>   7.9757  0.9999</r>
       <r>   7.9764  0.9999</r>
       <r>   9.0988  0.0000</r>
       <r>   9.0994  0.0000</r>
       <r>   9.1006  0.0000</r>
       <r>   9.1011  0.0000</r>
       <r>   9.4606  0.0000</r>
       <r>   9.4615  0.0000</r>
       <r>   9.4635  0.0000</r>
       <r>   9.4643  0.0000</r>
       <r>  10.4538  0.0000</r>
       <r>  10.4545  0.0000</r>
       <r>  10.4557  0.0000</r>
       <r>  10.4563  0.0000</r>
       <r>  10.7225  0.0000</r>
       <r>  10.7236  0.0000</r>
       <r>  10.8139  0.0000</r>
       <r>  10.8161  0.0000</r>
       <r>  10.8171  0.0000</r>
       <r>  10.8192  0.0000</r>
       <r>  11.8021  0.0000</r>
       <r>  11.8060  0.0000</r>
      </set>
      <set comment="kpoint 21">
       <r>  -2.8090  1.0000</r>
       <r>  -2.0557  1.0000</r>
       <r>  -1.3065  1.0000</r>
       <r>  -0.5635  1.0000</r>
       <r>  -0.5613  1.0000</r>
       <r>  -0.5592  1.0000</r>
       <r>   0.1777  1.0000</r>
       <r>   0.1797  1.0000</r>
       <r>   0.1821  1.0000</r>
       <r>   0.9145  1.0000</r>
       <r>   0.9165  1.0000</r>
       <r>   0.9171  1.0000</r>
       <r>   0.9197  1.0000</r>
       <r>   1.6499  1.0000</r>
       <r>   1.6533  1.0000</r>
       <r>   2.3782  1.0000</r>
       <r>   2.3791  1.0000</r>
       <r>   2.3821  1.0000</r>
       <r>   3.0858  1.0000</r>
       <r>   3.1014  1.0000</r>
       <r>   3.1026  1.0000</r>
       <r>   3.1047  1.0000</r>
       <r>   3.1060  1.0000</r>
       <r>   3.8253  1.0000</r>
       <r>   4.4685  1.0000</r>
       <r>   4.5225  1.0000</r>
       <r>   4.5643  1.0000</r>
       <r>   4.5677  1.0000</r>
       <r>   5.1772  1.0000</r>
       <r>   5.2280  1.0000</r>
       <r>   5.2314  1.0000</r>
       <r>   5.3885  1.0000</r>
       <r>   5.9355  1.0000</r>
       <r>   5.9912  1.0000</r>
       <r>   5.9947  1.0000</r>
       <r>   6.0817  1.0000</r>
       <r>   6.6069  1.0000</r>
       <r>   6.6105  1.0000</r>
       <r>   6.6754  1.0000</r>
       <r>   6.6790  1.0000</r>
       <r>   6.7318  1.0000</r>
       <r>   6.7759  1.0000</r>
       <r>   7.3081  1.0000</r>
       <r>   7.3117  1.0000</r>
       <r>   7.3873  1.0000</r>
       <r>   7.4708  1.0000</r>
       <r>   7.6429  1.0000</r>
       <r>   8.0893  0.0000</r>
       <r>   8.0929  0.0000</r>
       <r>   8.0989  0.0000</r>
       <r>   8.1665  0.0000</r>
       <r>   8.2412  0.0000</r>
       <r>   8.3219  0.0000</r>
       <r>   8.8627  0.0000</r>
       <r>   8.8628  0.0000</r>
       <r>   8.9657  0.0000</r>
       <r>   8.9978  0.0000</r>
       <r>   9.5391  0.0000</r>
       <r>   9.7621  0.0000</r>
       <r>   9.7649  0.0000</r>
       <r>  10.1089  0.0000</r>
       <r>  10.1118  0.0000</r>
       <r>  10.1156  0.0000</r>
       <r>  10.2565  0.0000</r>
       <r>  10.3666  0.0000</r>
       <r>  10.4710  0.0000</r>
       <r>  10.5165  0.0000</r>
       <r>  10.5197  0.0000</r>
       <r>  10.6101  0.0000</r>
       <r>  10.9540  0.0000</r>
       <r>  11.2342  0.0000</r>
       <r>  11.2368  0.0000</r>
      </set>
      <set comment="kpoint 22">
       <r>  -2.7461  1.0000</r>
       <r>  -1.9932  1.0000</r>
       <r>  -1.2455  1.0000</r>
       <r>  -1.2431  1.0000</r>
       <r>  -0.5005  1.0000</r>
       <r>  -0.4981  1.0000</r>
       <r>   0.2395  1.0000</r>
       <r>   0.2414  1.0000</r>
       <r>   0.2431  1.0000</r>
       <r>   0.9762  1.0000</r>
       <r>   0.9771  1.0000</r>
       <r>   0.9787  1.0000</r>
       <r>   0.9805  1.0000</r>
       <r>   1.7112  1.0000</r>
       <r>   1.7123  1.0000</r>
       <r>   2.4380  1.0000</r>
       <r>   2.4402  1.0000</r>
       <r>   2.4407  1.0000</r>
       <r>   2.4417  1.0000</r>
       <r>   3.1461  1.0000</r>
       <r>   3.1653  1.0000</r>
       <r>   3.7762  1.0000</r>
       <r>   3.8834  1.0000</r>
       <r>   3.8858  1.0000</r>
       <r>   4.0157  1.0000</r>
       <r>   4.5272  1.0000</r>
       <r>   4.5281  1.0000</r>
       <r>   4.5801  1.0000</r>
       <r>   4.5825  1.0000</r>
       <r>   5.2350  1.0000</r>
       <r>   5.2360  1.0000</r>
       <r>   5.3380  1.0000</r>
       <r>   5.3391  1.0000</r>
       <r>   5.8487  1.0000</r>
       <r>   5.8511  1.0000</r>
       <r>   6.0272  1.0000</r>
       <r>   6.1078  1.0000</r>
       <r>   6.1104  1.0000</r>
       <r>   6.6640  1.0000</r>
       <r>   6.6664  1.0000</r>
       <r>   6.7637  1.0000</r>
       <r>   7.3628  1.0000</r>
       <r>   7.3642  1.0000</r>
       <r>   7.4428  1.0000</r>
       <r>   7.4440  1.0000</r>
       <r>   7.6984  1.0000</r>
       <r>   7.6995  1.0000</r>
       <r>   7.9835  0.9956</r>
       <r>   7.9851  0.9917</r>
       <r>   8.0699  0.0000</r>
       <r>   8.0712  0.0000</r>
       <r>   8.5103  0.0000</r>
       <r>   8.5106  0.0000</r>
       <r>   8.8536  0.0000</r>
       <r>   9.0535  0.0000</r>
       <r>   9.1559  0.0000</r>
       <r>   9.1572  0.0000</r>
       <r>   9.4706  0.0000</r>
       <r>   9.4730  0.0000</r>
       <r>   9.8784  0.0000</r>
       <r>   9.8796  0.0000</r>
       <r>  10.1690  0.0000</r>
       <r>  10.1699  0.0000</r>
       <r>  10.2280  0.0000</r>
       <r>  10.2306  0.0000</r>
       <r>  10.8687  0.0000</r>
       <r>  10.8700  0.0000</r>
       <r>  10.8864  0.0000</r>
       <r>  10.8882  0.0000</r>
       <r>  11.2590  0.0000</r>
       <r>  11.2615  0.0000</r>
       <r>  11.3227  0.0000</r>
      </set>
      <set comment="kpoint 23">
       <r>  -2.5575  1.0000</r>
       <r>  -1.8067  1.0000</r>
       <r>  -1.8044  1.0000</r>
       <r>  -1.0586  1.0000</r>
       <r>  -1.0567  1.0000</r>
       <r>  -0.3148  1.0000</r>
       <r>  -0.3125  1.0000</r>
       <r>   0.4255  1.0000</r>
       <r>   0.4268  1.0000</r>
       <r>   1.1584  1.0000</r>
       <r>   1.1608  1.0000</r>
       <r>   1.1616  1.0000</r>
       <r>   1.1639  1.0000</r>
       <r>   1.8918  1.0000</r>
       <r>   1.8929  1.0000</r>
       <r>   1.8952  1.0000</r>
       <r>   2.6198  1.0000</r>
       <r>   2.6222  1.0000</r>
       <r>   3.3259  1.0000</r>
       <r>   3.3269  1.0000</r>
       <r>   3.3413  1.0000</r>
       <r>   3.3423  1.0000</r>
       <r>   4.0442  1.0000</r>
       <r>   4.0465  1.0000</r>
       <r>   4.0589  1.0000</r>
       <r>   4.0613  1.0000</r>
       <r>   4.7048  1.0000</r>
       <r>   4.7545  1.0000</r>
       <r>   4.7555  1.0000</r>
       <r>   4.7738  1.0000</r>
       <r>   4.8048  1.0000</r>
       <r>   4.8058  1.0000</r>
       <r>   5.4070  1.0000</r>
       <r>   5.4095  1.0000</r>
       <r>   5.4971  1.0000</r>
       <r>   5.4995  1.0000</r>
       <r>   6.1409  1.0000</r>
       <r>   6.2057  1.0000</r>
       <r>   6.2067  1.0000</r>
       <r>   6.2279  1.0000</r>
       <r>   6.8912  1.0000</r>
       <r>   6.8926  1.0000</r>
       <r>   6.9108  1.0000</r>
       <r>   6.9132  1.0000</r>
       <r>   7.6476  1.0000</r>
       <r>   7.8558  1.0000</r>
       <r>   8.2290  0.0000</r>
       <r>   8.2316  0.0000</r>
       <r>   8.3220  0.0000</r>
       <r>   8.3232  0.0000</r>
       <r>   8.6451  0.0000</r>
       <r>   8.6471  0.0000</r>
       <r>   8.9439  0.0000</r>
       <r>   8.9453  0.0000</r>
       <r>   9.0481  0.0000</r>
       <r>   9.2112  0.0000</r>
       <r>   9.2125  0.0000</r>
       <r>   9.3508  0.0000</r>
       <r>   9.7274  0.0000</r>
       <r>   9.7286  0.0000</r>
       <r>   9.9307  0.0000</r>
       <r>   9.9323  0.0000</r>
       <r>  10.3573  0.0000</r>
       <r>  10.3585  0.0000</r>
       <r>  10.3954  0.0000</r>
       <r>  10.6325  0.0000</r>
       <r>  10.6333  0.0000</r>
       <r>  11.0086  0.0000</r>
       <r>  11.0114  0.0000</r>
       <r>  11.3699  0.0000</r>
       <r>  11.3710  0.0000</r>
       <r>  11.5198  0.0000</r>
      </set>
      <set comment="kpoint 24">
       <r>  -2.2451  1.0000</r>
       <r>  -2.2423  1.0000</r>
       <r>  -1.4949  1.0000</r>
       <r>  -1.4921  1.0000</r>
       <r>  -0.7486  1.0000</r>
       <r>  -0.7458  1.0000</r>
       <r>  -0.0062  1.0000</r>
       <r>  -0.0033  1.0000</r>
       <r>   0.7316  1.0000</r>
       <r>   0.7344  1.0000</r>
       <r>   1.4644  1.0000</r>
       <r>   1.4665  1.0000</r>
       <r>   1.4672  1.0000</r>
       <r>   1.4693  1.0000</r>
       <r>   2.1913  1.0000</r>
       <r>   2.1926  1.0000</r>
[...]
       <r>   7.1453  1.0000</r>
       <r>   7.8736  1.0000</r>
       <r>   7.8742  1.0000</r>
       <r>   7.8772  1.0000</r>
       <r>   7.8777  1.0000</r>
       <r>   7.9491  1.0000</r>
       <r>   7.9491  1.0000</r>
       <r>   8.0157  0.0267</r>
       <r>   8.0157  0.0266</r>
       <r>   9.3273  0.0000</r>
       <r>   9.3273  0.0000</r>
       <r>   9.4389  0.0000</r>
       <r>   9.4390  0.0000</r>
       <r>   9.9515  0.0000</r>
       <r>   9.9519  0.0000</r>
       <r>   9.9552  0.0000</r>
       <r>   9.9556  0.0000</r>
       <r>  10.0245  0.0000</r>
       <r>  10.0245  0.0000</r>
       <r>  10.7104  0.0000</r>
       <r>  10.7106  0.0000</r>
       <r>  10.7219  0.0000</r>
       <r>  10.7222  0.0000</r>
       <r>  10.8325  0.0000</r>
       <r>  10.8325  0.0000</r>
       <r>  11.4196  0.0000</r>
       <r>  11.4202  0.0000</r>
       <r>  11.5640  0.0000</r>
       <r>  11.5658  0.0000</r>
      </set>
      <set comment="kpoint 34">
       <r>  -2.2437  1.0000</r>
       <r>  -2.2437  1.0000</r>
       <r>  -1.4935  1.0000</r>
       <r>  -1.4935  1.0000</r>
       <r>  -0.7472  1.0000</r>
       <r>  -0.7472  1.0000</r>
       <r>  -0.0048  1.0000</r>
       <r>  -0.0047  1.0000</r>
       <r>   0.7330  1.0000</r>
       <r>   0.7330  1.0000</r>
       <r>   1.4655  1.0000</r>
       <r>   1.4659  1.0000</r>
       <r>   1.4678  1.0000</r>
       <r>   1.4682  1.0000</r>
       <r>   2.1920  1.0000</r>
       <r>   2.1920  1.0000</r>
       <r>   2.9183  1.0000</r>
       <r>   2.9184  1.0000</r>
       <r>   2.9228  1.0000</r>
       <r>   2.9229  1.0000</r>
       <r>   3.6264  1.0000</r>
       <r>   3.6265  1.0000</r>
       <r>   3.6399  1.0000</r>
       <r>   3.6400  1.0000</r>
       <r>   4.2421  1.0000</r>
       <r>   4.2421  1.0000</r>
       <r>   4.5013  1.0000</r>
       <r>   4.5013  1.0000</r>
       <r>   4.9380  1.0000</r>
       <r>   4.9380  1.0000</r>
       <r>   4.9994  1.0000</r>
       <r>   4.9995  1.0000</r>
       <r>   5.2136  1.0000</r>
       <r>   5.2136  1.0000</r>
       <r>   5.6188  1.0000</r>
       <r>   5.6188  1.0000</r>
       <r>   5.8080  1.0000</r>
       <r>   5.8080  1.0000</r>
       <r>   5.8847  1.0000</r>
       <r>   5.8847  1.0000</r>
       <r>   6.4985  1.0000</r>
       <r>   6.4985  1.0000</r>
       <r>   7.2265  1.0000</r>
       <r>   7.2265  1.0000</r>
       <r>   7.7849  1.0000</r>
       <r>   7.7849  1.0000</r>
       <r>   8.3278  0.0000</r>
       <r>   8.3278  0.0000</r>
       <r>   8.5321  0.0000</r>
       <r>   8.5321  0.0000</r>
       <r>   8.6395  0.0000</r>
       <r>   8.6395  0.0000</r>
       <r>   8.9380  0.0000</r>
       <r>   8.9380  0.0000</r>
       <r>   9.1476  0.0000</r>
       <r>   9.1476  0.0000</r>
       <r>   9.3101  0.0000</r>
       <r>   9.3101  0.0000</r>
       <r>   9.6194  0.0000</r>
       <r>   9.6194  0.0000</r>
       <r>   9.9279  0.0000</r>
       <r>   9.9279  0.0000</r>
       <r>  10.5407  0.0000</r>
       <r>  10.5407  0.0000</r>
       <r>  10.7101  0.0000</r>
       <r>  10.7101  0.0000</r>
       <r>  10.9550  0.0000</r>
       <r>  10.9550  0.0000</r>
       <r>  10.9947  0.0000</r>
       <r>  10.9947  0.0000</r>
       <r>  11.3966  0.0000</r>
       <r>  11.3966  0.0000</r>
      </set>
      <set comment="kpoint 35">
       <r>  -2.0558  1.0000</r>
       <r>  -2.0558  1.0000</r>
       <r>  -1.3087  1.0000</r>
       <r>  -1.3067  1.0000</r>
       <r>  -1.3063  1.0000</r>
       <r>  -1.3044  1.0000</r>
       <r>  -0.5612  1.0000</r>
       <r>  -0.5612  1.0000</r>
       <r>   1.6468  1.0000</r>
       <r>   1.6488  1.0000</r>
       <r>   1.6492  1.0000</r>
       <r>   1.6511  1.0000</r>
       <r>   2.3731  1.0000</r>
       <r>   2.3738  1.0000</r>
       <r>   2.3782  1.0000</r>
       <r>   2.3786  1.0000</r>
       <r>   2.3789  1.0000</r>
       <r>   2.3799  1.0000</r>
       <r>   3.0979  1.0000</r>
       <r>   3.0980  1.0000</r>
       <r>   3.1004  1.0000</r>
       <r>   3.1005  1.0000</r>
       <r>   3.8050  1.0000</r>
       <r>   3.8058  1.0000</r>
       <r>   3.8061  1.0000</r>
       <r>   3.8066  1.0000</r>
       <r>   3.8161  1.0000</r>
       <r>   3.8165  1.0000</r>
       <r>   4.5149  1.0000</r>
       <r>   4.5168  1.0000</r>
       <r>   4.5173  1.0000</r>
       <r>   4.5192  1.0000</r>
       <r>   5.2812  1.0000</r>
       <r>   5.2812  1.0000</r>
       <r>   5.9849  1.0000</r>
       <r>   5.9849  1.0000</r>
       <r>   5.9874  1.0000</r>
       <r>   5.9874  1.0000</r>
       <r>   6.6928  1.0000</r>
       <r>   6.6937  1.0000</r>
       <r>   6.6939  1.0000</r>
       <r>   6.6948  1.0000</r>
       <r>   7.3771  1.0000</r>
       <r>   7.3782  1.0000</r>
       <r>   7.3783  1.0000</r>
       <r>   7.3794  1.0000</r>
       <r>   8.0586  0.0000</r>
       <r>   8.0594  0.0000</r>
       <r>   8.0599  0.0000</r>
       <r>   8.0606  0.0000</r>
       <r>   8.7796  0.0000</r>
       <r>   8.7797  0.0000</r>
       <r>   8.7821  0.0000</r>
       <r>   8.7822  0.0000</r>
       <r>   9.4464  0.0000</r>
       <r>   9.4464  0.0000</r>
       <r>   9.5152  0.0000</r>
       <r>   9.5152  0.0000</r>
       <r>   9.7470  0.0000</r>
       <r>   9.7474  0.0000</r>
       <r>   9.7478  0.0000</r>
       <r>   9.7482  0.0000</r>
       <r>  10.4384  0.0000</r>
       <r>  10.4395  0.0000</r>
       <r>  10.4396  0.0000</r>
       <r>  10.4407  0.0000</r>
       <r>  11.1245  0.0000</r>
       <r>  11.1245  0.0000</r>
       <r>  11.5763  0.0000</r>
       <r>  11.5772  0.0000</r>
       <r>  11.5775  0.0000</r>
       <r>  11.5784  0.0000</r>
      </set>
      <set comment="kpoint 36">
       <r>  -1.7457  1.0000</r>
       <r>  -1.7433  1.0000</r>
       <r>  -1.7428  1.0000</r>
       <r>  -1.7405  1.0000</r>
       <r>  -0.9981  1.0000</r>
       <r>  -0.9957  1.0000</r>
       <r>  -0.9952  1.0000</r>
       <r>  -0.9929  1.0000</r>
       <r>   1.9509  1.0000</r>
       <r>   1.9533  1.0000</r>
       <r>   1.9538  1.0000</r>
       <r>   1.9561  1.0000</r>
       <r>   2.6727  1.0000</r>
       <r>   2.6746  1.0000</r>
       <r>   2.6763  1.0000</r>
       <r>   2.6765  1.0000</r>
       <r>   2.6767  1.0000</r>
       <r>   2.6770  1.0000</r>
       <r>   2.6787  1.0000</r>
       <r>   2.6805  1.0000</r>
       <r>   3.3957  1.0000</r>
       <r>   3.3976  1.0000</r>
       <r>   3.3992  1.0000</r>
       <r>   3.3995  1.0000</r>
       <r>   3.3997  1.0000</r>
       <r>   3.4000  1.0000</r>
       <r>   3.4016  1.0000</r>
       <r>   3.4035  1.0000</r>
       <r>   4.1014  1.0000</r>
       <r>   4.1039  1.0000</r>
       <r>   4.1043  1.0000</r>
       <r>   4.1068  1.0000</r>
       <r>   6.2752  1.0000</r>
       <r>   6.2770  1.0000</r>
       <r>   6.2789  1.0000</r>
       <r>   6.2791  1.0000</r>
       <r>   6.2793  1.0000</r>
       <r>   6.2795  1.0000</r>
       <r>   6.2814  1.0000</r>
       <r>   6.2832  1.0000</r>
       <r>   6.9741  1.0000</r>
       <r>   6.9753  1.0000</r>
       <r>   6.9755  1.0000</r>
       <r>   6.9767  1.0000</r>
       <r>   7.6874  1.0000</r>
       <r>   7.6886  1.0000</r>
       <r>   7.6888  1.0000</r>
       <r>   7.6900  1.0000</r>
       <r>   8.3615  0.0000</r>
       <r>   8.3638  0.0000</r>
       <r>   8.3656  0.0000</r>
       <r>   8.3658  0.0000</r>
       <r>   8.3660  0.0000</r>
       <r>   8.3662  0.0000</r>
       <r>   8.3680  0.0000</r>
       <r>   8.3703  0.0000</r>
       <r>  10.0320  0.0000</r>
       <r>  10.0341  0.0000</r>
       <r>  10.0349  0.0000</r>
       <r>  10.0370  0.0000</r>
       <r>  10.4967  0.0000</r>
       <r>  10.4979  0.0000</r>
       <r>  10.4983  0.0000</r>
       <r>  10.4995  0.0000</r>
       <r>  11.4002  0.0000</r>
       <r>  11.4011  0.0000</r>
       <r>  11.4014  0.0000</r>
       <r>  11.4025  0.0000</r>
       <r>  11.4028  0.0000</r>
       <r>  11.4039  0.0000</r>
       <r>  11.4042  0.0000</r>
       <r>  11.4051  0.0000</r>
      </set>
      <set comment="kpoint 37">
       <r>  -1.9932  1.0000</r>
       <r>  -1.9932  1.0000</r>
       <r>  -1.9932  1.0000</r>
       <r>  -1.9932  1.0000</r>
       <r>   0.2366  1.0000</r>
       <r>   0.2410  1.0000</r>
       <r>   0.2410  1.0000</r>
       <r>   0.2415  1.0000</r>
       <r>   0.2419  1.0000</r>
       <r>   0.2424  1.0000</r>
       <r>   0.2424  1.0000</r>
       <r>   0.2468  1.0000</r>
       <r>   2.4345  1.0000</r>
       <r>   2.4345  1.0000</r>
       <r>   2.4345  1.0000</r>
       <r>   2.4345  1.0000</r>
       <r>   2.4345  1.0000</r>
       <r>   2.4345  1.0000</r>
       <r>   2.4345  1.0000</r>
       <r>   2.4345  1.0000</r>
       <r>   4.4732  1.0000</r>
       <r>   4.4732  1.0000</r>
       <r>   4.4746  1.0000</r>
       <r>   4.4747  1.0000</r>
       <r>   4.4747  1.0000</r>
       <r>   4.4747  1.0000</r>
       <r>   4.4761  1.0000</r>
       <r>   4.4761  1.0000</r>
       <r>   4.7398  1.0000</r>
       <r>   4.7398  1.0000</r>
       <r>   4.7415  1.0000</r>
       <r>   4.7415  1.0000</r>
       <r>   4.7415  1.0000</r>
       <r>   4.7416  1.0000</r>
       <r>   4.7431  1.0000</r>
       <r>   4.7431  1.0000</r>
       <r>   6.1395  1.0000</r>
       <r>   6.1395  1.0000</r>
       <r>   6.1395  1.0000</r>
       <r>   6.1396  1.0000</r>
       <r>   6.6653  1.0000</r>
       <r>   6.6653  1.0000</r>
       <r>   6.6653  1.0000</r>
       <r>   6.6653  1.0000</r>
       <r>   7.6391  1.0000</r>
       <r>   7.6392  1.0000</r>
       <r>   7.6392  1.0000</r>
       <r>   7.6392  1.0000</r>
       <r>   8.8638  0.0000</r>
       <r>   8.8638  0.0000</r>
       <r>   8.8643  0.0000</r>
       <r>   8.8654  0.0000</r>
       <r>   8.8669  0.0000</r>
       <r>   8.8680  0.0000</r>
       <r>   8.8684  0.0000</r>
       <r>   8.8684  0.0000</r>
       <r>  10.3151  0.0000</r>
       <r>  10.3151  0.0000</r>
       <r>  10.3151  0.0000</r>
       <r>  10.3151  0.0000</r>
       <r>  10.3151  0.0000</r>
       <r>  10.3151  0.0000</r>
       <r>  10.3151  0.0000</r>
       <r>  10.3152  0.0000</r>
       <r>  11.0287  0.0000</r>
       <r>  11.0287  0.0000</r>
       <r>  11.0287  0.0000</r>
       <r>  11.0287  0.0000</r>
       <r>  11.0287  0.0000</r>
       <r>  11.0287  0.0000</r>
       <r>  11.0287  0.0000</r>
       <r>  11.0287  0.0000</r>
      </set>
      <set comment="kpoint 38">
       <r>  -1.9306  1.0000</r>
       <r>  -1.9306  1.0000</r>
       <r>  -1.9306  1.0000</r>
       <r>  -1.9306  1.0000</r>
       <r>  -0.4374  1.0000</r>
       <r>  -0.4374  1.0000</r>
       <r>  -0.4374  1.0000</r>
       <r>  -0.4374  1.0000</r>
       <r>   1.0396  1.0000</r>
       <r>   1.0396  1.0000</r>
       <r>   1.0396  1.0000</r>
       <r>   1.0396  1.0000</r>
       <r>   2.4951  1.0000</r>
       <r>   2.4951  1.0000</r>
       <r>   2.4951  1.0000</r>
       <r>   2.4951  1.0000</r>
       <r>   2.4951  1.0000</r>
       <r>   2.4951  1.0000</r>
       <r>   2.4951  1.0000</r>
       <r>   2.4951  1.0000</r>
       <r>   3.9355  1.0000</r>
       <r>   3.9355  1.0000</r>
       <r>   3.9357  1.0000</r>
       <r>   3.9357  1.0000</r>
       <r>   3.9357  1.0000</r>
       <r>   3.9358  1.0000</r>
       <r>   3.9359  1.0000</r>
       <r>   3.9359  1.0000</r>
       <r>   5.2904  1.0000</r>
       <r>   5.2904  1.0000</r>
       <r>   5.2904  1.0000</r>
       <r>   5.2904  1.0000</r>
       <r>   5.3959  1.0000</r>
       <r>   5.3959  1.0000</r>
       <r>   5.3963  1.0000</r>
       <r>   5.3963  1.0000</r>
       <r>   5.3963  1.0000</r>
       <r>   5.3964  1.0000</r>
       <r>   5.3967  1.0000</r>
       <r>   5.3967  1.0000</r>
       <r>   6.7863  1.0000</r>
       <r>   6.7863  1.0000</r>
       <r>   6.7863  1.0000</r>
       <r>   6.7863  1.0000</r>
       <r>   8.2197  0.0000</r>
       <r>   8.2197  0.0000</r>
       <r>   8.2197  0.0000</r>
       <r>   8.2197  0.0000</r>
       <r>   8.5350  0.0000</r>
       <r>   8.5350  0.0000</r>
       <r>   8.5350  0.0000</r>
       <r>   8.5350  0.0000</r>
       <r>   9.5104  0.0000</r>
       <r>   9.5104  0.0000</r>
       <r>   9.5108  0.0000</r>
       <r>   9.5109  0.0000</r>
       <r>   9.5109  0.0000</r>
       <r>   9.5109  0.0000</r>
       <r>   9.5113  0.0000</r>
       <r>   9.5113  0.0000</r>
       <r>   9.6265  0.0000</r>
       <r>   9.6265  0.0000</r>
       <r>   9.6265  0.0000</r>
       <r>   9.6265  0.0000</r>
       <r>  11.2011  0.0000</r>
       <r>  11.2011  0.0000</r>
       <r>  11.2019  0.0000</r>
       <r>  11.2019  0.0000</r>
       <r>  11.2019  0.0000</r>
       <r>  11.2019  0.0000</r>
       <r>  11.2028  0.0000</r>
       <r>  11.2028  0.0000</r>
      </set>
      <set comment="kpoint 39">
       <r>  -1.7431  1.0000</r>
       <r>  -1.7431  1.0000</r>
       <r>  -1.7431  1.0000</r>
       <r>  -1.7431  1.0000</r>
       <r>  -0.9955  1.0000</r>
       <r>  -0.9955  1.0000</r>
       <r>  -0.9955  1.0000</r>
       <r>  -0.9955  1.0000</r>
       <r>   1.9535  1.0000</r>
       <r>   1.9535  1.0000</r>
       <r>   1.9535  1.0000</r>
       <r>   1.9535  1.0000</r>
       <r>   2.6766  1.0000</r>
       <r>   2.6766  1.0000</r>
       <r>   2.6766  1.0000</r>
       <r>   2.6766  1.0000</r>
       <r>   2.6766  1.0000</r>
       <r>   2.6766  1.0000</r>
       <r>   2.6766  1.0000</r>
       <r>   2.6766  1.0000</r>
       <r>   3.3995  1.0000</r>
       <r>   3.3995  1.0000</r>
       <r>   3.3996  1.0000</r>
       <r>   3.3996  1.0000</r>
       <r>   3.3996  1.0000</r>
       <r>   3.3996  1.0000</r>
       <r>   3.3997  1.0000</r>
       <r>   3.3997  1.0000</r>
       <r>   4.1041  1.0000</r>
       <r>   4.1041  1.0000</r>
       <r>   4.1041  1.0000</r>
       <r>   4.1041  1.0000</r>
       <r>   6.2789  1.0000</r>
       <r>   6.2789  1.0000</r>
       <r>   6.2792  1.0000</r>
       <r>   6.2792  1.0000</r>
       <r>   6.2792  1.0000</r>
       <r>   6.2792  1.0000</r>
       <r>   6.2795  1.0000</r>
       <r>   6.2795  1.0000</r>
       <r>   6.9754  1.0000</r>
       <r>   6.9754  1.0000</r>
       <r>   6.9754  1.0000</r>
       <r>   6.9754  1.0000</r>
       <r>   7.6887  1.0000</r>
       <r>   7.6887  1.0000</r>
       <r>   7.6887  1.0000</r>
       <r>   7.6887  1.0000</r>
       <r>   8.3656  0.0000</r>
       <r>   8.3656  0.0000</r>
       <r>   8.3659  0.0000</r>
       <r>   8.3659  0.0000</r>
       <r>   8.3659  0.0000</r>
       <r>   8.3659  0.0000</r>
       <r>   8.3662  0.0000</r>
       <r>   8.3662  0.0000</r>
       <r>  10.0345  0.0000</r>
       <r>  10.0345  0.0000</r>
       <r>  10.0345  0.0000</r>
       <r>  10.0345  0.0000</r>
       <r>  10.4981  0.0000</r>
       <r>  10.4981  0.0000</r>
       <r>  10.4981  0.0000</r>
       <r>  10.4981  0.0000</r>
       <r>  11.4021  0.0000</r>
       <r>  11.4021  0.0000</r>
       <r>  11.4026  0.0000</r>
       <r>  11.4027  0.0000</r>
       <r>  11.4027  0.0000</r>
       <r>  11.4027  0.0000</r>
       <r>  11.4032  0.0000</r>
       <r>  11.4032  0.0000</r>
      </set>
      <set comment="kpoint 40">
       <r>  -1.4359  1.0000</r>
       <r>  -1.4315  1.0000</r>
       <r>  -1.4315  1.0000</r>
       <r>  -1.4312  1.0000</r>
       <r>  -1.4311  1.0000</r>
       <r>  -1.4307  1.0000</r>
       <r>  -1.4307  1.0000</r>
       <r>  -1.4264  1.0000</r>
       <r>   2.9684  1.0000</r>
       <r>   2.9745  1.0000</r>
       <r>   2.9745  1.0000</r>
       <r>   2.9777  1.0000</r>
       <r>   2.9781  1.0000</r>
       <r>   2.9781  1.0000</r>
       <r>   2.9784  1.0000</r>
       <r>   2.9784  1.0000</r>
       <r>   2.9785  1.0000</r>
       <r>   2.9785  1.0000</r>
       <r>   2.9785  1.0000</r>
       <r>   2.9785  1.0000</r>
       <r>   2.9786  1.0000</r>
       <r>   2.9786  1.0000</r>
       <r>   2.9786  1.0000</r>
       <r>   2.9786  1.0000</r>
       <r>   2.9787  1.0000</r>
       <r>   2.9787  1.0000</r>
       <r>   2.9790  1.0000</r>
       <r>   2.9791  1.0000</r>
       <r>   2.9794  1.0000</r>
       <r>   2.9826  1.0000</r>
       <r>   2.9826  1.0000</r>
       <r>   2.9887  1.0000</r>
       <r>   7.2680  1.0000</r>
       <r>   7.2680  1.0000</r>
       <r>   7.2701  1.0000</r>
       <r>   7.2719  1.0000</r>
       <r>   7.2733  1.0000</r>
       <r>   7.2737  1.0000</r>
       <r>   7.2737  1.0000</r>
       <r>   7.2737  1.0000</r>
       <r>   7.2739  1.0000</r>
       <r>   7.2740  1.0000</r>
       <r>   7.2740  1.0000</r>
       <r>   7.2740  1.0000</r>
       <r>   7.2741  1.0000</r>
       <r>   7.2741  1.0000</r>
       <r>   7.2741  1.0000</r>
       <r>   7.2742  1.0000</r>
       <r>   7.2743  1.0000</r>
       <r>   7.2743  1.0000</r>
       <r>   7.2744  1.0000</r>
       <r>   7.2748  1.0000</r>
       <r>   7.2762  1.0000</r>
       <r>   7.2780  1.0000</r>
       <r>   7.2800  1.0000</r>
       <r>   7.2800  1.0000</r>
       <r>  11.4749  0.0000</r>
       <r>  11.4750  0.0000</r>
       <r>  11.4750  0.0000</r>
       <r>  11.4755  0.0000</r>
       <r>  11.4771  0.0000</r>
       <r>  11.4777  0.0000</r>
       <r>  11.4777  0.0000</r>
       <r>  11.4779  0.0000</r>
       <r>  11.6935  0.0000</r>
       <r>  11.6943  0.0000</r>
       <r>  11.6952  0.0000</r>
       <r>  11.6956  0.0000</r>
       <r>  11.6962  0.0000</r>
       <r>  11.6963  0.0000</r>
       <r>  11.6965  0.0000</r>
       <r>  11.6970  0.0000</r>
      </set>
     </set>
    </set>
   </array>
  </eigenvalues>
 </calculation>
 <structure name="finalpos" >
  <crystal>
   <varray name="basis" >
    <v>       8.07439980      0.00000000      0.00000000</v>
    <v>       0.00000000      8.07439980      0.00000000</v>
    <v>       0.00000000      0.00000000      8.07439980</v>
   </varray>
   <i name="volume">    526.41802135</i>
   <varray name="rec_basis" >
    <v>       0.12384821      0.00000000      0.00000000</v>
    <v>       0.00000000      0.12384821      0.00000000</v>
    <v>       0.00000000      0.00000000      0.12384821</v>
   </varray>
  </crystal>
  <varray name="positions" >
   <v>       0.25123848      0.25000000      0.00000000</v>
   <v>       0.75000000      0.25000000      0.00000000</v>
   <v>       0.25000000      0.75000000      0.00000000</v>
   <v>       0.75000000      0.75000000      0.00000000</v>
   <v>       0.25000000      0.25000000      0.50000000</v>
   <v>       0.75000000      0.25000000      0.50000000</v>
   <v>       0.25000000      0.75000000      0.50000000</v>
   <v>       0.75000000      0.75000000      0.50000000</v>
   <v>       0.25000000      0.00000000      0.25000000</v>
   <v>       0.75000000      0.00000000      0.25000000</v>
   <v>       0.25000000      0.50000000      0.25000000</v>
   <v>       0.75000000      0.50000000      0.25000000</v>
   <v>       0.25000000      0.00000000      0.75000000</v>
   <v>       0.75000000      0.00000000      0.75000000</v>
   <v>       0.25000000      0.50000000      0.75000000</v>
   <v>       0.75000000      0.50000000      0.75000000</v>
   <v>       0.00000000      0.25000000      0.25000000</v>
   <v>       0.50000000      0.25000000      0.25000000</v>
   <v>       0.00000000      0.75000000      0.25000000</v>
   <v>       0.50000000      0.75000000      0.25000000</v>
   <v>       0.00000000      0.25000000      0.75000000</v>
   <v>       0.50000000      0.25000000      0.75000000</v>
   <v>       0.00000000      0.75000000      0.75000000</v>
   <v>       0.50000000      0.75000000      0.75000000</v>
   <v>       0.00000000      0.00000000      0.00000000</v>
   <v>       0.50000000      0.00000000      0.00000000</v>
   <v>       0.00000000      0.50000000      0.00000000</v>
   <v>       0.50000000      0.50000000      0.00000000</v>
   <v>       0.00000000      0.00000000      0.50000000</v>
   <v>       0.50000000      0.00000000      0.50000000</v>
   <v>       0.00000000      0.50000000      0.50000000</v>
   <v>       0.50000000      0.50000000      0.50000000</v>
  </varray>
 </structure>
</modeling>
