    4    4    1    1
  0.1501517E+02  0.3916187E-09  0.3916187E-09  0.3916187E-09  0.5000000E-15
  1.000000000000000E-004
  CAR 
 unknown system                          
   12   84   16
 
  0.0000000E+00  0.0000000E+00  0.0000000E+00  0.4551661E-03
   1       -2.7825
   2        5.8678
   3        5.8678
   4        5.8678
   5        7.3863
   6        7.3863
   7        7.3863
   8       14.2967
   9       14.2967
  10       14.2967
  11       15.0760
  12       15.0760
  13       15.0760
  14       15.0760
  15       15.0760
  16       15.0760
 
  0.7692308E-01  0.0000000E+00  0.0000000E+00  0.2730997E-02
   1       -2.7255
   2        5.0797
   3        5.9194
   4        5.9194
   5        7.4396
   6        7.4396
   7        8.2711
   8       13.3211
   9       13.3211
  10       14.3531
  11       14.7038
  12       14.7038
  13       15.1234
  14       15.1234
  15       16.1574
  16       16.1574
 
  0.1538462E+00  0.0000000E+00  0.0000000E+00  0.2730997E-02
   1       -2.5544
   2        3.9148
   3        6.0743
   4        6.0743
   5        7.5982
   6        7.5982
   7        9.7262
   8       12.1434
   9       12.1434
  10       13.8885
  11       13.8885
  12       14.5223
  13       15.2656
  14       15.2656
  15       17.6520
  16       17.6520
 
  0.2307692E+00  0.0000000E+00  0.0000000E+00  0.2730997E-02
   1       -2.2697
   2        2.7923
   3        6.3326
   4        6.3326
   5        7.8575
   6        7.8575
   7       11.0543
   8       11.0543
   9       11.3317
  10       12.9661
  11       12.9661
  12       14.8039
  13       15.5027
  14       15.5027
  15       19.2680
  16       19.2680
 
  0.3076923E+00  0.0000000E+00  0.0000000E+00  0.2730997E-02
   1       -1.8723
   2        1.7566
   3        6.6945
   4        6.6945
   5        8.2055
   6        8.2055
   7       10.0668
   8       10.0668
   9       12.0758
  10       12.0758
  11       13.0427
  12       15.1975
  13       15.8348
  14       15.8348
  15       18.7811
  16       18.9107
 
  0.3846154E+00  0.0000000E+00  0.0000000E+00  0.2730997E-02
   1       -1.3631
   2        0.8189
   3        7.1602
   4        7.1602
   5        8.6096
   6        8.6096
   7        9.1832
   8        9.1832
   9       11.2958
  10       11.2958
  11       14.8461
  12       15.7021
  13       16.2621
  14       16.2621
  15       17.8620
  16       18.1109
 
  0.4615385E+00  0.0000000E+00  0.0000000E+00  0.2730997E-02
   1       -0.7436
   2       -0.0155
   3        7.7301
   4        7.7301
   5        8.4044
   6        8.4044
   7        8.9562
   8        8.9562
   9       10.7579
  10       10.7579
  11       16.3163
  12       16.7334
  13       16.7843
  14       16.7843
  15       17.0377
  16       17.4011
 
  0.7692308E-01  0.7692308E-01  0.0000000E+00  0.5461994E-02
   1       -2.6684
   2        5.1326
   3        5.1326
   4        5.9711
   5        7.4922
   6        8.3227
   7        8.3227
   8       12.5757
   9       13.3743
  10       13.3743
  11       14.7529
  12       14.7529
  13       15.1719
  14       16.1307
  15       16.2080
  16       16.2080
 
  0.1538462E+00  0.7692308E-01  0.0000000E+00  0.1092399E-01
   1       -2.4974
   2        3.9686
   3        5.2912
   4        6.1260
   5        7.6481
   6        8.4761
   7        9.7752
   8       11.4706
   9       12.1960
  10       13.5337
  11       13.9410
  12       14.6084
  13       14.9003
  14       16.3597
  15       17.2546
  16       17.7030
 
  0.2307692E+00  0.7692308E-01  0.0000000E+00  0.1092399E-01
   1       -2.2129
   2        2.8468
   3        5.5549
   4        6.3843
   5        7.8985
   6        8.7258
   7       10.4168
   8       11.1067
   9       11.3764
  10       13.0242
  11       13.6976
  12       13.7991
  13       15.1468
  14       16.6127
  15       18.5282
  16       18.7988
 
  0.3076923E+00  0.7692308E-01  0.0000000E+00  0.1092399E-01
   1       -1.8156
   2        1.8116
   3        5.9229
   4        6.7462
   5        8.2055
   6        9.0564
   7        9.4903
   8       10.1190
   9       12.1461
  10       12.7973
  11       13.0775
  12       14.1699
  13       15.4959
  14       16.9670
  15       17.5620
  16       18.5476
 
  0.3846154E+00  0.7692308E-01  0.0000000E+00  0.1092399E-01
   1       -1.3066
   2        0.8744
   3        6.3936
   4        7.2120
   5        8.2343
   6        9.0202
   7        9.2353
   8        9.4149
   9       11.4074
  10       11.9828
  11       14.6453
  12       14.8439
  13       15.9686
  14       16.6856
  15       17.4225
  16       17.7408
 
  0.4615385E+00  0.7692308E-01  0.0000000E+00  0.1092399E-01
   1       -0.6874
   2        0.0404
   3        6.9626
   4        7.6151
   5        7.7820
   6        8.4563
   7        9.3273
   8        9.5906
   9       11.0414
  10       11.3261
  11       15.2243
  12       15.9052
  13       16.2864
  14       16.9455
  15       17.0093
  16       17.9784
 
  0.1538462E+00  0.1538462E+00  0.0000000E+00  0.5461994E-02
   1       -2.3266
   2        4.1300
   3        4.1300
   4        6.2810
   5        7.7916
   6        9.9198
   7        9.9198
   8       10.4080
   9       12.3537
  10       12.3537
  11       14.0999
  12       14.0999
  13       15.4596
  14       16.8812
  15       17.8559
  16       17.8559
 
  0.2307692E+00  0.1538462E+00  0.0000000E+00  0.1092399E-01
   1       -2.0425
   2        3.0102
   3        4.3984
   4        6.5394
   5        7.9894
   6        9.4175
   7       10.1485
   8       11.2637
   9       11.5036
  10       12.6165
  11       13.2036
  12       14.3707
  13       14.9712
  14       17.3524
  15       17.9626
  16       18.1105
 
  0.3076923E+00  0.1538462E+00  0.0000000E+00  0.1092399E-01
   1       -1.6457
   2        1.9766
   3        4.7729
   4        6.9015
   5        7.9326
   6        8.8633
   7       10.2756
   8       10.4186
   9       12.3823
  10       12.9840
  11       13.1541
  12       14.1225
  13       14.7802
  14       16.3738
  15       17.7554
  16       18.4662
 
  0.3846154E+00  0.1538462E+00  0.0000000E+00  0.1092399E-01
   1       -1.1375
   2        1.0407
   3        5.2520
   4        7.2574
   5        7.3675
   6        9.1172
   7        9.3916
   8       10.5382
   9       11.8756
  10       13.3047
  11       13.4560
  12       14.6452
  13       15.4923
  14       15.5401
  15       16.9395
  16       18.9221
 
  0.4615385E+00  0.1538462E+00  0.0000000E+00  0.1092399E-01
   1       -0.5190
   2        0.2078
   3        5.8327
   4        6.5086
   5        7.9377
   6        8.6123
   7        9.6232
   8       10.1817
   9       12.0303
  10       12.5848
  11       14.0319
  12       14.7111
  13       15.4972
  14       16.1934
  15       17.1199
  16       19.0248
 
  0.2307692E+00  0.2307692E+00  0.0000000E+00  0.5461994E-02
   1       -1.7590
   2        3.2820
   3        3.2820
   4        6.7980
   5        7.8290
   6        8.7868
   7       11.5254
   8       11.5254
   9       11.6756
  10       11.6756
  11       13.5342
  12       13.5342
  13       15.9398
  14       16.2691
  15       17.5723
  16       17.7356
 
  0.3076923E+00  0.2307692E+00  0.0000000E+00  0.1092399E-01
   1       -1.3631
   2        2.2510
   3        3.6613
   4        7.0617
   5        7.1604
   6        8.9432
   7       10.5366
   8       11.7052
   9       11.8917
  10       12.9526
  11       13.0806
  12       14.1946
  13       15.2836
  14       15.5615
  15       16.8550
  16       18.7001
 
  0.3846154E+00  0.2307692E+00  0.0000000E+00  0.1092399E-01
   1       -0.8560
   2        1.3173
   3        4.1469
   4        6.2105
   5        7.6267
   6        9.3770
   7        9.6521
   8       11.2486
   9       12.3625
  10       13.0174
  11       13.9456
  12       14.3988
  13       14.8114
  14       15.5867
  15       16.0313
  16       20.3808
 
  0.4615385E+00  0.2307692E+00  0.0000000E+00  0.1092399E-01
   1       -0.2389
   2        0.4863
   3        4.7368
   4        5.4272
   5        8.1973
   6        8.8723
   7        9.9353
   8       10.5794
   9       12.9375
  10       13.4744
  11       13.6165
  12       14.0934
  13       14.5964
  14       15.2789
  15       17.3721
  16       19.2877
 
  0.3076923E+00  0.3076923E+00  0.0000000E+00  0.5461994E-02
   1       -0.9685
   2        2.6341
   3        2.6341
   4        6.1090
   5        7.5231
   6        9.2828
   7       10.9021
   8       10.9021
   9       12.5110
  10       12.5110
  11       14.2130
  12       14.2130
  13       14.2944
  14       15.9676
  15       16.6137
  16       18.3980
 
  0.3846154E+00  0.3076923E+00  0.0000000E+00  0.1092399E-01
   1       -0.4629
   2        1.7036
   3        3.1248
   4        5.2200
   5        7.9899
   6        9.7529
   7       10.0169
   8       11.3721
   9       11.7443
  10       13.0935
  11       13.4080
  12       14.5829
  13       15.1364
  14       15.8871
  15       16.3559
  16       19.5879
 
  0.4615385E+00  0.3076923E+00  0.0000000E+00  0.1092399E-01
   1        0.1522
   2        0.8752
   3        3.7213
   4        4.4212
   5        8.5609
   6        9.2365
   7       10.3297
   8       10.9999
   9       11.9464
  10       12.6252
  11       13.7001
  12       14.3787
  13       15.1019
  14       15.7156
  15       17.7099
  16       19.6025
 
  0.3846154E+00  0.3846154E+00  0.0000000E+00  0.5461994E-02
   1        0.0407
   2        2.1984
   3        2.1984
   4        4.3153
   5        8.4572
   6       10.2357
   7       10.4862
   8       10.4862
   9       12.2629
  10       12.2629
  11       12.5209
  12       14.2982
  13       16.3112
  14       16.3112
  15       17.4821
  16       19.3981
 
  0.4615385E+00  0.3846154E+00  0.0000000E+00  0.1092399E-01
   1        0.6534
   2        1.3734
   3        2.8002
   4        3.5069
   5        9.0288
   6        9.7051
   7       10.8199
   8       11.0599
   9       11.4989
  10       11.7382
  11       12.8565
  12       13.5354
  13       16.8209
  14       17.3479
  15       18.1190
  16       19.9091
 
  0.4615385E+00  0.4615385E+00  0.0000000E+00  0.5461994E-02
   1        1.2631
   2        1.9795
   3        1.9795
   4        2.6916
   5        9.6011
   6       10.2781
   7       10.2781
   8       10.9558
   9       11.4072
  10       12.0883
  11       12.0883
  12       12.7687
  13       18.5336
  14       18.5336
  15       18.5459
  16       19.8048
 
  0.7692308E-01  0.7692308E-01  0.7692308E-01  0.3641329E-02
   1       -2.6114
   2        5.1855
   3        5.1855
   4        5.1855
   5        8.3734
   6        8.3734
   7        8.3734
   8       12.6293
   9       12.6293
  10       12.6293
  11       15.2193
  12       15.2193
  13       15.2193
  14       16.1842
  15       16.1842
  16       16.1842
 
  0.1538462E+00  0.7692308E-01  0.7692308E-01  0.1092399E-01
   1       -2.4405
   2        4.0224
   3        5.3439
   4        5.3439
   5        8.5228
   6        8.5228
   7        9.8222
   8       11.5265
   9       11.5265
  10       12.7907
  11       14.6590
  12       14.6590
  13       15.3615
  14       16.3447
  15       17.3069
  16       17.3069
 
  0.2307692E+00  0.7692308E-01  0.7692308E-01  0.1092399E-01
   1       -2.1560
   2        2.9013
   3        5.6072
   4        5.6072
   5        8.7568
   6        8.7568
   7       10.4821
   8       10.4821
   9       11.4130
  10       13.0651
  11       13.7518
  12       13.7518
  13       15.5988
  14       16.6120
  15       17.7153
  16       18.8501
 
  0.3076923E+00  0.7692308E-01  0.7692308E-01  0.1092399E-01
   1       -1.7590
   2        1.8666
   3        5.9744
   4        5.9744
   5        8.9590
   6        8.9590
   7        9.6499
   8        9.6499
   9       12.8577
  10       12.8577
  11       13.0271
  12       13.5245
  13       15.9311
  14       16.7558
  15       16.9864
  16       19.0096
 
  0.3846154E+00  0.7692308E-01  0.7692308E-01  0.1092399E-01
   1       -1.2502
   2        0.9299
   3        6.4419
   4        6.4419
   5        8.4633
   6        8.4633
   7        9.6854
   8        9.6854
   9       12.0609
  10       12.0609
  11       13.8326
  12       14.9832
  13       15.8849
  14       16.3586
  15       17.4698
  16       18.2089
 
  0.4615385E+00  0.7692308E-01  0.7692308E-01  0.1092399E-01
   1       -0.6313
   2        0.0962
   3        6.9892
   4        6.9892
   5        7.7485
   6        7.7485
   7       10.0329
   8       10.0329
   9       11.4820
  10       11.4820
  11       14.4275
  12       15.1084
  13       16.8158
  14       16.8812
  15       17.4984
  16       18.0784
 
  0.1538462E+00  0.1538462E+00  0.7692308E-01  0.1092399E-01
   1       -2.2697
   2        4.1837
   3        4.1837
   4        5.5017
   5        8.6516
   6        9.9546
   7        9.9546
   8       10.4764
   9       11.6996
  10       11.6996
  11       14.8110
  12       14.8110
  13       15.5071
  14       16.9366
  15       17.4636
  16       17.4636
 
  0.2307692E+00  0.1538462E+00  0.7692308E-01  0.2184797E-01
   1       -1.9857
   2        3.0646
   3        4.4518
   4        5.7636
   5        8.7461
   6        9.5854
   7       10.0802
   8       10.7513
   9       11.4445
  10       12.0672
  11       13.9162
  12       15.0218
  13       15.0658
  14       16.6085
  15       17.7244
  16       18.0154
 
  0.3076923E+00  0.1538462E+00  0.7692308E-01  0.2184797E-01
   1       -1.5892
   2        2.0315
   3        4.8258
   4        6.1264
   5        8.2124
   6        9.5057
   7        9.5124
   8       10.6590
   9       12.2190
  10       13.0481
  11       13.3492
  12       14.1765
  13       15.4298
  14       15.6419
  15       18.0885
  16       18.5022
 
  0.3846154E+00  0.1538462E+00  0.7692308E-01  0.2184797E-01
   1       -1.0811
   2        1.0961
   3        5.3036
   4        6.5681
   5        7.4166
   6        8.6696
   7        9.8994
   8       10.9352
   9       12.3489
  10       12.7246
  11       13.3644
  12       14.7671
  13       15.0360
  14       15.9502
  15       17.6870
  16       18.5551
 
  0.4615385E+00  0.1538462E+00  0.7692308E-01  0.2184797E-01
   1       -0.4630
   2        0.2635
   3        5.8799
   4        6.5230
   5        7.2641
   6        7.9022
   7       10.4073
   8       10.8841
   9       12.1921
  10       12.6616
  11       13.3083
  12       13.9886
  13       16.2364
  14       16.9451
  15       17.1565
  16       18.9933
 
  0.2307692E+00  0.2307692E+00  0.7692308E-01  0.1092399E-01
   1       -1.7023
   2        3.3362
   3        3.3362
   4        6.0210
   5        8.1189
   6        9.4233
   7       10.7672
   8       10.7672
   9       11.8965
  10       11.8965
  11       14.2007
  12       14.2007
  13       15.5519
  14       15.9874
  15       17.6274
  16       18.5042
 
  0.3076923E+00  0.2307692E+00  0.7692308E-01  0.2184797E-01
   1       -1.3067
   2        2.3058
   3        3.7152
   4        6.3574
   5        7.2275
   6        9.7295
   7        9.8203
   8       11.1759
   9       12.0846
  10       13.4305
  11       13.4545
  12       14.5792
  13       14.6626
  14       15.6119
  15       17.6230
  16       18.7522
 
  0.3846154E+00  0.2307692E+00  0.7692308E-01  0.2184797E-01
   1       -0.7997
   2        1.3726
   3        4.2003
   4        6.2219
   5        6.9580
   6        8.9445
   7       10.1817
   8       11.6590
   9       11.9448
  10       13.1745
  11       13.7004
  12       14.6594
  13       14.8647
  14       15.6981
  15       16.7991
  16       20.0660
 
  0.4615385E+00  0.2307692E+00  0.7692308E-01  0.2184797E-01
   1       -0.1830
   2        0.5419
   3        4.7887
   4        5.4744
   5        7.4921
   6        8.1653
   7       10.7360
   8       11.3610
   9       12.2392
  10       12.9197
  11       13.5486
  12       14.1518
  13       15.3633
  14       16.0478
  15       17.4190
  16       19.3208
 
  0.3076923E+00  0.3076923E+00  0.7692308E-01  0.1092399E-01
   1       -0.9122
   2        2.6887
   3        2.6887
   4        6.1199
   5        6.8546
   6       10.0902
   7       10.2003
   8       10.2003
   9       13.2086
  10       13.2086
  11       13.6021
  12       14.3559
  13       14.3559
  14       16.6613
  15       16.7366
  16       18.4516
 
  0.3846154E+00  0.3076923E+00  0.7692308E-01  0.2184797E-01
   1       -0.4068
   2        1.7586
   3        3.1790
   4        5.2673
   5        7.2841
   6        9.3174
   7       10.5606
   8       10.6778
   9       12.5176
  10       12.7204
  11       13.8614
  12       14.6528
  13       15.9060
  14       15.9493
  15       16.4058
  16       19.6383
 
  0.4615385E+00  0.3076923E+00  0.7692308E-01  0.2184797E-01
   1        0.2080
   2        0.9307
   3        3.7749
   4        4.4733
   5        7.8548
   6        8.5342
   7       11.1313
   8       11.2569
   9       11.7917
  10       11.9380
  11       14.4736
  12       15.1503
  13       15.1586
  14       15.7680
  15       17.7583
  16       19.6459
 
  0.3846154E+00  0.3846154E+00  0.7692308E-01  0.1092399E-01
   1        0.0965
   2        2.2532
   3        2.2532
   4        4.3675
   5        7.7506
   6        9.7927
   7        9.7927
   8       11.0398
   9       11.8366
  10       13.0440
  11       13.0440
  12       15.0697
  13       16.3649
  14       16.3649
  15       17.5298
  16       19.4490
 
  0.4615385E+00  0.3846154E+00  0.7692308E-01  0.2184797E-01
   1        0.7090
   2        1.4286
   3        2.8546
   4        3.5606
   5        8.3267
   6        9.0082
   7       10.3713
   8       11.0530
   9       11.6174
  10       12.2886
  11       13.6352
  12       14.3102
  13       16.8718
  14       17.3971
  15       18.1675
  16       19.9554
 
  0.4615385E+00  0.4615385E+00  0.7692308E-01  0.1092399E-01
   1        1.3184
   2        2.0344
   3        2.0344
   4        2.7461
   5        8.9045
   6        9.5865
   7        9.5865
   8       10.2685
   9       12.1985
  10       12.8730
  11       12.8730
  12       13.5480
  13       18.5818
  14       18.5818
  15       18.5936
  16       19.8524
 
  0.1538462E+00  0.1538462E+00  0.1538462E+00  0.3641329E-02
   1       -2.0992
   2        4.3445
   3        4.3445
   4        4.3445
   5        9.9741
   6        9.9741
   7        9.9741
   8       10.7579
   9       10.7579
  10       10.7579
  11       15.6495
  12       15.6495
  13       15.6495
  14       16.5664
  15       17.1023
  16       17.1023
 
  0.2307692E+00  0.1538462E+00  0.1538462E+00  0.1092399E-01
   1       -1.8156
   2        3.2276
   3        4.6117
   4        4.6117
   5        9.3663
   6        9.3663
   7       10.5624
   8       10.5624
   9       10.7161
  10       11.8761
  11       15.1740
  12       15.1740
  13       15.5181
  14       15.8871
  15       17.3777
  16       18.1732
 
  0.3076923E+00  0.1538462E+00  0.1538462E+00  0.1092399E-01
   1       -1.4196
   2        2.1961
   3        4.9836
   4        4.9836
   5        8.4429
   6        8.4429
   7       10.8566
   8       10.8566
   9       11.1413
  10       13.5189
  11       14.3402
  12       14.3402
  13       14.5498
  14       16.2199
  15       17.7617
  16       19.3059
 
  0.3846154E+00  0.1538462E+00  0.1538462E+00  0.1092399E-01
   1       -0.9122
   2        1.2620
   3        5.4552
   4        5.4552
   5        7.5763
   6        7.5763
   7       11.2689
   8       11.2689
   9       11.6292
  10       13.5525
  11       13.5525
  12       13.6730
  13       15.2876
  14       16.6481
  15       18.2547
  16       18.5026
 
  0.4615385E+00  0.1538462E+00  0.1538462E+00  0.1092399E-01
   1       -0.2949
   2        0.4306
   3        5.9939
   4        5.9939
   5        6.8365
   6        6.8365
   7       11.6779
   8       11.6779
   9       12.2116
  10       12.8929
  11       12.9523
  12       12.9523
  13       17.1230
  14       17.1717
  15       17.7902
  16       18.8682
 
  0.2307692E+00  0.2307692E+00  0.1538462E+00  0.1092399E-01
   1       -1.5326
   2        3.4986
   3        3.4986
   4        4.8767
   5        8.3547
   6        9.6967
   7        9.6967
   8       10.7796
   9       12.0843
  10       12.0843
  11       14.4653
  12       15.4291
  13       15.4291
  14       16.1302
  15       17.7920
  16       18.4352
 
  0.3076923E+00  0.2307692E+00  0.1538462E+00  0.2184797E-01
   1       -1.1375
   2        2.4700
   3        3.8766
   4        5.2421
   5        7.3889
   6        8.7256
   7       10.0840
   8       11.1298
   9       12.3995
  10       13.4927
  11       13.7490
  12       14.6234
  13       15.7633
  14       15.7934
  15       18.7998
  16       18.8878
 
  0.3846154E+00  0.2307692E+00  0.1538462E+00  0.2184797E-01
   1       -0.6312
   2        1.5382
   3        4.3593
   4        5.6760
   5        6.5442
   6        7.8425
   7       10.5655
   8       11.5814
   9       12.6126
  10       12.7187
  11       13.9367
  12       15.0264
  13       15.4515
  14       16.3163
  15       18.0537
  16       19.2628
 
  0.4615385E+00  0.2307692E+00  0.1538462E+00  0.2184797E-01
   1       -0.0152
   2        0.7087
   3        4.9412
   4        5.5863
   5        6.4234
   6        7.0623
   7       11.1472
   8       11.8299
   9       12.1112
  10       12.6298
  11       13.8305
  12       14.3357
  13       16.6152
  14       17.3154
  15       17.5503
  16       19.3771
 
  0.3076923E+00  0.3076923E+00  0.1538462E+00  0.1092399E-01
   1       -0.7435
   2        2.8522
   3        2.8522
   4        5.5700
   5        6.4436
   6        9.1030
   7        9.1030
   8       11.4995
   9       12.5163
  10       13.9796
  11       13.9796
  12       15.0877
  13       15.0877
  14       16.8043
  15       18.0374
  16       18.6114
 
  0.3846154E+00  0.3076923E+00  0.1538462E+00  0.2184797E-01
   1       -0.2388
   2        1.9237
   3        3.3414
   4        5.3794
   5        6.2130
   6        8.2148
   7        9.5820
   8       11.6330
   9       11.9666
  10       13.7853
  11       14.9148
  12       15.1311
  13       16.1715
  14       16.5558
  15       17.2283
  16       19.7886
 
  0.4615385E+00  0.3076923E+00  0.1538462E+00  0.2184797E-01
   1        0.3752
   2        1.0969
   3        3.9349
   4        4.6266
   5        6.7476
   6        7.4270
   7       10.1638
   8       10.8480
   9       12.5255
  10       13.1588
  11       15.3355
  12       15.8072
  13       15.9265
  14       16.4838
  15       17.9016
  16       19.7691
 
  0.3846154E+00  0.3846154E+00  0.1538462E+00  0.1092399E-01
   1        0.2639
   2        2.4174
   3        2.4174
   4        4.5210
   5        6.6420
   6        8.6924
   7        8.6924
   8       10.7471
   9       12.4429
  10       14.3986
  11       14.3986
  12       16.4149
  13       16.5304
  14       16.5304
  15       17.6730
  16       19.6003
 
  0.4615385E+00  0.3846154E+00  0.1538462E+00  0.2184797E-01
   1        0.8755
   2        1.5942
   3        3.0175
   4        3.7210
   5        7.2171
   6        7.9027
   7        9.2745
   8        9.9600
   9       13.0124
  10       13.6697
  11       14.9983
  12       15.6676
  13       17.0253
  14       17.5449
  15       18.3123
  16       20.0926
 
  0.4615385E+00  0.4615385E+00  0.1538462E+00  0.1092399E-01
   1        1.4841
   2        2.1990
   3        2.1990
   4        2.9092
   5        7.7980
   6        8.4848
   7        8.4848
   8        9.1713
   9       13.5877
  10       14.2520
  11       14.2520
  12       14.9187
  13       18.7260
  14       18.7260
  15       18.7367
  16       19.9946
 
  0.2307692E+00  0.2307692E+00  0.2307692E+00  0.3641329E-02
   1       -1.2502
   2        3.7684
   3        3.7684
   4        3.7684
   5        8.6391
   6        8.6391
   7        8.6391
   8       12.3477
   9       12.3477
  10       12.3477
  11       13.4100
  12       16.3682
  13       16.3682
  14       16.3682
  15       18.0647
  16       18.0647
 
  0.3076923E+00  0.2307692E+00  0.2307692E+00  0.1092399E-01
   1       -0.8560
   2        2.7431
   3        4.1439
   4        4.1439
   5        7.6563
   6        7.6563
   7        9.0176
   8       12.4341
   9       12.7009
  10       12.7009
  11       14.0314
  12       16.0169
  13       16.0169
  14       16.7018
  15       18.4430
  16       19.1650
 
  0.3846154E+00  0.2307692E+00  0.2307692E+00  0.1092399E-01
   1       -0.3508
   2        1.8137
   3        4.6198
   4        4.6198
   5        6.7706
   6        6.7706
   7        9.4975
   8       11.5506
   9       13.1317
  10       13.1317
  11       15.3054
  12       15.3054
  13       15.8019
  14       17.1310
  15       18.9238
  16       18.9915
 
  0.4615385E+00  0.2307692E+00  0.2307692E+00  0.1092399E-01
   1        0.2638
   2        0.9861
   3        5.1618
   4        5.1618
   5        6.0226
   6        6.0226
   7       10.0801
   8       10.7650
   9       13.5613
  10       13.5613
  11       14.7102
  12       14.7102
  13       17.6291
  14       17.6559
  15       18.2764
  16       19.3920
 
  0.3076923E+00  0.3076923E+00  0.2307692E+00  0.1092399E-01
   1       -0.4629
   2        3.1239
   3        3.1239
   4        4.5125
   5        6.6704
   6        8.0298
   7        8.0298
   8       11.4545
   9       13.0749
  10       14.3717
  11       14.3717
  12       16.3783
  13       16.3783
  14       17.0429
  15       18.8749
  16       19.3841
 
  0.3846154E+00  0.3076923E+00  0.2307692E+00  0.2184797E-01
   1        0.0407
   2        2.1982
   3        3.6104
   4        4.9492
   5        5.8157
   6        7.1366
   7        8.5088
   8       10.5677
   9       13.5343
  10       14.7116
  11       15.7606
  12       16.0711
  13       16.8067
  14       16.8947
  15       18.6250
  16       19.9673
 
  0.4615385E+00  0.3076923E+00  0.2307692E+00  0.2184797E-01
   1        0.6535
   2        1.3734
   3        4.1970
   4        4.8487
   5        5.7031
   6        6.3488
   7        9.0924
   8        9.7793
   9       14.0688
  10       14.6067
  11       15.6896
  12       16.1984
  13       17.2129
  14       17.9007
  15       18.1290
  16       19.9267
 
  0.3846154E+00  0.3846154E+00  0.2307692E+00  0.1092399E-01
   1        0.5423
   2        2.6903
   3        2.6903
   4        4.7439
   5        5.5959
   6        7.6141
   7        7.6141
   8        9.6779
   9       14.0093
  10       15.8413
  11       15.8413
  12       16.8452
  13       16.8452
  14       17.8842
  15       17.9118
  16       19.8470
 
  0.4615385E+00  0.3846154E+00  0.2307692E+00  0.2184797E-01
   1        1.1526
   2        1.8695
   3        3.2876
   4        3.9840
   5        6.1362
   6        6.8207
   7        8.1983
   8        8.8870
   9       14.5675
  10       15.1985
  11       16.4982
  12       17.1617
  13       17.2855
  14       17.7914
  15       18.5503
  16       20.3122
 
  0.4615385E+00  0.4615385E+00  0.2307692E+00  0.1092399E-01
   1        1.7597
   2        2.4725
   3        2.4725
   4        3.1796
   5        6.7148
   6        7.4044
   7        7.4044
   8        8.0942
   9       15.1372
  10       15.7856
  11       15.7856
  12       16.4405
  13       18.9649
  14       18.9649
  15       18.9751
  16       20.2304
 
  0.3076923E+00  0.3076923E+00  0.3076923E+00  0.3641329E-02
   1       -0.0710
   2        3.5020
   3        3.5020
   4        3.5020
   5        7.0369
   6        7.0369
   7        7.0369
   8       10.4712
   9       14.7548
  10       14.7548
  11       14.7548
  12       17.3771
  13       17.3771
  14       17.3771
  15       19.2369
  16       19.2369
 
  0.3846154E+00  0.3076923E+00  0.3076923E+00  0.1092399E-01
   1        0.4311
   2        2.5810
   3        3.9816
   4        3.9816
   5        6.1435
   6        6.1435
   7        7.5149
   8        9.5808
   9       15.1968
  10       15.1968
  11       16.5143
  12       17.1630
  13       17.1630
  14       17.8074
  15       19.6738
  16       19.6884
 
  0.4615385E+00  0.3076923E+00  0.3076923E+00  0.1092399E-01
   1        1.0419
   2        1.7594
   3        4.5297
   4        4.5297
   5        5.3876
   6        5.3876
   7        8.0998
   8        8.7892
   9       15.6440
  10       15.6440
  11       16.6344
  12       16.6344
  13       18.3214
  14       18.3337
  15       18.9560
  16       20.0434
 
  0.3846154E+00  0.3846154E+00  0.3076923E+00  0.1092399E-01
   1        0.9311
   2        3.0702
   3        3.0702
   4        4.4232
   5        5.2812
   6        6.6165
   7        6.6165
   8        8.6871
   9       15.6752
  10       16.8864
  11       16.8864
  12       17.6650
  13       17.6650
  14       18.2464
  15       19.3457
  16       20.1785
 
  0.4615385E+00  0.3846154E+00  0.3076923E+00  0.2184797E-01
   1        1.5393
   2        2.2535
   3        3.6605
   4        4.3188
   5        5.1714
   6        5.8238
   7        7.2015
   8        7.8928
   9       16.2119
  10       16.7615
  11       17.6850
  12       18.0090
  13       18.1389
  14       18.6737
  15       18.8711
  16       20.5718
 
  0.4615385E+00  0.4615385E+00  0.3076923E+00  0.1092399E-01
   1        2.1441
   2        2.8534
   3        2.8534
   4        3.5531
   5        5.7167
   6        6.4047
   7        6.4047
   8        7.0964
   9       16.7768
  10       17.3932
  11       17.3932
  12       18.0274
  13       19.2949
  14       19.2949
  15       19.3084
  16       20.5545
 
  0.3846154E+00  0.3846154E+00  0.3846154E+00  0.3641329E-02
   1        1.4290
   2        3.5524
   3        3.5524
   4        3.5524
   5        5.7186
   6        5.7186
   7        5.7186
   8        7.7898
   9       17.4107
  10       17.4107
  11       17.4107
  12       18.6768
  13       18.6768
  14       18.6768
  15       20.5403
  16       20.5491
 
  0.4615385E+00  0.3846154E+00  0.3846154E+00  0.1092399E-01
   1        2.0344