  32  32   0   0
  0.1797740E+02  0.8316851E-09  0.8316851E-09  0.8316851E-09  0.5000000E-15
  1.000000000000000E-004
  CAR 
 unknown system                          
     11.57285120     -4.13538731  301      7.16139323      1.00000000
     -4.135  0.0000E+00  0.0000E+00
     -4.083  0.0000E+00  0.0000E+00
     -4.031  0.0000E+00  0.0000E+00
     -3.978  0.0000E+00  0.0000E+00
     -3.926  0.0000E+00  0.0000E+00
     -3.874  0.0000E+00  0.0000E+00
     -3.821  0.0000E+00  0.0000E+00
     -3.769  0.0000E+00  0.0000E+00
     -3.717  0.0000E+00  0.0000E+00
     -3.664  0.0000E+00  0.0000E+00
     -3.612  0.0000E+00  0.0000E+00
     -3.559  0.0000E+00  0.0000E+00
     -3.507  0.0000E+00  0.0000E+00
     -3.455  0.2166E-06  0.1134E-07
     -3.402  0.1762E+00  0.9226E-02
     -3.350  0.1014E+01  0.6230E-01
     -3.298  0.1652E+01  0.1488E+00
     -3.245  0.1058E+01  0.2042E+00
     -3.193  0.9794E+00  0.2554E+00
     -3.141  0.1005E+01  0.3080E+00
     -3.088  0.4199E+01  0.5279E+00
     -3.036  0.4242E+01  0.7500E+00
     -2.983  0.1797E-06  0.7500E+00
     -2.931  0.2091E+01  0.8595E+00
     -2.879  0.4722E+01  0.1107E+01
     -2.826  0.3108E+01  0.1269E+01
     -2.774  0.2724E+01  0.1412E+01
     -2.722  0.3332E+01  0.1587E+01
     -2.669  0.1369E+01  0.1658E+01
     -2.617  0.4229E+01  0.1880E+01
     -2.565  0.8486E+01  0.2324E+01
     -2.512  0.6967E-03  0.2324E+01
     -2.460  0.1027E+01  0.2378E+01
     -2.407  0.6981E+01  0.2743E+01
     -2.355  0.4632E+01  0.2986E+01
     -2.303  0.3994E+01  0.3195E+01
     -2.250  0.3645E+01  0.3386E+01
     -2.198  0.4143E+01  0.3603E+01
     -2.146  0.8469E+01  0.4046E+01
     -2.093  0.4243E+01  0.4268E+01
     -2.041  0.7926E-03  0.4269E+01
     -1.989  0.4067E+01  0.4481E+01
     -1.936  0.4397E+01  0.4712E+01
     -1.884  0.6992E+01  0.5078E+01
     -1.832  0.7741E+01  0.5483E+01
     -1.779  0.4743E+01  0.5731E+01
     -1.727  0.3368E-01  0.5733E+01
     -1.674  0.1270E+02  0.6398E+01
     -1.622  0.8486E+01  0.6843E+01
     -1.570  0.1196E-02  0.6843E+01
     -1.517  0.2054E+01  0.6950E+01
     -1.465  0.7100E+01  0.7322E+01
     -1.413  0.5911E+01  0.7631E+01
     -1.360  0.5794E+01  0.7935E+01
     -1.308  0.6970E+01  0.8300E+01
     -1.256  0.5084E+01  0.8566E+01
     -1.203  0.4225E+01  0.8787E+01
     -1.151  0.1273E+02  0.9454E+01
     -1.098  0.2882E-03  0.9454E+01
     -1.046  0.4169E+01  0.9672E+01
     -0.994  0.1530E+02  0.1047E+02
     -0.941  0.7332E+01  0.1086E+02
     -0.889  0.4303E+01  0.1108E+02
     -0.837  0.3254E+01  0.1125E+02
     -0.784  0.4049E+01  0.1146E+02
     -0.732  0.1253E+02  0.1212E+02
     -0.680  0.8476E+01  0.1256E+02
     -0.627  0.1515E-05  0.1256E+02
     -0.575  0.1409E+01  0.1264E+02
     -0.522  0.9200E+01  0.1312E+02
     -0.470  0.1273E+02  0.1379E+02
     -0.418  0.7171E+01  0.1416E+02
     -0.365  0.4823E+01  0.1441E+02
     -0.313  0.4048E+01  0.1463E+02
     -0.261  0.1208E+02  0.1526E+02
     -0.208  0.1680E+02  0.1614E+02
     -0.156  0.3130E-03  0.1614E+02
     -0.104  0.8484E+01  0.1658E+02
     -0.051  0.8446E+01  0.1703E+02
      0.001  0.4119E+01  0.1724E+02
      0.053  0.1054E+02  0.1779E+02
      0.106  0.2367E+01  0.1792E+02
      0.158  0.3005E+01  0.1807E+02
      0.211  0.1086E+02  0.1864E+02
      0.263  0.1585E+02  0.1947E+02
      0.315  0.1621E-02  0.1947E+02
      0.368  0.1061E+01  0.1953E+02
      0.420  0.1697E+02  0.2042E+02
      0.472  0.1692E+02  0.2130E+02
      0.525  0.4179E+01  0.2152E+02
      0.577  0.7544E+01  0.2192E+02
      0.629  0.1218E+02  0.2255E+02
      0.682  0.8484E+01  0.2300E+02
      0.734  0.5870E+01  0.2331E+02
      0.787  0.2013E+00  0.2332E+02
      0.839  0.6195E+01  0.2364E+02
      0.891  0.8464E+01  0.2408E+02
      0.944  0.2121E+02  0.2519E+02
      0.996  0.9888E+01  0.2571E+02
      1.048  0.4202E+01  0.2593E+02
      1.101  0.1602E+02  0.2677E+02
      1.153  0.7617E+01  0.2717E+02
      1.205  0.1887E+01  0.2727E+02
      1.258  0.1214E+01  0.2733E+02
      1.310  0.4654E+01  0.2758E+02
      1.362  0.1674E+02  0.2845E+02
      1.415  0.8220E+01  0.2888E+02
      1.467  0.1267E+02  0.2955E+02
      1.520  0.8485E+01  0.2999E+02
      1.572  0.8479E+01  0.3043E+02
      1.624  0.2099E+02  0.3153E+02
      1.677  0.2416E+00  0.3155E+02
      1.729  0.3127E+01  0.3171E+02
      1.781  0.1573E+02  0.3253E+02
      1.834  0.1733E+02  0.3344E+02
      1.886  0.1674E+02  0.3432E+02
      1.938  0.6489E+01  0.3466E+02
      1.991  0.3017E-01  0.3466E+02
      2.043  0.8482E+01  0.3510E+02
      2.096  0.1695E+02  0.3599E+02
      2.148  0.8964E-03  0.3599E+02
      2.200  0.4220E+01  0.3621E+02
      2.253  0.8212E+01  0.3664E+02
      2.305  0.1759E+02  0.3756E+02
      2.357  0.1041E+02  0.3811E+02
      2.410  0.6899E+01  0.3847E+02
      2.462  0.1185E+02  0.3909E+02
      2.514  0.2342E+02  0.4032E+02
      2.567  0.5461E+01  0.4060E+02
      2.619  0.8262E+00  0.4065E+02
      2.672  0.1243E+02  0.4130E+02
      2.724  0.1645E+02  0.4216E+02
      2.776  0.1273E+02  0.4282E+02
      2.829  0.1265E+02  0.4349E+02
      2.881  0.5482E+01  0.4377E+02
      2.933  0.1159E+02  0.4438E+02
      2.986  0.2127E+02  0.4549E+02
      3.038  0.5593E+01  0.4579E+02
      3.090  0.8862E-10  0.4579E+02
      3.143  0.7114E+01  0.4616E+02
      3.195  0.1009E+02  0.4669E+02
      3.247  0.1684E+02  0.4757E+02
      3.300  0.8838E+01  0.4803E+02
      3.352  0.1252E+02  0.4869E+02
      3.405  0.2101E+02  0.4979E+02
      3.457  0.1270E+02  0.5045E+02
      3.509  0.8441E-02  0.5045E+02
      3.562  0.9463E+01  0.5095E+02
      3.614  0.1354E+02  0.5166E+02
      3.666  0.1480E+02  0.5243E+02
      3.719  0.1064E+02  0.5299E+02
      3.771  0.4388E+01  0.5322E+02
      3.823  0.1307E+02  0.5390E+02
      3.876  0.2718E+02  0.5533E+02
      3.928  0.9830E+01  0.5584E+02
      3.981  0.2103E-01  0.5584E+02
      4.033  0.6614E+01  0.5619E+02
      4.085  0.2519E+02  0.5751E+02
      4.138  0.1274E+02  0.5818E+02
      4.190  0.1316E+02  0.5886E+02
      4.242  0.4280E+01  0.5909E+02
      4.295  0.1923E+02  0.6010E+02
      4.347  0.1150E+02  0.6070E+02
      4.399  0.1126E+02  0.6129E+02
      4.452  0.6718E+01  0.6164E+02
      4.504  0.1791E+02  0.6258E+02
      4.557  0.1471E+02  0.6335E+02
      4.609  0.1219E+02  0.6399E+02
      4.661  0.1491E+02  0.6477E+02
      4.714  0.1702E+02  0.6566E+02
      4.766  0.8319E+01  0.6609E+02
      4.818  0.8479E+01  0.6654E+02
      4.871  0.2085E+01  0.6665E+02
      4.923  0.6072E+01  0.6696E+02
      4.975  0.2952E+02  0.6851E+02
      5.028  0.1750E+02  0.6943E+02
      5.080  0.8857E+01  0.6989E+02
      5.132  0.3486E+01  0.7007E+02
      5.185  0.1728E+02  0.7098E+02
      5.237  0.1759E+02  0.7190E+02
      5.290  0.9759E+01  0.7241E+02
      5.342  0.5103E+01  0.7268E+02
      5.394  0.1510E+02  0.7347E+02
      5.447  0.1771E+02  0.7439E+02
      5.499  0.1692E+02  0.7528E+02
      5.551  0.1322E+02  0.7597E+02
      5.604  0.1012E+02  0.7650E+02
      5.656  0.2581E+01  0.7664E+02
      5.708  0.1277E+02  0.7731E+02
      5.761  0.3777E+00  0.7733E+02
      5.813  0.1659E+02  0.7819E+02
      5.866  0.2971E+02  0.7975E+02
      5.918  0.6691E+01  0.8010E+02
      5.970  0.6465E+01  0.8044E+02
      6.023  0.1210E+02  0.8107E+02
      6.075  0.1982E+02  0.8211E+02
      6.127  0.1662E+02  0.8298E+02
      6.180  0.1406E+02  0.8372E+02
      6.232  0.1731E+01  0.8381E+02
      6.284  0.1241E+02  0.8446E+02
      6.337  0.7791E+01  0.8486E+02
      6.389  0.2148E+02  0.8599E+02
      6.441  0.6397E+01  0.8632E+02
      6.494  0.1885E+02  0.8731E+02
      6.546  0.2226E+02  0.8848E+02
      6.599  0.1423E+02  0.8922E+02
      6.651  0.9034E+01  0.8969E+02
      6.703  0.5280E+01  0.8997E+02
      6.756  0.7738E+01  0.9038E+02
      6.808  0.2079E+02  0.9146E+02
      6.860  0.4494E+01  0.9170E+02
      6.913  0.1300E+02  0.9238E+02
      6.965  0.1108E+02  0.9296E+02
      7.017  0.3618E+02  0.9486E+02
      7.070  0.1064E+02  0.9541E+02
      7.122  0.5197E+01  0.9568E+02
      7.175  0.1565E+02  0.9650E+02
      7.227  0.3311E+02  0.9824E+02
      7.279  0.1070E+02  0.9880E+02
      7.332  0.8333E+01  0.9923E+02
      7.384  0.1151E+02  0.9984E+02
      7.436  0.1430E+02  0.1006E+03
      7.489  0.1581E+02  0.1014E+03
      7.541  0.1036E+02  0.1020E+03
      7.593  0.4653E+01  0.1022E+03
      7.646  0.2037E+02  0.1033E+03
      7.698  0.1395E+02  0.1040E+03
      7.751  0.9451E+01  0.1045E+03
      7.803  0.5300E+01  0.1048E+03
      7.855  0.9665E+01  0.1053E+03
      7.908  0.1179E+02  0.1059E+03
      7.960  0.1942E+02  0.1069E+03
      8.012  0.1991E+02  0.1080E+03
      8.065  0.2283E+02  0.1091E+03
      8.117  0.1215E+02  0.1098E+03
      8.169  0.2375E+02  0.1110E+03
      8.222  0.8862E+01  0.1115E+03
      8.274  0.1142E+02  0.1121E+03
      8.326  0.1805E+02  0.1130E+03
      8.379  0.1187E+02  0.1137E+03
      8.431  0.1134E+02  0.1142E+03
      8.484  0.2218E+02  0.1154E+03
      8.536  0.2231E+02  0.1166E+03
      8.588  0.2798E+02  0.1180E+03
      8.641  0.1059E+01  0.1181E+03
      8.693  0.3833E+01  0.1183E+03
      8.745  0.1784E+02  0.1192E+03
      8.798  0.1131E+02  0.1198E+03
      8.850  0.2049E+02  0.1209E+03
      8.902  0.7016E+01  0.1213E+03
      8.955  0.1713E+02  0.1222E+03
      9.007  0.1723E+02  0.1231E+03
      9.060  0.1661E+02  0.1239E+03
      9.112  0.1748E+02  0.1249E+03
      9.164  0.1313E+02  0.1255E+03
      9.217  0.8673E+01  0.1260E+03
      9.269  0.1150E+02  0.1266E+03
      9.321  0.1134E+02  0.1272E+03
      9.374  0.3295E+02  0.1289E+03
      9.426  0.1944E+02  0.1299E+03
      9.478  0.1734E+02  0.1308E+03
      9.531  0.7703E+00  0.1309E+03
      9.583  0.1866E+02  0.1319E+03
      9.636  0.1657E+02  0.1327E+03
      9.688  0.1616E+02  0.1336E+03
      9.740  0.6874E+01  0.1339E+03
      9.793  0.1845E+02  0.1349E+03
      9.845  0.7895E+01  0.1353E+03
      9.897  0.2096E+02  0.1364E+03
      9.950  0.6363E+01  0.1367E+03
     10.002  0.1727E+02  0.1376E+03
     10.054  0.2244E+02  0.1388E+03
     10.107  0.1443E+02  0.1396E+03
     10.159  0.2952E+02  0.1411E+03
     10.211  0.1651E+00  0.1411E+03
     10.264  0.8257E+01  0.1416E+03
     10.316  0.1707E+02  0.1425E+03
     10.369  0.1359E+00  0.1425E+03
     10.421  0.2452E+01  0.1426E+03
     10.473  0.1170E+02  0.1432E+03
     10.526  0.8486E+01  0.1436E+03
     10.578  0.1362E+01  0.1437E+03
     10.630  0.5343E-01  0.1437E+03
     10.683  0.3429E-07  0.1437E+03
     10.735  0.3373E+01  0.1439E+03
     10.787  0.8708E+00  0.1439E+03
     10.840  0.5955E-02  0.1439E+03
     10.892  0.1055E+01  0.1440E+03
     10.945  0.0000E+00  0.1440E+03
     10.997  0.0000E+00  0.1440E+03
     11.049  0.0000E+00  0.1440E+03
     11.102  0.0000E+00  0.1440E+03
     11.154  0.0000E+00  0.1440E+03
     11.206  0.0000E+00  0.1440E+03
     11.259  0.0000E+00  0.1440E+03
     11.311  0.0000E+00  0.1440E+03
     11.363  0.0000E+00  0.1440E+03
     11.416  0.0000E+00  0.1440E+03
     11.468  0.0000E+00  0.1440E+03
     11.520  0.0000E+00  0.1440E+03
     11.573  0.0000E+00  0.1440E+03
