   32   32    1    1
  0.1797740E+02  0.8316851E-09  0.8316851E-09  0.8316851E-09  0.5000000E-15
  1.000000000000000E-004
  CAR 
 unknown system                          
   96   40   72
 
  0.0000000E+00  0.0000000E+00  0.0000000E+00  0.4629630E-02
   1       -3.4214
   2       -1.2991
   3       -1.2957
   4       -1.2957
   5       -1.2957
   6       -1.2957
   7       -1.2922
   8        0.7952
   9        0.7995
  10        0.7995
  11        0.8010
  12        0.8011
  13        0.8012
  14        0.8012
  15        0.8012
  16        0.8013
  17        0.8028
  18        0.8028
  19        0.8072
  20        2.8643
  21        2.8646
  22        2.8646
  23        2.8648
  24        2.8781
  25        2.8782
  26        2.8782
  27        2.8786
  28        4.4170
  29        4.4170
  30        4.4171
  31        5.5340
  32        5.5341
  33        5.5341
  34        6.3924
  35        6.3924
  36        6.3965
  37        6.3965
  38        6.3965
  39        6.3965
  40        6.3965
  41        6.3965
  42        6.3966
  43        6.3966
  44        6.4007
  45        6.4007
  46        7.4449
  47        7.4487
  48        7.4487
  49        7.4488
  50        7.4488
  51        7.4525
  52        7.7802
  53        7.7811
  54        7.7811
  55        7.7811
  56        7.7811
  57        7.7819
  58        8.3748
  59        8.3748
  60        8.3766
  61        8.3786
  62        8.3787
  63        8.3787
  64        8.3787
  65        8.3788
  66        8.3789
  67        8.3809
  68        8.3827
  69        8.3827
  70        9.6251
  71        9.6271
  72        9.6282
 
  0.1666667E+00  0.0000000E+00  0.0000000E+00  0.9259259E-02
   1       -3.3619
   2       -1.9420
   3       -1.2371
   4       -1.2371
   5       -1.2371
   6       -1.2371
   7       -0.5355
   8        0.1634
   9        0.1634
  10        0.1634
  11        0.1634
  12        0.8590
  13        0.8590
  14        0.8590
  15        0.8590
  16        1.5512
  17        1.5512
  18        1.5512
  19        1.5512
  20        2.2416
  21        2.2416
  22        2.2416
  23        2.2416
  24        3.5516
  25        3.6124
  26        3.6124
  27        3.6124
  28        3.6124
  29        4.4719
  30        4.4719
  31        5.5721
  32        5.5723
  33        5.5723
  34        5.5723
  35        5.5925
  36        5.5927
  37        5.7911
  38        5.7911
  39        6.4515
  40        6.4515
  41        6.4515
  42        6.4515
  43        6.5037
  44        6.9684
  45        6.9684
  46        7.1126
  47        7.1126
  48        7.5812
  49        7.5812
  50        7.5812
  51        7.5813
  52        7.6515
  53        7.6515
  54        7.6515
  55        7.6515
  56        7.7728
  57        7.7728
  58        7.7728
  59        7.7728
  60        8.3648
  61        8.3648
  62        8.5609
  63        8.5609
  64        8.5609
  65        8.5609
  66        9.0191
  67        9.0192
  68        9.0192
  69        9.0193
  70        9.0950
  71        9.0950
  72        9.0950
 
  0.3333333E+00  0.0000000E+00  0.0000000E+00  0.9259259E-02
   1       -3.1837
   2       -2.4730
   3       -1.0614
   4       -1.0613
   5       -1.0613
   6       -1.0613
   7       -0.3603
   8       -0.3603
   9       -0.3603
  10       -0.3603
  11        0.3362
  12        1.0324
  13        1.0324
  14        1.0324
  15        1.0324
  16        1.7244
  17        1.7245
  18        1.7245
  19        1.7245
  20        2.3969
  21        2.4113
  22        2.4113
  23        2.4113
  24        2.4114
  25        4.4419
  26        4.4419
  27        4.4419
  28        4.4419
  29        4.4621
  30        4.4621
  31        4.4621
  32        4.4621
  33        4.6367
  34        4.6367
  35        5.2961
  36        5.2961
  37        5.7673
  38        5.7673
  39        6.4597
  40        6.4602
  41        6.4678
  42        6.4678
  43        6.4678
  44        6.4683
  45        6.6166
  46        6.6166
  47        6.6166
  48        6.6166
  49        7.2772
  50        7.2772
  51        7.2772
  52        7.2772
  53        7.8352
  54        7.8352
  55        7.8352
  56        7.8352
  57        7.9395
  58        7.9395
  59        7.9707
  60        8.5158
  61        8.5158
  62        8.5158
  63        8.5159
  64        9.1797
  65        9.1797
  66        9.9211
  67        9.9214
  68        9.9219
  69        9.9231
  70        9.9268
  71        9.9283
  72        9.9806
 
  0.5000000E+00  0.0000000E+00  0.0000000E+00  0.4629630E-02
   1       -2.8885
   2       -2.8858
   3       -0.7727
   4       -0.7697
   5       -0.7697
   6       -0.7689
   7       -0.7688
   8       -0.7681
   9       -0.7681
  10       -0.7651
  11        1.3136
  12        1.3162
  13        1.3199
  14        1.3199
  15        1.3199
  16        1.3207
  17        1.3215
  18        1.3223
  19        1.3223
  20        1.3248
  21        3.3765
  22        3.3769
  23        3.3769
  24        3.3775
  25        3.3778
  26        3.3784
  27        3.3784
  28        3.3789
  29        4.9099
  30        4.9099
  31        4.9128
  32        4.9128
  33        5.4157
  34        5.4157
  35        5.4164
  36        5.4165
  37        5.4171
  38        5.4173
  39        5.4180
  40        5.4180
  41        6.0557
  42        6.0566
  43        6.0584
  44        6.0592
  45        6.8896
  46        6.8896
  47        6.8905
  48        6.8917
  49        6.8919
  50        6.8931
  51        6.8941
  52        6.8941
  53        8.1186
  54        8.1197
  55        8.1197
  56        8.1199
  57        8.1217
  58        8.1219
  59        8.1219
  60        8.1230
  61        8.8763
  62        8.8763
  63        8.8786
  64        8.8786
  65        9.5704
  66        9.5719
  67       10.0795
  68       10.0801
  69       10.0812
  70       10.0818
  71       10.8573
  72       10.8586
 
  0.0000000E+00  0.1666667E+00  0.0000000E+00  0.1851852E-01
   1       -3.3619
   2       -1.9420
   3       -1.2398
   4       -1.2371
   5       -1.2371
   6       -1.2344
   7       -0.5355
   8        0.1607
   9        0.1634
  10        0.1634
  11        0.1661
  12        0.8569
  13        0.8579
  14        0.8601
  15        0.8612
  16        1.5485
  17        1.5512
  18        1.5512
  19        1.5539
  20        2.2394
  21        2.2405
  22        2.2427
  23        2.2437
  24        3.5516
  25        3.6102
  26        3.6113
  27        3.6135
  28        3.6146
  29        4.4719
  30        4.4720
  31        5.5694
  32        5.5723
  33        5.5723
  34        5.5751
  35        5.5925
  36        5.5925
  37        5.7911
  38        5.7911
  39        6.4490
  40        6.4515
  41        6.4515
  42        6.4541
  43        6.5037
  44        6.9683
  45        6.9684
  46        7.1126
  47        7.1126
  48        7.5788
  49        7.5802
  50        7.5823
  51        7.5837
  52        7.6493
  53        7.6515
  54        7.6515
  55        7.6536
  56        7.7702
  57        7.7728
  58        7.7729
  59        7.7754
  60        8.3648
  61        8.3648
  62        8.5587
  63        8.5609
  64        8.5609
  65        8.5632
  66        9.0172
  67        9.0192
  68        9.0192
  69        9.0212
  70        9.0926
  71        9.0950
  72        9.0966
 
  0.1666667E+00  0.1666667E+00  0.0000000E+00  0.3703704E-01
   1       -3.3025
   2       -1.8843
   3       -1.8821
   4       -1.1785
   5       -1.1785
   6       -0.4788
   7       -0.4771
   8       -0.4754
   9        0.2200
  10        0.2209
  11        0.2221
  12        0.2230
  13        0.9160
  14        0.9171
  15        1.6066
  16        1.6078
  17        1.6090
  18        1.6091
  19        1.6102
  20        1.6114
  21        2.2977
  22        2.9819
  23        2.9819
  24        2.9887
  25        2.9887
  26        3.6075
  27        3.6085
  28        4.3501
  29        4.3501
  30        4.5269
  31        4.9562
  32        4.9584
  33        5.5942
  34        5.5942
  35        5.6508
  36        5.6649
  37        5.6650
  38        5.8449
  39        5.8473
  40        6.2919
  41        6.2933
  42        6.5600
  43        6.5610
  44        6.9682
  45        6.9692
  46        6.9705
  47        6.9714
  48        7.0443
  49        7.0459
  50        7.1653
  51        7.1674
  52        7.1696
  53        7.8826
  54        7.8844
  55        8.3004
  56        8.3015
  57        8.3016
  58        8.3026
  59        8.4056
  60        8.4417
  61        8.4428
  62        8.4725
  63        8.4726
  64        8.4883
  65        8.4902
  66        8.7178
  67        8.7178
  68        9.2639
  69        9.2660
  70        9.7337
  71        9.7339
  72        9.8108
 
  0.3333333E+00  0.1666667E+00  0.0000000E+00  0.3703704E-01
   1       -3.1244
   2       -2.4139
   3       -1.7067
   4       -1.0041
   5       -1.0028
   6       -1.0014
   7       -0.3036
   8       -0.3021
   9       -0.3008
  10        0.3929
  11        0.3953
  12        0.3956
  13        0.3970
  14        1.0903
  15        1.0903
  16        1.7799
  17        1.7815
  18        1.7817
  19        2.4540
  20        2.4677
  21        2.4683
  22        2.4707
  23        2.4714
  24        3.1537
  25        3.7771
  26        3.8198
  27        3.8381
  28        3.8382
  29        4.4524
  30        4.4982
  31        4.4982
  32        4.6916
  33        5.1733
  34        5.1963
  35        5.1963
  36        5.3511
  37        5.7987
  38        5.7988
  39        5.8254
  40        5.8515
  41        5.8515
  42        6.0111
  43        6.4684
  44        6.4684
  45        6.5118
  46        6.6714
  47        6.7307
  48        7.1458
  49        7.1932
  50        7.1933
  51        7.2156
  52        7.3328
  53        7.4050
  54        7.8984
  55        7.9924
  56        7.9957
  57        8.0265
  58        8.5484
  59        8.7519
  60        8.7519
  61        9.1140
  62        9.1289
  63        9.1289
  64        9.2346
  65        9.2378
  66        9.3160
  67        9.3902
  68        9.4250
  69        9.4250
  70        9.9814
  71       10.0383
  72       10.0474
 
  0.5000000E+00  0.1666667E+00  0.0000000E+00  0.1851852E-01
   1       -2.8293
   2       -2.8266
   3       -1.4144
   4       -1.4117
   5       -0.7124
   6       -0.7113
   7       -0.7096
   8       -0.7085
   9       -0.0127
  10       -0.0099
  11        0.6835
  12        0.6846
  13        0.6862
  14        0.6873
  15        1.3730
  16        1.3744
  17        2.0669
  18        2.0680
  19        2.0697
  20        2.0708
  21        2.7498
  22        2.7513
  23        3.4338
  24        3.4339
  25        3.4353
  26        3.4354
  27        4.0573
  28        4.0602
  29        4.1145
  30        4.1160
  31        4.7956
  32        4.7957
  33        4.7971
  34        4.7972
  35        4.9649
  36        4.9678
  37        6.0758
  38        6.0770
  39        6.0786
  40        6.0798
  41        6.1133
  42        6.1160
  43        6.1461
  44        6.1463
  45        6.1477
  46        6.1477
  47        6.2847
  48        6.2876
  49        7.0118
  50        7.0146
  51        7.4996
  52        7.5022
  53        7.6066
  54        7.6096
  55        8.0769
  56        8.0787
  57        8.8407
  58        8.8434
  59        8.9313
  60        8.9336
  61        9.0336
  62        9.0344
  63        9.0364
  64        9.0372
  65        9.6251
  66        9.6267
  67       10.0591
  68       10.0594
  69       10.0610
  70       10.0612
  71       10.1356
  72       10.1362
 
  0.0000000E+00  0.3333333E+00  0.0000000E+00  0.1851852E-01
   1       -3.1837
   2       -2.4730
   3       -1.0640
   4       -1.0613
   5       -1.0613
   6       -1.0586
   7       -0.3630
   8       -0.3603
   9       -0.3603
  10       -0.3576
  11        0.3362
  12        1.0303
  13        1.0314
  14        1.0335
  15        1.0346
  16        1.7223
  17        1.7234
  18        1.7255
  19        1.7266
  20        2.3970
  21        2.4086
  22        2.4113
  23        2.4113
  24        2.4140
  25        4.4391
  26        4.4419
  27        4.4419
  28        4.4447
  29        4.4599
  30        4.4610
  31        4.4632
  32        4.4643
  33        4.6367
  34        4.6367
  35        5.2961
  36        5.2961
  37        5.7673
  38        5.7674
  39        6.4597
  40        6.4602
  41        6.4658
  42        6.4667
  43        6.4689
  44        6.4702
  45        6.6141
  46        6.6166
  47        6.6167
  48        6.6192
  49        7.2746
  50        7.2772
  51        7.2772
  52        7.2798
  53        7.8332
  54        7.8352
  55        7.8352
  56        7.8372
  57        7.9395
  58        7.9395
  59        7.9708
  60        8.5138
  61        8.5158
  62        8.5158
  63        8.5178
  64        9.1797
  65        9.1797
  66        9.9200
  67        9.9215
  68        9.9225
  69        9.9241
  70        9.9265
  71        9.9271
  72        9.9817
 
  0.1666667E+00  0.3333333E+00  0.0000000E+00  0.3703704E-01
   1       -3.1244
   2       -2.4139
   3       -1.7067
   4       -1.0041
   5       -1.0028
   6       -1.0014
   7       -0.3036
   8       -0.3021
   9       -0.3008
  10        0.3930
  11        0.3948
  12        0.3956
  13        0.3973
  14        1.0903
  15        1.0903
  16        1.7792
  17        1.7815
  18        1.7824
  19        2.4540
  20        2.4684
  21        2.4685
  22        2.4705
  23        2.4707
  24        3.1537
  25        3.7771
  26        3.8198
  27        3.8381
  28        3.8382
  29        4.4523
  30        4.4982
  31        4.4983
  32        4.6916
  33        5.1733
  34        5.1963
  35        5.1963
  36        5.3511
  37        5.7987
  38        5.7988
  39        5.8255
  40        5.8515
  41        5.8515
  42        6.0111
  43        6.4684
  44        6.4684
  45        6.5118
  46        6.6714
  47        6.7307
  48        7.1458
  49        7.1933
  50        7.1933
  51        7.2156
  52        7.3328
  53        7.4050
  54        7.8984
  55        7.9931
  56        7.9950
  57        8.0265
  58        8.5484
  59        8.7519
  60        8.7520
  61        9.1140
  62        9.1289
  63        9.1289
  64        9.2349
  65        9.2375
  66        9.3160
  67        9.3902
  68        9.4250
  69        9.4250
  70        9.9815
  71       10.0383
  72       10.0389
 
  0.3333333E+00  0.3333333E+00  0.0000000E+00  0.3703704E-01
   1       -2.9465
   2       -2.2379
   3       -2.2357
   4       -1.5305
   5       -0.8273
   6       -0.8273
   7       -0.1289
   8       -0.1280
   9       -0.1267
  10       -0.1258
  11        0.5665
  12        0.5685
  13        0.5695
  14        0.5707
  15        1.2612
  16        1.2623
  17        2.6248
  18        2.6258
  19        2.6389
  20        2.6397
  21        2.6410
  22        2.6420
  23        3.3078
  24        3.3100
  25        3.3200
  26        3.3201
  27        3.3317
  28        3.3318
  29        4.0049
  30        4.6367
  31        4.6367
  32        4.7010
  33        4.7010
  34        4.8564
  35        5.3441
  36        5.3450
  37        5.3463
  38        5.3472
  39        5.5148
  40        5.5172
  41        5.9987
  42        6.0062
  43        6.0075
  44        6.0383
  45        6.0383
  46        6.1760
  47        6.7074
  48        6.7090
  49        7.3881
  50        8.0087
  51        8.0246
  52        8.0256
  53        8.0257
  54        8.0267
  55        8.1586
  56        8.1610
  57        8.1929
  58        8.1941
  59        8.8196
  60        8.8215
  61        8.8364
  62        8.8381
  63        9.4235
  64        9.4247
  65        9.9919
  66        9.9919
  67       10.0466
  68       10.0468
  69       10.0919
  70       10.0919
  71       10.1455
  72       10.1475
 
  0.5000000E+00  0.3333333E+00  0.0000000E+00  0.1851852E-01
   1       -2.6518
   2       -2.6490
   3       -1.9435
   4       -1.9407
   5       -0.5373
   6       -0.5361
   7       -0.5345
   8       -0.5334
   9        0.1614
  10        0.1626
  11        0.1642
  12        0.1653
  13        0.8561
  14        0.8588
  15        1.5457
  16        1.5472
  17        2.2348
  18        2.2363
  19        2.9091
  20        2.9119
  21        2.9243
  22        2.9255
  23        2.9271
  24        2.9282
  25        3.6045
  26        3.6046
  27        3.6059
  28        3.6060
  29        4.2864
  30        4.2865
  31        4.2879
  32        4.2879
  33        4.9496
  34        4.9508
  35        4.9524
  36        4.9535
  37        4.9597
  38        4.9612
  39        5.1297
  40        5.1326
  41        5.7895
  42        5.7924
  43        6.2803
  44        6.2829
  45        6.9739
  46        6.9755
  47        6.9835
  48        6.9836
  49        6.9851
  50        6.9851
  51        6.9878
  52        6.9903
  53        8.4336
  54        8.4366
  55        8.4681
  56        8.4709
  57        8.9604
  58        8.9605
  59        8.9621
  60        8.9621
  61        9.0965
  62        9.0988
  63        9.6476
  64        9.6505
  65        9.7570
  66        9.7594
  67        9.7881
  68        9.7896
  69       10.3019
  70       10.3025
  71       10.4239
  72       10.4265
 
  0.0000000E+00  0.5000000E+00  0.0000000E+00  0.9259259E-02
   1       -2.8872
   2       -2.8872
   3       -0.7738
   4       -0.7693
   5       -0.7689
   6       -0.7689
   7       -0.7689
   8       -0.7689
   9       -0.7684
  10       -0.7639
  11        1.3144
  12        1.3159
  13        1.3186
  14        1.3192
  15        1.3207
  16        1.3209
  17        1.3213
  18        1.3218
  19        1.3230
  20        1.3253
  21        3.3747
  22        3.3751
  23        3.3777
  24        3.3777
  25        3.3777
  26        3.3777
  27        3.3802
  28        3.3806
  29        4.9113
  30        4.9114
  31        4.9114
  32        4.9114
  33        5.4140
  34        5.4152
  35        5.4156
  36        5.4159
  37        5.4178
  38        5.4181
  39        5.4185
  40        5.4196
  41        6.0574
  42        6.0575
  43        6.0575
  44        6.0575
  45        6.8871
  46        6.8914
  47        6.8918
  48        6.8918
  49        6.8918
  50        6.8919
  51        6.8922
  52        6.8966
  53        8.1171
  54        8.1203
  55        8.1208
  56        8.1208
  57        8.1208
  58        8.1208
  59        8.1213
  60        8.1245
  61        8.8774
  62        8.8774
  63        8.8774
  64        8.8774
  65        9.5712
  66        9.5712
  67       10.0806
  68       10.0806
  69       10.0807
  70       10.0807
  71       10.8568
  72       10.8588
 
  0.1666667E+00  0.5000000E+00  0.0000000E+00  0.1851852E-01
   1       -2.8279
   2       -2.8279
   3       -1.4130
   4       -1.4130
   5       -0.7105
   6       -0.7105
   7       -0.7105
   8       -0.7105
   9       -0.0113
  10       -0.0113
  11        0.6854
  12        0.6854
  13        0.6854
  14        0.6854
  15        1.3737
  16        1.3737
  17        2.0689
  18        2.0689
  19        2.0689
  20        2.0689
  21        2.7505
  22        2.7505
  23        3.4346
  24        3.4346
  25        3.4346
  26        3.4346
  27        4.0588
  28        4.0588
  29        4.1153
  30        4.1153
  31        4.7964
  32        4.7964
  33        4.7964
  34        4.7964
  35        4.9663
  36        4.9663
  37        6.0777
  38        6.0778
  39        6.0778
  40        6.0778
  41        6.1147
  42        6.1148
  43        6.1469
  44        6.1469
  45        6.1469
  46        6.1470
  47        6.2862
  48        6.2862
  49        7.0132
  50        7.0132
  51        7.5009
  52        7.5009
  53        7.6081
  54        7.6081
  55        8.0778
  56        8.0778
  57        8.8420
  58        8.8420
  59        8.9325
  60        8.9325
  61        9.0354
  62        9.0354
  63        9.0354
  64        9.0354
  65        9.6259
  66        9.6259
  67       10.0601
  68       10.0602
  69       10.0602
  70       10.0602
  71       10.1359
  72       10.1360
 
  0.3333333E+00  0.5000000E+00  0.0000000E+00  0.1851852E-01
   1       -2.6504
   2       -2.6504
   3       -1.9421
   4       -1.9421
   5       -0.5354
   6       -0.5353
   7       -0.5353
   8       -0.5353
   9        0.1634
  10        0.1634
  11        0.1634
  12        0.1634
  13        0.8575
  14        0.8575
  15        1.5464
  16        1.5464
  17        2.2356
  18        2.2356
  19        2.9105
  20        2.9105
  21        2.9263
  22        2.9263
  23        2.9263
  24        2.9264
  25        3.6052
  26        3.6052
  27        3.6052
  28        3.6052
  29        4.2872
  30        4.2872
  31        4.2872
  32        4.2872
  33        4.9516
  34        4.9516
  35        4.9516
  36        4.9516
  37        4.9605
  38        4.9605
  39        5.1312
  40        5.1312
  41        5.7909
  42        5.7909
  43        6.2816
  44        6.2816
  45        6.9746
  46        6.9747
  47        6.9842
  48        6.9843
  49        6.9843
  50        6.9844
  51        6.9891
  52        6.9892
  53        8.4351
  54        8.4351
  55        8.4695
  56        8.4695
  57        8.9612
  58        8.9613
  59        8.9613
  60        8.9613
  61        9.0977
  62        9.0977
  63        9.6491
  64        9.6491
  65        9.7582
  66        9.7582
  67        9.7888
  68        9.7888
  69       10.3022
  70       10.3025
  71       10.4239
  72       10.4368
 
  0.5000000E+00  0.5000000E+00  0.0000000E+00  0.9259259E-02
   1       -2.3573
   2       -2.3552
   3       -2.3546
   4       -2.3524
   5       -0.2473
   6       -0.2453
   7       -0.2442
   8       -0.2440
   9       -0.2437
  10       -0.2435
  11       -0.2424
  12       -0.2404
  13        1.8301
  14        1.8320
  15        1.8336
  16        1.8339
  17        1.8340
  18        1.8342
  19        1.8358
  20        1.8378
  21        3.8682
  22        3.8696
  23        3.8704
  24        3.8708
  25        3.8709
  26        3.8714
  27        3.8721
  28        3.8734
  29        3.9072
  30        3.9072
  31        3.9081
  32        3.9089
  33        3.9089
  34        3.9098
  35        3.9108
  36        3.9110
  37        5.4033
  38        5.4057
  39        5.4062
  40        5.4087
  41        5.9029
  42        5.9042
  43        5.9042
  44        5.9055
  45        6.5920
  46        6.5936
  47        6.5945
  48        6.5960
  49        7.9235
  50        7.9245
  51        7.9246
  52        7.9250
  53        7.9256
  54        7.9261
  55        7.9262
  56        7.9272
  57        9.3676
  58        9.3714
  59        9.3727
  60        9.3729
  61        9.3730
  62        9.3732
  63        9.3745
  64        9.3783
  65       10.0424
  66       10.0435
  67       10.0447
  68       10.0451
  69       10.0454
  70       10.0459
  71       10.0470
  72       10.0481
 
  0.0000000E+00  0.1666667E+00  0.1666667E+00  0.1851852E-01
   1       -3.3025
   2       -1.8832
   3       -1.8832
   4       -1.1801
   5       -1.1769
   6       -0.4772
   7       -0.4772
   8       -0.4769
   9        0.2189
  10        0.2209
  11        0.2221
  12        0.2241
  13        0.9165
  14        0.9165
  15        1.6060
  16        1.6080
  17        1.6082
  18        1.6094
  19        1.6106
  20        1.6118
  21        2.2977
  22        2.9815
  23        2.9816
  24        2.9890
  25        2.9890
  26        3.6080
  27        3.6080
  28        4.3485
  29        4.3518
  30        4.5269
  31        4.9573
  32        4.9573
  33        5.5941
  34        5.5942
  35        5.6508
  36        5.6650
  37        5.6650
  38        5.8461
  39        5.8461
  40        6.2926
  41        6.2926
  42        6.5605
  43        6.5605
  44        6.9671
  45        6.9691
  46        6.9706
  47        6.9726
  48        7.0451
  49        7.0451
  50        7.1669
  51        7.1677
  52        7.1677
  53        7.8835
  54        7.8835
  55        8.2994
  56        8.3002
  57        8.3029
  58        8.3037
  59        8.4056
  60        8.4422
  61        8.4423
  62        8.4724
  63        8.4726
  64        8.4892
  65        8.4893
  66        8.7178
  67        8.7178
  68        9.2649
  69        9.2649
  70        9.7338
  71        9.7338
  72        9.8111
 
  0.1666667E+00  0.1666667E+00  0.1666667E+00  0.3703704E-01
   1       -3.2431
   2       -1.8259
   3       -1.8243
   4       -1.8228
   5       -0.4220
   6       -0.4192
   7       -0.4190
   8       -0.4185
   9       -0.4183
  10       -0.4155
  11        0.9712
  12        0.9733
  13        0.9740
  14        0.9743
  15        0.9749
  16        0.9753
  17        0.9777
  18        2.3529
  19        2.3545
  20        2.3552
  21        2.3560
  22        2.3564
  23        2.3579
  24        3.6637
  25        3.6644
  26        3.6651
  27        3.7249
  28        3.7257
  29        3.7265
  30        5.0104
  31        5.0119
  32        5.0131
  33        5.0131
  34        5.0143
  35        5.0158
  36        5.0848
  37        6.3529
  38        6.3529
  39        6.3546
  40        6.3548
  41        6.3555
  42        6.3559
  43        6.3564
  44        6.3579
  45        6.3592
  46        6.6166
  47        6.6173
  48        6.6180
  49        7.6899
  50        7.6907
  51        7.6918
  52        7.6918
  53        7.6928
  54        7.6936
  55        7.9697
  56        7.9701
  57        7.9712
  58        7.9712
  59        7.9723
  60        7.9727
  61        9.0189
  62        9.0197
  63        9.0205
  64        9.3155
  65        9.3160
  66        9.3169
  67        9.3211
  68        9.3227
  69        9.3233
  70        9.3234
  71        9.3242
  72        9.3257
 
  0.3333333E+00  0.1666667E+00  0.1666667E+00  0.3703704E-01
   1       -3.0651
   2       -2.3549
   3       -1.6480
   4       -1.6479
   5       -0.9443
   6       -0.9443
   7       -0.2441
   8       -0.2441
   9       -0.2438
  10        0.4507
  11        0.4533
  12        0.4536
  13        0.4549
  14        1.1476
  15        1.1476
  16        1.8366
  17        1.8372
  18        1.8395
  19        1.8402
  20        2.5112
  21        2.5270
  22        3.2088
  23        3.2108
  24        3.2111
  25        3.2158
  26        3.8334
  27        3.8335
  28        3.8765
  29        3.8765
  30        4.5085
  31        4.5085
  32        4.5748
  33        4.5748
  34        5.1638
  35        5.1638
  36        5.2333
  37        5.2498
  38        5.2498
  39        5.8546
  40        5.8546
  41        5.9275
  42        6.5230
  43        6.5230
  44        6.5791
  45        6.5791
  46        6.7871
  47        6.7871
  48        7.1736
  49        7.1737
  50        7.1917
  51        7.1918
  52        7.4846
  53        7.4846
  54        7.9161
  55        8.0821
  56        8.1446
  57        8.1446
  58        8.5211
  59        8.5212
  60        8.8168
  61        8.8168
  62        9.1695
  63        9.1695
  64        9.3357
  65        9.3357
  66        9.5672
  67        9.5673
  68        9.8446
  69        9.8446
  70       10.1301
  71       10.1309
  72       10.1352
 
  0.5000000E+00  0.1666667E+00  0.1666667E+00  0.1851852E-01
   1       -2.7701
   2       -2.7674
   3       -1.3567
   4       -1.3548
   5       -1.3539
   6       -1.3521
   7        0.0443
   8        0.0461
   9        0.0464
  10        0.0473
  11        0.0482
  12        0.0496
  13        1.4297
  14        1.4316
  15        1.4349
  16        1.4353
  17        1.4373
  18        1.4383
  19        2.8066
  20        2.8072
  21        2.8081
  22        2.8085
  23        2.8119
  24        2.8146
  25        4.1134
  26        4.1137
  27        4.1163
  28        4.1165
  29        4.1708
  30        4.1713
  31        4.1722
  32        4.1728
  33        4.1733
  34        4.1748
  35        5.4611
  36        5.4629
  37        5.4639
  38        5.4658
  39        5.5278
  40        5.5285
  41        5.5292
  42        5.5300
  43        6.8002
  44        6.8008
  45        6.8030
  46        6.8036
  47        6.8734
  48        6.8749
  49        7.0661
  50        7.0666
  51        7.0688
  52        7.0694
  53        8.1339
  54        8.1344
  55        8.1356
  56        8.1362
  57        8.4241
  58        8.4248
  59        8.4269
  60        8.4275
  61        9.4535
  62        9.4544
  63        9.4554
  64        9.4561
  65        9.6788
  66        9.6802
  67        9.7426
  68        9.7445
  69        9.7454
  70        9.7474
  71       10.7236
  72       10.7464
 
  0.0000000E+00  0.3333333E+00  0.1666667E+00  0.3703704E-01
   1       -3.1244
   2       -2.4139
   3       -1.7067
   4       -1.0049
   5       -1.0028
   6       -1.0007
   7       -0.3042
   8       -0.3022
   9       -0.3000
  10        0.3930
  11        0.3948
  12        0.3953
  13        0.3976
  14        1.0887
  15        1.0919
  16        1.7795
  17        1.7804
  18        1.7832
  19        2.4540
  20        2.4669
  21        2.4689
  22        2.4702
  23        2.4721
  24        3.1537
  25        3.7771
  26        3.8198
  27        3.8365
  28        3.8398
  29        4.4523
  30        4.4966
  31        4.4999
  32        4.6916
  33        5.1733
  34        5.1946
  35        5.1979
  36        5.3511
  37        5.7971
  38        5.8005
  39        5.8254
  40        5.8498
  41        5.8531
  42        6.0111
  43        6.4667
  44        6.4701
  45        6.5118
  46        6.6714
  47        6.7307
  48        7.1458
  49        7.1916
  50        7.1949
  51        7.2156
  52        7.3328
  53        7.4050
  54        7.8984
  55        7.9936
  56        7.9945
  57        8.0266
  58        8.5484
  59        8.7505