 vasp.4.6.28 25Jul05 complex 
 executed on             LinuxIFC date 2016.10.19  17:30:31
 running on    8 nodes
 distr:  one band on    1 nodes,    8 groups


--------------------------------------------------------------------------------------------------------


 INCAR:
 POTCAR:   PAW_PBE Al 04Jan2001                   
 POTCAR:   PAW_PBE Al 04Jan2001                   
   VRHFIN =Al: s2p1                                                             
   LEXCH  = PE                                                                  
   EATOM  =    53.5387 eV,    3.9350 Ry                                         
                                                                                
   TITEL  = PAW_PBE Al 04Jan2001                                                
   LULTRA =        F    use ultrasoft PP ?                                      
   IUNSCR =        1    unscreen: 0-lin 1-nonlin 2-no                           
   RPACOR =    1.500    partial core radius                                     
   POMASS =   26.982; ZVAL   =    3.000    mass and valenz                      
   RCORE  =    1.900    outmost cutoff radius                                   
   RWIGS  =    2.650; RWIGS  =    1.402    wigner-seitz radius (au A)           
   ENMAX  =  240.300; ENMIN  =  180.225 eV                                      
   ICORE  =        2    local potential                                         
   LCOR   =        T    correct aug charges                                     
   LPAW   =        T    paw PP                                                  
   EAUG   =  291.052                                                            
   DEXC   =    -.041                                                            
   RMAX   =    2.974    core radius for proj-oper                               
   RAUG   =    1.300    factor for augmentation sphere                          
   RDEP   =    1.966    radius for radial grids                                 
   QCUT   =   -4.203; QGAM   =    8.405    optimization parameters              
                                                                                
   Description                                                                  
     l     E      TYP  RCUT    TYP  RCUT                                        
     0   .000     23  1.900                                                     
     0   .000     23  1.900                                                     
     1   .000     23  1.900                                                     
     1  1.000     23  1.900                                                     
     2   .000      7  1.900                                                     
  local pseudopotential read in
  partial core-charges read in
  atomic valenz-charges read in
  non local Contribution for L=           0  read in
    real space projection operators read in
  non local Contribution for L=           0  read in
    real space projection operators read in
  non local Contribution for L=           1  read in
    real space projection operators read in
  non local Contribution for L=           1  read in
    real space projection operators read in
    PAW grid and wavefunctions read in
 
   number of l-projection  operators is LMAX  =           4
   number of lm-projection operators is LMMAX =           8
 

 ----------------------------------------------------------------------------- 
|                                                                             |
|  ADVICE TO THIS USER RUNNING 'VASP/VAMP'   (HEAR YOUR MASTER'S VOICE ...):  |
|                                                                             |
|      You have a (more or less) 'large supercell' and for larger cells       |
|      it might be more efficient to use real space projection operators      |
|      So try LREAL= Auto  in the INCAR   file.                               |
|      Mind: If you want to do an extremely accurate calculations keep the    |
|      reciprocal projection scheme          (i.e. LREAL=.FALSE.)             |
|                                                                             |
 ----------------------------------------------------------------------------- 

 PAW_PBE Al 04Jan2001                   :
 energy of atom  1       EATOM=  -53.5387
 kinetic energy error for atom=    0.0003 (will be added to EATOM!!)
 
 EXHCAR: internal setup
 exchange correlation table for  LEXCH =        8
   RHO(1)=    0.500       N(1)  =     2000
   RHO(2)=  100.500       N(2)  =     4000
 
 POSCAR: Al                                      
  positions in direct lattice
  No initial velocities read in
 


--------------------------------------------------------------------------------------------------------


 ion  position               nearest neighbor table
   1  0.251  0.250  0.000-  18 2.93  22 2.93  26 2.93  28 2.93   9 2.94  11 2.94  13 2.94  15 2.94
                            25 2.95  21 2.95  27 2.95  17 2.95
   2  0.750  0.250  0.000-  10 2.94  12 2.94  14 2.94  16 2.94  17 2.94  18 2.94  21 2.94  22 2.94
                            25 2.94  26 2.94  27 2.94  28 2.94
   3  0.250  0.750  0.000-   9 2.94  11 2.94  13 2.94  15 2.94  19 2.94  20 2.94  23 2.94  24 2.94
                            25 2.94  26 2.94  27 2.94  28 2.94
   4  0.750  0.750  0.000-  10 2.94  12 2.94  14 2.94  16 2.94  19 2.94  20 2.94  23 2.94  24 2.94
                            25 2.94  26 2.94  27 2.94  28 2.94
   5  0.250  0.250  0.500-   9 2.94  11 2.94  13 2.94  15 2.94  17 2.94  18 2.94  21 2.94  22 2.94
                            29 2.94  30 2.94  31 2.94  32 2.94
   6  0.750  0.250  0.500-  10 2.94  12 2.94  14 2.94  16 2.94  17 2.94  18 2.94  21 2.94  22 2.94
                            29 2.94  30 2.94  31 2.94  32 2.94
   7  0.250  0.750  0.500-   9 2.94  11 2.94  13 2.94  15 2.94  19 2.94  20 2.94  23 2.94  24 2.94
                            29 2.94  30 2.94  31 2.94  32 2.94
   8  0.750  0.750  0.500-  10 2.94  12 2.94  14 2.94  16 2.94  19 2.94  20 2.94  23 2.94  24 2.94
                            29 2.94  30 2.94  31 2.94  32 2.94
   9  0.250  0.000  0.250-   3 2.94   5 2.94   7 2.94  17 2.94  18 2.94  19 2.94  20 2.94  25 2.94
                            26 2.94  29 2.94  30 2.94   1 2.94
  10  0.750  0.000  0.250-   2 2.94   4 2.94   6 2.94   8 2.94  17 2.94  18 2.94  19 2.94  20 2.94
                            25 2.94  26 2.94  29 2.94  30 2.94
  11  0.250  0.500  0.250-   3 2.94   5 2.94   7 2.94  17 2.94  18 2.94  19 2.94  20 2.94  27 2.94
                            28 2.94  31 2.94  32 2.94   1 2.94
  12  0.750  0.500  0.250-   2 2.94   4 2.94   6 2.94   8 2.94  17 2.94  18 2.94  19 2.94  20 2.94
                            27 2.94  28 2.94  31 2.94  32 2.94
  13  0.250  0.000  0.750-   3 2.94   5 2.94   7 2.94  21 2.94  22 2.94  23 2.94  24 2.94  25 2.94
                            26 2.94  29 2.94  30 2.94   1 2.94
  14  0.750  0.000  0.750-   2 2.94   4 2.94   6 2.94   8 2.94  21 2.94  22 2.94  23 2.94  24 2.94
                            25 2.94  26 2.94  29 2.94  30 2.94
  15  0.250  0.500  0.750-   3 2.94   5 2.94   7 2.94  21 2.94  22 2.94  23 2.94  24 2.94  27 2.94
                            28 2.94  31 2.94  32 2.94   1 2.94
  16  0.750  0.500  0.750-   2 2.94   4 2.94   6 2.94   8 2.94  21 2.94  22 2.94  23 2.94  24 2.94
                            27 2.94  28 2.94  31 2.94  32 2.94
  17  0.000  0.250  0.250-   2 2.94   5 2.94   6 2.94   9 2.94  10 2.94  11 2.94  12 2.94  25 2.94
                            27 2.94  29 2.94  31 2.94   1 2.95
  18  0.500  0.250  0.250-   1 2.93   2 2.94   5 2.94   6 2.94   9 2.94  10 2.94  11 2.94  12 2.94
                            26 2.94  28 2.94  30 2.94  32 2.94
  19  0.000  0.750  0.250-   3 2.94   4 2.94   7 2.94   8 2.94   9 2.94  10 2.94  11 2.94  12 2.94
                            25 2.94  27 2.94  29 2.94  31 2.94
  20  0.500  0.750  0.250-   3 2.94   4 2.94   7 2.94   8 2.94   9 2.94  10 2.94  11 2.94  12 2.94
                            26 2.94  28 2.94  30 2.94  32 2.94
  21  0.000  0.250  0.750-   2 2.94   5 2.94   6 2.94  13 2.94  14 2.94  15 2.94  16 2.94  25 2.94
                            27 2.94  29 2.94  31 2.94   1 2.95
  22  0.500  0.250  0.750-   1 2.93   2 2.94   5 2.94   6 2.94  13 2.94  14 2.94  15 2.94  16 2.94
                            26 2.94  28 2.94  30 2.94  32 2.94
  23  0.000  0.750  0.750-   3 2.94   4 2.94   7 2.94   8 2.94  13 2.94  14 2.94  15 2.94  16 2.94
                            25 2.94  27 2.94  29 2.94  31 2.94
  24  0.500  0.750  0.750-   3 2.94   4 2.94   7 2.94   8 2.94  13 2.94  14 2.94  15 2.94  16 2.94
                            26 2.94  28 2.94  30 2.94  32 2.94
  25  0.000  0.000  0.000-   2 2.94   3 2.94   4 2.94   9 2.94  10 2.94  13 2.94  14 2.94  17 2.94
                            19 2.94  21 2.94  23 2.94   1 2.95
  26  0.500  0.000  0.000-   1 2.93   2 2.94   3 2.94   4 2.94   9 2.94  10 2.94  13 2.94  14 2.94
                            18 2.94  20 2.94  22 2.94  24 2.94
  27  0.000  0.500  0.000-   2 2.94   3 2.94   4 2.94  11 2.94  12 2.94  15 2.94  16 2.94  17 2.94
                            19 2.94  21 2.94  23 2.94   1 2.95
  28  0.500  0.500  0.000-   1 2.93   2 2.94   3 2.94   4 2.94  11 2.94  12 2.94  15 2.94  16 2.94
                            18 2.94  20 2.94  22 2.94  24 2.94
  29  0.000  0.000  0.500-   5 2.94   6 2.94   7 2.94   8 2.94   9 2.94  10 2.94  13 2.94  14 2.94
                            17 2.94  19 2.94  21 2.94  23 2.94
  30  0.500  0.000  0.500-   5 2.94   6 2.94   7 2.94   8 2.94   9 2.94  10 2.94  13 2.94  14 2.94
                            18 2.94  20 2.94  22 2.94  24 2.94
  31  0.000  0.500  0.500-   5 2.94   6 2.94   7 2.94   8 2.94  11 2.94  12 2.94  15 2.94  16 2.94
                            17 2.94  19 2.94  21 2.94  23 2.94
  32  0.500  0.500  0.500-   5 2.94   6 2.94   7 2.94   8 2.94  11 2.94  12 2.94  15 2.94  16 2.94
                            18 2.94  20 2.94  22 2.94  24 2.94
 
  LATTYP: Found a simple cubic cell.
 ALAT       =     8.3168511215
  
  Lattice vectors:
  
 A1 = (   8.3168511215,   0.0000000000,   0.0000000000)
 A2 = (   0.0000000000,   8.3168511215,   0.0000000000)
 A3 = (   0.0000000000,   0.0000000000,   8.3168511215)
 Subroutine PRICEL returns:
 Original cell was already a primitive cell.
 

Analysis of symmetry for initial positions (statically):

 Routine SETGRP: Setting up the symmetry group for a 
 simple cubic supercell.


 Subroutine GETGRP returns: Found  8 space group operations
 (whereof  2 operations were pure point group operations)
 out of a pool of 48 trial point group operations.


The static configuration has the point symmetry C_1h.
 The point group associated with its full space group is C_4v.

Analysis of symmetry for dynamics (positions and initial velocities):

 Subroutine DYNSYM returns: Found  8 space group operations
 (whereof  2 operations were pure point group operations)
 out of a pool of  8 trial space group operations
 (whereof  2 operations were pure point group operations)
 and found also     1 'primitive' translations


The dynamic configuration has the point symmetry C_1h.
 The point group associated with its full space group is C_4v.
 
 
 KPOINTS: Automatic mesh                          

Automatic generation of k-mesh.
 generate k-points for:   6   6   6
 
 Subroutine IBZKPT returns following result:
 ===========================================
 
 Found     40 irreducible k-points:
 
 Following reciprocal coordinates:
            Coordinates               Weight
  0.000000  0.000000  0.000000      1.000000
  0.166667  0.000000  0.000000      2.000000
  0.333333  0.000000  0.000000      2.000000
  0.500000  0.000000  0.000000      1.000000
  0.000000  0.166667  0.000000      4.000000
  0.166667  0.166667  0.000000      8.000000
  0.333333  0.166667  0.000000      8.000000
  0.500000  0.166667  0.000000      4.000000
  0.000000  0.333333  0.000000      4.000000
  0.166667  0.333333  0.000000      8.000000
  0.333333  0.333333  0.000000      8.000000
  0.500000  0.333333  0.000000      4.000000
  0.000000  0.500000  0.000000      2.000000
  0.166667  0.500000  0.000000      4.000000
  0.333333  0.500000  0.000000      4.000000
  0.500000  0.500000  0.000000      2.000000
  0.000000  0.166667  0.166667      4.000000
  0.166667  0.166667  0.166667      8.000000
  0.333333  0.166667  0.166667      8.000000
  0.500000  0.166667  0.166667      4.000000
  0.000000  0.333333  0.166667      8.000000
  0.166667  0.333333  0.166667     16.000000
  0.333333  0.333333  0.166667     16.000000
  0.500000  0.333333  0.166667      8.000000
  0.000000  0.500000  0.166667      4.000000
  0.166667  0.500000  0.166667      8.000000
  0.333333  0.500000  0.166667      8.000000
  0.500000  0.500000  0.166667      4.000000
  0.000000  0.333333  0.333333      4.000000
  0.166667  0.333333  0.333333      8.000000
  0.333333  0.333333  0.333333      8.000000
  0.500000  0.333333  0.333333      4.000000
  0.000000  0.500000  0.333333      4.000000
  0.166667  0.500000  0.333333      8.000000
  0.333333  0.500000  0.333333      8.000000
  0.500000  0.500000  0.333333      4.000000
  0.000000  0.500000  0.500000      1.000000
  0.166667  0.500000  0.500000      2.000000
  0.333333  0.500000  0.500000      2.000000
  0.500000  0.500000  0.500000      1.000000
 
 Following cartesian coordinates:
            Coordinates               Weight
  0.000000  0.000000  0.000000      1.000000
  0.020040  0.000000  0.000000      2.000000
  0.040079  0.000000  0.000000      2.000000
  0.060119  0.000000  0.000000      1.000000
  0.000000  0.020040  0.000000      4.000000
  0.020040  0.020040  0.000000      8.000000
  0.040079  0.020040  0.000000      8.000000
  0.060119  0.020040  0.000000      4.000000
  0.000000  0.040079  0.000000      4.000000
  0.020040  0.040079  0.000000      8.000000
  0.040079  0.040079  0.000000      8.000000
  0.060119  0.040079  0.000000      4.000000
  0.000000  0.060119  0.000000      2.000000
  0.020040  0.060119  0.000000      4.000000
  0.040079  0.060119  0.000000      4.000000
  0.060119  0.060119  0.000000      2.000000
  0.000000  0.020040  0.020040      4.000000
  0.020040  0.020040  0.020040      8.000000
  0.040079  0.020040  0.020040      8.000000
  0.060119  0.020040  0.020040      4.000000
  0.000000  0.040079  0.020040      8.000000
  0.020040  0.040079  0.020040     16.000000
  0.040079  0.040079  0.020040     16.000000
  0.060119  0.040079  0.020040      8.000000
  0.000000  0.060119  0.020040      4.000000
  0.020040  0.060119  0.020040      8.000000
  0.040079  0.060119  0.020040      8.000000
  0.060119  0.060119  0.020040      4.000000
  0.000000  0.040079  0.040079      4.000000
  0.020040  0.040079  0.040079      8.000000
  0.040079  0.040079  0.040079      8.000000
  0.060119  0.040079  0.040079      4.000000
  0.000000  0.060119  0.040079      4.000000
  0.020040  0.060119  0.040079      8.000000
  0.040079  0.060119  0.040079      8.000000
  0.060119  0.060119  0.040079      4.000000
  0.000000  0.060119  0.060119      1.000000
  0.020040  0.060119  0.060119      2.000000
  0.040079  0.060119  0.060119      2.000000
  0.060119  0.060119  0.060119      1.000000
 


--------------------------------------------------------------------------------------------------------




 Dimension of arrays:
   k-Points           NKPTS =     40   number of bands    NBANDS=     72
   number of dos      NEDOS =    301   number of ions     NIONS =     32
   non local maximal  LDIM  =      4   non local SUM 2l+1 LMDIM =      8
   total plane-waves  NPLWV = 262144
   max r-space proj   IRMAX =      1   max aug-charges    IRDMAX=  17932
   dimension x,y,z NGX =    64 NGY =   64 NGZ =   64
   dimension x,y,z NGXF=   128 NGYF=  128 NGZF=  128
   support grid    NGXF=   128 NGYF=  128 NGZF=  128
   ions per type =              32
 NGX,Y,Z   is equivalent  to a cutoff of  12.79, 12.79, 12.79 a.u.
 NGXF,Y,Z  is equivalent  to a cutoff of  25.59, 25.59, 25.59 a.u.


 I would recommend the setting:
   dimension x,y,z NGX =    61 NGY =   61 NGZ =   61
 SYSTEM =  unknown system                          
 POSCAR =  Al                                      

 Startparameter for this run:
   NWRITE =      2    write-flag & timer
   PREC   = accura    medium, high low
   ISTART =      0    job   : 0-new  1-cont  2-samecut
   ICHARG =      2    charge: 1-file 2-atom 10-const
   ISPIN  =      1    spin polarized calculation?
   LNONCOLLINEAR =      F non collinear calculations
   LSORBIT =      F    spin-orbit coupling
   INIWAV =      1    electr: 0-lowe 1-rand  2-diag
   LASPH  =      F    aspherical Exc in radial PAW
   METAGGA=      F    non-selfconsistent MetaGGA calc.

 Electronic Relaxation 1
   ENCUT  =  500.0 eV  36.75 Ry    6.06 a.u.  15.16 15.16 15.16*2*pi/ulx,y,z
   ENINI  =  500.0     initial cutoff
   ENAUG  =  291.1 eV  augmentation charge cutoff
   NELM   =     60;   NELMIN=  2; NELMDL=  0     # of ELM steps 
   EDIFF  = 0.1E-07   stopping-criterion for ELM
   LREAL  =      F    real-space projection
   LCOMPAT=      F    compatible to vasp.4.4
   LREAL_COMPAT= F    compatible to vasp.4.5.1-3
   GGA_COMPAT  = T    GGA compatible to vasp.4.4-vasp.4.6
   LMAXPAW     = -100 max onsite density
   LMAXMIX     =    2 max onsite mixed and CHGCAR
   VOSKOWN=      0    Vosko Wilk Nusair interpolation
   ROPT   =    0.00000
 Ionic relaxation
   EDIFFG = 0.1E-06   stopping-criterion for IOM
   NSW    =      0    number of steps for IOM
   NBLOCK =      1;   KBLOCK =      1    inner block; outer block 
   IBRION =     -1    ionic relax: 0-MD 1-quasi-New 2-CG
   NFREE  =      0    steps in history (QN), initial steepest desc. (CG)
   ISIF   =      2    stress and relaxation
   IWAVPR =     10    prediction:  0-non 1-charg 2-wave 3-comb
   ISYM   =      2    0-nonsym 1-usesym 2-fastsym
   LCORR  =      T    Harris-Foulkes like correction to forces

   POTIM  =   0.50    time-step for ionic-motion
   TEIN   =    0.0    initial temperature
   TEBEG  =    0.0;   TEEND  =   0.0 temperature during run
   SMASS  =  -3.00    Nose mass-parameter (am)
   estimated Nose-frequenzy (Omega)   =  0.10E-29 period in steps =****** mass=  -0.158E-26a.u.
   NPACO  =    256;   APACO  = 16.0  distance and # of slots for P.C.
   PSTRESS=    0.0 pullay stress

  Mass of Ions in am
   POMASS =  26.98
  Ionic Valenz
   ZVAL   =   3.00
  Atomic Wigner-Seitz radii
   RWIGS  =  -1.00
   NELECT =      96.0000    total number of electrons
   NUPDOWN=      -1.0000    fix difference up-down

 DOS related values:
   EMIN   =  10.00;   EMAX   =-10.00  energy-range for DOS
   ISMEAR =     0;   SIGMA  =   0.01  broadening in eV -4-tet -1-fermi 0-gaus

 Electronic relaxation 2 (details)
   IALGO  =     38    algorithm
   LDIAG  =      T    sub-space diagonalisation
   IMIX   =      4    mixing-type and parameters
     AMIX     =   0.40;   BMIX     =  1.00
     AMIX_MAG =   1.60;   BMIX_MAG =  1.00
     AMIN     =   0.10
     WC   =   100.;   INIMIX=   1;  MIXPRE=   1

 Intra band minimization:
   WEIMIN = 0.0000     energy-eigenvalue tresh-hold
   EBREAK =  0.38E-10  absolut break condition
   DEPER  =   0.30     relativ break condition  

   TIME   =   0.10     timestep for ELM

  volume/ion in A,a.u.               =      17.98       121.32
  Fermi-wavevector in a.u.,eV,Ry     =   0.901307 11.052763  0.812355

 Second variation
   LSECVAR=     F    do a second variation
 
 Write flags
   LWAVE  =      F    write WAVECAR
   LCHARG =      F    write CHGCAR
   LVTOT  =      F    write LOCPOT, local potential
   LELF   =      F    write electronic localiz. function (ELF)
   LORBIT =      0    0 simple, 1 ext, 2 COOP (PROOUT)


 Dipole corrections
   IDIPOL =      0    1-x, 2-y, 3-z
   LDIPOL =      F    correct potential



--------------------------------------------------------------------------------------------------------


 Static calculation
 charge density will be updated during run
 non-spin polarized calculation
 Variant of blocked Davidson
 Davidson routine will perform the subspace rotation
 performe sub-space diagonalisation
    after iterative eigenvector-optimisation
 modified Broyden-mixing scheme, WC =      100.0
 initial mixing is a Kerker type mixing with AMIX =  0.4000 and BMIX =      1.0000
 Hartree-type preconditioning will be used
 using additional bands           24
 reciprocal scheme for non local part
 use partial core corrections
 calculate Harris-corrections to forces 
   (improved forces if not selfconsistent)
 use gradient corrections 
 use of overlap-Matrix (Vanderbilt PP)
 Gauss-broadening in eV      SIGMA  =   0.01


--------------------------------------------------------------------------------------------------------


  energy-cutoff  :      500.00
  volume of cell :      575.28
      direct lattice vectors                 reciprocal lattice vectors
     8.316851122  0.000000000  0.000000000     0.120237814  0.000000000  0.000000000
     0.000000000  8.316851122  0.000000000     0.000000000  0.120237814  0.000000000
     0.000000000  0.000000000  8.316851122     0.000000000  0.000000000  0.120237814

  length of vectors
     8.316851122  8.316851122  8.316851122     0.120237814  0.120237814  0.120237814


 
 k-points in units of 2pi/SCALE and weight: Automatic mesh                          
   0.00000000  0.00000000  0.00000000       0.005
   0.02003964  0.00000000  0.00000000       0.009
   0.04007927  0.00000000  0.00000000       0.009
   0.06011891  0.00000000  0.00000000       0.005
   0.00000000  0.02003964  0.00000000       0.019
   0.02003964  0.02003964  0.00000000       0.037
   0.04007927  0.02003964  0.00000000       0.037
   0.06011891  0.02003964  0.00000000       0.019
   0.00000000  0.04007927  0.00000000       0.019
   0.02003964  0.04007927  0.00000000       0.037
   0.04007927  0.04007927  0.00000000       0.037
   0.06011891  0.04007927  0.00000000       0.019
   0.00000000  0.06011891  0.00000000       0.009
   0.02003964  0.06011891  0.00000000       0.019
   0.04007927  0.06011891  0.00000000       0.019
   0.06011891  0.06011891  0.00000000       0.009
   0.00000000  0.02003964  0.02003964       0.019
   0.02003964  0.02003964  0.02003964       0.037
   0.04007927  0.02003964  0.02003964       0.037
   0.06011891  0.02003964  0.02003964       0.019
   0.00000000  0.04007927  0.02003964       0.037
   0.02003964  0.04007927  0.02003964       0.074
   0.04007927  0.04007927  0.02003964       0.074
   0.06011891  0.04007927  0.02003964       0.037
   0.00000000  0.06011891  0.02003964       0.019
   0.02003964  0.06011891  0.02003964       0.037
   0.04007927  0.06011891  0.02003964       0.037
   0.06011891  0.06011891  0.02003964       0.019
   0.00000000  0.04007927  0.04007927       0.019
   0.02003964  0.04007927  0.04007927       0.037
   0.04007927  0.04007927  0.04007927       0.037
   0.06011891  0.04007927  0.04007927       0.019
   0.00000000  0.06011891  0.04007927       0.019
   0.02003964  0.06011891  0.04007927       0.037
   0.04007927  0.06011891  0.04007927       0.037
   0.06011891  0.06011891  0.04007927       0.019
   0.00000000  0.06011891  0.06011891       0.005
   0.02003964  0.06011891  0.06011891       0.009
   0.04007927  0.06011891  0.06011891       0.009
   0.06011891  0.06011891  0.06011891       0.005
 
 k-points in reciprocal lattice and weights: Automatic mesh                          
   0.00000000  0.00000000  0.00000000       0.005
   0.16666667  0.00000000  0.00000000       0.009
   0.33333333  0.00000000  0.00000000       0.009
   0.50000000  0.00000000  0.00000000       0.005
   0.00000000  0.16666667  0.00000000       0.019
   0.16666667  0.16666667  0.00000000       0.037
   0.33333333  0.16666667  0.00000000       0.037
   0.50000000  0.16666667  0.00000000       0.019
   0.00000000  0.33333333  0.00000000       0.019
   0.16666667  0.33333333  0.00000000       0.037
   0.33333333  0.33333333  0.00000000       0.037
   0.50000000  0.33333333  0.00000000       0.019
   0.00000000  0.50000000  0.00000000       0.009
   0.16666667  0.50000000  0.00000000       0.019
   0.33333333  0.50000000  0.00000000       0.019
   0.50000000  0.50000000  0.00000000       0.009
   0.00000000  0.16666667  0.16666667       0.019
   0.16666667  0.16666667  0.16666667       0.037
   0.33333333  0.16666667  0.16666667       0.037
   0.50000000  0.16666667  0.16666667       0.019
   0.00000000  0.33333333  0.16666667       0.037
   0.16666667  0.33333333  0.16666667       0.074
   0.33333333  0.33333333  0.16666667       0.074
   0.50000000  0.33333333  0.16666667       0.037
   0.00000000  0.50000000  0.16666667       0.019
   0.16666667  0.50000000  0.16666667       0.037
   0.33333333  0.50000000  0.16666667       0.037
   0.50000000  0.50000000  0.16666667       0.019
   0.00000000  0.33333333  0.33333333       0.019
   0.16666667  0.33333333  0.33333333       0.037
   0.33333333  0.33333333  0.33333333       0.037
   0.50000000  0.33333333  0.33333333       0.019
   0.00000000  0.50000000  0.33333333       0.019
   0.16666667  0.50000000  0.33333333       0.037
   0.33333333  0.50000000  0.33333333       0.037
   0.50000000  0.50000000  0.33333333       0.019
   0.00000000  0.50000000  0.50000000       0.005
   0.16666667  0.50000000  0.50000000       0.009
   0.33333333  0.50000000  0.50000000       0.009
   0.50000000  0.50000000  0.50000000       0.005
 
 position of ions in fractional coordinates (direct lattice) 
   0.25120238  0.25000000  0.00000000
   0.75000000  0.25000000  0.00000000
   0.25000000  0.75000000  0.00000000
   0.75000000  0.75000000  0.00000000
   0.25000000  0.25000000  0.50000000
   0.75000000  0.25000000  0.50000000
   0.25000000  0.75000000  0.50000000
   0.75000000  0.75000000  0.50000000
   0.25000000  0.00000000  0.25000000
   0.75000000  0.00000000  0.25000000
   0.25000000  0.50000000  0.25000000
   0.75000000  0.50000000  0.25000000
   0.25000000  0.00000000  0.75000000
   0.75000000  0.00000000  0.75000000
   0.25000000  0.50000000  0.75000000
   0.75000000  0.50000000  0.75000000
   0.00000000  0.25000000  0.25000000
   0.50000000  0.25000000  0.25000000
   0.00000000  0.75000000  0.25000000
   0.50000000  0.75000000  0.25000000
   0.00000000  0.25000000  0.75000000
   0.50000000  0.25000000  0.75000000
   0.00000000  0.75000000  0.75000000
   0.50000000  0.75000000  0.75000000
   0.00000000  0.00000000  0.00000000
   0.50000000  0.00000000  0.00000000
   0.00000000  0.50000000  0.00000000
   0.50000000  0.50000000  0.00000000
   0.00000000  0.00000000  0.50000000
   0.50000000  0.00000000  0.50000000
   0.00000000  0.50000000  0.50000000
   0.50000000  0.50000000  0.50000000
 
 position of ions in cartesian coordinates  (Angst):
   2.08921278  2.07921278  0.00000000
   6.23763834  2.07921278  0.00000000
   2.07921278  6.23763834  0.00000000
   6.23763834  6.23763834  0.00000000
   2.07921278  2.07921278  4.15842556
   6.23763834  2.07921278  4.15842556
   2.07921278  6.23763834  4.15842556
   6.23763834  6.23763834  4.15842556
   2.07921278  0.00000000  2.07921278
   6.23763834  0.00000000  2.07921278
   2.07921278  4.15842556  2.07921278
   6.23763834  4.15842556  2.07921278
   2.07921278  0.00000000  6.23763834
   6.23763834  0.00000000  6.23763834
   2.07921278  4.15842556  6.23763834
   6.23763834  4.15842556  6.23763834
   0.00000000  2.07921278  2.07921278
   4.15842556  2.07921278  2.07921278
   0.00000000  6.23763834  2.07921278
   4.15842556  6.23763834  2.07921278
   0.00000000  2.07921278  6.23763834
   4.15842556  2.07921278  6.23763834
   0.00000000  6.23763834  6.23763834
   4.15842556  6.23763834  6.23763834
   0.00000000  0.00000000  0.00000000
   4.15842556  0.00000000  0.00000000
   0.00000000  4.15842556  0.00000000
   4.15842556  4.15842556  0.00000000
   0.00000000  0.00000000  4.15842556
   4.15842556  0.00000000  4.15842556
   0.00000000  4.15842556  4.15842556
   4.15842556  4.15842556  4.15842556
 


--------------------------------------------------------------------------------------------------------


 k-point  1 :  0.00000.00000.0000  plane waves:  14531
 k-point  2 :  0.16670.00000.0000  plane waves:  14598
 k-point  3 :  0.33330.00000.0000  plane waves:  14610
 k-point  4 :  0.50000.00000.0000  plane waves:  14582
 k-point  5 :  0.00000.16670.0000  plane waves:  14598
 k-point  6 :  0.16670.16670.0000  plane waves:  14601
 k-point  7 :  0.33330.16670.0000  plane waves:  14611
 k-point  8 :  0.50000.16670.0000  plane waves:  14572
 k-point  9 :  0.00000.33330.0000  plane waves:  14610
 k-point 10 :  0.16670.33330.0000  plane waves:  14611
 k-point 11 :  0.33330.33330.0000  plane waves:  14618
 k-point 12 :  0.50000.33330.0000  plane waves:  14592
 k-point 13 :  0.00000.50000.0000  plane waves:  14582
 k-point 14 :  0.16670.50000.0000  plane waves:  14572
 k-point 15 :  0.33330.50000.0000  plane waves:  14592
 k-point 16 :  0.50000.50000.0000  plane waves:  14604
 k-point 17 :  0.00000.16670.1667  plane waves:  14601
 k-point 18 :  0.16670.16670.1667  plane waves:  14612
 k-point 19 :  0.33330.16670.1667  plane waves:  14598
 k-point 20 :  0.50000.16670.1667  plane waves:  14574
 k-point 21 :  0.00000.33330.1667  plane waves:  14611
 k-point 22 :  0.16670.33330.1667  plane waves:  14598
 k-point 23 :  0.33330.33330.1667  plane waves:  14607
 k-point 24 :  0.50000.33330.1667  plane waves:  14604
 k-point 25 :  0.00000.50000.1667  plane waves:  14572
 k-point 26 :  0.16670.50000.1667  plane waves:  14574
 k-point 27 :  0.33330.50000.1667  plane waves:  14604
 k-point 28 :  0.50000.50000.1667  plane waves:  14648
 k-point 29 :  0.00000.33330.3333  plane waves:  14618
 k-point 30 :  0.16670.33330.3333  plane waves:  14607
 k-point 31 :  0.33330.33330.3333  plane waves:  14613
 k-point 32 :  0.50000.33330.3333  plane waves:  14638
 k-point 33 :  0.00000.50000.3333  plane waves:  14592
 k-point 34 :  0.16670.50000.3333  plane waves:  14604
 k-point 35 :  0.33330.50000.3333  plane waves:  14638
 k-point 36 :  0.50000.50000.3333  plane waves:  14632
 k-point 37 :  0.00000.50000.5000  plane waves:  14604
 k-point 38 :  0.16670.50000.5000  plane waves:  14648
 k-point 39 :  0.33330.50000.5000  plane waves:  14632
 k-point 40 :  0.50000.50000.5000  plane waves:  14592

 maximum and minimum number of plane-waves per node :  14648 14531

 maximum number of plane-waves:  14648
 maximal index in each direction: 
   IXMAX= 15   IYMAX= 15   IZMAX= 15
   IXMIN=-15   IYMIN=-15   IZMIN=-15

 NGX is ok and might be reduce to  62
 NGY is ok and might be reduce to  62
 NGZ is ok and might be reduce to  62

 parallel 3dFFT wavefunction:
    minimum data exchange during FFTs selected (reduces bandwidth)
 parallel 3dFFT charge:
    minimum data exchange during FFTs selected (reduces bandwidth)

 For storing wavefunctions  672.89 MBYTES are necessary
 For predicting wavefunctions   37.43 MBYTES are necessary
Broyden mixing: mesh for mixing (old mesh)
   NGX = 31   NGY = 31   NGZ = 31
  (NGX  =128   NGY  =128   NGZ  =128)
 gives a total of  29791 points
 initial charge density was supplied:
 charge density of overlapping atoms calculated
 number of electron   96.0000000 magnetization 
 keeping initial charge density in first step


--------------------------------------------------------------------------------------------------------


 Maximum index for augmentation-charges         2020 (set IRDMAX)


--------------------------------------------------------------------------------------------------------


 First call to EWALD:  gamma=   0.213
 Maximum number of real-space cells 3x 3x 3
 Maximum number of reciprocal cells 3x 3x 3

    FEWALD:  VPU time    0.00: CPU time    0.00


----------------------------------------- Iteration    1(   1)  ---------------------------------------


    POTLOK:  VPU time    0.18: CPU time    0.18
    SETDIJ:  VPU time    0.01: CPU time    0.01
    EDDAV :  VPU time   22.38: CPU time   22.41
    DOS   :  VPU time    0.00: CPU time   -0.00
    ------------------------------------------
      LOOP:  VPU time   22.58: CPU time   22.61

 eigenvalue-minimisations  :  5760
 total energy-change (2. order) : 0.1116773E+03  (-0.3216449E+04)
 number of electron   96.0000000 magnetization 
 augmentation part    96.0000000 magnetization 

 Free energy of the ion-electron system (eV)
  ---------------------------------------------------
  alpha Z        PSCENC =        -5.97872903
  Ewald energy   TEWEN  =     -2286.20769594
  -1/2 Hartree   DENC   =        -4.52818132
  -V(xc)+E(xc)   XCENC  =      -844.52793341
  PAW double counting   =      1137.73615723     -115.16745734
  entropy T*S    EENTRO =        -0.00057480
  eigenvalues    EBANDS =       517.12260801
  atomic energy  EATOM  =      1713.22913220
  ---------------------------------------------------
  free energy    TOTEN  =       111.67732558 eV

  energy without entropy =      111.67790038  energy(sigma->0) =      111.67761298


--------------------------------------------------------------------------------------------------------




----------------------------------------- Iteration    1(   2)  ---------------------------------------


    EDDAV :  VPU time   24.71: CPU time   24.70
    DOS   :  VPU time    0.00: CPU time   -0.00
    ------------------------------------------
      LOOP:  VPU time   24.71: CPU time   24.70

 eigenvalue-minimisations  :  6792
 total energy-change (2. order) :-0.2184155E+03  (-0.2037614E+03)
 number of electron   96.0000000 magnetization 
 augmentation part    96.0000000 magnetization 

 Free energy of the ion-electron system (eV)
  ---------------------------------------------------
  alpha Z        PSCENC =        -5.97872903
  Ewald energy   TEWEN  =     -2286.20769594
  -1/2 Hartree   DENC   =        -4.52818132
  -V(xc)+E(xc)   XCENC  =      -844.52793341
  PAW double counting   =      1137.73615723     -115.16745734
  entropy T*S    EENTRO =        -0.00043654
  eigenvalues    EBANDS =       298.70698484
  atomic energy  EATOM  =      1713.22913220
  ---------------------------------------------------
  free energy    TOTEN  =      -106.73815932 eV

  energy without entropy =     -106.73772279  energy(sigma->0) =     -106.73794105


--------------------------------------------------------------------------------------------------------




----------------------------------------- Iteration    1(   3)  ---------------------------------------


    EDDAV :  VPU time   28.36: CPU time   28.35
    DOS   :  VPU time    0.00: CPU time   -0.00
    ------------------------------------------
      LOOP:  VPU time   28.37: CPU time   28.36

 eigenvalue-minimisations  :  7232
 total energy-change (2. order) :-0.1258151E+02  (-0.1193401E+02)
 number of electron   96.0000000 magnetization 
 augmentation part    96.0000000 magnetization 

 Free energy of the ion-electron system (eV)
  ---------------------------------------------------
  alpha Z        PSCENC =        -5.97872903
  Ewald energy   TEWEN  =     -2286.20769594
  -1/2 Hartree   DENC   =        -4.52818132
  -V(xc)+E(xc)   XCENC  =      -844.52793341
  PAW double counting   =      1137.73615723     -115.16745734
  entropy T*S    EENTRO =        -0.00152606
  eigenvalues    EBANDS =       286.12656559
  atomic energy  EATOM  =      1713.22913220
  ---------------------------------------------------
  free energy    TOTEN  =      -119.31966810 eV

  energy without entropy =     -119.31814204  energy(sigma->0) =     -119.31890507


--------------------------------------------------------------------------------------------------------




----------------------------------------- Iteration    1(   4)  ---------------------------------------


    EDDAV :  VPU time   34.48: CPU time   34.47
    DOS   :  VPU time    0.00: CPU time   -0.00
    ------------------------------------------
      LOOP:  VPU time   34.48: CPU time   34.48

 eigenvalue-minimisations  :  6728
 total energy-change (2. order) :-0.2440997E+00  (-0.2417078E+00)
 number of electron   96.0000000 magnetization 
 augmentation part    96.0000000 magnetization 

 Free energy of the ion-electron system (eV)
  ---------------------------------------------------
  alpha Z        PSCENC =        -5.97872903
  Ewald energy   TEWEN  =     -2286.20769594
  -1/2 Hartree   DENC   =        -4.52818132
  -V(xc)+E(xc)   XCENC  =      -844.52793341
  PAW double counting   =      1137.73615723     -115.16745734
  entropy T*S    EENTRO =        -0.00197406
  eigenvalues    EBANDS =       285.88291393
  atomic energy  EATOM  =      1713.22913220
  ---------------------------------------------------
  free energy    TOTEN  =      -119.56376775 eV

  energy without entropy =     -119.56179370  energy(sigma->0) =     -119.56278072


--------------------------------------------------------------------------------------------------------




----------------------------------------- Iteration    1(   5)  ---------------------------------------


    EDDAV :  VPU time   38.85: CPU time   38.84
    DOS   :  VPU time    0.00: CPU time   -0.00
    CHARGE:  VPU time    1.57: CPU time    1.57
    MIXING:  VPU time    0.00: CPU time    0.00
    ------------------------------------------
      LOOP:  VPU time   40.42: CPU time   40.41

 eigenvalue-minimisations  :  6696
 total energy-change (2. order) :-0.3007760E-02  (-0.3006336E-02)
 number of electron   96.0000001 magnetization 
 augmentation part    -1.2524821 magnetization 

 Broyden mixing:
  rms(total) = 0.50639E+00    rms(broyden)= 0.50639E+00
  rms(prec ) = 0.73778E+00
  weight for this iteration     100.00

 Free energy of the ion-electron system (eV)
  ---------------------------------------------------
  alpha Z        PSCENC =        -5.97872903
  Ewald energy   TEWEN  =     -2286.20769594
  -1/2 Hartree   DENC   =        -4.52818132
  -V(xc)+E(xc)   XCENC  =      -844.52793341
  PAW double counting   =      1137.73615723     -115.16745734
  entropy T*S    EENTRO =        -0.00198079
  eigenvalues    EBANDS =       285.87991291
  atomic energy  EATOM  =      1713.22913220
  ---------------------------------------------------
  free energy    TOTEN  =      -119.56677551 eV

  energy without entropy =     -119.56479472  energy(sigma->0) =     -119.56578512


--------------------------------------------------------------------------------------------------------




----------------------------------------- Iteration    1(   6)  ---------------------------------------


    POTLOK:  VPU time    0.24: CPU time    0.24
    SETDIJ:  VPU time    0.01: CPU time    0.01
    EDDAV :  VPU time   33.67: CPU time   33.66
    DOS   :  VPU time    0.00: CPU time   -0.00
    CHARGE:  VPU time    1.66: CPU time    1.66
    MIXING:  VPU time    0.01: CPU time    0.01
    ------------------------------------------
      LOOP:  VPU time   35.60: CPU time   35.61

 eigenvalue-minimisations  :  6568
 total energy-change (2. order) : 0.3993323E+00  (-0.6362566E-02)
 number of electron   96.0000001 magnetization 
 augmentation part    -1.2722562 magnetization 

 Broyden mixing:
  rms(total) = 0.31393E+00    rms(broyden)= 0.31393E+00
  rms(prec ) = 0.45897E+00
  weight for this iteration     100.00

 eigenvalues of (default mixing * dielectric matrix)
  average eigenvalue GAMMA=   2.6212
  2.6212

 Free energy of the ion-electron system (eV)
  ---------------------------------------------------
  alpha Z        PSCENC =        -5.97872903
  Ewald energy   TEWEN  =     -2286.20769594
  -1/2 Hartree   DENC   =        -3.44900340
  -V(xc)+E(xc)   XCENC  =      -843.62734484
  PAW double counting   =      1135.66837308     -113.04500526
  entropy T*S    EENTRO =        -0.00151638
  eigenvalues    EBANDS =       284.24434639
  atomic energy  EATOM  =      1713.22913220
  ---------------------------------------------------
  free energy    TOTEN  =      -119.16744319 eV

  energy without entropy =     -119.16592681  energy(sigma->0) =     -119.16668500


--------------------------------------------------------------------------------------------------------




----------------------------------------- Iteration    1(   7)  ---------------------------------------


    POTLOK:  VPU time    0.35: CPU time    0.35
    SETDIJ:  VPU time    0.01: CPU time    0.01
    EDDAV :  VPU time   34.27: CPU time   34.26
    DOS   :  VPU time    0.00: CPU time   -0.00
    CHARGE:  VPU time    1.62: CPU time    1.62
    MIXING:  VPU time    0.02: CPU time    0.02
    ------------------------------------------
      LOOP:  VPU time   36.27: CPU time   36.27

 eigenvalue-minimisations  :  6336
 total energy-change (2. order) : 0.2883639E+00  (-0.1858751E-01)
 number of electron   96.0000001 magnetization 
 augmentation part    -1.3084756 magnetization 

 Broyden mixing:
  rms(total) = 0.13630E-01    rms(broyden)= 0.13629E-01
  rms(prec ) = 0.16447E-01
  weight for this iteration     100.00

 eigenvalues of (default mixing * dielectric matrix)
  average eigenvalue GAMMA=   2.4836
  2.4836  2.4836

 Free energy of the ion-electron system (eV)
  ---------------------------------------------------
  alpha Z        PSCENC =        -5.97872903
  Ewald energy   TEWEN  =     -2286.20769594
  -1/2 Hartree   DENC   =        -3.05019124
  -V(xc)+E(xc)   XCENC  =      -841.72967910
  PAW double counting   =      1132.62458841     -109.97113136
  entropy T*S    EENTRO =        -0.00099470
  eigenvalues    EBANDS =       282.20562143
  atomic energy  EATOM  =      1713.22913220
  ---------------------------------------------------
  free energy    TOTEN  =      -118.87907934 eV

  energy without entropy =     -118.87808464  energy(sigma->0) =     -118.87858199


--------------------------------------------------------------------------------------------------------




----------------------------------------- Iteration    1(   8)  ---------------------------------------


    POTLOK:  VPU time    0.32: CPU time    0.32
    SETDIJ:  VPU time    0.01: CPU time    0.01
    EDDAV :  VPU time   34.31: CPU time   34.30
    DOS   :  VPU time    0.00: CPU time   -0.00
    CHARGE:  VPU time    1.58: CPU time    1.58
    MIXING:  VPU time    0.00: CPU time    0.00
    ------------------------------------------
      LOOP:  VPU time   36.23: CPU time   36.23

 eigenvalue-minimisations  :  6816
 total energy-change (2. order) : 0.7038546E-04  (-0.1390667E-03)
 number of electron   96.0000001 magnetization 
 augmentation part    -1.3104590 magnetization 

 Broyden mixing:
  rms(total) = 0.41935E-02    rms(broyden)= 0.41935E-02
  rms(prec ) = 0.55637E-02
  weight for this iteration     100.00

 eigenvalues of (default mixing * dielectric matrix)
  average eigenvalue GAMMA=   2.0688
  0.9758  2.6795  2.5511

 Free energy of the ion-electron system (eV)
  ---------------------------------------------------
  alpha Z        PSCENC =        -5.97872903
  Ewald energy   TEWEN  =     -2286.20769594
  -1/2 Hartree   DENC   =        -3.10562407
  -V(xc)+E(xc)   XCENC  =      -841.68478895
  PAW double counting   =      1133.84030583     -111.26410800
  entropy T*S    EENTRO =        -0.00099743
  eigenvalues    EBANDS =       282.29349644
  atomic energy  EATOM  =      1713.22913220
  ---------------------------------------------------
  free energy    TOTEN  =      -118.87900895 eV

  energy without entropy =     -118.87801152  energy(sigma->0) =     -118.87851024


--------------------------------------------------------------------------------------------------------




----------------------------------------- Iteration    1(   9)  ---------------------------------------


    POTLOK:  VPU time    0.20: CPU time    0.20
    SETDIJ:  VPU time    0.01: CPU time    0.01
    EDDAV :  VPU time   35.32: CPU time   35.31
    DOS   :  VPU time    0.00: CPU time   -0.00
    CHARGE:  VPU time    1.64: CPU time    1.64
    MIXING:  VPU time    0.00: CPU time    0.01
    ------------------------------------------
      LOOP:  VPU time   37.18: CPU time   37.17

 eigenvalue-minimisations  :  6808
 total energy-change (2. order) :-0.2516693E-04  (-0.4560701E-05)
 number of electron   96.0000001 magnetization 
 augmentation part    -1.3113279 magnetization 

 Broyden mixing:
  rms(total) = 0.33268E-03    rms(broyden)= 0.33266E-03
  rms(prec ) = 0.48791E-03
  weight for this iteration     100.00

 eigenvalues of (default mixing * dielectric matrix)
  average eigenvalue GAMMA=   1.9403
  1.0040  2.6634  2.5677  1.5262

 Free energy of the ion-electron system (eV)
  ---------------------------------------------------
  alpha Z        PSCENC =        -5.97872903
  Ewald energy   TEWEN  =     -2286.20769594
  -1/2 Hartree   DENC   =        -3.13394244
  -V(xc)+E(xc)   XCENC  =      -841.64767029
  PAW double counting   =      1134.23966303     -111.69359294
  entropy T*S    EENTRO =        -0.00099715
  eigenvalues    EBANDS =       282.31479845
  atomic energy  EATOM  =      1713.22913220
  ---------------------------------------------------
  free energy    TOTEN  =      -118.87903412 eV

  energy without entropy =     -118.87803697  energy(sigma->0) =     -118.87853554


--------------------------------------------------------------------------------------------------------




----------------------------------------- Iteration    1(  10)  ---------------------------------------


    POTLOK:  VPU time    0.37: CPU time    0.37
    SETDIJ:  VPU time    0.01: CPU time    0.01
    EDDAV :  VPU time   36.77: CPU time   36.76
    DOS   :  VPU time    0.00: CPU time   -0.00
    CHARGE:  VPU time    1.74: CPU time    1.74
    MIXING:  VPU time    0.00: CPU time    0.01
    ------------------------------------------
      LOOP:  VPU time   38.89: CPU time   38.89

 eigenvalue-minimisations  :  6784
 total energy-change (2. order) : 0.9189203E-06  (-0.1765100E-06)
 number of electron   96.0000001 magnetization 
 augmentation part    -1.3114040 magnetization 

 Broyden mixing:
  rms(total) = 0.19193E-03    rms(broyden)= 0.19193E-03
  rms(prec ) = 0.25430E-03
  weight for this iteration     100.00

 eigenvalues of (default mixing * dielectric matrix)
  average eigenvalue GAMMA=   1.8993
  2.6389  2.6389  2.3384  1.0333  0.8469

 Free energy of the ion-electron system (eV)
  ---------------------------------------------------
  alpha Z        PSCENC =        -5.97872903
  Ewald energy   TEWEN  =     -2286.20769594
  -1/2 Hartree   DENC   =        -3.13517292
  -V(xc)+E(xc)   XCENC  =      -841.64641669
  PAW double counting   =      1134.19703559     -111.65009399
  entropy T*S    EENTRO =        -0.00099724
  eigenvalues    EBANDS =       282.31390483
  atomic energy  EATOM  =      1713.22913220
  ---------------------------------------------------
  free energy    TOTEN  =      -118.87903320 eV

  energy without entropy =     -118.87803596  energy(sigma->0) =     -118.87853458


--------------------------------------------------------------------------------------------------------




----------------------------------------- Iteration    1(  11)  ---------------------------------------


    POTLOK:  VPU time    0.31: CPU time    0.32
    SETDIJ:  VPU time    0.02: CPU time    0.02
    EDDAV :  VPU time   36.74: CPU time   36.73
    DOS   :  VPU time    0.00: CPU time   -0.00
    CHARGE:  VPU time    1.60: CPU time    1.60
    MIXING:  VPU time    0.00: CPU time    0.01
    ------------------------------------------
      LOOP:  VPU time   38.69: CPU time   38.68

 eigenvalue-minimisations  :  6816
 total energy-change (2. order) : 0.3807373E-05  (-0.1560222E-07)
 number of electron   96.0000001 magnetization 
 augmentation part    -1.3114189 magnetization 

 Broyden mixing:
  rms(total) = 0.61789E-04    rms(broyden)= 0.61789E-04
  rms(prec ) = 0.83388E-04
  weight for this iteration     100.00

 eigenvalues of (default mixing * dielectric matrix)
  average eigenvalue GAMMA=   1.8279
  2.7087  2.7087  2.4883  0.9952  1.2499  0.8168

 Free energy of the ion-electron system (eV)
  ---------------------------------------------------
  alpha Z        PSCENC =        -5.97872903
  Ewald energy   TEWEN  =     -2286.20769594
  -1/2 Hartree   DENC   =        -3.13545385
  -V(xc)+E(xc)   XCENC  =      -841.64681832
  PAW double counting   =      1134.13547293     -111.58651147
  entropy T*S    EENTRO =        -0.00099736
  eigenvalues    EBANDS =       282.31257146
  atomic energy  EATOM  =      1713.22913220
  ---------------------------------------------------
  free energy    TOTEN  =      -118.87902939 eV

  energy without entropy =     -118.87803203  energy(sigma->0) =     -118.87853071


--------------------------------------------------------------------------------------------------------




----------------------------------------- Iteration    1(  12)  ---------------------------------------


    POTLOK:  VPU time    0.42: CPU time    0.42
    SETDIJ:  VPU time    0.02: CPU time    0.02
    EDDAV :  VPU time   37.16: CPU time   37.23
    DOS   :  VPU time    0.00: CPU time   -0.00
    CHARGE:  VPU time    1.70: CPU time    1.71
    MIXING:  VPU time    0.01: CPU time    0.01
    ------------------------------------------
      LOOP:  VPU time   39.32: CPU time   39.40

 eigenvalue-minimisations  :  4352
 total energy-change (2. order) : 0.9064183E-06  (-0.1950385E-08)
 number of electron   96.0000001 magnetization 
 augmentation part    -1.3114261 magnetization 

 Broyden mixing:
  rms(total) = 0.10958E-04    rms(broyden)= 0.10957E-04
  rms(prec ) = 0.17902E-04
  weight for this iteration     100.00

 eigenvalues of (default mixing * dielectric matrix)
  average eigenvalue GAMMA=   1.7655
  2.6915  2.6915  2.4687  1.5956  1.0278  1.0819  0.8013

 Free energy of the ion-electron system (eV)
  ---------------------------------------------------
  alpha Z        PSCENC =        -5.97872903
  Ewald energy   TEWEN  =     -2286.20769594
  -1/2 Hartree   DENC   =        -3.13572441
  -V(xc)+E(xc)   XCENC  =      -841.64659597
  PAW double counting   =      1134.11750898     -111.56805376
  entropy T*S    EENTRO =        -0.00099732
  eigenvalues    EBANDS =       282.31212676
  atomic energy  EATOM  =      1713.22913220
  ---------------------------------------------------
  free energy    TOTEN  =      -118.87902848 eV

  energy without entropy =     -118.87803116  energy(sigma->0) =     -118.87852982


--------------------------------------------------------------------------------------------------------




----------------------------------------- Iteration    1(  13)  ---------------------------------------


    POTLOK:  VPU time    0.25: CPU time    0.25
    SETDIJ:  VPU time    0.01: CPU time    0.01
    EDDAV :  VPU time   20.91: CPU time   20.91
    DOS   :  VPU time    0.00: CPU time   -0.00
    CHARGE:  VPU time    1.56: CPU time    1.56
    MIXING:  VPU time    0.02: CPU time    0.02
    ------------------------------------------
      LOOP:  VPU time   22.76: CPU time   22.76

 eigenvalue-minimisations  :  3728
 total energy-change (2. order) : 0.1414271E-06  (-0.3086881E-09)
 number of electron   96.0000001 magnetization 
 augmentation part    -1.3114259 magnetization 

 Broyden mixing:
  rms(total) = 0.29322E-05    rms(broyden)= 0.29322E-05
  rms(prec ) = 0.45898E-05
  weight for this iteration     100.00

 eigenvalues of (default mixing * dielectric matrix)
  average eigenvalue GAMMA=   1.7169
  2.7109  2.7109  2.4956  1.6270  1.3943  1.0486  0.9455  0.8025

 Free energy of the ion-electron system (eV)
  ---------------------------------------------------
  alpha Z        PSCENC =        -5.97872903
  Ewald energy   TEWEN  =     -2286.20769594
  -1/2 Hartree   DENC   =        -3.13571448
  -V(xc)+E(xc)   XCENC  =      -841.64666591
  PAW double counting   =      1134.11613492     -111.56662354
  entropy T*S    EENTRO =        -0.00099732
  eigenvalues    EBANDS =       282.31213076
  atomic energy  EATOM  =      1713.22913220
  ---------------------------------------------------
  free energy    TOTEN  =      -118.87902834 eV

  energy without entropy =     -118.87803102  energy(sigma->0) =     -118.87852968


--------------------------------------------------------------------------------------------------------




----------------------------------------- Iteration    1(  14)  ---------------------------------------


    POTLOK:  VPU time    0.74: CPU time    0.74
    SETDIJ:  VPU time    0.02: CPU time    0.02
    EDDAV :  VPU time   25.61: CPU time   25.60
    DOS   :  VPU time    0.00: CPU time   -0.00
    ------------------------------------------
      LOOP:  VPU time   26.37: CPU time   26.36

 eigenvalue-minimisations  :  3712
 total energy-change (2. order) :-0.3659579E-08  (-0.4580491E-10)
 number of electron   96.0000001 magnetization 
 augmentation part    -1.3114259 magnetization 

 Free energy of the ion-electron system (eV)
  ---------------------------------------------------
  alpha Z        PSCENC =        -5.97872903
  Ewald energy   TEWEN  =     -2286.20769594
  -1/2 Hartree   DENC   =        -3.13572461
  -V(xc)+E(xc)   XCENC  =      -841.64665822
  PAW double counting   =      1134.11625161     -111.56674829
  entropy T*S    EENTRO =        -0.00099732
  eigenvalues    EBANDS =       282.31214126
  atomic energy  EATOM  =      1713.22913220
  ---------------------------------------------------
  free energy    TOTEN  =      -118.87902835 eV

  energy without entropy =     -118.87803103  energy(sigma->0) =     -118.87852969


--------------------------------------------------------------------------------------------------------




 average (electrostatic) potential at core
  the test charge radii are     1.0406
  (the norm of the test charge is              1.0000)
       1 -73.6109       2 -73.6111       3 -73.6110       4 -73.6110       5 -73.6110
       6 -73.6110       7 -73.6110       8 -73.6110       9 -73.6110      10 -73.6110
      11 -73.6110      12 -73.6110      13 -73.6110      14 -73.6110      15 -73.6110
      16 -73.6110      17 -73.6116      18 -73.6103      19 -73.6109      20 -73.6111
      21 -73.6116      22 -73.6103      23 -73.6109      24 -73.6111      25 -73.6116
      26 -73.6103      27 -73.6116      28 -73.6103      29 -73.6109      30 -73.6111
      31 -73.6109      32 -73.6111
 
 
 
 E-fermi :   7.1614     XC(G=0):  -9.8904     alpha+bet :-13.6538
   add alpha+bet to get absolut eigen values

 k-point   1 :       0.0000    0.0000    0.0000
  band No.  band energies     occupation 
      1      -3.4214      2.00000
      2      -1.2991      2.00000
      3      -1.2957      2.00000
      4      -1.2957      2.00000
      5      -1.2957      2.00000
      6      -1.2957      2.00000
      7      -1.2922      2.00000
      8       0.7952      2.00000
      9       0.7995      2.00000
     10       0.7995      2.00000
     11       0.8010      2.00000
     12       0.8011      2.00000
     13       0.8012      2.00000
     14       0.8012      2.00000
     15       0.8012      2.00000
     16       0.8013      2.00000
     17       0.8028      2.00000
     18       0.8028      2.00000
     19       0.8072      2.00000
     20       2.8643      2.00000
     21       2.8646      2.00000
     22       2.8646      2.00000
     23       2.8648      2.00000
     24       2.8781      2.00000
     25       2.8782      2.00000
     26       2.8782      2.00000
     27       2.8786      2.00000
     28       4.4170      2.00000
     29       4.4170      2.00000
     30       4.4171      2.00000
     31       5.5340      2.00000
     32       5.5341      2.00000
     33       5.5341      2.00000
     34       6.3924      2.00000
     35       6.3924      2.00000
     36       6.3965      2.00000
     37       6.3965      2.00000
     38       6.3965      2.00000
     39       6.3965      2.00000
     40       6.3965      2.00000
     41       6.3965      2.00000
     42       6.3966      2.00000
     43       6.3966      2.00000
     44       6.4007      2.00000
     45       6.4007      2.00000
     46       7.4449      0.00000
     47       7.4487      0.00000
     48       7.4487      0.00000
     49       7.4488      0.00000
     50       7.4488      0.00000
     51       7.4525      0.00000
     52       7.7802      0.00000
     53       7.7811      0.00000
     54       7.7811      0.00000
     55       7.7811      0.00000
     56       7.7811      0.00000
     57       7.7819      0.00000
     58       8.3748      0.00000
     59       8.3748      0.00000
     60       8.3766      0.00000
     61       8.3786      0.00000
     62       8.3787      0.00000
     63       8.3787      0.00000
     64       8.3787      0.00000
     65       8.3788      0.00000
     66       8.3789      0.00000
     67       8.3809      0.00000
     68       8.3827      0.00000
     69       8.3827      0.00000
     70       9.6251      0.00000
     71       9.6271      0.00000
     72       9.6282      0.00000

 k-point   2 :       0.1667    0.0000    0.0000
  band No.  band energies     occupation 
      1      -3.3619      2.00000
      2      -1.9420      2.00000
      3      -1.2371      2.00000
      4      -1.2371      2.00000
      5      -1.2371      2.00000
      6      -1.2371      2.00000
      7      -0.5355      2.00000
      8       0.1634      2.00000
      9       0.1634      2.00000
     10       0.1634      2.00000
     11       0.1634      2.00000
     12       0.8590      2.00000
     13       0.8590      2.00000
     14       0.8590      2.00000
     15       0.8590      2.00000
     16       1.5512      2.00000
     17       1.5512      2.00000
     18       1.5512      2.00000
     19       1.5512      2.00000
     20       2.2416      2.00000
     21       2.2416      2.00000
     22       2.2416      2.00000
     23       2.2416      2.00000
     24       3.5516      2.00000
     25       3.6124      2.00000
     26       3.6124      2.00000
     27       3.6124      2.00000
     28       3.6124      2.00000
     29       4.4719      2.00000
     30       4.4719      2.00000
     31       5.5721      2.00000
     32       5.5723      2.00000
     33       5.5723      2.00000
     34       5.5723      2.00000
     35       5.5925      2.00000
     36       5.5927      2.00000
     37       5.7911      2.00000
     38       5.7911      2.00000
     39       6.4515      2.00000
     40       6.4515      2.00000
     41       6.4515      2.00000
     42       6.4515      2.00000
     43       6.5037      2.00000
     44       6.9684      2.00000
     45       6.9684      2.00000
     46       7.1126      2.00000
     47       7.1126      2.00000
     48       7.5812      0.00000
     49       7.5812      0.00000
     50       7.5812      0.00000
     51       7.5813      0.00000
     52       7.6515      0.00000
     53       7.6515      0.00000
     54       7.6515      0.00000
     55       7.6515      0.00000
     56       7.7728      0.00000
     57       7.7728      0.00000
     58       7.7728      0.00000
     59       7.7728      0.00000
     60       8.3648      0.00000
     61       8.3648      0.00000
     62       8.5609      0.00000
     63       8.5609      0.00000
     64       8.5609      0.00000
     65       8.5609      0.00000
     66       9.0191      0.00000
     67       9.0192      0.00000
     68       9.0192      0.00000
     69       9.0193      0.00000
     70       9.0950      0.00000
     71       9.0950      0.00000
     72       9.0950      0.00000

 k-point   3 :       0.3333    0.0000    0.0000
  band No.  band energies     occupation 
      1      -3.1837      2.00000
      2      -2.4730      2.00000
      3      -1.0614      2.00000
      4      -1.0613      2.00000
      5      -1.0613      2.00000
      6      -1.0613      2.00000
      7      -0.3603      2.00000
      8      -0.3603      2.00000
      9      -0.3603      2.00000
     10      -0.3603      2.00000
     11       0.3362      2.00000
     12       1.0324      2.00000
     13       1.0324      2.00000
     14       1.0324      2.00000
     15       1.0324      2.00000
     16       1.7244      2.00000
     17       1.7245      2.00000
     18       1.7245      2.00000
     19       1.7245      2.00000
     20       2.3969      2.00000
     21       2.4113      2.00000
     22       2.4113      2.00000
     23       2.4113      2.00000
     24       2.4114      2.00000
     25       4.4419      2.00000
     26       4.4419      2.00000
     27       4.4419      2.00000
     28       4.4419      2.00000
     29       4.4621      2.00000
     30       4.4621      2.00000
     31       4.4621      2.00000
     32       4.4621      2.00000
     33       4.6367      2.00000
     34       4.6367      2.00000
     35       5.2961      2.00000
     36       5.2961      2.00000
     37       5.7673      2.00000
     38       5.7673      2.00000
     39       6.4597      2.00000
     40       6.4602      2.00000
     41       6.4678      2.00000
     42       6.4678      2.00000
     43       6.4678      2.00000
     44       6.4683      2.00000
     45       6.6166      2.00000
     46       6.6166      2.00000
     47       6.6166      2.00000
     48       6.6166      2.00000
     49       7.2772      0.00000
     50       7.2772      0.00000
     51       7.2772      0.00000
     52       7.2772      0.00000
     53       7.8352      0.00000
     54       7.8352      0.00000
     55       7.8352      0.00000
     56       7.8352      0.00000
     57       7.9395      0.00000
     58       7.9395      0.00000
     59       7.9707      0.00000
     60       8.5158      0.00000
     61       8.5158      0.00000
     62       8.5158      0.00000
     63       8.5159      0.00000
     64       9.1797      0.00000
     65       9.1797      0.00000
     66       9.9211      0.00000
     67       9.9214      0.00000
     68       9.9219      0.00000
     69       9.9231      0.00000
     70       9.9268      0.00000
     71       9.9283      0.00000
     72       9.9806      0.00000

 k-point   4 :       0.5000    0.0000    0.0000
  band No.  band energies     occupation 
      1      -2.8885      2.00000
      2      -2.8858      2.00000
      3      -0.7727      2.00000
      4      -0.7697      2.00000
      5      -0.7697      2.00000
      6      -0.7689      2.00000
      7      -0.7688      2.00000
      8      -0.7681      2.00000
      9      -0.7681      2.00000
     10      -0.7651      2.00000
     11       1.3136      2.00000
     12       1.3162      2.00000
     13       1.3199      2.00000
     14       1.3199      2.00000
     15       1.3199      2.00000
     16       1.3207      2.00000
     17       1.3215      2.00000
     18       1.3223      2.00000
     19       1.3223      2.00000
     20       1.3248      2.00000
     21       3.3765      2.00000
     22       3.3769      2.00000
     23       3.3769      2.00000
     24       3.3775      2.00000
     25       3.3778      2.00000
     26       3.3784      2.00000
     27       3.3784      2.00000
     28       3.3789      2.00000
     29       4.9099      2.00000
     30       4.9099      2.00000
     31       4.9128      2.00000
     32       4.9128      2.00000
     33       5.4157      2.00000
     34       5.4157      2.00000
     35       5.4164      2.00000
     36       5.4165      2.00000
     37       5.4171      2.00000
     38       5.4173      2.00000
     39       5.4180      2.00000
     40       5.4180      2.00000
     41       6.0557      2.00000
     42       6.0566      2.00000
     43       6.0584      2.00000
     44       6.0592      2.00000
     45       6.8896      2.00000
     46       6.8896      2.00000
     47       6.8905      2.00000
     48       6.8917      2.00000
     49       6.8919      2.00000
     50       6.8931      2.00000
     51       6.8941      2.00000
     52       6.8941      2.00000
     53       8.1186      0.00000
     54       8.1197      0.00000
     55       8.1197      0.00000
     56       8.1199      0.00000
     57       8.1217      0.00000
     58       8.1219      0.00000
     59       8.1219      0.00000
     60       8.1230      0.00000
     61       8.8763      0.00000
     62       8.8763      0.00000
     63       8.8786      0.00000
     64       8.8786      0.00000
     65       9.5704      0.00000
     66       9.5719      0.00000
     67      10.0795      0.00000
     68      10.0801      0.00000
     69      10.0812      0.00000
     70      10.0818      0.00000
     71      10.8573      0.00000
     72      10.8586      0.00000

 k-point   5 :       0.0000    0.1667    0.0000
  band No.  band energies     occupation 
      1      -3.3619      2.00000
      2      -1.9420      2.00000
      3      -1.2398      2.00000
      4      -1.2371      2.00000
      5      -1.2371      2.00000
      6      -1.2344      2.00000
      7      -0.5355      2.00000
      8       0.1607      2.00000
      9       0.1634      2.00000
     10       0.1634      2.00000
     11       0.1661      2.00000
     12       0.8569      2.00000
     13       0.8579      2.00000
     14       0.8601      2.00000
     15       0.8612      2.00000
     16       1.5485      2.00000
     17       1.5512      2.00000
     18       1.5512      2.00000
     19       1.5539      2.00000
     20       2.2394      2.00000
     21       2.2405      2.00000
     22       2.2427      2.00000
     23       2.2437      2.00000
     24       3.5516      2.00000
     25       3.6102      2.00000
     26       3.6113      2.00000
     27       3.6135      2.00000
     28       3.6146      2.00000
     29       4.4719      2.00000
     30       4.4720      2.00000
     31       5.5694      2.00000
     32       5.5723      2.00000
     33       5.5723      2.00000
     34       5.5751      2.00000
     35       5.5925      2.00000
     36       5.5925      2.00000
     37       5.7911      2.00000
     38       5.7911      2.00000
     39       6.4490      2.00000
     40       6.4515      2.00000
     41       6.4515      2.00000
     42       6.4541      2.00000
     43       6.5037      2.00000
     44       6.9683      2.00000
     45       6.9684      2.00000
     46       7.1126      2.00000
     47       7.1126      2.00000
     48       7.5788      0.00000
     49       7.5802      0.00000
     50       7.5823      0.00000
     51       7.5837      0.00000
     52       7.6493      0.00000
     53       7.6515      0.00000
     54       7.6515      0.00000
     55       7.6536      0.00000
     56       7.7702      0.00000
     57       7.7728      0.00000
     58       7.7729      0.00000
     59       7.7754      0.00000
     60       8.3648      0.00000
     61       8.3648      0.00000
     62       8.5587      0.00000
     63       8.5609      0.00000
     64       8.5609      0.00000
     65       8.5632      0.00000
     66       9.0172      0.00000
     67       9.0192      0.00000
     68       9.0192      0.00000
     69       9.0212      0.00000
     70       9.0926      0.00000
     71       9.0950      0.00000
     72       9.0966      0.00000

 k-point   6 :       0.1667    0.1667    0.0000
  band No.  band energies     occupation 
      1      -3.3025      2.00000
      2      -1.8843      2.00000
      3      -1.8821      2.00000
      4      -1.1785      2.00000
      5      -1.1785      2.00000
      6      -0.4788      2.00000
      7      -0.4771      2.00000
      8      -0.4754      2.00000
      9       0.2200      2.00000
     10       0.2209      2.00000
     11       0.2221      2.00000
     12       0.2230      2.00000
     13       0.9160      2.00000
     14       0.9171      2.00000
     15       1.6066      2.00000
     16       1.6078      2.00000
     17       1.6090      2.00000
     18       1.6091      2.00000
     19       1.6102      2.00000
     20       1.6114      2.00000
     21       2.2977      2.00000
     22       2.9819      2.00000
     23       2.9819      2.00000
     24       2.9887      2.00000
     25       2.9887      2.00000
     26       3.6075      2.00000
     27       3.6085      2.00000
     28       4.3501      2.00000
     29       4.3501      2.00000
     30       4.5269      2.00000
     31       4.9562      2.00000
     32       4.9584      2.00000
     33       5.5942      2.00000
     34       5.5942      2.00000
     35       5.6508      2.00000
     36       5.6649      2.00000
     37       5.6650      2.00000
     38       5.8449      2.00000
     39       5.8473      2.00000
     40       6.2919      2.00000
     41       6.2933      2.00000
     42       6.5600      2.00000
     43       6.5610      2.00000
     44       6.9682      2.00000
     45       6.9692      2.00000
     46       6.9705      2.00000
     47       6.9714      2.00000
     48       7.0443      2.00000
     49       7.0459      2.00000
     50       7.1653      0.58472
     51       7.1674      0.39491
     52       7.1696      0.24764
     53       7.8826      0.00000
     54       7.8844      0.00000
     55       8.3004      0.00000
     56       8.3015      0.00000
     57       8.3016      0.00000
     58       8.3026      0.00000
     59       8.4056      0.00000
     60       8.4417      0.00000
     61       8.4428      0.00000
     62       8.4725      0.00000
     63       8.4726      0.00000
     64       8.4883      0.00000
     65       8.4902      0.00000
     66       8.7178      0.00000
     67       8.7178      0.00000
     68       9.2639      0.00000
     69       9.2660      0.00000
     70       9.7337      0.00000
     71       9.7339      0.00000
     72       9.8108      0.00000

 k-point   7 :       0.3333    0.1667    0.0000
  band No.  band energies     occupation 
      1      -3.1244      2.00000
      2      -2.4139      2.00000
      3      -1.7067      2.00000
      4      -1.0041      2.00000
      5      -1.0028      2.00000
      6      -1.0014      2.00000
      7      -0.3036      2.00000
      8      -0.3021      2.00000
      9      -0.3008      2.00000
     10       0.3929      2.00000
     11       0.3953      2.00000
     12       0.3956      2.00000
     13       0.3970      2.00000
     14       1.0903      2.00000
     15       1.0903      2.00000
     16       1.7799      2.00000
     17       1.7815      2.00000
     18       1.7817      2.00000
     19       2.4540      2.00000
     20       2.4677      2.00000
     21       2.4683      2.00000
     22       2.4707      2.00000
     23       2.4714      2.00000
     24       3.1537      2.00000
     25       3.7771      2.00000
     26       3.8198      2.00000
     27       3.8381      2.00000
     28       3.8382      2.00000
     29       4.4524      2.00000
     30       4.4982      2.00000
     31       4.4982      2.00000
     32       4.6916      2.00000
     33       5.1733      2.00000
     34       5.1963      2.00000
     35       5.1963      2.00000
     36       5.3511      2.00000
     37       5.7987      2.00000
     38       5.7988      2.00000
     39       5.8254      2.00000
     40       5.8515      2.00000
     41       5.8515      2.00000
     42       6.0111      2.00000
     43       6.4684      2.00000
     44       6.4684      2.00000
     45       6.5118      2.00000
     46       6.6714      2.00000
     47       6.7307      2.00000
     48       7.1458      1.97289
     49       7.1932      0.00001
     50       7.1933      0.00001
     51       7.2156      0.00000
     52       7.3328      0.00000
     53       7.4050      0.00000
     54       7.8984      0.00000
     55       7.9924      0.00000
     56       7.9957      0.00000
     57       8.0265      0.00000
     58       8.5484      0.00000
     59       8.7519      0.00000
     60       8.7519      0.00000
     61       9.1140      0.00000
     62       9.1289      0.00000
     63       9.1289      0.00000
     64       9.2346      0.00000
     65       9.2378      0.00000
     66       9.3160      0.00000
     67       9.3902      0.00000
     68       9.4250      0.00000
     69       9.4250      0.00000
     70       9.9814      0.00000
     71      10.0383      0.00000
     72      10.0474      0.00000

 k-point   8 :       0.5000    0.1667    0.0000
  band No.  band energies     occupation 
      1      -2.8293      2.00000
      2      -2.8266      2.00000
      3      -1.4144      2.00000
      4      -1.4117      2.00000
      5      -0.7124      2.00000
      6      -0.7113      2.00000
      7      -0.7096      2.00000
      8      -0.7085      2.00000
      9      -0.0127      2.00000
     10      -0.0099      2.00000
     11       0.6835      2.00000
     12       0.6846      2.00000
     13       0.6862      2.00000
     14       0.6873      2.00000
     15       1.3730      2.00000
     16       1.3744      2.00000
     17       2.0669      2.00000
     18       2.0680      2.00000
     19       2.0697      2.00000
     20       2.0708      2.00000
     21       2.7498      2.00000
     22       2.7513      2.00000
     23       3.4338      2.00000
     24       3.4339      2.00000
     25       3.4353      2.00000
     26       3.4354      2.00000
     27       4.0573      2.00000
     28       4.0602      2.00000
     29       4.1145      2.00000
     30       4.1160      2.00000
     31       4.7956      2.00000
     32       4.7957      2.00000
     33       4.7971      2.00000
     34       4.7972      2.00000
     35       4.9649      2.00000
     36       4.9678      2.00000
     37       6.0758      2.00000
     38       6.0770      2.00000
     39       6.0786      2.00000
     40       6.0798      2.00000
     41       6.1133      2.00000
     42       6.1160      2.00000
     43       6.1461      2.00000
     44       6.1463      2.00000
     45       6.1477      2.00000
     46       6.1477      2.00000
     47       6.2847      2.00000
     48       6.2876      2.00000
     49       7.0118      2.00000
     50       7.0146      2.00000
     51       7.4996      0.00000
     52       7.5022      0.00000
     53       7.6066      0.00000
     54       7.6096      0.00000
     55       8.0769      0.00000
     56       8.0787      0.00000
     57       8.8407      0.00000
     58       8.8434      0.00000
     59       8.9313      0.00000
     60       8.9336      0.00000
     61       9.0336      0.00000
     62       9.0344      0.00000
     63       9.0364      0.00000
     64       9.0372      0.00000
     65       9.6251      0.00000
     66       9.6267      0.00000
     67      10.0591      0.00000
     68      10.0594      0.00000
     69      10.0610      0.00000
     70      10.0612      0.00000
     71      10.1356      0.00000
     72      10.1362      0.00000

 k-point   9 :       0.0000    0.3333    0.0000
  band No.  band energies     occupation 
      1      -3.1837      2.00000
      2      -2.4730      2.00000
      3      -1.0640      2.00000
      4      -1.0613      2.00000
      5      -1.0613      2.00000
      6      -1.0586      2.00000
      7      -0.3630      2.00000
      8      -0.3603      2.00000
      9      -0.3603      2.00000
     10      -0.3576      2.00000
     11       0.3362      2.00000
     12       1.0303      2.00000
     13       1.0314      2.00000
     14       1.0335      2.00000
     15       1.0346      2.00000
     16       1.7223      2.00000
     17       1.7234      2.00000
     18       1.7255      2.00000
     19       1.7266      2.00000
     20       2.3970      2.00000
     21       2.4086      2.00000
     22       2.4113      2.00000
     23       2.4113      2.00000
     24       2.4140      2.00000
     25       4.4391      2.00000
     26       4.4419      2.00000
     27       4.4419      2.00000
     28       4.4447      2.00000
     29       4.4599      2.00000
     30       4.4610      2.00000
     31       4.4632      2.00000
     32       4.4643      2.00000
     33       4.6367      2.00000
     34       4.6367      2.00000
     35       5.2961      2.00000
     36       5.2961      2.00000
     37       5.7673      2.00000
     38       5.7674      2.00000
     39       6.4597      2.00000
     40       6.4602      2.00000
     41       6.4658      2.00000
     42       6.4667      2.00000
     43       6.4689      2.00000
     44       6.4702      2.00000
     45       6.6141      2.00000
     46       6.6166      2.00000
     47       6.6167      2.00000
     48       6.6192      2.00000
     49       7.2746      0.00000
     50       7.2772      0.00000
     51       7.2772      0.00000
     52       7.2798      0.00000
     53       7.8332      0.00000
     54       7.8352      0.00000
     55       7.8352      0.00000
     56       7.8372      0.00000
     57       7.9395      0.00000
     58       7.9395      0.00000
     59       7.9708      0.00000
     60       8.5138      0.00000
     61       8.5158      0.00000
     62       8.5158      0.00000
     63       8.5178      0.00000
     64       9.1797      0.00000
     65       9.1797      0.00000
     66       9.9200      0.00000
     67       9.9215      0.00000
     68       9.9225      0.00000
     69       9.9241      0.00000
     70       9.9265      0.00000
     71       9.9271      0.00000
     72       9.9817      0.00000

 k-point  10 :       0.1667    0.3333    0.0000
  band No.  band energies     occupation 
      1      -3.1244      2.00000
      2      -2.4139      2.00000
      3      -1.7067      2.00000
      4      -1.0041      2.00000
      5      -1.0028      2.00000
      6      -1.0014      2.00000
      7      -0.3036      2.00000
      8      -0.3021      2.00000
      9      -0.3008      2.00000
     10       0.3930      2.00000
     11       0.3948      2.00000
     12       0.3956      2.00000
     13       0.3973      2.00000
     14       1.0903      2.00000
     15       1.0903      2.00000
     16       1.7792      2.00000
     17       1.7815      2.00000
     18       1.7824      2.00000
     19       2.4540      2.00000
     20       2.4684      2.00000
     21       2.4685      2.00000
     22       2.4705      2.00000
     23       2.4707      2.00000
     24       3.1537      2.00000
     25       3.7771      2.00000
     26       3.8198      2.00000
     27       3.8381      2.00000
     28       3.8382      2.00000
     29       4.4523      2.00000
     30       4.4982      2.00000
     31       4.4983      2.00000
     32       4.6916      2.00000
     33       5.1733      2.00000
     34       5.1963      2.00000
     35       5.1963      2.00000
     36       5.3511      2.00000
     37       5.7987      2.00000
     38       5.7988      2.00000
     39       5.8255      2.00000
     40       5.8515      2.00000
     41       5.8515      2.00000
     42       6.0111      2.00000
     43       6.4684      2.00000
     44       6.4684      2.00000
     45       6.5118      2.00000
     46       6.6714      2.00000
     47       6.7307      2.00000
     48       7.1458      1.97295
     49       7.1933      0.00001
     50       7.1933      0.00001
     51       7.2156      0.00000
     52       7.3328      0.00000
     53       7.4050      0.00000
     54       7.8984      0.00000
     55       7.9931      0.00000
     56       7.9950      0.00000
     57       8.0265      0.00000
     58       8.5484      0.00000
     59       8.7519      0.00000
     60       8.7520      0.00000
     61       9.1140      0.00000
     62       9.1289      0.00000
     63       9.1289      0.00000
     64       9.2349      0.00000
     65       9.2375      0.00000
     66       9.3160      0.00000
     67       9.3902      0.00000
     68       9.4250      0.00000
     69       9.4250      0.00000
     70       9.9815      0.00000
     71      10.0383      0.00000
     72      10.0389      0.00000

 k-point  11 :       0.3333    0.3333    0.0000
  band No.  band energies     occupation 
      1      -2.9465      2.00000
[...]
      6      -0.8858      2.00000
      7      -0.8858      2.00000
      8      -0.8858      2.00000
      9       0.5112      2.00000
     10       0.5112      2.00000
     11       0.5112      2.00000
     12       0.5112      2.00000
     13       1.8913      2.00000
     14       1.8913      2.00000
     15       1.8913      2.00000
     16       1.8914      2.00000
     17       1.8914      2.00000
     18       1.8914      2.00000
     19       1.8914      2.00000
     20       1.8914      2.00000
     21       3.2641      2.00000
     22       3.2641      2.00000
     23       3.2641      2.00000
     24       3.2641      2.00000
     25       3.2641      2.00000
     26       3.2641      2.00000
     27       3.2641      2.00000
     28       3.2641      2.00000
     29       4.5644      2.00000
     30       4.5644      2.00000
     31       4.5645      2.00000
     32       4.5645      2.00000
     33       4.6261      2.00000
     34       4.6261      2.00000
     35       4.6262      2.00000
     36       4.6262      2.00000
     37       4.6262      2.00000
     38       4.6262      2.00000
     39       4.6263      2.00000
     40       4.6263      2.00000
     41       5.9685      2.00000
     42       5.9685      2.00000
     43       5.9685      2.00000
     44       5.9685      2.00000
     45       7.3131      0.00000
     46       7.3131      0.00000
     47       7.3131      0.00000
     48       7.3131      0.00000
     49       7.5307      0.00000
     50       7.5307      0.00000
     51       7.5307      0.00000
     52       7.5307      0.00000
     53       8.5695      0.00000
     54       8.5695      0.00000
     55       8.5697      0.00000
     56       8.5697      0.00000
     57       8.5697      0.00000
     58       8.5698      0.00000
     59       8.5699      0.00000
     60       8.5699      0.00000
     61       8.6457      0.00000
     62       8.6457      0.00000
     63       8.6457      0.00000
     64       8.6457      0.00000
     65      10.1228      0.00000
     66      10.1228      0.00000
     67      10.1231      0.00000
     68      10.1231      0.00000
     69      10.1231      0.00000
     70      10.1231      0.00000
     71      10.1234      0.00000
     72      10.1234      0.00000

 k-point  39 :       0.3333    0.5000    0.5000
  band No.  band energies     occupation 
      1      -2.1190      2.00000
      2      -2.1189      2.00000
      3      -2.1189      2.00000
      4      -2.1189      2.00000
      5      -1.4131      2.00000
      6      -1.4131      2.00000
      7      -1.4131      2.00000
      8      -1.4131      2.00000
      9       1.3771      2.00000
     10       1.3771      2.00000
     11       1.3771      2.00000
     12       1.3771      2.00000
     13       2.0635      2.00000
     14       2.0635      2.00000
     15       2.0635      2.00000
     16       2.0636      2.00000
     17       2.0636      2.00000
     18       2.0636      2.00000
     19       2.0636      2.00000
     20       2.0636      2.00000
     21       2.7506      2.00000
     22       2.7506      2.00000
     23       2.7507      2.00000
     24       2.7507      2.00000
     25       2.7507      2.00000
     26       2.7507      2.00000
     27       2.7507      2.00000
     28       2.7507      2.00000
     29       3.4226      2.00000
     30       3.4226      2.00000
     31       3.4226      2.00000
     32       3.4227      2.00000
     33       5.4701      2.00000
     34       5.4701      2.00000
     35       5.4702      2.00000
     36       5.4702      2.00000
     37       5.4702      2.00000
     38       5.4702      2.00000
     39       5.4703      2.00000
     40       5.4703      2.00000
     41       6.1380      2.00000
     42       6.1380      2.00000
     43       6.1380      2.00000
     44       6.1380      2.00000
     45       6.8105      2.00000
     46       6.8105      2.00000
     47       6.8105      2.00000
     48       6.8105      2.00000
     49       7.4626      0.00000
     50       7.4626      0.00000
     51       7.4627      0.00000
     52       7.4627      0.00000
     53       7.4627      0.00000
     54       7.4627      0.00000
     55       7.4628      0.00000
     56       7.4628      0.00000
     57       8.9807      0.00000
     58       8.9807      0.00000
     59       8.9807      0.00000
     60       8.9807      0.00000
     61       9.4719      0.00000
     62       9.4719      0.00000
     63       9.4719      0.00000
     64       9.4719      0.00000
     65      10.2912      0.00000
     66      10.2912      0.00000
     67      10.2914      0.00000
     68      10.2914      0.00000
     69      10.2914      0.00000
     70      10.2915      0.00000
     71      10.2916      0.00000
     72      10.2916      0.00000

 k-point  40 :       0.5000    0.5000    0.5000
  band No.  band energies     occupation 
      1      -1.8289      2.00000
      2      -1.8249      2.00000
      3      -1.8249      2.00000
      4      -1.8246      2.00000
      5      -1.8243      2.00000
      6      -1.8240      2.00000
      7      -1.8240      2.00000
      8      -1.8200      2.00000
      9       2.3402      2.00000
     10       2.3464      2.00000
     11       2.3464      2.00000
     12       2.3494      2.00000
     13       2.3497      2.00000
     14       2.3497      2.00000
     15       2.3500      2.00000
     16       2.3500      2.00000
     17       2.3501      2.00000
     18       2.3501      2.00000
     19       2.3501      2.00000
     20       2.3502      2.00000
     21       2.3502      2.00000
     22       2.3502      2.00000
     23       2.3503      2.00000
     24       2.3503      2.00000
     25       2.3503      2.00000
     26       2.3503      2.00000
     27       2.3506      2.00000
     28       2.3507      2.00000
     29       2.3509      2.00000
     30       2.3539      2.00000
     31       2.3539      2.00000
     32       2.3602      2.00000
     33       6.4130      2.00000
     34       6.4130      2.00000
     35       6.4147      2.00000
     36       6.4167      2.00000
     37       6.4179      2.00000
     38       6.4183      2.00000
     39       6.4183      2.00000
     40       6.4183      2.00000
     41       6.4185      2.00000
     42       6.4186      2.00000
     43       6.4186      2.00000
     44       6.4186      2.00000
     45       6.4186      2.00000
     46       6.4187      2.00000
     47       6.4187      2.00000
     48       6.4187      2.00000
     49       6.4189      2.00000
     50       6.4189      2.00000
     51       6.4189      2.00000
     52       6.4193      2.00000
     53       6.4205      2.00000
     54       6.4225      2.00000
     55       6.4242      2.00000
     56       6.4242      2.00000
     57      10.3987      0.00000
     58      10.3987      0.00000
     59      10.3988      0.00000
     60      10.3993      0.00000
     61      10.4007      0.00000
     62      10.4014      0.00000
     63      10.4014      0.00000
     64      10.4014      0.00000
     65      10.5628      0.00000
     66      10.5638      0.00000
     67      10.5648      0.00000
     68      10.5656      0.00000
     69      10.5659      0.00000
     70      10.5662      0.00000
     71      10.5663      0.00000
     72      10.5665      0.00000


--------------------------------------------------------------------------------------------------------


 soft charge-density along one line, spin component           1
         0         1         2         3         4         5         6         7         8         9
 total charge-density along one line
 
 pseudopotential strength for first ion, spin component:           1
  8.472  -0.005  -0.000   0.000  -0.000  -0.000   0.000  -0.000
 -0.005   0.000  -0.000   0.000  -0.000   0.000  -0.000   0.000
 -0.000  -0.000   1.984   0.000   0.000  -0.024  -0.000  -0.000
  0.000   0.000   0.000   1.984  -0.000  -0.000  -0.024   0.000
 -0.000  -0.000   0.000  -0.000   1.984  -0.000   0.000  -0.024
 -0.000   0.000  -0.024  -0.000  -0.000  -0.012  -0.000  -0.000
  0.000  -0.000  -0.000  -0.024   0.000  -0.000  -0.012   0.000
 -0.000   0.000  -0.000   0.000  -0.024  -0.000   0.000  -0.012
 total augmentation occupancy for first ion, spin component:           1
  1.368  -0.380   0.000   0.000   0.001   0.000  -0.000  -0.001
 -0.380   0.390   0.000   0.000  -0.003  -0.000  -0.000   0.001
  0.000   0.000   0.666   0.005   0.011  -0.128  -0.001  -0.001
  0.000   0.000   0.005   0.667  -0.000  -0.001  -0.125  -0.001
  0.001  -0.003   0.011  -0.000   0.667  -0.001  -0.001  -0.127
  0.000  -0.000  -0.128  -0.001  -0.001   0.028   0.000   0.000
 -0.000  -0.000  -0.001  -0.125  -0.001   0.000   0.028   0.000
 -0.001   0.001  -0.001  -0.001  -0.127   0.000   0.000   0.028


------------------------ aborting loop because EDIFF is reached ----------------------------------------




--------------------------------------------------------------------------------------------------------


    CHARGE:  VPU time    1.58: CPU time    1.58
    FORLOC:  VPU time    0.03: CPU time    0.04
    FORNL :  VPU time    7.83: CPU time    7.83
    STRESS:  VPU time   18.72: CPU time   18.71
    FORCOR:  VPU time    0.27: CPU time    0.27
    FORHAR:  VPU time    0.14: CPU time    0.14
    MIXING:  VPU time    0.06: CPU time    0.06


--------------------------------------------------------------------------------------------------------



  FREE ENERGIE OF THE ION-ELECTRON SYSTEM (eV)
  ---------------------------------------------------
  free  energy   TOTEN  =      -118.879028 eV

  energy  without entropy=     -118.878031  energy(sigma->0) =     -118.878530
 

  FORCE on cell =-STRESS in cart. coord.  units (eV/reduce length):
  Direction    X        Y        Z        XY       YZ       ZX
  --------------------------------------------------------------------------------------
  Alpha Z     -5.98     -5.98     -5.98
  Ewald     -762.07   -762.07   -762.07      0.00     -0.00      0.00
  Hartree      1.04      1.05      1.05     -0.00     -0.00     -0.00
  E(xc)     -267.02   -267.02   -267.02     -0.00     -0.00     -0.00
  Local       -1.43     -1.44     -1.44      0.00     -0.00      0.00
  n-local    595.94    596.71    595.18     -0.30     -0.04      0.21
  augment    -35.03    -35.03    -35.03      0.00      0.00      0.00
  Kinetic    455.06    450.30    459.84      7.50      2.98     -1.53
  -------------------------------------------------------------------------------------
  Total      -19.48    -19.47    -19.47      0.00      0.00      0.00
  in kB      -54.26    -54.24    -54.24      0.00      0.00      0.00
  external pressure =      -54.24 kB  Pullay stress =        0.00 kB


 VOLUME and BASIS-vectors are now :
 -----------------------------------------------------------------------------
  energy-cutoff  :      500.00
  volume of cell :      575.28
      direct lattice vectors                 reciprocal lattice vectors
     8.316851122  0.000000000  0.000000000     0.120237814  0.000000000  0.000000000
     0.000000000  8.316851122  0.000000000     0.000000000  0.120237814  0.000000000
     0.000000000  0.000000000  8.316851122     0.000000000  0.000000000  0.120237814

  length of vectors
     8.316851122  8.316851122  8.316851122     0.120237814  0.120237814  0.120237814


 FORCES acting on ions
    electron-ion (+dipol)            ewald-force                    non-local-force                 convergence-correction
 -----------------------------------------------------------------------------------------------
   0.354E+00 -.117E-13 -.105E-07   -.293E+00 0.178E-14 -.584E-15   -.908E-01 0.306E-19 0.171E-19   0.230E-05 -.913E-14 -.679E-14
   -.781E-01 -.808E-13 0.713E-13   0.772E-01 0.400E-14 0.362E-14   0.307E-02 -.486E-19 0.955E-20   0.174E-05 -.131E-13 -.542E-14
   0.264E-01 -.210E-14 -.178E-13   -.244E-01 0.377E-14 0.384E-14   -.192E-02 0.243E-19 -.330E-21   0.310E-06 0.926E-14 -.432E-14
   -.207E-01 -.148E-12 -.332E-12   0.192E-01 0.377E-14 0.384E-14   0.165E-02 0.465E-19 -.151E-19   -.776E-06 0.131E-13 -.218E-14
   0.264E-01 -.396E-13 -.532E-14   -.244E-01 0.355E-14 0.305E-14   -.192E-02 -.223E-19 0.884E-20   0.318E-06 -.281E-14 0.670E-14
   -.207E-01 -.360E-12 0.357E-13   0.192E-01 0.355E-14 0.305E-14   0.165E-02 0.989E-19 -.628E-20   -.781E-06 -.414E-14 0.538E-14
   0.665E-02 0.399E-13 -.237E-14   -.101E-01 0.355E-14 0.238E-14   0.187E-02 0.119E-18 -.167E-19   -.567E-06 0.294E-14 0.425E-14
   -.877E-02 0.309E-12 0.247E-13   0.944E-02 0.355E-14 0.238E-14   -.190E-02 0.716E-19 0.202E-19   0.385E-06 0.417E-14 0.217E-14
   0.440E-01 -.205E-03 0.205E-03   -.461E-01 0.174E-03 -.174E-03   0.318E-03 0.486E-04 -.486E-04   -.753E-06 -.110E-06 0.110E-06
   -.269E-01 0.493E-04 -.493E-04   0.259E-01 -.522E-04 0.522E-04   0.599E-03 -.238E-04 0.238E-04   0.751E-06 -.635E-08 0.636E-08
   0.440E-01 0.205E-03 0.205E-03   -.461E-01 -.174E-03 -.174E-03   0.318E-03 -.486E-04 -.486E-04   -.753E-06 0.110E-06 0.110E-06
   -.269E-01 -.493E-04 -.493E-04   0.259E-01 0.522E-04 0.522E-04   0.599E-03 0.238E-04 0.238E-04   0.751E-06 0.635E-08 0.636E-08
   0.440E-01 -.205E-03 -.205E-03   -.461E-01 0.174E-03 0.174E-03   0.318E-03 0.486E-04 0.486E-04   -.753E-06 -.110E-06 -.110E-06
   -.269E-01 0.493E-04 0.493E-04   0.259E-01 -.522E-04 -.522E-04   0.599E-03 -.238E-04 -.238E-04   0.751E-06 -.635E-08 -.636E-08
   0.440E-01 0.205E-03 -.205E-03   -.461E-01 -.174E-03 0.174E-03   0.318E-03 -.486E-04 0.486E-04   -.753E-06 0.110E-06 -.110E-06
   -.269E-01 -.493E-04 0.493E-04   0.259E-01 0.522E-04 -.522E-04   0.599E-03 0.238E-04 -.238E-04   0.751E-06 0.635E-08 -.636E-08
   -.442E-01 -.380E-14 0.771E-01   0.373E-01 0.222E-14 -.707E-01   0.110E-01 0.131E-19 -.111E-01   -.721E-06 -.671E-14 -.477E-07
   -.440E-01 0.252E-12 -.779E-01   0.371E-01 0.178E-14 0.713E-01   0.112E-01 -.372E-19 0.115E-01   -.701E-06 -.339E-14 0.178E-06
   -.106E-03 -.125E-13 0.711E-02   0.124E-02 0.178E-14 -.585E-02   -.534E-03 0.195E-19 -.284E-03   0.445E-06 0.678E-14 0.516E-06
   0.411E-04 0.636E-13 -.717E-02   0.113E-02 0.178E-14 0.586E-02   -.536E-03 -.336E-20 0.287E-03   0.247E-06 0.354E-14 -.486E-06
   -.442E-01 -.424E-14 -.771E-01   0.373E-01 0.222E-14 0.707E-01   0.110E-01 -.321E-20 0.111E-01   -.721E-06 -.101E-13 0.477E-07
   -.440E-01 -.597E-13 0.779E-01   0.371E-01 0.178E-14 -.713E-01   0.112E-01 -.296E-19 -.115E-01   -.701E-06 -.880E-14 -.178E-06
   -.106E-03 -.161E-13 -.711E-02   0.124E-02 0.178E-14 0.585E-02   -.534E-03 0.526E-21 0.284E-03   0.445E-06 0.101E-13 -.516E-06
   0.411E-04 -.210E-12 0.717E-02   0.113E-02 0.178E-14 -.586E-02   -.536E-03 0.178E-19 -.287E-03   0.247E-06 0.891E-14 0.486E-06
   -.442E-01 -.771E-01 0.837E-14   0.373E-01 0.707E-01 -.401E-14   0.110E-01 0.111E-01 -.938E-21   -.720E-06 0.443E-07 -.499E-14
   -.440E-01 0.779E-01 -.448E-12   0.371E-01 -.713E-01 -.402E-14   0.112E-01 -.115E-01 -.237E-20   -.700E-06 -.175E-06 -.878E-14
   -.442E-01 0.771E-01 0.471E-15   0.373E-01 -.707E-01 -.446E-14   0.110E-01 -.111E-01 -.260E-20   -.720E-06 -.443E-07 -.162E-14
   -.440E-01 -.779E-01 -.468E-14   0.371E-01 0.713E-01 -.402E-14   0.112E-01 0.115E-01 -.293E-20   -.700E-06 0.175E-06 -.339E-14
   -.106E-03 -.711E-02 -.392E-14   0.124E-02 0.585E-02 -.333E-14   -.534E-03 0.284E-03 -.172E-19   0.444E-06 -.520E-06 0.498E-14
   0.411E-04 0.717E-02 0.165E-12   0.113E-02 -.586E-02 -.311E-14   -.536E-03 -.287E-03 0.155E-19   0.246E-06 0.489E-06 0.868E-14
   -.106E-03 0.711E-02 0.725E-15   0.124E-02 -.585E-02 -.267E-14   -.534E-03 -.284E-03 0.285E-19   0.444E-06 0.520E-06 0.161E-14
   0.411E-04 -.717E-02 -.852E-14   0.113E-02 0.586E-02 -.312E-14   -.536E-03 0.287E-03 -.535E-20   0.246E-06 -.489E-06 0.329E-14
 -----------------------------------------------------------------------------------------------
   0.263E-05 -.557E-12 -.105E-07   -.559E-14 0.121E-13 0.105E-14   -.188E-05 0.173E-17 0.153E-17   -.224E-08 0.972E-18 0.259E-16
 
 
 POSITION                                       TOTAL-FORCE (eV/Angst)
 -----------------------------------------------------------------------------------
      2.08921      2.07921      0.00000        -0.029740     -0.000000      0.000000
      6.23764      2.07921      0.00000         0.002132     -0.000000     -0.000000
      2.07921      6.23764      0.00000         0.000047      0.000000      0.000000
      6.23764      6.23764      0.00000         0.000125     -0.000000      0.000000
      2.07921      2.07921      4.15843         0.000047      0.000000     -0.000000
      6.23764      2.07921      4.15843         0.000125      0.000000      0.000000
      2.07921      6.23764      4.15843        -0.001570      0.000000      0.000000
      6.23764      6.23764      4.15843        -0.001227     -0.000000     -0.000000
      2.07921      0.00000      2.07921        -0.001837      0.000018     -0.000018
      6.23764      0.00000      2.07921        -0.000334     -0.000027      0.000027
      2.07921      4.15843      2.07921        -0.001837     -0.000018     -0.000018
      6.23764      4.15843      2.07921        -0.000334      0.000027      0.000027
      2.07921      0.00000      6.23764        -0.001837      0.000018      0.000018
      6.23764      0.00000      6.23764        -0.000334     -0.000027     -0.000027
      2.07921      4.15843      6.23764        -0.001837     -0.000018      0.000018
      6.23764      4.15843      6.23764        -0.000334      0.000027     -0.000027
      0.00000      2.07921      2.07921         0.004186      0.000000     -0.004742
      4.15843      2.07921      2.07921         0.004260     -0.000000      0.004897
      0.00000      6.23764      2.07921         0.000603      0.000000      0.000973
      4.15843      6.23764      2.07921         0.000636      0.000000     -0.001026
      0.00000      2.07921      6.23764         0.004186     -0.000000      0.004742
      4.15843      2.07921      6.23764         0.004260      0.000000     -0.004897
      0.00000      6.23764      6.23764         0.000603     -0.000000     -0.000973
      4.15843      6.23764      6.23764         0.000636      0.000000      0.001026
      0.00000      0.00000      0.00000         0.004186      0.004742      0.000000
      4.15843      0.00000      0.00000         0.004260     -0.004897      0.000000
      0.00000      4.15843      0.00000         0.004186     -0.004742     -0.000000
      4.15843      4.15843      0.00000         0.004260      0.004897      0.000000
      0.00000      0.00000      4.15843         0.000603     -0.000973     -0.000000
      4.15843      0.00000      4.15843         0.000636      0.001026      0.000000
      0.00000      4.15843      4.15843         0.000603      0.000973      0.000000
      4.15843      4.15843      4.15843         0.000636     -0.001026      0.000000
 -----------------------------------------------------------------------------------
    total drift:                                0.000001     -0.000000     -0.000000


--------------------------------------------------------------------------------------------------------



 mean value of Nose-termostat <S>:     1.000 mean value of <T> :     0.000
 mean temperature <T/S>/<1/S>  :     0.000

     LOOP+:  VPU time  490.54: CPU time  490.57
  
  
 General timing and accounting informations for this job:
 ========================================================
  
                  Total CPU time used (sec):      498.407
                            User time (sec):      400.258
                          System time (sec):       98.149
                         Elapsed time (sec):      498.444
  
                   Maximum memory used (kb):     1011812.
                   Average memory used (kb):           0.
  
                          Minor page faults:       233525
                          Major page faults:            0
                 Voluntary context switches:          865
