<?xml version="1.0" encoding="ISO-8859-1"?>
<modeling>
 <generator>
  <i name="program" type="string">vasp</i>
  <i name="version" type="string">4.6.28 </i>
  <i name="subversion" type="string">25Jul05 complex  parallel</i>
  <i name="platform" type="string">LinuxIFC</i>
  <i name="date" type="string">2016 10 19</i>
  <i name="time" type="string">17:30:31</i>
 </generator>
 <incar>
  <i type="string" name="PREC">accurate</i>
  <i type="int" name="IALGO">    38</i>
  <i name="EDIFF">      0.00000001</i>
  <i type="int" name="IBRION">    -1</i>
  <i name="ENCUT">    500.00000000</i>
  <i type="logical" name="LREAL"> F  </i>
  <i type="int" name="ISMEAR">     0</i>
  <i name="SIGMA">      0.01000000</i>
  <i type="logical" name="LWAVE"> F  </i>
  <i type="logical" name="LCHARG"> F  </i>
 </incar>
 <kpoints>
  <generation param="Auto">
   <i name="subdivisionlength">     50.00000000</i>
   <v type="int" name="divisions">       6       6       6</v>
   <v name="usershift">      0.00000000      0.00000000      0.00000000</v>
   <v name="genvec1">      0.16666667      0.00000000      0.00000000</v>
   <v name="genvec2">      0.00000000      0.16666667      0.00000000</v>
   <v name="genvec3">      0.00000000      0.00000000      0.16666667</v>
   <v name="shift">      0.00000000      0.00000000      0.00000000</v>
  </generation>
  <varray name="kpointlist" >
   <v>       0.00000000      0.00000000      0.00000000</v>
   <v>       0.16666667      0.00000000      0.00000000</v>
   <v>       0.33333333      0.00000000      0.00000000</v>
   <v>       0.50000000      0.00000000      0.00000000</v>
   <v>       0.00000000      0.16666667      0.00000000</v>
   <v>       0.16666667      0.16666667      0.00000000</v>
   <v>       0.33333333      0.16666667      0.00000000</v>
   <v>       0.50000000      0.16666667      0.00000000</v>
   <v>       0.00000000      0.33333333      0.00000000</v>
   <v>       0.16666667      0.33333333      0.00000000</v>
   <v>       0.33333333      0.33333333      0.00000000</v>
   <v>       0.50000000      0.33333333      0.00000000</v>
   <v>       0.00000000      0.50000000      0.00000000</v>
   <v>       0.16666667      0.50000000      0.00000000</v>
   <v>       0.33333333      0.50000000      0.00000000</v>
   <v>       0.50000000      0.50000000      0.00000000</v>
   <v>       0.00000000      0.16666667      0.16666667</v>
   <v>       0.16666667      0.16666667      0.16666667</v>
   <v>       0.33333333      0.16666667      0.16666667</v>
   <v>       0.50000000      0.16666667      0.16666667</v>
   <v>       0.00000000      0.33333333      0.16666667</v>
   <v>       0.16666667      0.33333333      0.16666667</v>
   <v>       0.33333333      0.33333333      0.16666667</v>
   <v>       0.50000000      0.33333333      0.16666667</v>
   <v>       0.00000000      0.50000000      0.16666667</v>
   <v>       0.16666667      0.50000000      0.16666667</v>
   <v>       0.33333333      0.50000000      0.16666667</v>
   <v>       0.50000000      0.50000000      0.16666667</v>
   <v>       0.00000000      0.33333333      0.33333333</v>
   <v>       0.16666667      0.33333333      0.33333333</v>
   <v>       0.33333333      0.33333333      0.33333333</v>
   <v>       0.50000000      0.33333333      0.33333333</v>
   <v>       0.00000000      0.50000000      0.33333333</v>
   <v>       0.16666667      0.50000000      0.33333333</v>
   <v>       0.33333333      0.50000000      0.33333333</v>
   <v>       0.50000000      0.50000000      0.33333333</v>
   <v>       0.00000000      0.50000000      0.50000000</v>
   <v>       0.16666667      0.50000000      0.50000000</v>
   <v>       0.33333333      0.50000000      0.50000000</v>
   <v>       0.50000000      0.50000000      0.50000000</v>
  </varray>
  <varray name="weights" >
   <v>       0.00462963</v>
   <v>       0.00925926</v>
   <v>       0.00925926</v>
   <v>       0.00462963</v>
   <v>       0.01851852</v>
   <v>       0.03703704</v>
   <v>       0.03703704</v>
   <v>       0.01851852</v>
   <v>       0.01851852</v>
   <v>       0.03703704</v>
   <v>       0.03703704</v>
   <v>       0.01851852</v>
   <v>       0.00925926</v>
   <v>       0.01851852</v>
   <v>       0.01851852</v>
   <v>       0.00925926</v>
   <v>       0.01851852</v>
   <v>       0.03703704</v>
   <v>       0.03703704</v>
   <v>       0.01851852</v>
   <v>       0.03703704</v>
   <v>       0.07407407</v>
   <v>       0.07407407</v>
   <v>       0.03703704</v>
   <v>       0.01851852</v>
   <v>       0.03703704</v>
   <v>       0.03703704</v>
   <v>       0.01851852</v>
   <v>       0.01851852</v>
   <v>       0.03703704</v>
   <v>       0.03703704</v>
   <v>       0.01851852</v>
   <v>       0.01851852</v>
   <v>       0.03703704</v>
   <v>       0.03703704</v>
   <v>       0.01851852</v>
   <v>       0.00462963</v>
   <v>       0.00925926</v>
   <v>       0.00925926</v>
   <v>       0.00462963</v>
  </varray>
 </kpoints>
 <parameters>
  <separator name="general" >
   <i type="string" name="SYSTEM">unknown system</i>
   <i type="logical" name="LCOMPAT"> F  </i>
  </separator>
  <separator name="electronic" >
   <i type="string" name="PREC">accura</i>
   <i name="ENMAX">    500.00000000</i>
   <i name="ENAUG">    291.05200000</i>
   <i name="EDIFF">      0.00000001</i>
   <i type="int" name="IALGO">    38</i>
   <i type="int" name="IWAVPR">    10</i>
   <i type="int" name="NBANDS">    65</i>
   <i name="NELECT">     96.00000000</i>
   <separator name="electronic smearing" >
    <i type="int" name="ISMEAR">     0</i>
    <i name="SIGMA">      0.01000000</i>
   </separator>
   <separator name="electronic projectors" >
    <i type="logical" name="LREAL"> F  </i>
    <v name="ROPT">      0.00000000</v>
    <i type="int" name="LMAXPAW">  -100</i>
    <i type="int" name="LMAXMIX">     2</i>
   </separator>
   <separator name="electronic startup" >
    <i type="int" name="ISTART">     0</i>
    <i type="int" name="ICHARG">     2</i>
    <i type="int" name="INIWAV">     1</i>
   </separator>
   <separator name="electronic spin" >
    <i type="int" name="ISPIN">     1</i>
    <i type="logical" name="LNONCOLLINEAR"> F  </i>
    <v name="MAGMOM">      1.00000000      1.00000000      1.00000000      1.00000000      1.00000000      1.00000000      1.00000000      1.00000000      1.00000000      1.00000000      1.00000000      1.00000000      1.00000000      1.00000000      1.00000000      1.00000000      1.00000000      1.00000000      1.00000000      1.00000000
      1.00000000      1.00000000      1.00000000      1.00000000      1.00000000      1.00000000      1.00000000      1.00000000      1.00000000      1.00000000      1.00000000      1.00000000</v>
    <i name="NUPDOWN">     -1.00000000</i>
    <i type="logical" name="LSORBIT"> F  </i>
    <v name="SAXIS">      0.00000000      0.00000000      1.00000000</v>
    <i type="logical" name="LSPIRAL"> F  </i>
    <v name="QSPIRAL">      0.00000000      0.00000000      0.00000000</v>
    <i type="logical" name="LZEROZ"> F  </i>
   </separator>
   <separator name="electronic exchange-correlation" >
    <i type="string" name="GGA">--</i>
    <i type="int" name="VOSKOWN">     0</i>
    <i type="logical" name="LASPH"> F  </i>
    <i type="logical" name="LMETAGGA"> F  </i>
    <i type="string" name="GGA2">--</i>
   </separator>
   <separator name="electronic convergence" >
    <i type="int" name="NELM">    60</i>
    <i type="int" name="NELMDL">     0</i>
    <i type="int" name="NELMIN">     2</i>
    <i name="ENINI">    500.00000000</i>
    <separator name="electronic convergence detail" >
     <i type="logical" name="LDIAG"> T  </i>
     <i name="WEIMIN">      0.00000000</i>
     <i name="EBREAK">      0.00000000</i>
     <i name="DEPER">      0.30000000</i>
     <i type="int" name="NRMM">     4</i>
     <i name="TIME">      0.10000000</i>
    </separator>
   </separator>
   <separator name="electronic mixer" >
    <i name="AMIX">      0.40000000</i>
    <i name="BMIX">      1.00000000</i>
    <i name="AMIN">      0.10000000</i>
    <i name="AMIX_MAG">      1.60000000</i>
    <i name="BMIX_MAG">      1.00000000</i>
    <separator name="electronic mixer details" >
     <i type="int" name="IMIX">     4</i>
     <i type="int" name="MAXMIX">   -45</i>
     <i name="WC">    100.00000000</i>
     <i type="int" name="INIMIX">     1</i>
     <i type="int" name="MIXPRE">     1</i>
     <i type="int" name="MREMOVE">     5</i>
    </separator>
   </separator>
   <separator name="electronic dipolcorrection" >
    <i type="int" name="IDIPOL">     0</i>
    <i type="logical" name="LDIPOL"> F  </i>
    <v name="DIPOL">   -100.00000000</v>
    <i name="EFIELD">      0.00000000</i>
   </separator>
  </separator>
  <separator name="grids" >
   <i type="int" name="NGX">    64</i>
   <i type="int" name="NGY">    64</i>
   <i type="int" name="NGZ">    64</i>
   <i type="int" name="NGXF">   128</i>
   <i type="int" name="NGYF">   128</i>
   <i type="int" name="NGZF">   128</i>
   <i type="logical" name="ADDGRID"> F  </i>
  </separator>
  <separator name="ionic" >
   <i type="int" name="NSW">     0</i>
   <i type="int" name="IBRION">    -1</i>
   <i type="int" name="ISIF">     2</i>
   <i name="PSTRESS">      0.00000000</i>
   <i name="EDIFFG">      0.00000010</i>
   <i type="int" name="NFREE">     0</i>
   <i name="POTIM">      0.50000000</i>
   <i name="SMASS">     -3.00000000</i>
  </separator>
  <separator name="ionic md" >
   <i name="TEBEG">      0.00010000</i>
   <i name="TEEND">      0.00010000</i>
   <i type="int" name="NBLOCK">     1</i>
   <i type="int" name="KBLOCK">     1</i>
   <i type="int" name="NPACO">   256</i>
   <i name="APACO">     16.00000000</i>
  </separator>
  <separator name="symmetry" >
   <i type="int" name="ISYM">     2</i>
   <i name="SYMPREC">      0.00001000</i>
  </separator>
  <separator name="dos" >
   <i type="logical" name="LORBIT"> F  </i>
   <v name="RWIGS">     -1.00000000</v>
   <i type="int" name="NEDOS">   301</i>
   <i name="EMIN">     10.00000000</i>
   <i name="EMAX">    -10.00000000</i>
  </separator>
  <separator name="writing" >
   <i type="int" name="NWRITE">     2</i>
   <i type="logical" name="LWAVE"> F  </i>
   <i type="logical" name="LCHARG"> F  </i>
   <i type="logical" name="LPARD"> F  </i>
   <i type="logical" name="LVTOT"> F  </i>
   <i type="logical" name="LELF"> F  </i>
   <i type="logical" name="LOPTICS"> F  </i>
   <i name="STM">      0.00000000</i>
  </separator>
  <separator name="performance" >
   <i type="int" name="NPAR">     8</i>
   <i type="int" name="NSIM">     4</i>
   <i type="int" name="NBLK">   256</i>
   <i type="logical" name="LPLANE"> T  </i>
   <i type="logical" name="LCRITICAL_MEM"> F  </i>
   <i type="logical" name="LSCALAPACK"> F  </i>
   <i type="logical" name="LSCALU"> F  </i>
   <i type="logical" name="LASYNC"> F  </i>
  </separator>
  <separator name="miscellaneous" >
   <i type="int" name="IDIOT">     3</i>
   <i type="logical" name="LMUSIC"> F  </i>
   <v name="POMASS">     26.98200000</v>
   <i type="logical" name="LCORR"> T  </i>
  </separator>
  <i type="logical" name="LREAL_COMPAT"> F  </i>
  <i type="logical" name="GGA_COMPAT"> T  </i>
  <i type="logical" name="LBERRY"> F  </i>
  <i type="int" name="ICORELEVEL">     0</i>
  <i type="logical" name="LDAU"> F  </i>
  <i type="int" name="I_CONSTRAINED_M">     0</i>
 </parameters>
 <atominfo>
  <atoms>      32</atoms>
  <types>       1</types>
  <array name="atoms" >
   <dimension dim="1">ion</dimension>
   <field type="string">element</field>
   <field type="int">atomtype</field>
   <set>
    <rc><c>Al</c><c>   1</c></rc>
    <rc><c>Al</c><c>   1</c></rc>
    <rc><c>Al</c><c>   1</c></rc>
    <rc><c>Al</c><c>   1</c></rc>
    <rc><c>Al</c><c>   1</c></rc>
    <rc><c>Al</c><c>   1</c></rc>
    <rc><c>Al</c><c>   1</c></rc>
    <rc><c>Al</c><c>   1</c></rc>
    <rc><c>Al</c><c>   1</c></rc>
    <rc><c>Al</c><c>   1</c></rc>
    <rc><c>Al</c><c>   1</c></rc>
    <rc><c>Al</c><c>   1</c></rc>
    <rc><c>Al</c><c>   1</c></rc>
    <rc><c>Al</c><c>   1</c></rc>
    <rc><c>Al</c><c>   1</c></rc>
    <rc><c>Al</c><c>   1</c></rc>
    <rc><c>Al</c><c>   1</c></rc>
    <rc><c>Al</c><c>   1</c></rc>
    <rc><c>Al</c><c>   1</c></rc>
    <rc><c>Al</c><c>   1</c></rc>
    <rc><c>Al</c><c>   1</c></rc>
    <rc><c>Al</c><c>   1</c></rc>
    <rc><c>Al</c><c>   1</c></rc>
    <rc><c>Al</c><c>   1</c></rc>
    <rc><c>Al</c><c>   1</c></rc>
    <rc><c>Al</c><c>   1</c></rc>
    <rc><c>Al</c><c>   1</c></rc>
    <rc><c>Al</c><c>   1</c></rc>
    <rc><c>Al</c><c>   1</c></rc>
    <rc><c>Al</c><c>   1</c></rc>
    <rc><c>Al</c><c>   1</c></rc>
    <rc><c>Al</c><c>   1</c></rc>
   </set>
  </array>
  <array name="atomtypes" >
   <dimension dim="1">type</dimension>
   <field type="int">atomspertype</field>
   <field type="string">element</field>
   <field>mass</field>
   <field>valence</field>
   <field type="string">pseudopotential</field>
   <set>
    <rc><c>  32</c><c>Al</c><c>     26.98200000</c><c>      3.00000000</c><c> PAW_PBE Al 04Jan2001                   </c></rc>
   </set>
  </array>
 </atominfo>
 <structure name="initialpos" >
  <crystal>
   <varray name="basis" >
    <v>       8.31685112      0.00000000      0.00000000</v>
    <v>       0.00000000      8.31685112      0.00000000</v>
    <v>       0.00000000      0.00000000      8.31685112</v>
   </varray>
   <i name="volume">    575.27669668</i>
   <varray name="rec_basis" >
    <v>       0.12023781      0.00000000      0.00000000</v>
    <v>       0.00000000      0.12023781      0.00000000</v>
    <v>       0.00000000      0.00000000      0.12023781</v>
   </varray>
  </crystal>
  <varray name="positions" >
   <v>       0.25120238      0.25000000      0.00000000</v>
   <v>       0.75000000      0.25000000      0.00000000</v>
   <v>       0.25000000      0.75000000      0.00000000</v>
   <v>       0.75000000      0.75000000      0.00000000</v>
   <v>       0.25000000      0.25000000      0.50000000</v>
   <v>       0.75000000      0.25000000      0.50000000</v>
   <v>       0.25000000      0.75000000      0.50000000</v>
   <v>       0.75000000      0.75000000      0.50000000</v>
   <v>       0.25000000      0.00000000      0.25000000</v>
   <v>       0.75000000      0.00000000      0.25000000</v>
   <v>       0.25000000      0.50000000      0.25000000</v>
   <v>       0.75000000      0.50000000      0.25000000</v>
   <v>       0.25000000      0.00000000      0.75000000</v>
   <v>       0.75000000      0.00000000      0.75000000</v>
   <v>       0.25000000      0.50000000      0.75000000</v>
   <v>       0.75000000      0.50000000      0.75000000</v>
   <v>       0.00000000      0.25000000      0.25000000</v>
   <v>       0.50000000      0.25000000      0.25000000</v>
   <v>       0.00000000      0.75000000      0.25000000</v>
   <v>       0.50000000      0.75000000      0.25000000</v>
   <v>       0.00000000      0.25000000      0.75000000</v>
   <v>       0.50000000      0.25000000      0.75000000</v>
   <v>       0.00000000      0.75000000      0.75000000</v>
   <v>       0.50000000      0.75000000      0.75000000</v>
   <v>       0.00000000      0.00000000      0.00000000</v>
   <v>       0.50000000      0.00000000      0.00000000</v>
   <v>       0.00000000      0.50000000      0.00000000</v>
   <v>       0.50000000      0.50000000      0.00000000</v>
   <v>       0.00000000      0.00000000      0.50000000</v>
   <v>       0.50000000      0.00000000      0.50000000</v>
   <v>       0.00000000      0.50000000      0.50000000</v>
   <v>       0.50000000      0.50000000      0.50000000</v>
  </varray>
 </structure>
 <calculation>
  <scstep>
   <time name="dav">   22.38   22.41</time>
   <time name="total">   22.58   22.61</time>
   <energy>
    <i name="alphaZ">     -5.97872903</i>
    <i name="ewald">  -2286.20769594</i>
    <i name="hartreedc">     -4.52818132</i>
    <i name="XCdc">   -844.52793341</i>
    <i name="pawpsdc">   1137.73615723</i>
    <i name="pawaedc">   -115.16745734</i>
    <i name="eentropy">     -0.00057480</i>
    <i name="bandstr">    517.12260801</i>
    <i name="atom">   1713.22913220</i>
    <i name="e_fr_energy">    111.67732558</i>
    <i name="e_wo_entrp">    111.67790038</i>
    <i name="e_0_energy">    111.67761298</i>
   </energy>
  </scstep>
  <scstep>
   <time name="dav">   24.71   24.70</time>
   <time name="total">   24.71   24.70</time>
   <energy>
    <i name="e_fr_energy">   -106.73815932</i>
    <i name="e_wo_entrp">   -106.73772279</i>
    <i name="e_0_energy">   -106.73794105</i>
   </energy>
  </scstep>
  <scstep>
   <time name="dav">   28.36   28.35</time>
   <time name="total">   28.37   28.36</time>
   <energy>
    <i name="e_fr_energy">   -119.31966810</i>
    <i name="e_wo_entrp">   -119.31814204</i>
    <i name="e_0_energy">   -119.31890507</i>
   </energy>
  </scstep>
  <scstep>
   <time name="dav">   34.48   34.47</time>
   <time name="total">   34.48   34.48</time>
   <energy>
    <i name="e_fr_energy">   -119.56376775</i>
    <i name="e_wo_entrp">   -119.56179370</i>
    <i name="e_0_energy">   -119.56278072</i>
   </energy>
  </scstep>
  <scstep>
   <time name="dav">   38.85   38.84</time>
   <time name="total">   40.42   40.41</time>
   <energy>
    <i name="e_fr_energy">   -119.56677551</i>
    <i name="e_wo_entrp">   -119.56479472</i>
    <i name="e_0_energy">   -119.56578512</i>
   </energy>
  </scstep>
  <scstep>
   <time name="dav">   33.67   33.66</time>
   <time name="total">   35.60   35.61</time>
   <energy>
    <i name="e_fr_energy">   -119.16744319</i>
    <i name="e_wo_entrp">   -119.16592681</i>
    <i name="e_0_energy">   -119.16668500</i>
   </energy>
  </scstep>
  <scstep>
   <time name="dav">   34.27   34.26</time>
   <time name="total">   36.27   36.27</time>
   <energy>
    <i name="e_fr_energy">   -118.87907934</i>
    <i name="e_wo_entrp">   -118.87808464</i>
    <i name="e_0_energy">   -118.87858199</i>
   </energy>
  </scstep>
  <scstep>
   <time name="dav">   34.31   34.30</time>
   <time name="total">   36.23   36.23</time>
   <energy>
    <i name="e_fr_energy">   -118.87900895</i>
    <i name="e_wo_entrp">   -118.87801152</i>
    <i name="e_0_energy">   -118.87851024</i>
   </energy>
  </scstep>
  <scstep>
   <time name="dav">   35.32   35.31</time>
   <time name="total">   37.18   37.17</time>
   <energy>
    <i name="e_fr_energy">   -118.87903412</i>
    <i name="e_wo_entrp">   -118.87803697</i>
    <i name="e_0_energy">   -118.87853554</i>
   </energy>
  </scstep>
  <scstep>
   <time name="dav">   36.77   36.76</time>
   <time name="total">   38.89   38.89</time>
   <energy>
    <i name="e_fr_energy">   -118.87903320</i>
    <i name="e_wo_entrp">   -118.87803596</i>
    <i name="e_0_energy">   -118.87853458</i>
   </energy>
  </scstep>
  <scstep>
   <time name="dav">   36.74   36.73</time>
   <time name="total">   38.69   38.68</time>
   <energy>
    <i name="e_fr_energy">   -118.87902939</i>
    <i name="e_wo_entrp">   -118.87803203</i>
    <i name="e_0_energy">   -118.87853071</i>
   </energy>
  </scstep>
  <scstep>
   <time name="dav">   37.16   37.23</time>
   <time name="total">   39.32   39.40</time>
   <energy>
    <i name="e_fr_energy">   -118.87902848</i>
    <i name="e_wo_entrp">   -118.87803116</i>
    <i name="e_0_energy">   -118.87852982</i>
   </energy>
  </scstep>
  <scstep>
   <time name="dav">   20.91   20.91</time>
   <time name="total">   22.76   22.76</time>
   <energy>
    <i name="e_fr_energy">   -118.87902834</i>
    <i name="e_wo_entrp">   -118.87803102</i>
    <i name="e_0_energy">   -118.87852968</i>
   </energy>
  </scstep>
  <scstep>
   <time name="dav">   25.61   25.60</time>
   <time name="total">   26.37   26.36</time>
   <energy>
    <i name="alphaZ">     -5.97872903</i>
    <i name="ewald">  -2286.20769594</i>
    <i name="hartreedc">     -3.13572461</i>
    <i name="XCdc">   -841.64665822</i>
    <i name="pawpsdc">   1134.11625161</i>
    <i name="pawaedc">   -111.56674829</i>
    <i name="eentropy">     -0.00099732</i>
    <i name="bandstr">    282.31214126</i>
    <i name="atom">   1713.22913220</i>
    <i name="e_fr_energy">   -118.87902835</i>
    <i name="e_wo_entrp">   -118.87803103</i>
    <i name="e_0_energy">   -118.87852969</i>
   </energy>
  </scstep>
  <structure>
   <crystal>
    <varray name="basis" >
     <v>       8.31685112      0.00000000      0.00000000</v>
     <v>       0.00000000      8.31685112      0.00000000</v>
     <v>       0.00000000      0.00000000      8.31685112</v>
    </varray>
    <i name="volume">    575.27669668</i>
    <varray name="rec_basis" >
     <v>       0.12023781      0.00000000      0.00000000</v>
     <v>       0.00000000      0.12023781      0.00000000</v>
     <v>       0.00000000      0.00000000      0.12023781</v>
    </varray>
   </crystal>
   <varray name="positions" >
    <v>       0.25120238      0.25000000      0.00000000</v>
    <v>       0.75000000      0.25000000      0.00000000</v>
    <v>       0.25000000      0.75000000      0.00000000</v>
    <v>       0.75000000      0.75000000      0.00000000</v>
    <v>       0.25000000      0.25000000      0.50000000</v>
    <v>       0.75000000      0.25000000      0.50000000</v>
    <v>       0.25000000      0.75000000      0.50000000</v>
    <v>       0.75000000      0.75000000      0.50000000</v>
    <v>       0.25000000      0.00000000      0.25000000</v>
    <v>       0.75000000      0.00000000      0.25000000</v>
    <v>       0.25000000      0.50000000      0.25000000</v>
    <v>       0.75000000      0.50000000      0.25000000</v>
    <v>       0.25000000      0.00000000      0.75000000</v>
    <v>       0.75000000      0.00000000      0.75000000</v>
    <v>       0.25000000      0.50000000      0.75000000</v>
    <v>       0.75000000      0.50000000      0.75000000</v>
    <v>       0.00000000      0.25000000      0.25000000</v>
    <v>       0.50000000      0.25000000      0.25000000</v>
    <v>       0.00000000      0.75000000      0.25000000</v>
    <v>       0.50000000      0.75000000      0.25000000</v>
    <v>       0.00000000      0.25000000      0.75000000</v>
    <v>       0.50000000      0.25000000      0.75000000</v>
    <v>       0.00000000      0.75000000      0.75000000</v>
    <v>       0.50000000      0.75000000      0.75000000</v>
    <v>       0.00000000      0.00000000      0.00000000</v>
    <v>       0.50000000      0.00000000      0.00000000</v>
    <v>       0.00000000      0.50000000      0.00000000</v>
    <v>       0.50000000      0.50000000      0.00000000</v>
    <v>       0.00000000      0.00000000      0.50000000</v>
    <v>       0.50000000      0.00000000      0.50000000</v>
    <v>       0.00000000      0.50000000      0.50000000</v>
    <v>       0.50000000      0.50000000      0.50000000</v>
   </varray>
  </structure>
  <varray name="forces" >
   <v>      -0.02974031     -0.00000000      0.00000000</v>
   <v>       0.00213245     -0.00000000     -0.00000000</v>
   <v>       0.00004692      0.00000000      0.00000000</v>
   <v>       0.00012472     -0.00000000      0.00000000</v>
   <v>       0.00004692      0.00000000     -0.00000000</v>
   <v>       0.00012472      0.00000000      0.00000000</v>
   <v>      -0.00157041      0.00000000      0.00000000</v>
   <v>      -0.00122651     -0.00000000     -0.00000000</v>
   <v>      -0.00183664      0.00001826     -0.00001826</v>
   <v>      -0.00033381     -0.00002676      0.00002676</v>
   <v>      -0.00183664     -0.00001826     -0.00001826</v>
   <v>      -0.00033381      0.00002676      0.00002676</v>
   <v>      -0.00183664      0.00001826      0.00001826</v>
   <v>      -0.00033381     -0.00002676     -0.00002676</v>
   <v>      -0.00183664     -0.00001826      0.00001826</v>
   <v>      -0.00033381      0.00002676     -0.00002676</v>
   <v>       0.00418617      0.00000000     -0.00474228</v>
   <v>       0.00426043     -0.00000000      0.00489691</v>
   <v>       0.00060321      0.00000000      0.00097319</v>
   <v>       0.00063603      0.00000000     -0.00102611</v>
   <v>       0.00418617     -0.00000000      0.00474228</v>
   <v>       0.00426043      0.00000000     -0.00489691</v>
   <v>       0.00060321     -0.00000000     -0.00097319</v>
   <v>       0.00063603      0.00000000      0.00102611</v>
   <v>       0.00418617      0.00474228      0.00000000</v>
   <v>       0.00426043     -0.00489691      0.00000000</v>
   <v>       0.00418617     -0.00474228     -0.00000000</v>
   <v>       0.00426043      0.00489691      0.00000000</v>
   <v>       0.00060321     -0.00097319     -0.00000000</v>
   <v>       0.00063603      0.00102611      0.00000000</v>
   <v>       0.00060321      0.00097319      0.00000000</v>
   <v>       0.00063603     -0.00102611      0.00000000</v>
  </varray>
  <varray name="stress" >
   <v>     -54.25881713      0.00000000      0.00000000</v>
   <v>       0.00000000    -54.23660189      0.00000000</v>
   <v>       0.00000000      0.00000000    -54.23660189</v>
  </varray>
  <energy>
   <i name="e_fr_energy">   -118.87902835</i>
   <i name="e_wo_entrp">   -118.87852969</i>
   <i name="e_0_energy">     -0.00099732</i>
  </energy>
  <eigenvalues>
   <array>
    <dimension dim="1">band</dimension>
    <dimension dim="2">kpoint</dimension>
    <dimension dim="3">spin</dimension>
    <field>eigene</field>
    <field>occ</field>
    <set>
     <set comment="spin 1">
      <set comment="kpoint 1">
       <r>  -3.4214  1.0000</r>
       <r>  -1.2991  1.0000</r>
       <r>  -1.2957  1.0000</r>
       <r>  -1.2957  1.0000</r>
       <r>  -1.2957  1.0000</r>
       <r>  -1.2957  1.0000</r>
       <r>  -1.2922  1.0000</r>
       <r>   0.7952  1.0000</r>
       <r>   0.7995  1.0000</r>
       <r>   0.7995  1.0000</r>
       <r>   0.8010  1.0000</r>
       <r>   0.8011  1.0000</r>
       <r>   0.8012  1.0000</r>
       <r>   0.8012  1.0000</r>
       <r>   0.8012  1.0000</r>
       <r>   0.8013  1.0000</r>
       <r>   0.8028  1.0000</r>
       <r>   0.8028  1.0000</r>
       <r>   0.8072  1.0000</r>
       <r>   2.8643  1.0000</r>
       <r>   2.8646  1.0000</r>
       <r>   2.8646  1.0000</r>
       <r>   2.8648  1.0000</r>
       <r>   2.8781  1.0000</r>
       <r>   2.8782  1.0000</r>
       <r>   2.8782  1.0000</r>
       <r>   2.8786  1.0000</r>
       <r>   4.4170  1.0000</r>
       <r>   4.4170  1.0000</r>
       <r>   4.4171  1.0000</r>
       <r>   5.5340  1.0000</r>
       <r>   5.5341  1.0000</r>
       <r>   5.5341  1.0000</r>
       <r>   6.3924  1.0000</r>
       <r>   6.3924  1.0000</r>
       <r>   6.3965  1.0000</r>
       <r>   6.3965  1.0000</r>
       <r>   6.3965  1.0000</r>
       <r>   6.3965  1.0000</r>
       <r>   6.3965  1.0000</r>
       <r>   6.3965  1.0000</r>
       <r>   6.3966  1.0000</r>
       <r>   6.3966  1.0000</r>
       <r>   6.4007  1.0000</r>
       <r>   6.4007  1.0000</r>
       <r>   7.4449  0.0000</r>
       <r>   7.4487  0.0000</r>
       <r>   7.4487  0.0000</r>
       <r>   7.4488  0.0000</r>
       <r>   7.4488  0.0000</r>
       <r>   7.4525  0.0000</r>
       <r>   7.7802  0.0000</r>
       <r>   7.7811  0.0000</r>
       <r>   7.7811  0.0000</r>
       <r>   7.7811  0.0000</r>
       <r>   7.7811  0.0000</r>
       <r>   7.7819  0.0000</r>
       <r>   8.3748  0.0000</r>
       <r>   8.3748  0.0000</r>
       <r>   8.3766  0.0000</r>
       <r>   8.3786  0.0000</r>
       <r>   8.3787  0.0000</r>
       <r>   8.3787  0.0000</r>
       <r>   8.3787  0.0000</r>
       <r>   8.3788  0.0000</r>
       <r>   8.3789  0.0000</r>
       <r>   8.3809  0.0000</r>
       <r>   8.3827  0.0000</r>
       <r>   8.3827  0.0000</r>
       <r>   9.6251  0.0000</r>
       <r>   9.6271  0.0000</r>
       <r>   9.6282  0.0000</r>
      </set>
      <set comment="kpoint 2">
       <r>  -3.3619  1.0000</r>
       <r>  -1.9420  1.0000</r>
       <r>  -1.2371  1.0000</r>
       <r>  -1.2371  1.0000</r>
       <r>  -1.2371  1.0000</r>
       <r>  -1.2371  1.0000</r>
       <r>  -0.5355  1.0000</r>
       <r>   0.1634  1.0000</r>
       <r>   0.1634  1.0000</r>
       <r>   0.1634  1.0000</r>
       <r>   0.1634  1.0000</r>
       <r>   0.8590  1.0000</r>
       <r>   0.8590  1.0000</r>
       <r>   0.8590  1.0000</r>
       <r>   0.8590  1.0000</r>
       <r>   1.5512  1.0000</r>
       <r>   1.5512  1.0000</r>
       <r>   1.5512  1.0000</r>
       <r>   1.5512  1.0000</r>
       <r>   2.2416  1.0000</r>
       <r>   2.2416  1.0000</r>
       <r>   2.2416  1.0000</r>
       <r>   2.2416  1.0000</r>
       <r>   3.5516  1.0000</r>
       <r>   3.6124  1.0000</r>
       <r>   3.6124  1.0000</r>
       <r>   3.6124  1.0000</r>
       <r>   3.6124  1.0000</r>
       <r>   4.4719  1.0000</r>
       <r>   4.4719  1.0000</r>
       <r>   5.5721  1.0000</r>
       <r>   5.5723  1.0000</r>
       <r>   5.5723  1.0000</r>
       <r>   5.5723  1.0000</r>
       <r>   5.5925  1.0000</r>
       <r>   5.5927  1.0000</r>
       <r>   5.7911  1.0000</r>
       <r>   5.7911  1.0000</r>
       <r>   6.4515  1.0000</r>
       <r>   6.4515  1.0000</r>
       <r>   6.4515  1.0000</r>
       <r>   6.4515  1.0000</r>
       <r>   6.5037  1.0000</r>
       <r>   6.9684  1.0000</r>
       <r>   6.9684  1.0000</r>
       <r>   7.1126  1.0000</r>
       <r>   7.1126  1.0000</r>
       <r>   7.5812  0.0000</r>
       <r>   7.5812  0.0000</r>
       <r>   7.5812  0.0000</r>
       <r>   7.5813  0.0000</r>
       <r>   7.6515  0.0000</r>
       <r>   7.6515  0.0000</r>
       <r>   7.6515  0.0000</r>
       <r>   7.6515  0.0000</r>
       <r>   7.7728  0.0000</r>
       <r>   7.7728  0.0000</r>
       <r>   7.7728  0.0000</r>
       <r>   7.7728  0.0000</r>
       <r>   8.3648  0.0000</r>
       <r>   8.3648  0.0000</r>
       <r>   8.5609  0.0000</r>
       <r>   8.5609  0.0000</r>
       <r>   8.5609  0.0000</r>
       <r>   8.5609  0.0000</r>
       <r>   9.0191  0.0000</r>
       <r>   9.0192  0.0000</r>
       <r>   9.0192  0.0000</r>
       <r>   9.0193  0.0000</r>
       <r>   9.0950  0.0000</r>
       <r>   9.0950  0.0000</r>
       <r>   9.0950  0.0000</r>
      </set>
      <set comment="kpoint 3">
       <r>  -3.1837  1.0000</r>
       <r>  -2.4730  1.0000</r>
       <r>  -1.0614  1.0000</r>
       <r>  -1.0613  1.0000</r>
       <r>  -1.0613  1.0000</r>
       <r>  -1.0613  1.0000</r>
       <r>  -0.3603  1.0000</r>
       <r>  -0.3603  1.0000</r>
       <r>  -0.3603  1.0000</r>
       <r>  -0.3603  1.0000</r>
       <r>   0.3362  1.0000</r>
       <r>   1.0324  1.0000</r>
       <r>   1.0324  1.0000</r>
       <r>   1.0324  1.0000</r>
       <r>   1.0324  1.0000</r>
       <r>   1.7244  1.0000</r>
       <r>   1.7245  1.0000</r>
       <r>   1.7245  1.0000</r>
       <r>   1.7245  1.0000</r>
       <r>   2.3969  1.0000</r>
       <r>   2.4113  1.0000</r>
       <r>   2.4113  1.0000</r>
       <r>   2.4113  1.0000</r>
       <r>   2.4114  1.0000</r>
       <r>   4.4419  1.0000</r>
       <r>   4.4419  1.0000</r>
       <r>   4.4419  1.0000</r>
       <r>   4.4419  1.0000</r>
       <r>   4.4621  1.0000</r>
       <r>   4.4621  1.0000</r>
       <r>   4.4621  1.0000</r>
       <r>   4.4621  1.0000</r>
       <r>   4.6367  1.0000</r>
       <r>   4.6367  1.0000</r>
       <r>   5.2961  1.0000</r>
       <r>   5.2961  1.0000</r>
       <r>   5.7673  1.0000</r>
       <r>   5.7673  1.0000</r>
       <r>   6.4597  1.0000</r>
       <r>   6.4602  1.0000</r>
       <r>   6.4678  1.0000</r>
       <r>   6.4678  1.0000</r>
       <r>   6.4678  1.0000</r>
       <r>   6.4683  1.0000</r>
       <r>   6.6166  1.0000</r>
       <r>   6.6166  1.0000</r>
       <r>   6.6166  1.0000</r>
       <r>   6.6166  1.0000</r>
       <r>   7.2772  0.0000</r>
       <r>   7.2772  0.0000</r>
       <r>   7.2772  0.0000</r>
       <r>   7.2772  0.0000</r>
       <r>   7.8352  0.0000</r>
       <r>   7.8352  0.0000</r>
       <r>   7.8352  0.0000</r>
       <r>   7.8352  0.0000</r>
       <r>   7.9395  0.0000</r>
       <r>   7.9395  0.0000</r>
       <r>   7.9707  0.0000</r>
       <r>   8.5158  0.0000</r>
       <r>   8.5158  0.0000</r>
       <r>   8.5158  0.0000</r>
       <r>   8.5159  0.0000</r>
       <r>   9.1797  0.0000</r>
       <r>   9.1797  0.0000</r>
       <r>   9.9211  0.0000</r>
       <r>   9.9214  0.0000</r>
       <r>   9.9219  0.0000</r>
       <r>   9.9231  0.0000</r>
       <r>   9.9268  0.0000</r>
       <r>   9.9283  0.0000</r>
       <r>   9.9806  0.0000</r>
      </set>
      <set comment="kpoint 4">
       <r>  -2.8885  1.0000</r>
       <r>  -2.8858  1.0000</r>
       <r>  -0.7727  1.0000</r>
       <r>  -0.7697  1.0000</r>
       <r>  -0.7697  1.0000</r>
       <r>  -0.7689  1.0000</r>
       <r>  -0.7688  1.0000</r>
       <r>  -0.7681  1.0000</r>
       <r>  -0.7681  1.0000</r>
       <r>  -0.7651  1.0000</r>
       <r>   1.3136  1.0000</r>
       <r>   1.3162  1.0000</r>
       <r>   1.3199  1.0000</r>
       <r>   1.3199  1.0000</r>
       <r>   1.3199  1.0000</r>
       <r>   1.3207  1.0000</r>
       <r>   1.3215  1.0000</r>
       <r>   1.3223  1.0000</r>
       <r>   1.3223  1.0000</r>
       <r>   1.3248  1.0000</r>
       <r>   3.3765  1.0000</r>
       <r>   3.3769  1.0000</r>
       <r>   3.3769  1.0000</r>
       <r>   3.3775  1.0000</r>
       <r>   3.3778  1.0000</r>
       <r>   3.3784  1.0000</r>
       <r>   3.3784  1.0000</r>
       <r>   3.3789  1.0000</r>
       <r>   4.9099  1.0000</r>
       <r>   4.9099  1.0000</r>
       <r>   4.9128  1.0000</r>
       <r>   4.9128  1.0000</r>
       <r>   5.4157  1.0000</r>
       <r>   5.4157  1.0000</r>
       <r>   5.4164  1.0000</r>
       <r>   5.4165  1.0000</r>
       <r>   5.4171  1.0000</r>
       <r>   5.4173  1.0000</r>
       <r>   5.4180  1.0000</r>
       <r>   5.4180  1.0000</r>
       <r>   6.0557  1.0000</r>
       <r>   6.0566  1.0000</r>
       <r>   6.0584  1.0000</r>
       <r>   6.0592  1.0000</r>
       <r>   6.8896  1.0000</r>
       <r>   6.8896  1.0000</r>
       <r>   6.8905  1.0000</r>
       <r>   6.8917  1.0000</r>
       <r>   6.8919  1.0000</r>
       <r>   6.8931  1.0000</r>
       <r>   6.8941  1.0000</r>
       <r>   6.8941  1.0000</r>
       <r>   8.1186  0.0000</r>
       <r>   8.1197  0.0000</r>
       <r>   8.1197  0.0000</r>
       <r>   8.1199  0.0000</r>
       <r>   8.1217  0.0000</r>
       <r>   8.1219  0.0000</r>
       <r>   8.1219  0.0000</r>
       <r>   8.1230  0.0000</r>
       <r>   8.8763  0.0000</r>
       <r>   8.8763  0.0000</r>
       <r>   8.8786  0.0000</r>
       <r>   8.8786  0.0000</r>
       <r>   9.5704  0.0000</r>
       <r>   9.5719  0.0000</r>
       <r>  10.0795  0.0000</r>
       <r>  10.0801  0.0000</r>
       <r>  10.0812  0.0000</r>
       <r>  10.0818  0.0000</r>
       <r>  10.8573  0.0000</r>
       <r>  10.8586  0.0000</r>
      </set>
      <set comment="kpoint 5">
       <r>  -3.3619  1.0000</r>
       <r>  -1.9420  1.0000</r>
       <r>  -1.2398  1.0000</r>
       <r>  -1.2371  1.0000</r>
       <r>  -1.2371  1.0000</r>
       <r>  -1.2344  1.0000</r>
       <r>  -0.5355  1.0000</r>
       <r>   0.1607  1.0000</r>
       <r>   0.1634  1.0000</r>
       <r>   0.1634  1.0000</r>
       <r>   0.1661  1.0000</r>
       <r>   0.8569  1.0000</r>
       <r>   0.8579  1.0000</r>
       <r>   0.8601  1.0000</r>
       <r>   0.8612  1.0000</r>
       <r>   1.5485  1.0000</r>
       <r>   1.5512  1.0000</r>
       <r>   1.5512  1.0000</r>
       <r>   1.5539  1.0000</r>
       <r>   2.2394  1.0000</r>
       <r>   2.2405  1.0000</r>
       <r>   2.2427  1.0000</r>
       <r>   2.2437  1.0000</r>
       <r>   3.5516  1.0000</r>
       <r>   3.6102  1.0000</r>
       <r>   3.6113  1.0000</r>
       <r>   3.6135  1.0000</r>
       <r>   3.6146  1.0000</r>
       <r>   4.4719  1.0000</r>
       <r>   4.4720  1.0000</r>
       <r>   5.5694  1.0000</r>
       <r>   5.5723  1.0000</r>
       <r>   5.5723  1.0000</r>
       <r>   5.5751  1.0000</r>
       <r>   5.5925  1.0000</r>
       <r>   5.5925  1.0000</r>
       <r>   5.7911  1.0000</r>
       <r>   5.7911  1.0000</r>
       <r>   6.4490  1.0000</r>
       <r>   6.4515  1.0000</r>
       <r>   6.4515  1.0000</r>
       <r>   6.4541  1.0000</r>
       <r>   6.5037  1.0000</r>
       <r>   6.9683  1.0000</r>
       <r>   6.9684  1.0000</r>
       <r>   7.1126  1.0000</r>
       <r>   7.1126  1.0000</r>
       <r>   7.5788  0.0000</r>
       <r>   7.5802  0.0000</r>
       <r>   7.5823  0.0000</r>
       <r>   7.5837  0.0000</r>
       <r>   7.6493  0.0000</r>
       <r>   7.6515  0.0000</r>
       <r>   7.6515  0.0000</r>
       <r>   7.6536  0.0000</r>
       <r>   7.7702  0.0000</r>
       <r>   7.7728  0.0000</r>
       <r>   7.7729  0.0000</r>
       <r>   7.7754  0.0000</r>
       <r>   8.3648  0.0000</r>
       <r>   8.3648  0.0000</r>
       <r>   8.5587  0.0000</r>
       <r>   8.5609  0.0000</r>
       <r>   8.5609  0.0000</r>
       <r>   8.5632  0.0000</r>
       <r>   9.0172  0.0000</r>
       <r>   9.0192  0.0000</r>
       <r>   9.0192  0.0000</r>
       <r>   9.0212  0.0000</r>
       <r>   9.0926  0.0000</r>
       <r>   9.0950  0.0000</r>
       <r>   9.0966  0.0000</r>
      </set>
      <set comment="kpoint 6">
       <r>  -3.3025  1.0000</r>
       <r>  -1.8843  1.0000</r>
       <r>  -1.8821  1.0000</r>
       <r>  -1.1785  1.0000</r>
       <r>  -1.1785  1.0000</r>
       <r>  -0.4788  1.0000</r>
       <r>  -0.4771  1.0000</r>
       <r>  -0.4754  1.0000</r>
       <r>   0.2200  1.0000</r>
       <r>   0.2209  1.0000</r>
       <r>   0.2221  1.0000</r>
       <r>   0.2230  1.0000</r>
       <r>   0.9160  1.0000</r>
       <r>   0.9171  1.0000</r>
       <r>   1.6066  1.0000</r>
       <r>   1.6078  1.0000</r>
       <r>   1.6090  1.0000</r>
       <r>   1.6091  1.0000</r>
       <r>   1.6102  1.0000</r>
       <r>   1.6114  1.0000</r>
       <r>   2.2977  1.0000</r>
       <r>   2.9819  1.0000</r>
       <r>   2.9819  1.0000</r>
       <r>   2.9887  1.0000</r>
       <r>   2.9887  1.0000</r>
       <r>   3.6075  1.0000</r>
       <r>   3.6085  1.0000</r>
       <r>   4.3501  1.0000</r>
       <r>   4.3501  1.0000</r>
       <r>   4.5269  1.0000</r>
       <r>   4.9562  1.0000</r>
       <r>   4.9584  1.0000</r>
       <r>   5.5942  1.0000</r>
       <r>   5.5942  1.0000</r>
       <r>   5.6508  1.0000</r>
       <r>   5.6649  1.0000</r>
       <r>   5.6650  1.0000</r>
       <r>   5.8449  1.0000</r>
       <r>   5.8473  1.0000</r>
       <r>   6.2919  1.0000</r>
       <r>   6.2933  1.0000</r>
       <r>   6.5600  1.0000</r>
       <r>   6.5610  1.0000</r>
       <r>   6.9682  1.0000</r>
       <r>   6.9692  1.0000</r>
       <r>   6.9705  1.0000</r>
       <r>   6.9714  1.0000</r>
       <r>   7.0443  1.0000</r>
       <r>   7.0459  1.0000</r>
       <r>   7.1653  0.2924</r>
       <r>   7.1674  0.1975</r>
       <r>   7.1696  0.1238</r>
       <r>   7.8826  0.0000</r>
       <r>   7.8844  0.0000</r>
       <r>   8.3004  0.0000</r>
       <r>   8.3015  0.0000</r>
       <r>   8.3016  0.0000</r>
       <r>   8.3026  0.0000</r>
       <r>   8.4056  0.0000</r>
       <r>   8.4417  0.0000</r>
       <r>   8.4428  0.0000</r>
       <r>   8.4725  0.0000</r>
       <r>   8.4726  0.0000</r>
       <r>   8.4883  0.0000</r>
       <r>   8.4902  0.0000</r>
       <r>   8.7178  0.0000</r>
       <r>   8.7178  0.0000</r>
       <r>   9.2639  0.0000</r>
       <r>   9.2660  0.0000</r>
       <r>   9.7337  0.0000</r>
       <r>   9.7339  0.0000</r>
       <r>   9.8108  0.0000</r>
      </set>
      <set comment="kpoint 7">
       <r>  -3.1244  1.0000</r>
       <r>  -2.4139  1.0000</r>
       <r>  -1.7067  1.0000</r>
       <r>  -1.0041  1.0000</r>
       <r>  -1.0028  1.0000</r>
       <r>  -1.0014  1.0000</r>
       <r>  -0.3036  1.0000</r>
       <r>  -0.3021  1.0000</r>
       <r>  -0.3008  1.0000</r>
       <r>   0.3929  1.0000</r>
       <r>   0.3953  1.0000</r>
       <r>   0.3956  1.0000</r>
       <r>   0.3970  1.0000</r>
       <r>   1.0903  1.0000</r>
       <r>   1.0903  1.0000</r>
       <r>   1.7799  1.0000</r>
       <r>   1.7815  1.0000</r>
       <r>   1.7817  1.0000</r>
       <r>   2.4540  1.0000</r>
       <r>   2.4677  1.0000</r>
       <r>   2.4683  1.0000</r>
       <r>   2.4707  1.0000</r>
       <r>   2.4714  1.0000</r>
       <r>   3.1537  1.0000</r>
       <r>   3.7771  1.0000</r>
       <r>   3.8198  1.0000</r>
       <r>   3.8381  1.0000</r>
       <r>   3.8382  1.0000</r>
       <r>   4.4524  1.0000</r>
       <r>   4.4982  1.0000</r>
       <r>   4.4982  1.0000</r>
       <r>   4.6916  1.0000</r>
       <r>   5.1733  1.0000</r>
       <r>   5.1963  1.0000</r>
       <r>   5.1963  1.0000</r>
       <r>   5.3511  1.0000</r>
       <r>   5.7987  1.0000</r>
       <r>   5.7988  1.0000</r>
       <r>   5.8254  1.0000</r>
       <r>   5.8515  1.0000</r>
       <r>   5.8515  1.0000</r>
       <r>   6.0111  1.0000</r>
       <r>   6.4684  1.0000</r>
       <r>   6.4684  1.0000</r>
       <r>   6.5118  1.0000</r>
       <r>   6.6714  1.0000</r>
       <r>   6.7307  1.0000</r>
       <r>   7.1458  0.9864</r>
       <r>   7.1932  0.0000</r>
       <r>   7.1933  0.0000</r>
       <r>   7.2156  0.0000</r>
       <r>   7.3328  0.0000</r>
       <r>   7.4050  0.0000</r>
       <r>   7.8984  0.0000</r>
       <r>   7.9924  0.0000</r>
       <r>   7.9957  0.0000</r>
       <r>   8.0265  0.0000</r>
       <r>   8.5484  0.0000</r>
       <r>   8.7519  0.0000</r>
       <r>   8.7519  0.0000</r>
       <r>   9.1140  0.0000</r>
       <r>   9.1289  0.0000</r>
       <r>   9.1289  0.0000</r>
       <r>   9.2346  0.0000</r>
       <r>   9.2378  0.0000</r>
       <r>   9.3160  0.0000</r>
       <r>   9.3902  0.0000</r>
       <r>   9.4250  0.0000</r>
       <r>   9.4250  0.0000</r>
       <r>   9.9814  0.0000</r>
       <r>  10.0383  0.0000</r>
       <r>  10.0474  0.0000</r>
      </set>
      <set comment="kpoint 8">
       <r>  -2.8293  1.0000</r>
       <r>  -2.8266  1.0000</r>
       <r>  -1.4144  1.0000</r>
       <r>  -1.4117  1.0000</r>
       <r>  -0.7124  1.0000</r>
       <r>  -0.7113  1.0000</r>
       <r>  -0.7096  1.0000</r>
       <r>  -0.7085  1.0000</r>
       <r>  -0.0127  1.0000</r>
       <r>  -0.0099  1.0000</r>
       <r>   0.6835  1.0000</r>
       <r>   0.6846  1.0000</r>
       <r>   0.6862  1.0000</r>
       <r>   0.6873  1.0000</r>
       <r>   1.3730  1.0000</r>
       <r>   1.3744  1.0000</r>
       <r>   2.0669  1.0000</r>
       <r>   2.0680  1.0000</r>
       <r>   2.0697  1.0000</r>
       <r>   2.0708  1.0000</r>
       <r>   2.7498  1.0000</r>
       <r>   2.7513  1.0000</r>
       <r>   3.4338  1.0000</r>
       <r>   3.4339  1.0000</r>
       <r>   3.4353  1.0000</r>
       <r>   3.4354  1.0000</r>
       <r>   4.0573  1.0000</r>
       <r>   4.0602  1.0000</r>
       <r>   4.1145  1.0000</r>
       <r>   4.1160  1.0000</r>
       <r>   4.7956  1.0000</r>
       <r>   4.7957  1.0000</r>
       <r>   4.7971  1.0000</r>
       <r>   4.7972  1.0000</r>
       <r>   4.9649  1.0000</r>
       <r>   4.9678  1.0000</r>
       <r>   6.0758  1.0000</r>
       <r>   6.0770  1.0000</r>
       <r>   6.0786  1.0000</r>
       <r>   6.0798  1.0000</r>
       <r>   6.1133  1.0000</r>
       <r>   6.1160  1.0000</r>
       <r>   6.1461  1.0000</r>
       <r>   6.1463  1.0000</r>
       <r>   6.1477  1.0000</r>
       <r>   6.1477  1.0000</r>
       <r>   6.2847  1.0000</r>
       <r>   6.2876  1.0000</r>
       <r>   7.0118  1.0000</r>
       <r>   7.0146  1.0000</r>
       <r>   7.4996  0.0000</r>
       <r>   7.5022  0.0000</r>
       <r>   7.6066  0.0000</r>
       <r>   7.6096  0.0000</r>
       <r>   8.0769  0.0000</r>
       <r>   8.0787  0.0000</r>
       <r>   8.8407  0.0000</r>
       <r>   8.8434  0.0000</r>
       <r>   8.9313  0.0000</r>
       <r>   8.9336  0.0000</r>
       <r>   9.0336  0.0000</r>
       <r>   9.0344  0.0000</r>
       <r>   9.0364  0.0000</r>
       <r>   9.0372  0.0000</r>
       <r>   9.6251  0.0000</r>
       <r>   9.6267  0.0000</r>
       <r>  10.0591  0.0000</r>
       <r>  10.0594  0.0000</r>
       <r>  10.0610  0.0000</r>
       <r>  10.0612  0.0000</r>
       <r>  10.1356  0.0000</r>
       <r>  10.1362  0.0000</r>
      </set>
      <set comment="kpoint 9">
       <r>  -3.1837  1.0000</r>
       <r>  -2.4730  1.0000</r>
       <r>  -1.0640  1.0000</r>
       <r>  -1.0613  1.0000</r>
       <r>  -1.0613  1.0000</r>
       <r>  -1.0586  1.0000</r>
       <r>  -0.3630  1.0000</r>
       <r>  -0.3603  1.0000</r>
       <r>  -0.3603  1.0000</r>
       <r>  -0.3576  1.0000</r>
       <r>   0.3362  1.0000</r>
       <r>   1.0303  1.0000</r>
       <r>   1.0314  1.0000</r>
       <r>   1.0335  1.0000</r>
       <r>   1.0346  1.0000</r>
       <r>   1.7223  1.0000</r>
       <r>   1.7234  1.0000</r>
       <r>   1.7255  1.0000</r>
       <r>   1.7266  1.0000</r>
       <r>   2.3970  1.0000</r>
       <r>   2.4086  1.0000</r>
       <r>   2.4113  1.0000</r>
       <r>   2.4113  1.0000</r>
       <r>   2.4140  1.0000</r>
       <r>   4.4391  1.0000</r>
       <r>   4.4419  1.0000</r>
       <r>   4.4419  1.0000</r>
       <r>   4.4447  1.0000</r>
       <r>   4.4599  1.0000</r>
       <r>   4.4610  1.0000</r>
       <r>   4.4632  1.0000</r>
       <r>   4.4643  1.0000</r>
       <r>   4.6367  1.0000</r>
       <r>   4.6367  1.0000</r>
       <r>   5.2961  1.0000</r>
       <r>   5.2961  1.0000</r>
       <r>   5.7673  1.0000</r>
       <r>   5.7674  1.0000</r>
       <r>   6.4597  1.0000</r>
       <r>   6.4602  1.0000</r>
       <r>   6.4658  1.0000</r>
       <r>   6.4667  1.0000</r>
       <r>   6.4689  1.0000</r>
       <r>   6.4702  1.0000</r>
       <r>   6.6141  1.0000</r>
       <r>   6.6166  1.0000</r>
       <r>   6.6167  1.0000</r>
       <r>   6.6192  1.0000</r>
       <r>   7.2746  0.0000</r>
       <r>   7.2772  0.0000</r>
       <r>   7.2772  0.0000</r>
       <r>   7.2798  0.0000</r>
       <r>   7.8332  0.0000</r>
       <r>   7.8352  0.0000</r>
       <r>   7.8352  0.0000</r>
       <r>   7.8372  0.0000</r>
       <r>   7.9395  0.0000</r>
       <r>   7.9395  0.0000</r>
       <r>   7.9708  0.0000</r>
       <r>   8.5138  0.0000</r>
       <r>   8.5158  0.0000</r>
       <r>   8.5158  0.0000</r>
       <r>   8.5178  0.0000</r>
       <r>   9.1797  0.0000</r>
       <r>   9.1797  0.0000</r>
       <r>   9.9200  0.0000</r>
       <r>   9.9215  0.0000</r>
       <r>   9.9225  0.0000</r>
       <r>   9.9241  0.0000</r>
       <r>   9.9265  0.0000</r>
       <r>   9.9271  0.0000</r>
       <r>   9.9817  0.0000</r>
      </set>
      <set comment="kpoint 10">
       <r>  -3.1244  1.0000</r>
       <r>  -2.4139  1.0000</r>
       <r>  -1.7067  1.0000</r>
       <r>  -1.0041  1.0000</r>
       <r>  -1.0028  1.0000</r>
       <r>  -1.0014  1.0000</r>
       <r>  -0.3036  1.0000</r>
       <r>  -0.3021  1.0000</r>
       <r>  -0.3008  1.0000</r>
       <r>   0.3930  1.0000</r>
       <r>   0.3948  1.0000</r>
       <r>   0.3956  1.0000</r>
       <r>   0.3973  1.0000</r>
       <r>   1.0903  1.0000</r>
       <r>   1.0903  1.0000</r>
       <r>   1.7792  1.0000</r>
       <r>   1.7815  1.0000</r>
       <r>   1.7824  1.0000</r>
       <r>   2.4540  1.0000</r>
       <r>   2.4684  1.0000</r>
       <r>   2.4685  1.0000</r>
       <r>   2.4705  1.0000</r>
       <r>   2.4707  1.0000</r>
       <r>   3.1537  1.0000</r>
       <r>   3.7771  1.0000</r>
       <r>   3.8198  1.0000</r>
       <r>   3.8381  1.0000</r>
       <r>   3.8382  1.0000</r>
       <r>   4.4523  1.0000</r>
       <r>   4.4982  1.0000</r>
       <r>   4.4983  1.0000</r>
       <r>   4.6916  1.0000</r>
       <r>   5.1733  1.0000</r>
       <r>   5.1963  1.0000</r>
       <r>   5.1963  1.0000</r>
       <r>   5.3511  1.0000</r>
       <r>   5.7987  1.0000</r>
       <r>   5.7988  1.0000</r>
       <r>   5.8255  1.0000</r>
       <r>   5.8515  1.0000</r>
       <r>   5.8515  1.0000</r>
       <r>   6.0111  1.0000</r>
       <r>   6.4684  1.0000</r>
       <r>   6.4684  1.0000</r>
       <r>   6.5118  1.0000</r>
       <r>   6.6714  1.0000</r>
       <r>   6.7307  1.0000</r>
       <r>   7.1458  0.9865</r>
       <r>   7.1933  0.0000</r>
       <r>   7.1933  0.0000</r>
       <r>   7.2156  0.0000</r>
       <r>   7.3328  0.0000</r>
       <r>   7.4050  0.0000</r>
       <r>   7.8984  0.0000</r>
       <r>   7.9931  0.0000</r>
       <r>   7.9950  0.0000</r>
       <r>   8.0265  0.0000</r>
       <r>   8.5484  0.0000</r>
       <r>   8.7519  0.0000</r>
       <r>   8.7520  0.0000</r>
       <r>   9.1140  0.0000</r>
       <r>   9.1289  0.0000</r>
       <r>   9.1289  0.0000</r>
       <r>   9.2349  0.0000</r>
       <r>   9.2375  0.0000</r>
       <r>   9.3160  0.0000</r>
       <r>   9.3902  0.0000</r>
       <r>   9.4250  0.0000</r>
       <r>   9.4250  0.0000</r>
       <r>   9.9815  0.0000</r>
       <r>  10.0383  0.0000</r>
       <r>  10.0389  0.0000</r>
      </set>
      <set comment="kpoint 11">
       <r>  -2.9465  1.0000</r>
       <r>  -2.2379  1.0000</r>
       <r>  -2.2357  1.0000</r>
       <r>  -1.5305  1.0000</r>
       <r>  -0.8273  1.0000</r>
       <r>  -0.8273  1.0000</r>
       <r>  -0.1289  1.0000</r>
       <r>  -0.1280  1.0000</r>
       <r>  -0.1267  1.0000</r>
       <r>  -0.1258  1.0000</r>
       <r>   0.5665  1.0000</r>
       <r>   0.5685  1.0000</r>
       <r>   0.5695  1.0000</r>
       <r>   0.5707  1.0000</r>
       <r>   1.2612  1.0000</r>
       <r>   1.2623  1.0000</r>
       <r>   2.6248  1.0000</r>
       <r>   2.6258  1.0000</r>
       <r>   2.6389  1.0000</r>
       <r>   2.6397  1.0000</r>
       <r>   2.6410  1.0000</r>
       <r>   2.6420  1.0000</r>
       <r>   3.3078  1.0000</r>
       <r>   3.3100  1.0000</r>
       <r>   3.3200  1.0000</r>
       <r>   3.3201  1.0000</r>
       <r>   3.3317  1.0000</r>
       <r>   3.3318  1.0000</r>
       <r>   4.0049  1.0000</r>
       <r>   4.6367  1.0000</r>
       <r>   4.6367  1.0000</r>
       <r>   4.7010  1.0000</r>
       <r>   4.7010  1.0000</r>
       <r>   4.8564  1.0000</r>
       <r>   5.3441  1.0000</r>
       <r>   5.3450  1.0000</r>
       <r>   5.3463  1.0000</r>
       <r>   5.3472  1.0000</r>
       <r>   5.5148  1.0000</r>
       <r>   5.5172  1.0000</r>
       <r>   5.9987  1.0000</r>
       <r>   6.0062  1.0000</r>
       <r>   6.0075  1.0000</r>
       <r>   6.0383  1.0000</r>
       <r>   6.0383  1.0000</r>
       <r>   6.1760  1.0000</r>
       <r>   6.7074  1.0000</r>
       <r>   6.7090  1.0000</r>
       <r>   7.3881  0.0000</r>
       <r>   8.0087  0.0000</r>
       <r>   8.0246  0.0000</r>
       <r>   8.0256  0.0000</r>
       <r>   8.0257  0.0000</r>
       <r>   8.0267  0.0000</r>
       <r>   8.1586  0.0000</r>
       <r>   8.1610  0.0000</r>
       <r>   8.1929  0.0000</r>
       <r>   8.1941  0.0000</r>
       <r>   8.8196  0.0000</r>
       <r>   8.8215  0.0000</r>
       <r>   8.8364  0.0000</r>
       <r>   8.8381  0.0000</r>
       <r>   9.4235  0.0000</r>
       <r>   9.4247  0.0000</r>
       <r>   9.9919  0.0000</r>
       <r>   9.9919  0.0000</r>
       <r>  10.0466  0.0000</r>
       <r>  10.0468  0.0000</r>
       <r>  10.0919  0.0000</r>
       <r>  10.0919  0.0000</r>
       <r>  10.1455  0.0000</r>
       <r>  10.1475  0.0000</r>
      </set>
      <set comment="kpoint 12">
       <r>  -2.6518  1.0000</r>
       <r>  -2.6490  1.0000</r>
       <r>  -1.9435  1.0000</r>
       <r>  -1.9407  1.0000</r>
       <r>  -0.5373  1.0000</r>
       <r>  -0.5361  1.0000</r>
       <r>  -0.5345  1.0000</r>
       <r>  -0.5334  1.0000</r>
       <r>   0.1614  1.0000</r>
       <r>   0.1626  1.0000</r>
       <r>   0.1642  1.0000</r>
       <r>   0.1653  1.0000</r>
       <r>   0.8561  1.0000</r>
       <r>   0.8588  1.0000</r>
       <r>   1.5457  1.0000</r>
       <r>   1.5472  1.0000</r>
       <r>   2.2348  1.0000</r>
       <r>   2.2363  1.0000</r>
       <r>   2.9091  1.0000</r>
       <r>   2.9119  1.0000</r>
       <r>   2.9243  1.0000</r>
       <r>   2.9255  1.0000</r>
       <r>   2.9271  1.0000</r>
       <r>   2.9282  1.0000</r>
       <r>   3.6045  1.0000</r>
       <r>   3.6046  1.0000</r>
       <r>   3.6059  1.0000</r>
       <r>   3.6060  1.0000</r>
       <r>   4.2864  1.0000</r>
       <r>   4.2865  1.0000</r>
       <r>   4.2879  1.0000</r>
       <r>   4.2879  1.0000</r>
       <r>   4.9496  1.0000</r>
       <r>   4.9508  1.0000</r>
       <r>   4.9524  1.0000</r>
       <r>   4.9535  1.0000</r>
       <r>   4.9597  1.0000</r>
       <r>   4.9612  1.0000</r>
       <r>   5.1297  1.0000</r>
       <r>   5.1326  1.0000</r>
       <r>   5.7895  1.0000</r>
       <r>   5.7924  1.0000</r>
       <r>   6.2803  1.0000</r>
       <r>   6.2829  1.0000</r>
       <r>   6.9739  1.0000</r>
       <r>   6.9755  1.0000</r>
       <r>   6.9835  1.0000</r>
       <r>   6.9836  1.0000</r>
       <r>   6.9851  1.0000</r>
       <r>   6.9851  1.0000</r>
       <r>   6.9878  1.0000</r>
       <r>   6.9903  1.0000</r>
       <r>   8.4336  0.0000</r>
       <r>   8.4366  0.0000</r>
       <r>   8.4681  0.0000</r>
       <r>   8.4709  0.0000</r>
       <r>   8.9604  0.0000</r>
       <r>   8.9605  0.0000</r>
       <r>   8.9621  0.0000</r>
       <r>   8.9621  0.0000</r>
       <r>   9.0965  0.0000</r>
       <r>   9.0988  0.0000</r>
       <r>   9.6476  0.0000</r>
       <r>   9.6505  0.0000</r>
       <r>   9.7570  0.0000</r>
       <r>   9.7594  0.0000</r>
       <r>   9.7881  0.0000</r>
       <r>   9.7896  0.0000</r>
       <r>  10.3019  0.0000</r>
       <r>  10.3025  0.0000</r>
       <r>  10.4239  0.0000</r>
       <r>  10.4265  0.0000</r>
      </set>
      <set comment="kpoint 13">
       <r>  -2.8872  1.0000</r>
       <r>  -2.8872  1.0000</r>
       <r>  -0.7738  1.0000</r>
       <r>  -0.7693  1.0000</r>
       <r>  -0.7689  1.0000</r>
       <r>  -0.7689  1.0000</r>
       <r>  -0.7689  1.0000</r>
       <r>  -0.7689  1.0000</r>
       <r>  -0.7684  1.0000</r>
       <r>  -0.7639  1.0000</r>
       <r>   1.3144  1.0000</r>
       <r>   1.3159  1.0000</r>
       <r>   1.3186  1.0000</r>
       <r>   1.3192  1.0000</r>
       <r>   1.3207  1.0000</r>
       <r>   1.3209  1.0000</r>
       <r>   1.3213  1.0000</r>
       <r>   1.3218  1.0000</r>
       <r>   1.3230  1.0000</r>
       <r>   1.3253  1.0000</r>
       <r>   3.3747  1.0000</r>
       <r>   3.3751  1.0000</r>
       <r>   3.3777  1.0000</r>
       <r>   3.3777  1.0000</r>
       <r>   3.3777  1.0000</r>
       <r>   3.3777  1.0000</r>
       <r>   3.3802  1.0000</r>
       <r>   3.3806  1.0000</r>
       <r>   4.9113  1.0000</r>
       <r>   4.9114  1.0000</r>
       <r>   4.9114  1.0000</r>
       <r>   4.9114  1.0000</r>
       <r>   5.4140  1.0000</r>
       <r>   5.4152  1.0000</r>
       <r>   5.4156  1.0000</r>
       <r>   5.4159  1.0000</r>
       <r>   5.4178  1.0000</r>
       <r>   5.4181  1.0000</r>
       <r>   5.4185  1.0000</r>
       <r>   5.4196  1.0000</r>
       <r>   6.0574  1.0000</r>
       <r>   6.0575  1.0000</r>
       <r>   6.0575  1.0000</r>
       <r>   6.0575  1.0000</r>
       <r>   6.8871  1.0000</r>
       <r>   6.8914  1.0000</r>
       <r>   6.8918  1.0000</r>
       <r>   6.8918  1.0000</r>
       <r>   6.8918  1.0000</r>
       <r>   6.8919  1.0000</r>
       <r>   6.8922  1.0000</r>
       <r>   6.8966  1.0000</r>
       <r>   8.1171  0.0000</r>
       <r>   8.1203  0.0000</r>
       <r>   8.1208  0.0000</r>
       <r>   8.1208  0.0000</r>
       <r>   8.1208  0.0000</r>
       <r>   8.1208  0.0000</r>
       <r>   8.1213  0.0000</r>
       <r>   8.1245  0.0000</r>
       <r>   8.8774  0.0000</r>
       <r>   8.8774  0.0000</r>
       <r>   8.8774  0.0000</r>
       <r>   8.8774  0.0000</r>
       <r>   9.5712  0.0000</r>
       <r>   9.5712  0.0000</r>
       <r>  10.0806  0.0000</r>
       <r>  10.0806  0.0000</r>
       <r>  10.0807  0.0000</r>
       <r>  10.0807  0.0000</r>
       <r>  10.8568  0.0000</r>
       <r>  10.8588  0.0000</r>
      </set>
      <set comment="kpoint 14">
       <r>  -2.8279  1.0000</r>
       <r>  -2.8279  1.0000</r>
       <r>  -1.4130  1.0000</r>
       <r>  -1.4130  1.0000</r>
       <r>  -0.7105  1.0000</r>
       <r>  -0.7105  1.0000</r>
       <r>  -0.7105  1.0000</r>
       <r>  -0.7105  1.0000</r>
       <r>  -0.0113  1.0000</r>
       <r>  -0.0113  1.0000</r>
       <r>   0.6854  1.0000</r>
       <r>   0.6854  1.0000</r>
       <r>   0.6854  1.0000</r>
       <r>   0.6854  1.0000</r>
       <r>   1.3737  1.0000</r>
       <r>   1.3737  1.0000</r>
       <r>   2.0689  1.0000</r>
       <r>   2.0689  1.0000</r>
       <r>   2.0689  1.0000</r>
       <r>   2.0689  1.0000</r>
       <r>   2.7505  1.0000</r>
       <r>   2.7505  1.0000</r>
       <r>   3.4346  1.0000</r>
       <r>   3.4346  1.0000</r>
       <r>   3.4346  1.0000</r>
       <r>   3.4346  1.0000</r>
       <r>   4.0588  1.0000</r>
       <r>   4.0588  1.0000</r>
       <r>   4.1153  1.0000</r>
       <r>   4.1153  1.0000</r>
       <r>   4.7964  1.0000</r>
       <r>   4.7964  1.0000</r>
       <r>   4.7964  1.0000</r>
       <r>   4.7964  1.0000</r>
       <r>   4.9663  1.0000</r>
       <r>   4.9663  1.0000</r>
       <r>   6.0777  1.0000</r>
       <r>   6.0778  1.0000</r>
       <r>   6.0778  1.0000</r>
       <r>   6.0778  1.0000</r>
       <r>   6.1147  1.0000</r>
       <r>   6.1148  1.0000</r>
       <r>   6.1469  1.0000</r>
       <r>   6.1469  1.0000</r>
       <r>   6.1469  1.0000</r>
       <r>   6.1470  1.0000</r>
       <r>   6.2862  1.0000</r>
       <r>   6.2862  1.0000</r>
       <r>   7.0132  1.0000</r>
       <r>   7.0132  1.0000</r>
       <r>   7.5009  0.0000</r>
       <r>   7.5009  0.0000</r>
       <r>   7.6081  0.0000</r>
       <r>   7.6081  0.0000</r>
       <r>   8.0778  0.0000</r>
       <r>   8.0778  0.0000</r>
       <r>   8.8420  0.0000</r>
       <r>   8.8420  0.0000</r>
       <r>   8.9325  0.0000</r>
       <r>   8.9325  0.0000</r>
       <r>   9.0354  0.0000</r>
       <r>   9.0354  0.0000</r>
       <r>   9.0354  0.0000</r>
       <r>   9.0354  0.0000</r>
       <r>   9.6259  0.0000</r>
       <r>   9.6259  0.0000</r>
       <r>  10.0601  0.0000</r>
       <r>  10.0602  0.0000</r>
       <r>  10.0602  0.0000</r>
       <r>  10.0602  0.0000</r>
       <r>  10.1359  0.0000</r>
       <r>  10.1360  0.0000</r>
      </set>
      <set comment="kpoint 15">
       <r>  -2.6504  1.0000</r>
       <r>  -2.6504  1.0000</r>
       <r>  -1.9421  1.0000</r>
       <r>  -1.9421  1.0000</r>
       <r>  -0.5354  1.0000</r>
       <r>  -0.5353  1.0000</r>
       <r>  -0.5353  1.0000</r>
       <r>  -0.5353  1.0000</r>
       <r>   0.1634  1.0000</r>
       <r>   0.1634  1.0000</r>
       <r>   0.1634  1.0000</r>
       <r>   0.1634  1.0000</r>
       <r>   0.8575  1.0000</r>
       <r>   0.8575  1.0000</r>
       <r>   1.5464  1.0000</r>
       <r>   1.5464  1.0000</r>
       <r>   2.2356  1.0000</r>
       <r>   2.2356  1.0000</r>
       <r>   2.9105  1.0000</r>
       <r>   2.9105  1.0000</r>
       <r>   2.9263  1.0000</r>
       <r>   2.9263  1.0000</r>
       <r>   2.9263  1.0000</r>
       <r>   2.9264  1.0000</r>
       <r>   3.6052  1.0000</r>
       <r>   3.6052  1.0000</r>
       <r>   3.6052  1.0000</r>
       <r>   3.6052  1.0000</r>
       <r>   4.2872  1.0000</r>
       <r>   4.2872  1.0000</r>
       <r>   4.2872  1.0000</r>
       <r>   4.2872  1.0000</r>
       <r>   4.9516  1.0000</r>
       <r>   4.9516  1.0000</r>
       <r>   4.9516  1.0000</r>
       <r>   4.9516  1.0000</r>
       <r>   4.9605  1.0000</r>
       <r>   4.9605  1.0000</r>
       <r>   5.1312  1.0000</r>
       <r>   5.1312  1.0000</r>
       <r>   5.7909  1.0000</r>
       <r>   5.7909  1.0000</r>
       <r>   6.2816  1.0000</r>
       <r>   6.2816  1.0000</r>
       <r>   6.9746  1.0000</r>
       <r>   6.9747  1.0000</r>
       <r>   6.9842  1.0000</r>
       <r>   6.9843  1.0000</r>
       <r>   6.9843  1.0000</r>
       <r>   6.9844  1.0000</r>
       <r>   6.9891  1.0000</r>
       <r>   6.9892  1.0000</r>
       <r>   8.4351  0.0000</r>
       <r>   8.4351  0.0000</r>
       <r>   8.4695  0.0000</r>
       <r>   8.4695  0.0000</r>
       <r>   8.9612  0.0000</r>
       <r>   8.9613  0.0000</r>
       <r>   8.9613  0.0000</r>
       <r>   8.9613  0.0000</r>
       <r>   9.0977  0.0000</r>
       <r>   9.0977  0.0000</r>
       <r>   9.6491  0.0000</r>
       <r>   9.6491  0.0000</r>
       <r>   9.7582  0.0000</r>
       <r>   9.7582  0.0000</r>
       <r>   9.7888  0.0000</r>
       <r>   9.7888  0.0000</r>
       <r>  10.3022  0.0000</r>
       <r>  10.3025  0.0000</r>
       <r>  10.4239  0.0000</r>
       <r>  10.4368  0.0000</r>
      </set>
      <set comment="kpoint 16">
       <r>  -2.3573  1.0000</r>
       <r>  -2.3552  1.0000</r>
       <r>  -2.3546  1.0000</r>
       <r>  -2.3524  1.0000</r>
       <r>  -0.2473  1.0000</r>
       <r>  -0.2453  1.0000</r>
       <r>  -0.2442  1.0000</r>
       <r>  -0.2440  1.0000</r>
       <r>  -0.2437  1.0000</r>
       <r>  -0.2435  1.0000</r>
       <r>  -0.2424  1.0000</r>
       <r>  -0.2404  1.0000</r>
       <r>   1.8301  1.0000</r>
       <r>   1.8320  1.0000</r>
       <r>   1.8336  1.0000</r>
       <r>   1.8339  1.0000</r>
       <r>   1.8340  1.0000</r>
       <r>   1.8342  1.0000</r>
       <r>   1.8358  1.0000</r>
       <r>   1.8378  1.0000</r>
       <r>   3.8682  1.0000</r>
       <r>   3.8696  1.0000</r>
       <r>   3.8704  1.0000</r>
       <r>   3.8708  1.0000</r>
       <r>   3.8709  1.0000</r>
       <r>   3.8714  1.0000</r>
       <r>   3.8721  1.0000</r>
       <r>   3.8734  1.0000</r>
       <r>   3.9072  1.0000</r>
       <r>   3.9072  1.0000</r>
       <r>   3.9081  1.0000</r>
       <r>   3.9089  1.0000</r>
       <r>   3.9089  1.0000</r>
       <r>   3.9098  1.0000</r>
       <r>   3.9108  1.0000</r>
       <r>   3.9110  1.0000</r>
       <r>   5.4033  1.0000</r>
       <r>   5.4057  1.0000</r>
       <r>   5.4062  1.0000</r>
       <r>   5.4087  1.0000</r>
       <r>   5.9029  1.0000</r>
       <r>   5.9042  1.0000</r>
       <r>   5.9042  1.0000</r>
       <r>   5.9055  1.0000</r>
       <r>   6.5920  1.0000</r>
       <r>   6.5936  1.0000</r>
       <r>   6.5945  1.0000</r>
       <r>   6.5960  1.0000</r>
       <r>   7.9235  0.0000</r>
       <r>   7.9245  0.0000</r>
       <r>   7.9246  0.0000</r>
       <r>   7.9250  0.0000</r>
       <r>   7.9256  0.0000</r>
       <r>   7.9261  0.0000</r>
       <r>   7.9262  0.0000</r>
       <r>   7.9272  0.0000</r>
       <r>   9.3676  0.0000</r>
       <r>   9.3714  0.0000</r>
       <r>   9.3727  0.0000</r>
       <r>   9.3729  0.0000</r>
       <r>   9.3730  0.0000</r>
       <r>   9.3732  0.0000</r>
       <r>   9.3745  0.0000</r>
       <r>   9.3783  0.0000</r>
       <r>  10.0424  0.0000</r>
       <r>  10.0435  0.0000</r>
       <r>  10.0447  0.0000</r>
       <r>  10.0451  0.0000</r>
       <r>  10.0454  0.0000</r>
       <r>  10.0459  0.0000</r>
       <r>  10.0470  0.0000</r>
       <r>  10.0481  0.0000</r>
      </set>
      <set comment="kpoint 17">
       <r>  -3.3025  1.0000</r>
       <r>  -1.8832  1.0000</r>
       <r>  -1.8832  1.0000</r>
       <r>  -1.1801  1.0000</r>
       <r>  -1.1769  1.0000</r>
       <r>  -0.4772  1.0000</r>
       <r>  -0.4772  1.0000</r>
       <r>  -0.4769  1.0000</r>
       <r>   0.2189  1.0000</r>
       <r>   0.2209  1.0000</r>
       <r>   0.2221  1.0000</r>
       <r>   0.2241  1.0000</r>
       <r>   0.9165  1.0000</r>
       <r>   0.9165  1.0000</r>
       <r>   1.6060  1.0000</r>
       <r>   1.6080  1.0000</r>
       <r>   1.6082  1.0000</r>
       <r>   1.6094  1.0000</r>
       <r>   1.6106  1.0000</r>
       <r>   1.6118  1.0000</r>
       <r>   2.2977  1.0000</r>
       <r>   2.9815  1.0000</r>
       <r>   2.9816  1.0000</r>
       <r>   2.9890  1.0000</r>
       <r>   2.9890  1.0000</r>
       <r>   3.6080  1.0000</r>
       <r>   3.6080  1.0000</r>
       <r>   4.3485  1.0000</r>
       <r>   4.3518  1.0000</r>
       <r>   4.5269  1.0000</r>
       <r>   4.9573  1.0000</r>
       <r>   4.9573  1.0000</r>
       <r>   5.5941  1.0000</r>
       <r>   5.5942  1.0000</r>
       <r>   5.6508  1.0000</r>
       <r>   5.6650  1.0000</r>
       <r>   5.6650  1.0000</r>
       <r>   5.8461  1.0000</r>
       <r>   5.8461  1.0000</r>
       <r>   6.2926  1.0000</r>
       <r>   6.2926  1.0000</r>
       <r>   6.5605  1.0000</r>
       <r>   6.5605  1.0000</r>
       <r>   6.9671  1.0000</r>
       <r>   6.9691  1.0000</r>
       <r>   6.9706  1.0000</r>
       <r>   6.9726  1.0000</r>
       <r>   7.0451  1.0000</r>
       <r>   7.0451  1.0000</r>
       <r>   7.1669  0.2163</r>
       <r>   7.1677  0.1878</r>
       <r>   7.1677  0.1862</r>
       <r>   7.8835  0.0000</r>
       <r>   7.8835  0.0000</r>
       <r>   8.2994  0.0000</r>
       <r>   8.3002  0.0000</r>
       <r>   8.3029  0.0000</r>
       <r>   8.3037  0.0000</r>
       <r>   8.4056  0.0000</r>
       <r>   8.4422  0.0000</r>
       <r>   8.4423  0.0000</r>
       <r>   8.4724  0.0000</r>
       <r>   8.4726  0.0000</r>
       <r>   8.4892  0.0000</r>
       <r>   8.4893  0.0000</r>
       <r>   8.7178  0.0000</r>
       <r>   8.7178  0.0000</r>
       <r>   9.2649  0.0000</r>
       <r>   9.2649  0.0000</r>
       <r>   9.7338  0.0000</r>
       <r>   9.7338  0.0000</r>
       <r>   9.8111  0.0000</r>
      </set>
      <set comment="kpoint 18">
       <r>  -3.2431  1.0000</r>
       <r>  -1.8259  1.0000</r>
       <r>  -1.8243  1.0000</r>
       <r>  -1.8228  1.0000</r>
       <r>  -0.4220  1.0000</r>
       <r>  -0.4192  1.0000</r>
       <r>  -0.4190  1.0000</r>
       <r>  -0.4185  1.0000</r>
       <r>  -0.4183  1.0000</r>
       <r>  -0.4155  1.0000</r>
       <r>   0.9712  1.0000</r>
       <r>   0.9733  1.0000</r>
       <r>   0.9740  1.0000</r>
       <r>   0.9743  1.0000</r>
       <r>   0.9749  1.0000</r>
       <r>   0.9753  1.0000</r>
       <r>   0.9777  1.0000</r>
       <r>   2.3529  1.0000</r>
       <r>   2.3545  1.0000</r>
       <r>   2.3552  1.0000</r>
       <r>   2.3560  1.0000</r>
       <r>   2.3564  1.0000</r>
       <r>   2.3579  1.0000</r>
       <r>   3.6637  1.0000</r>
       <r>   3.6644  1.0000</r>
       <r>   3.6651  1.0000</r>
       <r>   3.7249  1.0000</r>
       <r>   3.7257  1.0000</r>
       <r>   3.7265  1.0000</r>
       <r>   5.0104  1.0000</r>
       <r>   5.0119  1.0000</r>
       <r>   5.0131  1.0000</r>
       <r>   5.0131  1.0000</r>
       <r>   5.0143  1.0000</r>
       <r>   5.0158  1.0000</r>
       <r>   5.0848  1.0000</r>
       <r>   6.3529  1.0000</r>
       <r>   6.3529  1.0000</r>
       <r>   6.3546  1.0000</r>
       <r>   6.3548  1.0000</r>
       <r>   6.3555  1.0000</r>
       <r>   6.3559  1.0000</r>
       <r>   6.3564  1.0000</r>
       <r>   6.3579  1.0000</r>
       <r>   6.3592  1.0000</r>
       <r>   6.6166  1.0000</r>
       <r>   6.6173  1.0000</r>
       <r>   6.6180  1.0000</r>
       <r>   7.6899  0.0000</r>
       <r>   7.6907  0.0000</r>
       <r>   7.6918  0.0000</r>
       <r>   7.6918  0.0000</r>
       <r>   7.6928  0.0000</r>
       <r>   7.6936  0.0000</r>
       <r>   7.9697  0.0000</r>
       <r>   7.9701  0.0000</r>
       <r>   7.9712  0.0000</r>
       <r>   7.9712  0.0000</r>
       <r>   7.9723  0.0000</r>
       <r>   7.9727  0.0000</r>
       <r>   9.0189  0.0000</r>
       <r>   9.0197  0.0000</r>
       <r>   9.0205  0.0000</r>
       <r>   9.3155  0.0000</r>
       <r>   9.3160  0.0000</r>
       <r>   9.3169  0.0000</r>
       <r>   9.3211  0.0000</r>
       <r>   9.3227  0.0000</r>
       <r>   9.3233  0.0000</r>
       <r>   9.3234  0.0000</r>
       <r>   9.3242  0.0000</r>
       <r>   9.3257  0.0000</r>
      </set>
      <set comment="kpoint 19">
       <r>  -3.0651  1.0000</r>
       <r>  -2.3549  1.0000</r>
       <r>  -1.6480  1.0000</r>
       <r>  -1.6479  1.0000</r>
       <r>  -0.9443  1.0000</r>
       <r>  -0.9443  1.0000</r>
       <r>  -0.2441  1.0000</r>
       <r>  -0.2441  1.0000</r>
       <r>  -0.2438  1.0000</r>
       <r>   0.4507  1.0000</r>
       <r>   0.4533  1.0000</r>
       <r>   0.4536  1.0000</r>
       <r>   0.4549  1.0000</r>
       <r>   1.1476  1.0000</r>
       <r>   1.1476  1.0000</r>
       <r>   1.8366  1.0000</r>
       <r>   1.8372  1.0000</r>
       <r>   1.8395  1.0000</r>
       <r>   1.8402  1.0000</r>
       <r>   2.5112  1.0000</r>
       <r>   2.5270  1.0000</r>
       <r>   3.2088  1.0000</r>
       <r>   3.2108  1.0000</r>
       <r>   3.2111  1.0000</r>
       <r>   3.2158  1.0000</r>
       <r>   3.8334  1.0000</r>
       <r>   3.8335  1.0000</r>
       <r>   3.8765  1.0000</r>
       <r>   3.8765  1.0000</r>
       <r>   4.5085  1.0000</r>
       <r>   4.5085  1.0000</r>
       <r>   4.5748  1.0000</r>
       <r>   4.5748  1.0000</r>
       <r>   5.1638  1.0000</r>
       <r>   5.1638  1.0000</r>
       <r>   5.2333  1.0000</r>
       <r>   5.2498  1.0000</r>
       <r>   5.2498  1.0000</r>
       <r>   5.8546  1.0000</r>
       <r>   5.8546  1.0000</r>
       <r>   5.9275  1.0000</r>
       <r>   6.5230  1.0000</r>
       <r>   6.5230  1.0000</r>
       <r>   6.5791  1.0000</r>
       <r>   6.5791  1.0000</r>
       <r>   6.7871  1.0000</r>
       <r>   6.7871  1.0000</r>
       <r>   7.1736  0.0420</r>
       <r>   7.1737  0.0408</r>
       <r>   7.1917  0.0000</r>
       <r>   7.1918  0.0000</r>
       <r>   7.4846  0.0000</r>
       <r>   7.4846  0.0000</r>
       <r>   7.9161  0.0000</r>
       <r>   8.0821  0.0000</r>
       <r>   8.1446  0.0000</r>
       <r>   8.1446  0.0000</r>
       <r>   8.5211  0.0000</r>
       <r>   8.5212  0.0000</r>
       <r>   8.8168  0.0000</r>
       <r>   8.8168  0.0000</r>
       <r>   9.1695  0.0000</r>
       <r>   9.1695  0.0000</r>
       <r>   9.3357  0.0000</r>
       <r>   9.3357  0.0000</r>
       <r>   9.5672  0.0000</r>
       <r>   9.5673  0.0000</r>
       <r>   9.8446  0.0000</r>
       <r>   9.8446  0.0000</r>
       <r>  10.1301  0.0000</r>
       <r>  10.1309  0.0000</r>
       <r>  10.1352  0.0000</r>
      </set>
      <set comment="kpoint 20">
       <r>  -2.7701  1.0000</r>
       <r>  -2.7674  1.0000</r>
       <r>  -1.3567  1.0000</r>
       <r>  -1.3548  1.0000</r>
       <r>  -1.3539  1.0000</r>
       <r>  -1.3521  1.0000</r>
       <r>   0.0443  1.0000</r>
       <r>   0.0461  1.0000</r>
       <r>   0.0464  1.0000</r>
       <r>   0.0473  1.0000</r>
       <r>   0.0482  1.0000</r>
       <r>   0.0496  1.0000</r>
       <r>   1.4297  1.0000</r>
       <r>   1.4316  1.0000</r>
       <r>   1.4349  1.0000</r>
       <r>   1.4353  1.0000</r>
       <r>   1.4373  1.0000</r>
       <r>   1.4383  1.0000</r>
       <r>   2.8066  1.0000</r>
       <r>   2.8072  1.0000</r>
       <r>   2.8081  1.0000</r>
       <r>   2.8085  1.0000</r>
       <r>   2.8119  1.0000</r>
       <r>   2.8146  1.0000</r>
       <r>   4.1134  1.0000</r>
       <r>   4.1137  1.0000</r>
       <r>   4.1163  1.0000</r>
       <r>   4.1165  1.0000</r>
       <r>   4.1708  1.0000</r>
       <r>   4.1713  1.0000</r>
       <r>   4.1722  1.0000</r>
       <r>   4.1728  1.0000</r>
       <r>   4.1733  1.0000</r>
       <r>   4.1748  1.0000</r>
       <r>   5.4611  1.0000</r>
       <r>   5.4629  1.0000</r>
       <r>   5.4639  1.0000</r>
       <r>   5.4658  1.0000</r>
       <r>   5.5278  1.0000</r>
       <r>   5.5285  1.0000</r>
       <r>   5.5292  1.0000</r>
       <r>   5.5300  1.0000</r>
       <r>   6.8002  1.0000</r>
       <r>   6.8008  1.0000</r>
       <r>   6.8030  1.0000</r>
       <r>   6.8036  1.0000</r>
       <r>   6.8734  1.0000</r>
       <r>   6.8749  1.0000</r>
       <r>   7.0661  1.0000</r>
       <r>   7.0666  1.0000</r>
       <r>   7.0688  1.0000</r>
       <r>   7.0694  1.0000</r>
       <r>   8.1339  0.0000</r>
       <r>   8.1344  0.0000</r>
       <r>   8.1356  0.0000</r>
       <r>   8.1362  0.0000</r>
       <r>   8.4241  0.0000</r>
       <r>   8.4248  0.0000</r>
       <r>   8.4269  0.0000</r>
       <r>   8.4275  0.0000</r>
       <r>   9.4535  0.0000</r>
       <r>   9.4544  0.0000</r>
       <r>   9.4554  0.0000</r>
       <r>   9.4561  0.0000</r>
       <r>   9.6788  0.0000</r>
       <r>   9.6802  0.0000</r>
       <r>   9.7426  0.0000</r>
       <r>   9.7445  0.0000</r>
       <r>   9.7454  0.0000</r>
       <r>   9.7474  0.0000</r>
       <r>  10.7236  0.0000</r>
       <r>  10.7464  0.0000</r>
      </set>
      <set comment="kpoint 21">
       <r>  -3.1244  1.0000</r>
       <r>  -2.4139  1.0000</r>
       <r>  -1.7067  1.0000</r>
       <r>  -1.0049  1.0000</r>
       <r>  -1.0028  1.0000</r>
       <r>  -1.0007  1.0000</r>
       <r>  -0.3042  1.0000</r>
       <r>  -0.3022  1.0000</r>
       <r>  -0.3000  1.0000</r>
       <r>   0.3930  1.0000</r>
       <r>   0.3948  1.0000</r>
       <r>   0.3953  1.0000</r>
       <r>   0.3976  1.0000</r>
       <r>   1.0887  1.0000</r>
       <r>   1.0919  1.0000</r>
       <r>   1.7795  1.0000</r>
       <r>   1.7804  1.0000</r>
       <r>   1.7832  1.0000</r>
       <r>   2.4540  1.0000</r>
       <r>   2.4669  1.0000</r>
       <r>   2.4689  1.0000</r>
       <r>   2.4702  1.0000</r>
       <r>   2.4721  1.0000</r>
       <r>   3.1537  1.0000</r>
       <r>   3.7771  1.0000</r>
       <r>   3.8198  1.0000</r>
       <r>   3.8365  1.0000</r>
       <r>   3.8398  1.0000</r>
       <r>   4.4523  1.0000</r>
       <r>   4.4966  1.0000</r>
       <r>   4.4999  1.0000</r>
       <r>   4.6916  1.0000</r>
       <r>   5.1733  1.0000</r>
       <r>   5.1946  1.0000</r>
       <r>   5.1979  1.0000</r>
       <r>   5.3511  1.0000</r>
       <r>   5.7971  1.0000</r>
       <r>   5.8005  1.0000</r>
       <r>   5.8254  1.0000</r>
       <r>   5.8498  1.0000</r>
       <r>   5.8531  1.0000</r>
       <r>   6.0111  1.0000</r>
       <r>   6.4667  1.0000</r>
       <r>   6.4701  1.0000</r>
       <r>   6.5118  1.0000</r>
       <r>   6.6714  1.0000</r>
       <r>   6.7307  1.0000</r>
       <r>   7.1458  0.9865</r>
       <r>   7.1916  0.0000</r>
       <r>   7.1949  0.0000</r>
       <r>   7.2156  0.0000</r>
       <r>   7.3328  0.0000</r>
       <r>   7.4050  0.0000</r>
       <r>   7.8984  0.0000</r>
       <r>   7.9936  0.0000</r>
       <r>   7.9945  0.0000</r>
       <r>   8.0266  0.0000</r>
       <r>   8.5484  0.0000</r>
       <r>   8.7505  0.0000</r>
       <r>   8.7534  0.0000</r>
       <r>   9.1140  0.0000</r>
       <r>   9.1271  0.0000</r>
       <r>   9.1306  0.0000</r>
       <r>   9.2349  0.0000</r>
       <r>   9.2375  0.0000</r>
       <r>   9.3160  0.0000</r>
       <r>   9.3902  0.0000</r>
       <r>   9.4235  0.0000</r>
       <r>   9.4265  0.0000</r>
       <r>   9.9813  0.0000</r>
       <r>  10.0370  0.0000</r>
       <r>  10.0401  0.0000</r>
      </set>
      <set comment="kpoint 22">
       <r>  -3.0651  1.0000</r>
       <r>  -2.3549  1.0000</r>
       <r>  -1.6490  1.0000</r>
       <r>  -1.6469  1.0000</r>
       <r>  -0.9454  1.0000</r>
       <r>  -0.9432  1.0000</r>
       <r>  -0.2457  1.0000</r>
       <r>  -0.2440  1.0000</r>
       <r>  -0.2423  1.0000</r>
       <r>   0.4513  1.0000</r>
       <r>   0.4524  1.0000</r>
       <r>   0.4534  1.0000</r>
       <r>   0.4552  1.0000</r>
       <r>   1.1471  1.0000</r>
       <r>   1.1482  1.0000</r>
       <r>   1.8364  1.0000</r>
       <r>   1.8384  1.0000</r>
       <r>   1.8389  1.0000</r>
       <r>   1.8399  1.0000</r>
       <r>   2.5112  1.0000</r>
       <r>   2.5270  1.0000</r>
       <r>   3.2086  1.0000</r>
       <r>   3.2103  1.0000</r>
       <r>   3.2121  1.0000</r>
       <r>   3.2156  1.0000</r>
       <r>   3.8330  1.0000</r>
       <r>   3.8340  1.0000</r>
       <r>   3.8754  1.0000</r>
       <r>   3.8776  1.0000</r>
       <r>   4.5080  1.0000</r>
       <r>   4.5090  1.0000</r>
       <r>   4.5743  1.0000</r>
       <r>   4.5754  1.0000</r>
       <r>   5.1627  1.0000</r>
       <r>   5.1649  1.0000</r>
       <r>   5.2332  1.0000</r>
       <r>   5.2487  1.0000</r>
       <r>   5.2510  1.0000</r>
       <r>   5.8535  1.0000</r>
       <r>   5.8557  1.0000</r>
       <r>   5.9275  1.0000</r>
       <r>   6.5225  1.0000</r>
       <r>   6.5236  1.0000</r>
       <r>   6.5785  1.0000</r>
       <r>   6.5797  1.0000</r>
       <r>   6.7866  1.0000</r>
       <r>   6.7876  1.0000</r>
       <r>   7.1731  0.0494</r>
       <r>   7.1744  0.0329</r>
       <r>   7.1911  0.0000</r>
       <r>   7.1922  0.0000</r>
       <r>   7.4843  0.0000</r>
       <r>   7.4849  0.0000</r>
       <r>   7.9161  0.0000</r>
       <r>   8.0821  0.0000</r>
       <r>   8.1441  0.0000</r>
       <r>   8.1451  0.0000</r>
       <r>   8.5200  0.0000</r>
       <r>   8.5223  0.0000</r>
       <r>   8.8163  0.0000</r>
       <r>   8.8173  0.0000</r>
       <r>   9.1690  0.0000</r>
       <r>   9.1701  0.0000</r>
       <r>   9.3345  0.0000</r>
       <r>   9.3369  0.0000</r>
       <r>   9.5664  0.0000</r>
       <r>   9.5681  0.0000</r>
       <r>   9.8440  0.0000</r>
       <r>   9.8451  0.0000</r>
       <r>  10.1302  0.0000</r>
       <r>  10.1333  0.0000</r>
       <r>  10.1359  0.0000</r>
      </set>
      <set comment="kpoint 23">
       <r>  -2.8872  1.0000</r>
       <r>  -2.1789  1.0000</r>
       <r>  -2.1768  1.0000</r>
       <r>  -1.4727  1.0000</r>
       <r>  -1.4708  1.0000</r>
       <r>  -0.7700  1.0000</r>
       <r>  -0.7678  1.0000</r>
       <r>  -0.0698  1.0000</r>
       <r>  -0.0688  1.0000</r>
       <r>   0.6241  1.0000</r>
       <r>   0.6263  1.0000</r>
       <r>   0.6268  1.0000</r>
       <r>   0.6291  1.0000</r>
       <r>   1.3185  1.0000</r>
       <r>   1.3196  1.0000</r>
       <r>   1.3216  1.0000</r>
       <r>   2.0089  1.0000</r>
       <r>   2.0111  1.0000</r>
       <r>   2.6819  1.0000</r>
       <r>   2.6829  1.0000</r>
       <r>   2.6974  1.0000</r>
       <r>   2.6985  1.0000</r>
       <r>   3.3647  1.0000</r>
       <r>   3.3669  1.0000</r>
       <r>   3.3807  1.0000</r>
       <r>   3.3829  1.0000</r>
       <r>   4.0024  1.0000</r>
       <r>   4.0458  1.0000</r>
       <r>   4.0468  1.0000</r>
       <r>   4.0611  1.0000</r>
       <r>   4.0644  1.0000</r>
       <r>   4.0655  1.0000</r>
       <r>   4.6755  1.0000</r>
       <r>   4.6778  1.0000</r>
       <r>   4.7250  1.0000</r>
       <r>   4.7273  1.0000</r>
       <r>   5.3515  1.0000</r>
       <r>   5.4008  1.0000</r>
       <r>   5.4018  1.0000</r>
       <r>   5.4197  1.0000</r>
       <r>   6.0701  1.0000</r>
       <r>   6.0713  1.0000</r>
       <r>   6.0741  1.0000</r>
       <r>   6.0763  1.0000</r>
       <r>   6.7661  1.0000</r>
       <r>   6.9546  1.0000</r>
       <r>   7.3535  0.0000</r>
       <r>   7.3559  0.0000</r>
       <r>   7.4135  0.0000</r>
       <r>   7.4145  0.0000</r>
       <r>   7.6415  0.0000</r>
       <r>   7.6434  0.0000</r>
       <r>   8.0218  0.0000</r>
       <r>   8.0232  0.0000</r>
       <r>   8.0662  0.0000</r>
       <r>   8.2469  0.0000</r>
       <r>   8.2481  0.0000</r>
       <r>   8.3152  0.0000</r>
       <r>   8.7449  0.0000</r>
       <r>   8.7460  0.0000</r>
       <r>   8.9184  0.0000</r>
       <r>   8.9195  0.0000</r>
       <r>   9.3363  0.0000</r>
       <r>   9.3376  0.0000</r>
       <r>   9.3864  0.0000</r>
       <r>   9.5825  0.0000</r>
       <r>   9.5835  0.0000</r>
       <r>   9.9895  0.0000</r>
       <r>   9.9919  0.0000</r>
       <r>  10.2488  0.0000</r>
       <r>  10.2519  0.0000</r>
       <r>  10.2979  0.0000</r>
      </set>
      <set comment="kpoint 24">
       <r>  -2.5926  1.0000</r>
       <r>  -2.5899  1.0000</r>
       <r>  -1.8846  1.0000</r>
       <r>  -1.8819  1.0000</r>
       <r>  -1.1799  1.0000</r>
       <r>  -1.1771  1.0000</r>
       <r>  -0.4783  1.0000</r>
       <r>  -0.4756  1.0000</r>
       <r>   0.2198  1.0000</r>
       <r>   0.2225  1.0000</r>
       <r>   0.9138  1.0000</r>
       <r>   0.9153  1.0000</r>
       <r>   0.9165  1.0000</r>
       <r>   0.9180  1.0000</r>
       <r>   1.6033  1.0000</r>
       <r>   1.6047  1.0000</r>
[...]
       <r>   6.2816  1.0000</r>
       <r>   6.9747  1.0000</r>
       <r>   6.9747  1.0000</r>
       <r>   6.9825  1.0000</r>
       <r>   6.9828  1.0000</r>
       <r>   6.9856  1.0000</r>
       <r>   6.9862  1.0000</r>
       <r>   6.9890  1.0000</r>
       <r>   6.9893  1.0000</r>
       <r>   8.4349  0.0000</r>
       <r>   8.4351  0.0000</r>
       <r>   8.4695  0.0000</r>
       <r>   8.4698  0.0000</r>
       <r>   8.9594  0.0000</r>
       <r>   8.9597  0.0000</r>
       <r>   8.9629  0.0000</r>
       <r>   8.9631  0.0000</r>
       <r>   9.0977  0.0000</r>
       <r>   9.0977  0.0000</r>
       <r>   9.6490  0.0000</r>
       <r>   9.6491  0.0000</r>
       <r>   9.7581  0.0000</r>
       <r>   9.7582  0.0000</r>
       <r>   9.7889  0.0000</r>
       <r>   9.7890  0.0000</r>
       <r>  10.3022  0.0000</r>
       <r>  10.3034  0.0000</r>
       <r>  10.4259  0.0000</r>
       <r>  10.4420  0.0000</r>
      </set>
      <set comment="kpoint 34">
       <r>  -2.5913  1.0000</r>
       <r>  -2.5912  1.0000</r>
       <r>  -1.8833  1.0000</r>
       <r>  -1.8832  1.0000</r>
       <r>  -1.1785  1.0000</r>
       <r>  -1.1785  1.0000</r>
       <r>  -0.4770  1.0000</r>
       <r>  -0.4770  1.0000</r>
       <r>   0.2211  1.0000</r>
       <r>   0.2211  1.0000</r>
       <r>   0.9147  1.0000</r>
       <r>   0.9153  1.0000</r>
       <r>   0.9165  1.0000</r>
       <r>   0.9171  1.0000</r>
       <r>   1.6040  1.0000</r>
       <r>   1.6040  1.0000</r>
       <r>   2.2928  1.0000</r>
       <r>   2.2928  1.0000</r>
       <r>   2.2970  1.0000</r>
       <r>   2.2970  1.0000</r>
       <r>   2.9675  1.0000</r>
       <r>   2.9675  1.0000</r>
       <r>   2.9790  1.0000</r>
       <r>   2.9790  1.0000</r>
       <r>   3.6506  1.0000</r>
       <r>   3.6506  1.0000</r>
       <r>   3.6791  1.0000</r>
       <r>   3.6791  1.0000</r>
       <r>   4.2837  1.0000</r>
       <r>   4.2837  1.0000</r>
       <r>   4.3085  1.0000</r>
       <r>   4.3085  1.0000</r>
       <r>   4.3644  1.0000</r>
       <r>   4.3644  1.0000</r>
       <r>   4.9432  1.0000</r>
       <r>   4.9433  1.0000</r>
       <r>   5.0215  1.0000</r>
       <r>   5.0215  1.0000</r>
       <r>   5.0334  1.0000</r>
       <r>   5.0335  1.0000</r>
       <r>   5.6821  1.0000</r>
       <r>   5.6821  1.0000</r>
       <r>   6.3690  1.0000</r>
       <r>   6.3690  1.0000</r>
       <r>   6.9942  1.0000</r>
       <r>   6.9942  1.0000</r>
       <r>   7.2689  0.0000</r>
       <r>   7.2690  0.0000</r>
       <r>   7.6337  0.0000</r>
       <r>   7.6337  0.0000</r>
       <r>   7.7084  0.0000</r>
       <r>   7.7084  0.0000</r>
       <r>   7.9229  0.0000</r>
       <r>   7.9229  0.0000</r>
       <r>   8.2769  0.0000</r>
       <r>   8.2770  0.0000</r>
       <r>   8.3525  0.0000</r>
       <r>   8.3525  0.0000</r>
       <r>   8.5493  0.0000</r>
       <r>   8.5494  0.0000</r>
       <r>   8.9580  0.0000</r>
       <r>   8.9580  0.0000</r>
       <r>   9.5919  0.0000</r>
       <r>   9.5919  0.0000</r>
       <r>   9.6776  0.0000</r>
       <r>   9.6776  0.0000</r>
       <r>   9.8630  0.0000</r>
       <r>   9.8631  0.0000</r>
       <r>   9.8640  0.0000</r>
       <r>   9.8641  0.0000</r>
       <r>  10.4345  0.0000</r>
       <r>  10.4345  0.0000</r>
      </set>
      <set comment="kpoint 35">
       <r>  -2.4140  1.0000</r>
       <r>  -2.4140  1.0000</r>
       <r>  -1.7088  1.0000</r>
       <r>  -1.7069  1.0000</r>
       <r>  -1.7067  1.0000</r>
       <r>  -1.7048  1.0000</r>
       <r>  -1.0029  1.0000</r>
       <r>  -1.0029  1.0000</r>
       <r>   1.0865  1.0000</r>
       <r>   1.0885  1.0000</r>
       <r>   1.0887  1.0000</r>
       <r>   1.0906  1.0000</r>
       <r>   1.7756  1.0000</r>
       <r>   1.7763  1.0000</r>
       <r>   1.7797  1.0000</r>
       <r>   1.7801  1.0000</r>
       <r>   1.7804  1.0000</r>
       <r>   1.7815  1.0000</r>
       <r>   2.4635  1.0000</r>
       <r>   2.4636  1.0000</r>
       <r>   2.4657  1.0000</r>
       <r>   2.4658  1.0000</r>
       <r>   3.1373  1.0000</r>
       <r>   3.1381  1.0000</r>
       <r>   3.1385  1.0000</r>
       <r>   3.1390  1.0000</r>
       <r>   3.1503  1.0000</r>
       <r>   3.1505  1.0000</r>
       <r>   3.8178  1.0000</r>
       <r>   3.8197  1.0000</r>
       <r>   3.8200  1.0000</r>
       <r>   3.8219  1.0000</r>
       <r>   4.5162  1.0000</r>
       <r>   4.5162  1.0000</r>
       <r>   5.1875  1.0000</r>
       <r>   5.1876  1.0000</r>
       <r>   5.1898  1.0000</r>
       <r>   5.1898  1.0000</r>
       <r>   5.8630  1.0000</r>
       <r>   5.8638  1.0000</r>
       <r>   5.8641  1.0000</r>
       <r>   5.8649  1.0000</r>
       <r>   6.5194  1.0000</r>
       <r>   6.5204  1.0000</r>
       <r>   6.5205  1.0000</r>
       <r>   6.5215  1.0000</r>
       <r>   7.1815  0.0023</r>
       <r>   7.1822  0.0016</r>
       <r>   7.1826  0.0013</r>
       <r>   7.1834  0.0009</r>
       <r>   7.8515  0.0000</r>
       <r>   7.8516  0.0000</r>
       <r>   7.8538  0.0000</r>
       <r>   7.8539  0.0000</r>
       <r>   8.4999  0.0000</r>
       <r>   8.5000  0.0000</r>
       <r>   8.5389  0.0000</r>
       <r>   8.5389  0.0000</r>
       <r>   8.7027  0.0000</r>
       <r>   8.7033  0.0000</r>
       <r>   8.7037  0.0000</r>
       <r>   8.7043  0.0000</r>
       <r>   9.3671  0.0000</r>
       <r>   9.3681  0.0000</r>
       <r>   9.3681  0.0000</r>
       <r>   9.3691  0.0000</r>
       <r>  10.0182  0.0000</r>
       <r>  10.0182  0.0000</r>
       <r>  10.4981  0.0000</r>
       <r>  10.4991  0.0000</r>
       <r>  10.4991  0.0000</r>
       <r>  10.5002  0.0000</r>
      </set>
      <set comment="kpoint 36">
       <r>  -2.1214  1.0000</r>
       <r>  -2.1192  1.0000</r>
       <r>  -2.1186  1.0000</r>
       <r>  -2.1165  1.0000</r>
       <r>  -1.4156  1.0000</r>
       <r>  -1.4134  1.0000</r>
       <r>  -1.4128  1.0000</r>
       <r>  -1.4107  1.0000</r>
       <r>   1.3746  1.0000</r>
       <r>   1.3768  1.0000</r>
       <r>   1.3774  1.0000</r>
       <r>   1.3795  1.0000</r>
       <r>   2.0597  1.0000</r>
       <r>   2.0617  1.0000</r>
       <r>   2.0632  1.0000</r>
       <r>   2.0635  1.0000</r>
       <r>   2.0636  1.0000</r>
       <r>   2.0639  1.0000</r>
       <r>   2.0654  1.0000</r>
       <r>   2.0674  1.0000</r>
       <r>   2.7468  1.0000</r>
       <r>   2.7488  1.0000</r>
       <r>   2.7503  1.0000</r>
       <r>   2.7506  1.0000</r>
       <r>   2.7507  1.0000</r>
       <r>   2.7510  1.0000</r>
       <r>   2.7525  1.0000</r>
       <r>   2.7545  1.0000</r>
       <r>   3.4202  1.0000</r>
       <r>   3.4224  1.0000</r>
       <r>   3.4229  1.0000</r>
       <r>   3.4252  1.0000</r>
       <r>   5.4662  1.0000</r>
       <r>   5.4682  1.0000</r>
       <r>   5.4699  1.0000</r>
       <r>   5.4701  1.0000</r>
       <r>   5.4703  1.0000</r>
       <r>   5.4705  1.0000</r>
       <r>   5.4721  1.0000</r>
       <r>   5.4741  1.0000</r>
       <r>   6.1367  1.0000</r>
       <r>   6.1378  1.0000</r>
       <r>   6.1382  1.0000</r>
       <r>   6.1393  1.0000</r>
       <r>   6.8092  1.0000</r>
       <r>   6.8103  1.0000</r>
       <r>   6.8108  1.0000</r>
       <r>   6.8118  1.0000</r>
       <r>   7.4585  0.0000</r>
       <r>   7.4608  0.0000</r>
       <r>   7.4624  0.0000</r>
       <r>   7.4626  0.0000</r>
       <r>   7.4627  0.0000</r>
       <r>   7.4630  0.0000</r>
       <r>   7.4646  0.0000</r>
       <r>   7.4669  0.0000</r>
       <r>   8.9783  0.0000</r>
       <r>   8.9803  0.0000</r>
       <r>   8.9810  0.0000</r>
       <r>   8.9830  0.0000</r>
       <r>   9.4706  0.0000</r>
       <r>   9.4716  0.0000</r>
       <r>   9.4722  0.0000</r>
       <r>   9.4733  0.0000</r>
       <r>  10.2891  0.0000</r>
       <r>  10.2899  0.0000</r>
       <r>  10.2903  0.0000</r>
       <r>  10.2913  0.0000</r>
       <r>  10.2916  0.0000</r>
       <r>  10.2926  0.0000</r>
       <r>  10.2930  0.0000</r>
       <r>  10.2938  0.0000</r>
      </set>
      <set comment="kpoint 37">
       <r>  -2.3549  1.0000</r>
       <r>  -2.3549  1.0000</r>
       <r>  -2.3549  1.0000</r>
       <r>  -2.3549  1.0000</r>
       <r>  -0.2489  1.0000</r>
       <r>  -0.2445  1.0000</r>
       <r>  -0.2445  1.0000</r>
       <r>  -0.2440  1.0000</r>
       <r>  -0.2437  1.0000</r>
       <r>  -0.2432  1.0000</r>
       <r>  -0.2432  1.0000</r>
       <r>  -0.2388  1.0000</r>
       <r>   1.8339  1.0000</r>
       <r>   1.8339  1.0000</r>
       <r>   1.8339  1.0000</r>
       <r>   1.8339  1.0000</r>
       <r>   1.8339  1.0000</r>
       <r>   1.8339  1.0000</r>
       <r>   1.8339  1.0000</r>
       <r>   1.8339  1.0000</r>
       <r>   3.8694  1.0000</r>
       <r>   3.8694  1.0000</r>
       <r>   3.8705  1.0000</r>
       <r>   3.8709  1.0000</r>
       <r>   3.8709  1.0000</r>
       <r>   3.8709  1.0000</r>
       <r>   3.8722  1.0000</r>
       <r>   3.8722  1.0000</r>
       <r>   3.9075  1.0000</r>
       <r>   3.9075  1.0000</r>
       <r>   3.9089  1.0000</r>
       <r>   3.9089  1.0000</r>
       <r>   3.9089  1.0000</r>
       <r>   3.9094  1.0000</r>
       <r>   3.9105  1.0000</r>
       <r>   3.9105  1.0000</r>
       <r>   5.4060  1.0000</r>
       <r>   5.4060  1.0000</r>
       <r>   5.4060  1.0000</r>
       <r>   5.4060  1.0000</r>
       <r>   5.9042  1.0000</r>
       <r>   5.9042  1.0000</r>
       <r>   5.9042  1.0000</r>
       <r>   5.9042  1.0000</r>
       <r>   6.5940  1.0000</r>
       <r>   6.5940  1.0000</r>
       <r>   6.5940  1.0000</r>
       <r>   6.5940  1.0000</r>
       <r>   7.9231  0.0000</r>
       <r>   7.9231  0.0000</r>
       <r>   7.9238  0.0000</r>
       <r>   7.9245  0.0000</r>
       <r>   7.9262  0.0000</r>
       <r>   7.9269  0.0000</r>
       <r>   7.9275  0.0000</r>
       <r>   7.9275  0.0000</r>
       <r>   9.3729  0.0000</r>
       <r>   9.3729  0.0000</r>
       <r>   9.3729  0.0000</r>
       <r>   9.3729  0.0000</r>
       <r>   9.3729  0.0000</r>
       <r>   9.3729  0.0000</r>
       <r>   9.3729  0.0000</r>
       <r>   9.3730  0.0000</r>
       <r>  10.0453  0.0000</r>
       <r>  10.0453  0.0000</r>
       <r>  10.0453  0.0000</r>
       <r>  10.0453  0.0000</r>
       <r>  10.0453  0.0000</r>
       <r>  10.0453  0.0000</r>
       <r>  10.0453  0.0000</r>
       <r>  10.0453  0.0000</r>
      </set>
      <set comment="kpoint 38">
       <r>  -2.2959  1.0000</r>
       <r>  -2.2959  1.0000</r>
       <r>  -2.2959  1.0000</r>
       <r>  -2.2959  1.0000</r>
       <r>  -0.8858  1.0000</r>
       <r>  -0.8858  1.0000</r>
       <r>  -0.8858  1.0000</r>
       <r>  -0.8858  1.0000</r>
       <r>   0.5112  1.0000</r>
       <r>   0.5112  1.0000</r>
       <r>   0.5112  1.0000</r>
       <r>   0.5112  1.0000</r>
       <r>   1.8913  1.0000</r>
       <r>   1.8913  1.0000</r>
       <r>   1.8913  1.0000</r>
       <r>   1.8914  1.0000</r>
       <r>   1.8914  1.0000</r>
       <r>   1.8914  1.0000</r>
       <r>   1.8914  1.0000</r>
       <r>   1.8914  1.0000</r>
       <r>   3.2641  1.0000</r>
       <r>   3.2641  1.0000</r>
       <r>   3.2641  1.0000</r>
       <r>   3.2641  1.0000</r>
       <r>   3.2641  1.0000</r>
       <r>   3.2641  1.0000</r>
       <r>   3.2641  1.0000</r>
       <r>   3.2641  1.0000</r>
       <r>   4.5644  1.0000</r>
       <r>   4.5644  1.0000</r>
       <r>   4.5645  1.0000</r>
       <r>   4.5645  1.0000</r>
       <r>   4.6261  1.0000</r>
       <r>   4.6261  1.0000</r>
       <r>   4.6262  1.0000</r>
       <r>   4.6262  1.0000</r>
       <r>   4.6262  1.0000</r>
       <r>   4.6262  1.0000</r>
       <r>   4.6263  1.0000</r>
       <r>   4.6263  1.0000</r>
       <r>   5.9685  1.0000</r>
       <r>   5.9685  1.0000</r>
       <r>   5.9685  1.0000</r>
       <r>   5.9685  1.0000</r>
       <r>   7.3131  0.0000</r>
       <r>   7.3131  0.0000</r>
       <r>   7.3131  0.0000</r>
       <r>   7.3131  0.0000</r>
       <r>   7.5307  0.0000</r>
       <r>   7.5307  0.0000</r>
       <r>   7.5307  0.0000</r>
       <r>   7.5307  0.0000</r>
       <r>   8.5695  0.0000</r>
       <r>   8.5695  0.0000</r>
       <r>   8.5697  0.0000</r>
       <r>   8.5697  0.0000</r>
       <r>   8.5697  0.0000</r>
       <r>   8.5698  0.0000</r>
       <r>   8.5699  0.0000</r>
       <r>   8.5699  0.0000</r>
       <r>   8.6457  0.0000</r>
       <r>   8.6457  0.0000</r>
       <r>   8.6457  0.0000</r>
       <r>   8.6457  0.0000</r>
       <r>  10.1228  0.0000</r>
       <r>  10.1228  0.0000</r>
       <r>  10.1231  0.0000</r>
       <r>  10.1231  0.0000</r>
       <r>  10.1231  0.0000</r>
       <r>  10.1231  0.0000</r>
       <r>  10.1234  0.0000</r>
       <r>  10.1234  0.0000</r>
      </set>
      <set comment="kpoint 39">
       <r>  -2.1190  1.0000</r>
       <r>  -2.1189  1.0000</r>
       <r>  -2.1189  1.0000</r>
       <r>  -2.1189  1.0000</r>
       <r>  -1.4131  1.0000</r>
       <r>  -1.4131  1.0000</r>
       <r>  -1.4131  1.0000</r>
       <r>  -1.4131  1.0000</r>
       <r>   1.3771  1.0000</r>
       <r>   1.3771  1.0000</r>
       <r>   1.3771  1.0000</r>
       <r>   1.3771  1.0000</r>
       <r>   2.0635  1.0000</r>
       <r>   2.0635  1.0000</r>
       <r>   2.0635  1.0000</r>
       <r>   2.0636  1.0000</r>
       <r>   2.0636  1.0000</r>
       <r>   2.0636  1.0000</r>
       <r>   2.0636  1.0000</r>
       <r>   2.0636  1.0000</r>
       <r>   2.7506  1.0000</r>
       <r>   2.7506  1.0000</r>
       <r>   2.7507  1.0000</r>
       <r>   2.7507  1.0000</r>
       <r>   2.7507  1.0000</r>
       <r>   2.7507  1.0000</r>
       <r>   2.7507  1.0000</r>
       <r>   2.7507  1.0000</r>
       <r>   3.4226  1.0000</r>
       <r>   3.4226  1.0000</r>
       <r>   3.4226  1.0000</r>
       <r>   3.4227  1.0000</r>
       <r>   5.4701  1.0000</r>
       <r>   5.4701  1.0000</r>
       <r>   5.4702  1.0000</r>
       <r>   5.4702  1.0000</r>
       <r>   5.4702  1.0000</r>
       <r>   5.4702  1.0000</r>
       <r>   5.4703  1.0000</r>
       <r>   5.4703  1.0000</r>
       <r>   6.1380  1.0000</r>
       <r>   6.1380  1.0000</r>
       <r>   6.1380  1.0000</r>
       <r>   6.1380  1.0000</r>
       <r>   6.8105  1.0000</r>
       <r>   6.8105  1.0000</r>
       <r>   6.8105  1.0000</r>
       <r>   6.8105  1.0000</r>
       <r>   7.4626  0.0000</r>
       <r>   7.4626  0.0000</r>
       <r>   7.4627  0.0000</r>
       <r>   7.4627  0.0000</r>
       <r>   7.4627  0.0000</r>
       <r>   7.4627  0.0000</r>
       <r>   7.4628  0.0000</r>
       <r>   7.4628  0.0000</r>
       <r>   8.9807  0.0000</r>
       <r>   8.9807  0.0000</r>
       <r>   8.9807  0.0000</r>
       <r>   8.9807  0.0000</r>
       <r>   9.4719  0.0000</r>
       <r>   9.4719  0.0000</r>
       <r>   9.4719  0.0000</r>
       <r>   9.4719  0.0000</r>
       <r>  10.2912  0.0000</r>
       <r>  10.2912  0.0000</r>
       <r>  10.2914  0.0000</r>
       <r>  10.2914  0.0000</r>
       <r>  10.2914  0.0000</r>
       <r>  10.2915  0.0000</r>
       <r>  10.2916  0.0000</r>
       <r>  10.2916  0.0000</r>
      </set>
      <set comment="kpoint 40">
       <r>  -1.8289  1.0000</r>
       <r>  -1.8249  1.0000</r>
       <r>  -1.8249  1.0000</r>
       <r>  -1.8246  1.0000</r>
       <r>  -1.8243  1.0000</r>
       <r>  -1.8240  1.0000</r>
       <r>  -1.8240  1.0000</r>
       <r>  -1.8200  1.0000</r>
       <r>   2.3402  1.0000</r>
       <r>   2.3464  1.0000</r>
       <r>   2.3464  1.0000</r>
       <r>   2.3494  1.0000</r>
       <r>   2.3497  1.0000</r>
       <r>   2.3497  1.0000</r>
       <r>   2.3500  1.0000</r>
       <r>   2.3500  1.0000</r>
       <r>   2.3501  1.0000</r>
       <r>   2.3501  1.0000</r>
       <r>   2.3501  1.0000</r>
       <r>   2.3502  1.0000</r>
       <r>   2.3502  1.0000</r>
       <r>   2.3502  1.0000</r>
       <r>   2.3503  1.0000</r>
       <r>   2.3503  1.0000</r>
       <r>   2.3503  1.0000</r>
       <r>   2.3503  1.0000</r>
       <r>   2.3506  1.0000</r>
       <r>   2.3507  1.0000</r>
       <r>   2.3509  1.0000</r>
       <r>   2.3539  1.0000</r>
       <r>   2.3539  1.0000</r>
       <r>   2.3602  1.0000</r>
       <r>   6.4130  1.0000</r>
       <r>   6.4130  1.0000</r>
       <r>   6.4147  1.0000</r>
       <r>   6.4167  1.0000</r>
       <r>   6.4179  1.0000</r>
       <r>   6.4183  1.0000</r>
       <r>   6.4183  1.0000</r>
       <r>   6.4183  1.0000</r>
       <r>   6.4185  1.0000</r>
       <r>   6.4186  1.0000</r>
       <r>   6.4186  1.0000</r>
       <r>   6.4186  1.0000</r>
       <r>   6.4186  1.0000</r>
       <r>   6.4187  1.0000</r>
       <r>   6.4187  1.0000</r>
       <r>   6.4187  1.0000</r>
       <r>   6.4189  1.0000</r>
       <r>   6.4189  1.0000</r>
       <r>   6.4189  1.0000</r>
       <r>   6.4193  1.0000</r>
       <r>   6.4205  1.0000</r>
       <r>   6.4225  1.0000</r>
       <r>   6.4242  1.0000</r>
       <r>   6.4242  1.0000</r>
       <r>  10.3987  0.0000</r>
       <r>  10.3987  0.0000</r>
       <r>  10.3988  0.0000</r>
       <r>  10.3993  0.0000</r>
       <r>  10.4007  0.0000</r>
       <r>  10.4014  0.0000</r>
       <r>  10.4014  0.0000</r>
       <r>  10.4014  0.0000</r>
       <r>  10.5628  0.0000</r>
       <r>  10.5638  0.0000</r>
       <r>  10.5648  0.0000</r>
       <r>  10.5656  0.0000</r>
       <r>  10.5659  0.0000</r>
       <r>  10.5662  0.0000</r>
       <r>  10.5663  0.0000</r>
       <r>  10.5665  0.0000</r>
      </set>
     </set>
    </set>
   </array>
  </eigenvalues>
 </calculation>
 <structure name="finalpos" >
  <crystal>
   <varray name="basis" >
    <v>       8.31685112      0.00000000      0.00000000</v>
    <v>       0.00000000      8.31685112      0.00000000</v>
    <v>       0.00000000      0.00000000      8.31685112</v>
   </varray>
   <i name="volume">    575.27669668</i>
   <varray name="rec_basis" >
    <v>       0.12023781      0.00000000      0.00000000</v>
    <v>       0.00000000      0.12023781      0.00000000</v>
    <v>       0.00000000      0.00000000      0.12023781</v>
   </varray>
  </crystal>
  <varray name="positions" >
   <v>       0.25120238      0.25000000      0.00000000</v>
   <v>       0.75000000      0.25000000      0.00000000</v>
   <v>       0.25000000      0.75000000      0.00000000</v>
   <v>       0.75000000      0.75000000      0.00000000</v>
   <v>       0.25000000      0.25000000      0.50000000</v>
   <v>       0.75000000      0.25000000      0.50000000</v>
   <v>       0.25000000      0.75000000      0.50000000</v>
   <v>       0.75000000      0.75000000      0.50000000</v>
   <v>       0.25000000      0.00000000      0.25000000</v>
   <v>       0.75000000      0.00000000      0.25000000</v>
   <v>       0.25000000      0.50000000      0.25000000</v>
   <v>       0.75000000      0.50000000      0.25000000</v>
   <v>       0.25000000      0.00000000      0.75000000</v>
   <v>       0.75000000      0.00000000      0.75000000</v>
   <v>       0.25000000      0.50000000      0.75000000</v>
   <v>       0.75000000      0.50000000      0.75000000</v>
   <v>       0.00000000      0.25000000      0.25000000</v>
   <v>       0.50000000      0.25000000      0.25000000</v>
   <v>       0.00000000      0.75000000      0.25000000</v>
   <v>       0.50000000      0.75000000      0.25000000</v>
   <v>       0.00000000      0.25000000      0.75000000</v>
   <v>       0.50000000      0.25000000      0.75000000</v>
   <v>       0.00000000      0.75000000      0.75000000</v>
   <v>       0.50000000      0.75000000      0.75000000</v>
   <v>       0.00000000      0.00000000      0.00000000</v>
   <v>       0.50000000      0.00000000      0.00000000</v>
   <v>       0.00000000      0.50000000      0.00000000</v>
   <v>       0.50000000      0.50000000      0.00000000</v>
   <v>       0.00000000      0.00000000      0.50000000</v>
   <v>       0.50000000      0.00000000      0.50000000</v>
   <v>       0.00000000      0.50000000      0.50000000</v>
   <v>       0.50000000      0.50000000      0.50000000</v>
  </varray>
 </structure>
</modeling>
