  32  32   0   0
  0.2163498E+02  0.8846446E-09  0.8846446E-09  0.8846446E-09  0.5000000E-15
  1.000000000000000E-004
  CAR 
 unknown system                          
     11.43611124     -5.29951365  301      3.05900560      1.00000000
     -5.300  0.0000E+00  0.0000E+00
     -5.244  0.0000E+00  0.0000E+00
     -5.188  0.0000E+00  0.0000E+00
     -5.132  0.0000E+00  0.0000E+00
     -5.076  0.0000E+00  0.0000E+00
     -5.021  0.0000E+00  0.0000E+00
     -4.965  0.0000E+00  0.0000E+00
     -4.909  0.0000E+00  0.0000E+00
     -4.853  0.0000E+00  0.0000E+00
     -4.797  0.0000E+00  0.0000E+00
     -4.742  0.0000E+00  0.0000E+00
     -4.686  0.0000E+00  0.0000E+00
     -4.630  0.0000E+00  0.0000E+00
     -4.574  0.5348E-08  0.2984E-09
     -4.519  0.1180E+00  0.6580E-02
     -4.463  0.6567E+00  0.4321E-01
     -4.407  0.1053E+01  0.1020E+00
     -4.351  0.1678E+01  0.1956E+00
     -4.295  0.1689E+01  0.2898E+00
     -4.240  0.1813E+01  0.3909E+00
     -4.184  0.2310E+01  0.5198E+00
     -4.128  0.1454E+01  0.6009E+00
     -4.072  0.2954E+01  0.7657E+00
     -4.016  0.2080E+01  0.8817E+00
     -3.961  0.3238E+01  0.1062E+01
     -3.905  0.2292E+01  0.1190E+01
     -3.849  0.3887E+01  0.1407E+01
     -3.793  0.3003E+01  0.1575E+01
     -3.738  0.3242E+01  0.1755E+01
     -3.682  0.4469E+01  0.2005E+01
     -3.626  0.3027E+01  0.2174E+01
     -3.570  0.4306E+01  0.2414E+01
     -3.514  0.3800E+01  0.2626E+01
     -3.459  0.4953E+01  0.2902E+01
     -3.403  0.3681E+01  0.3107E+01
     -3.347  0.5339E+01  0.3405E+01
     -3.291  0.4128E+01  0.3636E+01
     -3.235  0.4852E+01  0.3906E+01
     -3.180  0.5900E+01  0.4235E+01
     -3.124  0.5749E+01  0.4556E+01
     -3.068  0.4450E+01  0.4804E+01
     -3.012  0.7651E+01  0.5231E+01
     -2.957  0.6217E+01  0.5578E+01
     -2.901  0.6033E+01  0.5914E+01
     -2.845  0.6455E+01  0.6275E+01
     -2.789  0.8777E+01  0.6764E+01
     -2.733  0.5805E+01  0.7088E+01
     -2.678  0.1002E+02  0.7647E+01
     -2.622  0.1017E+02  0.8215E+01
     -2.566  0.8789E+01  0.8705E+01
     -2.510  0.1175E+02  0.9360E+01
     -2.454  0.1504E+02  0.1020E+02
     -2.399  0.1380E+02  0.1097E+02
     -2.343  0.2824E+02  0.1254E+02
     -2.287  0.2637E+02  0.1402E+02
     -2.231  0.2905E+02  0.1564E+02
     -2.176  0.2565E+02  0.1707E+02
     -2.120  0.2847E+02  0.1866E+02
     -2.064  0.4062E+02  0.2092E+02
     -2.008  0.4898E+02  0.2365E+02
     -1.952  0.5174E+02  0.2654E+02
     -1.897  0.6756E+02  0.3031E+02
     -1.841  0.7087E+02  0.3426E+02
     -1.785  0.8529E+02  0.3902E+02
     -1.729  0.8585E+02  0.4381E+02
     -1.673  0.8171E+02  0.4837E+02
     -1.618  0.8616E+02  0.5317E+02
     -1.562  0.6767E+02  0.5695E+02
     -1.506  0.8182E+02  0.6151E+02
     -1.450  0.6539E+02  0.6516E+02
     -1.395  0.7501E+02  0.6935E+02
     -1.339  0.6742E+02  0.7311E+02
     -1.283  0.6044E+02  0.7648E+02
     -1.227  0.5784E+02  0.7971E+02
     -1.171  0.4844E+02  0.8241E+02
     -1.116  0.6533E+02  0.8605E+02
     -1.060  0.7324E+02  0.9014E+02
     -1.004  0.9032E+02  0.9518E+02
     -0.948  0.8648E+02  0.1000E+03
     -0.892  0.9837E+02  0.1055E+03
     -0.837  0.1073E+03  0.1115E+03
     -0.781  0.9706E+02  0.1169E+03
     -0.725  0.9246E+02  0.1220E+03
     -0.669  0.8950E+02  0.1270E+03
     -0.614  0.1068E+03  0.1330E+03
     -0.558  0.9999E+02  0.1386E+03
     -0.502  0.1122E+03  0.1448E+03
     -0.446  0.1280E+03  0.1520E+03
     -0.390  0.1455E+03  0.1601E+03
     -0.335  0.1793E+03  0.1701E+03
     -0.279  0.1423E+03  0.1780E+03
     -0.223  0.9743E+02  0.1835E+03
     -0.167  0.9390E+02  0.1887E+03
     -0.111  0.7883E+02  0.1931E+03
     -0.056  0.7716E+02  0.1974E+03
      0.000  0.8402E+02  0.2021E+03
      0.056  0.7768E+02  0.2064E+03
      0.112  0.8395E+02  0.2111E+03
      0.167  0.9245E+02  0.2163E+03
      0.223  0.9871E+02  0.2218E+03
      0.279  0.9989E+02  0.2274E+03
      0.335  0.1013E+03  0.2330E+03
      0.391  0.1154E+03  0.2394E+03
      0.446  0.1040E+03  0.2452E+03
      0.502  0.1001E+03  0.2508E+03
      0.558  0.8559E+02  0.2556E+03
      0.614  0.8689E+02  0.2605E+03
      0.670  0.8227E+02  0.2650E+03
      0.725  0.8367E+02  0.2697E+03
      0.781  0.8514E+02  0.2745E+03
      0.837  0.7724E+02  0.2788E+03
      0.893  0.9236E+02  0.2839E+03
      0.948  0.8730E+02  0.2888E+03
      1.004  0.9702E+02  0.2942E+03
      1.060  0.1047E+03  0.3000E+03
      1.116  0.1443E+03  0.3081E+03
      1.172  0.1516E+03  0.3165E+03
      1.227  0.1325E+03  0.3239E+03
      1.283  0.8446E+02  0.3286E+03
      1.339  0.7271E+02  0.3327E+03
      1.395  0.3906E+02  0.3349E+03
      1.451  0.7531E+01  0.3353E+03
      1.506  0.1992E+02  0.3364E+03
      1.562  0.9299E+01  0.3369E+03
      1.618  0.4264E+01  0.3372E+03
      1.674  0.1322E+02  0.3379E+03
      1.729  0.1319E+02  0.3386E+03
      1.785  0.7583E+01  0.3391E+03
      1.841  0.7497E+01  0.3395E+03
      1.897  0.1602E+02  0.3404E+03
      1.953  0.1103E+02  0.3410E+03
      2.008  0.6700E+01  0.3414E+03
      2.064  0.7008E+01  0.3418E+03
      2.120  0.1528E+02  0.3426E+03
      2.176  0.1233E+02  0.3433E+03
      2.232  0.6687E+01  0.3437E+03
      2.287  0.7262E+01  0.3441E+03
      2.343  0.9859E+01  0.3446E+03
      2.399  0.1407E+02  0.3454E+03
      2.455  0.1030E+02  0.3460E+03
      2.510  0.7816E+01  0.3464E+03
      2.566  0.7529E+01  0.3468E+03
      2.622  0.1385E+02  0.3476E+03
      2.678  0.1002E+02  0.3482E+03
      2.734  0.1051E+02  0.3488E+03
      2.789  0.7459E+01  0.3492E+03
      2.845  0.1115E+02  0.3498E+03
      2.901  0.9809E+01  0.3503E+03
      2.957  0.1277E+02  0.3511E+03
      3.013  0.9178E+01  0.3516E+03
      3.068  0.9657E+01  0.3521E+03
      3.124  0.9802E+01  0.3527E+03
      3.180  0.1066E+02  0.3533E+03
      3.236  0.1180E+02  0.3539E+03
      3.291  0.9272E+01  0.3544E+03
      3.347  0.1214E+02  0.3551E+03
      3.403  0.7310E+01  0.3555E+03
      3.459  0.1269E+02  0.3562E+03
      3.515  0.9558E+01  0.3568E+03
      3.570  0.1043E+02  0.3573E+03
      3.626  0.1193E+02  0.3580E+03
      3.682  0.9554E+01  0.3585E+03
      3.738  0.1049E+02  0.3591E+03
      3.794  0.8793E+01  0.3596E+03
      3.849  0.1338E+02  0.3604E+03
      3.905  0.9914E+01  0.3609E+03
      3.961  0.1124E+02  0.3615E+03
      4.017  0.6998E+01  0.3619E+03
      4.072  0.9462E+01  0.3625E+03
      4.128  0.1451E+02  0.3633E+03
      4.184  0.8057E+01  0.3637E+03
      4.240  0.1206E+02  0.3644E+03
      4.296  0.9094E+01  0.3649E+03
      4.351  0.7953E+01  0.3653E+03
      4.407  0.1297E+02  0.3661E+03
      4.463  0.1001E+02  0.3666E+03
      4.519  0.8883E+01  0.3671E+03
      4.575  0.1075E+02  0.3677E+03
      4.630  0.9058E+01  0.3682E+03
      4.686  0.1180E+02  0.3689E+03
      4.742  0.1202E+02  0.3695E+03
      4.798  0.1093E+02  0.3702E+03
      4.853  0.7428E+01  0.3706E+03
      4.909  0.1097E+02  0.3712E+03
      4.965  0.1092E+02  0.3718E+03
      5.021  0.9787E+01  0.3723E+03
      5.077  0.1441E+02  0.3731E+03
      5.132  0.1359E+02  0.3739E+03
      5.188  0.1860E+02  0.3749E+03
      5.244  0.1846E+02  0.3760E+03
      5.300  0.8034E+01  0.3764E+03
      5.356  0.1681E+02  0.3774E+03
      5.411  0.1238E+02  0.3780E+03
      5.467  0.1384E+02  0.3788E+03
      5.523  0.1415E+02  0.3796E+03
      5.579  0.1333E+02  0.3804E+03
      5.634  0.1120E+02  0.3810E+03
      5.690  0.1010E+02  0.3815E+03
      5.746  0.1244E+02  0.3822E+03
      5.802  0.1452E+02  0.3830E+03
      5.858  0.9559E+01  0.3836E+03
      5.913  0.1200E+02  0.3842E+03
      5.969  0.1118E+02  0.3849E+03
      6.025  0.5984E+01  0.3852E+03
      6.081  0.1187E+02  0.3859E+03
      6.136  0.1079E+02  0.3865E+03
      6.192  0.1229E+02  0.3872E+03
      6.248  0.8073E+01  0.3876E+03
      6.304  0.1017E+02  0.3882E+03
      6.360  0.9625E+01  0.3887E+03
      6.415  0.7894E+01  0.3891E+03
      6.471  0.7356E+01  0.3896E+03
      6.527  0.9136E+01  0.3901E+03
      6.583  0.9407E+01  0.3906E+03
      6.639  0.6353E+01  0.3909E+03
      6.694  0.9145E+01  0.3915E+03
      6.750  0.9187E+01  0.3920E+03
      6.806  0.8108E+01  0.3924E+03
      6.862  0.8009E+01  0.3929E+03
      6.917  0.9635E+01  0.3934E+03
      6.973  0.8860E+01  0.3939E+03
      7.029  0.9739E+01  0.3944E+03
      7.085  0.1266E+02  0.3952E+03
      7.141  0.1076E+02  0.3958E+03
      7.196  0.1496E+02  0.3966E+03
      7.252  0.1429E+02  0.3974E+03
      7.308  0.1347E+02  0.3981E+03
      7.364  0.1439E+02  0.3989E+03
      7.420  0.2087E+02  0.4001E+03
      7.475  0.1154E+02  0.4007E+03
      7.531  0.7362E+01  0.4012E+03
      7.587  0.1192E+02  0.4018E+03
      7.643  0.1540E+02  0.4027E+03
      7.698  0.9354E+01  0.4032E+03
      7.754  0.1088E+02  0.4038E+03
      7.810  0.1546E+02  0.4047E+03
      7.866  0.1392E+02  0.4054E+03
      7.922  0.1776E+02  0.4064E+03
      7.977  0.1877E+02  0.4075E+03
      8.033  0.9631E+01  0.4080E+03
      8.089  0.1070E+02  0.4086E+03
      8.145  0.1016E+02  0.4092E+03
      8.201  0.6752E+01  0.4096E+03
      8.256  0.1335E+02  0.4103E+03
      8.312  0.1150E+02  0.4109E+03
      8.368  0.1431E+02  0.4117E+03
      8.424  0.1323E+02  0.4125E+03
      8.479  0.1030E+02  0.4131E+03
      8.535  0.1125E+02  0.4137E+03
      8.591  0.1077E+02  0.4143E+03
      8.647  0.1082E+02  0.4149E+03
      8.703  0.9725E+01  0.4154E+03
      8.758  0.1210E+02  0.4161E+03
      8.814  0.1130E+02  0.4167E+03
      8.870  0.6282E+01  0.4171E+03
      8.926  0.7268E+01  0.4175E+03
      8.982  0.1364E+02  0.4183E+03
      9.037  0.1504E+02  0.4191E+03
      9.093  0.6686E+01  0.4195E+03
      9.149  0.1049E+02  0.4201E+03
      9.205  0.1067E+02  0.4206E+03
      9.260  0.1624E+02  0.4216E+03
      9.316  0.8368E+01  0.4220E+03
      9.372  0.1139E+02  0.4227E+03
      9.428  0.1425E+02  0.4235E+03
      9.484  0.1237E+02  0.4241E+03
      9.539  0.1752E+02  0.4251E+03
      9.595  0.1103E+02  0.4257E+03
      9.651  0.9263E+01  0.4263E+03
      9.707  0.1120E+02  0.4269E+03
      9.763  0.9456E+01  0.4274E+03
      9.818  0.1031E+02  0.4280E+03
      9.874  0.8651E+01  0.4285E+03
      9.930  0.6631E+01  0.4288E+03
      9.986  0.1111E+02  0.4295E+03
     10.041  0.1185E+02  0.4301E+03
     10.097  0.9435E+01  0.4306E+03
     10.153  0.3360E+01  0.4308E+03
     10.209  0.6143E+01  0.4312E+03
     10.265  0.3892E+01  0.4314E+03
     10.320  0.1801E+01  0.4315E+03
     10.376  0.1985E+01  0.4316E+03
     10.432  0.2061E+01  0.4317E+03
     10.488  0.1336E+01  0.4318E+03
     10.544  0.1168E+01  0.4319E+03
     10.599  0.9132E+00  0.4319E+03
     10.655  0.1258E+01  0.4320E+03
     10.711  0.4985E+00  0.4320E+03
     10.767  0.0000E+00  0.4320E+03
     10.822  0.0000E+00  0.4320E+03
     10.878  0.0000E+00  0.4320E+03
     10.934  0.0000E+00  0.4320E+03
     10.990  0.0000E+00  0.4320E+03
     11.046  0.0000E+00  0.4320E+03
     11.101  0.0000E+00  0.4320E+03
     11.157  0.0000E+00  0.4320E+03
     11.213  0.0000E+00  0.4320E+03
     11.269  0.0000E+00  0.4320E+03
     11.325  0.0000E+00  0.4320E+03
     11.380  0.0000E+00  0.4320E+03
     11.436  0.0000E+00  0.4320E+03
