   32   32    1    1
  0.2163498E+02  0.8846446E-09  0.8846446E-09  0.8846446E-09  0.5000000E-15
  1.000000000000000E-004
  CAR 
 unknown system                          
  352  196  216
 
  0.0000000E+00  0.0000000E+00  0.0000000E+00  0.5787037E-03
   1       -4.5388
   2       -2.5357
   3       -2.5329
   4       -2.5329
   5       -2.5329
   6       -2.5329
   7       -2.5301
   8       -2.4044
   9       -2.4044
  10       -2.4044
  11       -2.4044
  12       -2.1569
  13       -2.1569
  14       -2.1569
  15       -1.9613
  16       -1.9613
  17       -1.9613
  18       -1.5038
  19       -1.5026
  20       -1.5026
  21       -1.5013
  22       -1.5011
  23       -1.5010
  24       -1.5010
  25       -1.5010
  26       -1.5008
  27       -1.4995
  28       -1.4995
  29       -1.4983
  30       -1.3674
  31       -1.3659
  32       -1.3659
  33       -1.3659
  34       -1.3658
  35       -1.3643
  36       -1.3232
  37       -1.3216
  38       -1.3216
  39       -1.3216
  40       -1.3216
  41       -1.3200
  42       -0.9001
  43       -0.8982
  44       -0.8982
  45       -0.8973
  46       -0.8973
  47       -0.8973
  48       -0.8973
  49       -0.8973
  50       -0.8972
  51       -0.8964
  52       -0.8964
  53       -0.8946
  54       -0.8459
  55       -0.8459
  56       -0.8441
  57       -0.8441
  58       -0.8441
  59       -0.8441
  60       -0.8441
  61       -0.8440
  62       -0.8440
  63       -0.8439
  64       -0.8422
  65       -0.8422
  66       -0.6276
  67       -0.6250
  68       -0.6248
  69       -0.6248
  70       -0.6246
  71       -0.6246
  72       -0.6246
  73       -0.6246
  74       -0.6244
  75       -0.6244
  76       -0.6243
  77       -0.6218
  78       -0.6078
  79       -0.6078
  80       -0.6078
  81       -0.6078
  82       -0.6078
  83       -0.6078
  84       -0.6078
  85       -0.6076
  86       -0.5940
  87       -0.5940
  88       -0.5940
  89       -0.0598
  90       -0.0583
  91       -0.0582
  92       -0.0582
  93       -0.0582
  94       -0.0567
  95        0.0367
  96        0.0373
  97        0.0381
  98        0.0381
  99        0.0386
 100        0.0386
 101        0.0386
 102        0.0386
 103        0.0390
 104        0.0390
 105        0.0399
 106        0.0404
 107        0.2375
 108        0.2375
 109        0.2394
 110        0.2394
 111        0.2395
 112        0.2396
 113        0.2396
 114        0.2396
 115        0.2397
 116        0.2397
 117        0.2415
 118        0.2415
 119        0.3479
 120        0.3492
 121        0.3492
 122        0.3492
 123        0.3492
 124        0.3504
 125        0.3951
 126        0.3952
 127        0.4097
 128        0.4097
 129        0.4115
 130        0.4118
 131        0.4119
 132        0.4119
 133        0.4119
 134        0.4119
 135        0.4120
 136        0.4122
 137        0.4142
 138        0.4142
 139        0.7588
 140        0.7597
 141        0.7597
 142        0.7597
 143        0.7597
 144        0.7606
 145        1.1476
 146        1.1476
 147        1.1476
 148        1.1813
 149        1.1813
 150        1.1813
 151        1.1813
 152        1.1813
 153        1.1813
 154        1.1813
 155        1.1814
 156        1.3883
 157        1.3886
 158        1.3886
 159        1.3886
 160        1.3886
 161        1.3886
 162        1.3896
 163        1.3896
 164        1.3896
 165        1.3896
 166        1.3897
 167        1.3899
 168        2.5746
 169        2.5756
 170        2.5756
 171        2.5761
 172        2.5765
 173        2.5765
 174        2.5765
 175        2.5765
 176        2.5769
 177        2.5775
 178        2.5775
 179        2.5785
 180        3.1044
 181        3.1044
 182        3.1044
 183        3.1044
 184        4.6989
 185        4.6989
 186        4.6990
 187        5.0492
 188        5.0492
 189        5.0492
 190        5.0492
 191        6.6577
 192        6.6578
 193        6.6578
 194        6.6578
 195        6.6578
 196        6.6579
 197        7.1876
 198        7.1876
 199        7.1876
 200        8.6776
 201        8.6776
 202        8.6804
 203        8.6804
 204        8.6807
 205        8.6807
 206        8.6807
 207        8.6808
 208        8.6811
 209        8.6811
 210        8.6838
 211        8.6838
 212       10.3874
 213       10.3883
 214       10.3887
 215       10.3889
 216       10.3893
 
  0.8333333E-01  0.0000000E+00  0.0000000E+00  0.1157407E-02
   1       -4.5224
   2       -2.7757
   3       -2.5211
   4       -2.5211
   5       -2.5211
   6       -2.5211
   7       -2.3960
   8       -2.3960
   9       -2.3960
  10       -2.3960
  11       -2.3242
  12       -2.1521
  13       -2.1470
  14       -2.1470
  15       -1.9562
  16       -1.9534
  17       -1.9534
  18       -1.5807
  19       -1.5807
  20       -1.5807
  21       -1.5807
  22       -1.5446
  23       -1.5446
  24       -1.5446
  25       -1.5446
  26       -1.4336
  27       -1.4336
  28       -1.4336
  29       -1.4336
  30       -1.4095
  31       -1.3862
  32       -1.3862
  33       -1.3593
  34       -1.3593
  35       -1.3593
  36       -1.3593
  37       -1.3171
  38       -1.3171
  39       -1.3171
  40       -1.3171
  41       -1.2322
  42       -1.0193
  43       -1.0193
  44       -0.9339
  45       -0.9338
  46       -0.9338
  47       -0.9338
  48       -0.8695
  49       -0.8686
  50       -0.8686
  51       -0.8685
  52       -0.8667
  53       -0.8667
  54       -0.8667
  55       -0.8659
  56       -0.8518
  57       -0.8518
  58       -0.8518
  59       -0.8518
  60       -0.8433
  61       -0.8433
  62       -0.8433
  63       -0.8431
  64       -0.6632
  65       -0.6631
  66       -0.6631
  67       -0.6631
  68       -0.6557
  69       -0.6557
  70       -0.6138
  71       -0.6132
  72       -0.6132
  73       -0.6132
  74       -0.6106
  75       -0.6106
  76       -0.6106
  77       -0.6101
  78       -0.6014
  79       -0.6014
  80       -0.6014
  81       -0.6014
  82       -0.6007
  83       -0.5955
  84       -0.5955
  85       -0.5955
  86       -0.5952
  87       -0.5877
  88       -0.5877
  89       -0.1026
  90       -0.1026
  91       -0.1025
  92       -0.1025
  93       -0.0866
  94        0.0079
  95        0.0079
  96        0.0079
  97        0.0080
  98        0.0358
  99        0.0395
 100        0.0396
 101        0.0396
 102        0.0404
 103        0.0755
 104        0.0755
 105        0.0756
 106        0.0756
 107        0.1174
 108        0.1174
 109        0.2391
 110        0.2391
 111        0.2391
 112        0.2391
 113        0.2783
 114        0.2783
 115        0.2783
 116        0.2783
 117        0.3518
 118        0.3518
 119        0.3521
 120        0.3522
 121        0.3537
 122        0.3537
 123        0.3540
 124        0.3540
 125        0.3669
 126        0.3669
 127        0.3700
 128        0.3701
 129        0.3882
 130        0.3982
 131        0.4446
 132        0.4446
 133        0.4446
 134        0.4447
 135        0.4844
 136        0.4844
 137        0.4845
 138        0.4845
 139        0.7109
 140        0.7692
 141        0.7692
 142        0.7692
 143        0.7692
 144        0.8089
 145        1.1380
 146        1.1380
 147        1.1442
 148        1.1505
 149        1.1505
 150        1.1505
 151        1.1505
 152        1.1728
 153        1.1728
 154        1.1728
 155        1.1728
 156        1.3502
 157        1.3502
 158        1.3764
 159        1.3764
 160        1.3764
 161        1.3764
 162        1.3766
 163        1.3766
 164        1.3884
 165        1.3886
 166        1.3896
 167        1.3899
 168        2.3293
 169        2.3293
 170        2.3293
 171        2.3293
 172        2.5792
 173        2.5792
 174        2.5792
 175        2.5792
 176        2.8468
 177        2.8468
 178        2.8468
 179        2.8468
 180        3.0713
 181        3.0713
 182        3.0713
 183        3.0713
 184        4.4961
 185        4.7505
 186        4.7505
 187        5.1363
 188        5.1363
 189        5.1363
 190        5.1363
 191        6.5600
 192        6.5600
 193        6.5600
 194        6.5600
 195        6.6665
 196        6.6665
 197        7.1784
 198        7.1784
 199        7.4200
 200        8.2335
 201        8.2335
 202        8.6959
 203        8.6959
 204        8.6960
 205        8.6960
 206        8.7087
 207        8.7087
 208        8.7087
 209        8.7087
 210        9.1276
 211        9.1276
 212       10.0936
 213       10.0942
 214       10.0973
 215       10.0985
 216       10.0992
 
  0.1666667E+00  0.0000000E+00  0.0000000E+00  0.1157407E-02
   1       -4.4731
   2       -3.0331
   3       -2.4861
   4       -2.4861
   5       -2.4861
   6       -2.4861
   7       -2.3707
   8       -2.3707
   9       -2.3707
  10       -2.3707
  11       -2.1677
  12       -2.1380
  13       -2.1175
  14       -2.1175
  15       -1.9407
  16       -1.9298
  17       -1.9298
  18       -1.6751
  19       -1.6751
  20       -1.6751
  21       -1.6751
  22       -1.6465
  23       -1.6465
  24       -1.6465
  25       -1.6465
  26       -1.4945
  27       -1.4430
  28       -1.4430
  29       -1.3746
  30       -1.3746
  31       -1.3746
  32       -1.3746
  33       -1.3402
  34       -1.3402
  35       -1.3402
  36       -1.3402
  37       -1.3037
  38       -1.3037
  39       -1.3037
  40       -1.3037
  41       -1.1806
  42       -1.1806
  43       -1.1428
  44       -0.9769
  45       -0.9768
  46       -0.9768
  47       -0.9768
  48       -0.8737
  49       -0.8737
  50       -0.8737
  51       -0.8737
  52       -0.8483
  53       -0.8478
  54       -0.8478
  55       -0.8478
  56       -0.8411
  57       -0.8410
  58       -0.8410
  59       -0.8407
  60       -0.8135
  61       -0.8135
  62       -0.8135
  63       -0.8134
  64       -0.7246
  65       -0.7246
  66       -0.7246
  67       -0.7246
  68       -0.6205
  69       -0.6197
  70       -0.6190
  71       -0.6190
  72       -0.6189
  73       -0.6181
  74       -0.6181
  75       -0.6181
  76       -0.6173
  77       -0.5824
  78       -0.5824
  79       -0.5824
  80       -0.5824
  81       -0.5689
  82       -0.5689
  83       -0.4989
  84       -0.4989
  85       -0.4989
  86       -0.4988
  87       -0.4550
  88       -0.4550
  89       -0.1937
  90       -0.1937
  91       -0.1937
  92       -0.1937
  93       -0.0697
  94       -0.0628
  95       -0.0628
  96       -0.0628
  97       -0.0628
  98        0.0018
  99        0.0018
 100        0.0756
 101        0.0757
 102        0.0757
 103        0.0757
 104        0.1378
 105        0.1378
 106        0.1378
 107        0.1378
 108        0.2172
 109        0.2379
 110        0.2379
 111        0.2379
 112        0.2379
 113        0.3095
 114        0.3095
 115        0.3096
 116        0.3096
 117        0.3459
 118        0.3460
 119        0.3460
 120        0.3460
 121        0.3601
 122        0.3601
 123        0.3601
 124        0.3601
 125        0.3675
 126        0.4072
 127        0.4283
 128        0.4283
 129        0.4970
 130        0.4970
 131        0.5214
 132        0.5214
 133        0.5214
 134        0.5214
 135        0.5704
 136        0.5704
 137        0.5705
 138        0.5705
 139        0.6632
 140        0.8044
 141        0.8044
 142        0.8044
 143        0.8044
 144        0.8577
 145        1.0604
 146        1.0604
 147        1.0604
 148        1.0604
 149        1.1092
 150        1.1092
 151        1.1340
 152        1.1475
 153        1.1475
 154        1.1475
 155        1.1475
 156        1.2417
 157        1.2417
 158        1.3377
 159        1.3377
 160        1.3377
 161        1.3377
 162        1.3409
 163        1.3409
 164        1.3884
 165        1.3887
 166        1.3896
 167        1.3898
 168        2.1007
 169        2.1007
 170        2.1007
 171        2.1007
 172        2.5875
 173        2.5875
 174        2.5875
 175        2.5875
 176        2.9913
 177        2.9913
 178        2.9913
 179        2.9913
 180        3.1445
 181        3.1445
 182        3.1445
 183        3.1445
 184        4.0276
 185        4.8983
 186        4.8983
 187        5.3761
 188        5.3761
 189        5.3761
 190        5.3761
 191        6.2969
 192        6.2969
 193        6.2969
 194        6.2969
 195        6.6920
 196        6.6920
 197        7.1513
 198        7.1513
 199        7.7893
 200        7.7893
 201        7.9772
 202        8.7367
 203        8.7367
 204        8.7368
 205        8.7368
 206        8.7917
 207        8.7917
 208        8.7917
 209        8.7917
 210        9.5400
 211        9.5400
 212        9.5401
 213        9.5401
 214        9.5703
 215        9.5703
 216        9.8323
 
  0.2500000E+00  0.0000000E+00  0.0000000E+00  0.1157407E-02
   1       -4.3913
   2       -3.2893
   3       -2.4289
   4       -2.4288
   5       -2.4288
   6       -2.4288
   7       -2.3288
   8       -2.3288
   9       -2.3288
  10       -2.3288
  11       -2.1161
  12       -2.0706
  13       -2.0693
  14       -2.0689
  15       -1.9152
  16       -1.8905
  17       -1.8904
  18       -1.7839
  19       -1.7839
  20       -1.7839
  21       -1.7839
  22       -1.7682
  23       -1.7681
  24       -1.7681
  25       -1.7681
  26       -1.5754
  27       -1.5263
  28       -1.5263
  29       -1.3276
  30       -1.3276
  31       -1.3215
  32       -1.3215
  33       -1.3214
  34       -1.3214
  35       -1.3103
  36       -1.3103
  37       -1.3103
  38       -1.3102
  39       -1.2817
  40       -1.2817
  41       -1.2817
  42       -1.2817
  43       -1.0551
  44       -1.0246
  45       -1.0246
  46       -1.0246
  47       -1.0245
  48       -0.9058
  49       -0.9057
  50       -0.9057
  51       -0.9057
  52       -0.8385
  53       -0.8377
  54       -0.8377
  55       -0.8377
  56       -0.8344
  57       -0.8344
  58       -0.8344
  59       -0.8336
  60       -0.7983
  61       -0.7982
  62       -0.7982
  63       -0.7982
  64       -0.7737
  65       -0.7737
  66       -0.7737
  67       -0.7736
  68       -0.6531
  69       -0.6323
  70       -0.6323
  71       -0.6323
  72       -0.6322
  73       -0.6218
  74       -0.6217
  75       -0.6217
  76       -0.6216
  77       -0.5510
  78       -0.5510
  79       -0.5510
  80       -0.5509
  81       -0.5377
  82       -0.5377
  83       -0.3389
  84       -0.3389
  85       -0.3389
  86       -0.3388
  87       -0.2926
  88       -0.2926
  89       -0.2926
  90       -0.2926
  91       -0.2434
  92       -0.2434
  93       -0.1472
  94       -0.1471
  95       -0.1471
  96       -0.1471
  97       -0.1058
  98       -0.1058
  99       -0.0249
 100        0.1335
 101        0.1335
 102        0.1335
 103        0.1335
 104        0.2076
 105        0.2076
 106        0.2076
 107        0.2076
 108        0.2364
 109        0.2364
 110        0.2364
 111        0.2364
 112        0.2780
 113        0.2780
 114        0.2780
 115        0.2780
 116        0.3338
 117        0.3690
 118        0.3691
 119        0.3691
 120        0.3691
 121        0.3903
 122        0.3903
 123        0.3903
 124        0.3903
 125        0.4221
 126        0.4915
 127        0.5137
 128        0.5137
 129        0.6148
 130        0.6153
 131        0.6153
 132        0.6153
 133        0.6181
 134        0.6284
 135        0.6284
 136        0.6679
 137        0.6679
 138        0.6679
 139        0.6679
 140        0.8793
 141        0.8793
 142        0.8793
 143        0.8793
 144        0.9052
 145        0.9183
 146        0.9183
 147        0.9183
 148        0.9183
 149        1.0618
 150        1.0618
 151        1.0796
 152        1.0796
 153        1.1062
 154        1.1062
 155        1.1062
 156        1.1062
 157        1.1172
 158        1.2760
 159        1.2760
 160        1.2760
 161        1.2760
 162        1.2832
 163        1.2832
 164        1.3884
 165        1.3887
 166        1.3895
 167        1.3898
 168        1.8867
 169        1.8867
 170        1.8867
 171        1.8867
 172        2.6019
 173        2.6019
 174        2.6019
 175        2.6019
 176        2.8983
 177        2.8984
 178        2.8984
 179        2.8984
 180        3.4652
 181        3.4726
 182        3.4726
 183        3.4726
 184        3.4726
 185        5.1257
 186        5.1257
 187        5.7271
 188        5.7271
 189        5.7271
 190        5.7271
 191        5.9291
 192        5.9291
 193        5.9291
 194        5.9291
 195        6.7329
 196        6.7329
 197        7.1083
 198        7.1083
 199        7.3516
 200        7.3516
 201        8.6885
 202        8.7966
 203        8.7966
 204        8.7967
 205        8.7967
 206        8.9268
 207        8.9268
 208        8.9271
 209        8.9271
 210        8.9312
 211        8.9312
 212        8.9315
 213        8.9315
 214        9.6027
 215        9.6027
 216        9.6027
 
  0.3333333E+00  0.0000000E+00  0.0000000E+00  0.1157407E-02
   1       -4.2777
   2       -3.5336
   3       -2.3511
   4       -2.3510
   5       -2.3510
   6       -2.3510
   7       -2.2706
   8       -2.2706
   9       -2.2706
  10       -2.2706
  11       -2.0884
  12       -2.0249
  13       -2.0037
  14       -2.0037
  15       -1.9030
  16       -1.9030
  17       -1.9029
  18       -1.9029
  19       -1.8904
  20       -1.8903
  21       -1.8903
  22       -1.8903
  23       -1.8798
  24       -1.8354
  25       -1.8354
  26       -1.6508
  27       -1.6247
  28       -1.6247
  29       -1.4596
  30       -1.4596
  31       -1.2749
  32       -1.2741
  33       -1.2741
  34       -1.2741
  35       -1.2734
  36       -1.2733
  37       -1.2733
  38       -1.2726
  39       -1.2518
  40       -1.2518
  41       -1.2518
  42       -1.2518
  43       -1.0746
  44       -1.0745
  45       -1.0745
  46       -1.0745
  47       -0.9706
  48       -0.9414
  49       -0.9414
  50       -0.9414
  51       -0.9414
  52       -0.8726
  53       -0.8726
  54       -0.8726
  55       -0.8726
  56       -0.8341
  57       -0.8336
  58       -0.8336
  59       -0.8336
  60       -0.8274
  61       -0.8273
  62       -0.8273
  63       -0.8269
  64       -0.7440
  65       -0.7440
  66       -0.7440
  67       -0.7440
  68       -0.6976
  69       -0.6498
  70       -0.6498
  71       -0.6498
  72       -0.6498
  73       -0.6115
  74       -0.6115
  75       -0.6115
  76       -0.6115
  77       -0.5076
  78       -0.5076
  79       -0.5076
  80       -0.5076
  81       -0.4942
  82       -0.4942
  83       -0.3857
  84       -0.3857
  85       -0.3857
  86       -0.3857
  87       -0.2327
  88       -0.2327
  89       -0.2327
  90       -0.2326
  91       -0.2045
  92       -0.2045
  93       -0.1404
  94       -0.1404
  95       -0.1404
  96       -0.1404
  97       -0.0227
  98       -0.0227
  99        0.0354
 100        0.2000
 101        0.2000
 102        0.2000
 103        0.2000
 104        0.2351
 105        0.2351
 106        0.2351
 107        0.2352
 108        0.2570
 109        0.2570
 110        0.2570
 111        0.2570
 112        0.2713
 113        0.2713
 114        0.2713
 115        0.2714
 116        0.2883
 117        0.3743
 118        0.3744
 119        0.3744
 120        0.3744
 121        0.3960
 122        0.3960
 123        0.3961
 124        0.3961
 125        0.4427
 126        0.5747
 127        0.6143
 128        0.6144
 129        0.7135
 130        0.7135
 131        0.7135
 132        0.7135
 133        0.7358
 134        0.7358
 135        0.7358
 136        0.7358
 137        0.7584
 138        0.7584
 139        0.7736
 140        0.7736
 141        0.7736
 142        0.7736
 143        0.8535
 144        0.8818
 145        0.8818
 146        0.9505
 147        0.9961
 148        0.9966
 149        0.9966
 150        0.9966
 151        0.9969
 152        0.9975
 153        1.0500
 154        1.0500
 155        1.0500
 156        1.0500
 157        1.0942
 158        1.1950
 159        1.1950
 160        1.1950
 161        1.1950
 162        1.2056
 163        1.2056
 164        1.3885
 165        1.3889
 166        1.3894
 167        1.3897
 168        1.6847
 169        1.6847
 170        1.6847
 171        1.6847
 172        2.6231
 173        2.6232
 174        2.6232
 175        2.6232
 176        2.8140
 177        2.8140
 178        2.8140
 179        2.8140
 180        2.8847
 181        3.8325
 182        3.8325
 183        3.8325
 184        3.8325
 185        5.4144
 186        5.4144
 187        5.5092
 188        5.5092
 189        5.5092
 190        5.5092
 191        6.1558
 192        6.1558
 193        6.1558
 194        6.1558
 195        6.7866
 196        6.7866
 197        6.9242
 198        6.9242
 199        7.0524
 200        7.0524
 201        8.3233
 202        8.3233
 203        8.3233
 204        8.3233
 205        8.8742
 206        8.8742
 207        8.8742
 208        8.8742
 209        9.1112
 210        9.1113
 211        9.1113
 212        9.1113
 213        9.4037
 214        9.4037
 215        9.4037
 216        9.4040
 
  0.4166667E+00  0.0000000E+00  0.0000000E+00  0.1157407E-02
   1       -4.1333
   2       -3.7585
   3       -2.2553
   4       -2.2553
   5       -2.2553
   6       -2.2553
   7       -2.1966
   8       -2.1966
   9       -2.1966
  10       -2.1966
  11       -2.0586
  12       -2.0258
  13       -2.0257
  14       -2.0257
  15       -2.0257
  16       -2.0171
  17       -2.0048
  18       -2.0048
  19       -2.0048
  20       -2.0047
  21       -1.9228
  22       -1.9228
  23       -1.8351
  24       -1.7647
  25       -1.7647
  26       -1.7284
  27       -1.7284
  28       -1.7199
  29       -1.5767
  30       -1.5767
  31       -1.2392
  32       -1.2383
  33       -1.2383
  34       -1.2383
  35       -1.2370
  36       -1.2370
  37       -1.2370
  38       -1.2362
  39       -1.2147
  40       -1.2147
  41       -1.2147
  42       -1.2147
  43       -1.1244
  44       -1.1243
  45       -1.1243
  46       -1.1243
  47       -0.9694
  48       -0.9694
  49       -0.9694
  50       -0.9694
  51       -0.9357
  52       -0.9357
  53       -0.9357
  54       -0.9357
  55       -0.8910
  56       -0.8301
  57       -0.8295
  58       -0.8295
  59       -0.8295
  60       -0.8251
  61       -0.8251
  62       -0.8251
  63       -0.8244
  64       -0.7530
  65       -0.7181
  66       -0.7181
  67       -0.7180
  68       -0.7180
  69       -0.6706
  70       -0.6706
  71       -0.6705
  72       -0.6705
  73       -0.5823
  74       -0.5823
  75       -0.5823
  76       -0.5822
  77       -0.4673
  78       -0.4673
  79       -0.4673
  80       -0.4672
  81       -0.4529
  82       -0.4529
  83       -0.4529
  84       -0.4529
  85       -0.4387
  86       -0.4387
  87       -0.3139
  88       -0.3139
  89       -0.3139
  90       -0.3139
  91       -0.2934
  92       -0.2934
  93        0.0776
  94        0.0776
  95        0.0776
  96        0.0776
  97        0.1024
  98        0.2046
  99        0.2046
 100        0.2327
 101        0.2351
 102        0.2351
 103        0.2351
 104        0.2352
 105        0.2443
 106        0.2443
 107        0.2443
 108        0.2443
 109        0.2660
 110        0.2660
 111        0.2660
 112        0.2660
 113        0.3212
 114        0.3212
 115        0.3212
 116        0.3212
 117        0.3699
 118        0.3701
 119        0.3705
 120        0.3705
 121        0.3712
 122        0.3712
 123        0.3716
 124        0.3718
 125        0.4687
 126        0.5265
 127        0.5265
 128        0.5265
 129        0.5265
 130        0.5352
 131        0.6633
 132        0.6633
 133        0.7200
 134        0.7200
 135        0.8095
 136        0.8095
 137        0.8095
 138        0.8095
 139        0.8837
 140        0.8837
 141        0.8837
 142        0.8837
 143        0.8843
 144        0.8843
 145        0.9163
 146        0.9163
 147        0.9803
 148        0.9804
 149        0.9804
 150        0.9804
 151        0.9929
 152        1.0654
 153        1.0994
 154        1.0994
 155        1.0994
 156        1.0994
 157        1.1111
 158        1.1111
 159        1.1447
 160        1.1447
 161        1.1447
 162        1.1447
 163        1.2885
 164        1.3885
 165        1.3890
 166        1.3892
 167        1.3897
 168        1.4931
 169        1.4931
 170        1.4931
 171        1.4931
 172        2.3175
 173        2.6527
 174        2.6527
 175        2.6527
 176        2.6527
 177        2.7456
 178        2.7456
 179        2.7456
 180        2.7456
 181        4.2226
 182        4.2226
 183        4.2226
 184        4.2226
 185        5.0718
 186        5.0718
 187        5.0718
 188        5.0718
 189        5.7487
 190        5.7487
 191        6.5110
 192        6.5110
 193        6.6412
 194        6.6412
 195        6.6412
 196        6.6412
 197        6.8499
 198        6.8499
 199        6.9876
 200        6.9876
 201        7.7333
 202        7.7333
 203        7.7333
 204        7.7333
 205        8.9711
 206        8.9711
 207        8.9711
 208        8.9711
 209        9.2334
 210        9.2334
 211        9.2334
 212        9.2335
 213        9.3395
 214        9.3395
 215        9.3395
 216        9.3395
 
  0.5000000E+00  0.0000000E+00  0.0000000E+00  0.5787037E-03
   1       -3.9609
   2       -3.9582
   3       -2.1481
   4       -2.1460
   5       -2.1457
   6       -2.1457
   7       -2.1447
   8       -2.1447
   9       -2.1444
  10       -2.1424
  11       -2.1088
  12       -2.1088
  13       -2.1084
  14       -2.1083
  15       -2.1069
  16       -2.1066
  17       -2.1063
  18       -2.1063
  19       -2.0328
  20       -2.0315
  21       -1.8311
  22       -1.8304
  23       -1.8290
  24       -1.8283
  25       -1.7825
  26       -1.7807
  27       -1.6794
  28       -1.6794
  29       -1.6774
  30       -1.6774
  31       -1.2236
  32       -1.2222
  33       -1.2221
  34       -1.2221
  35       -1.2221
  36       -1.2221
  37       -1.2220
  38       -1.2208
  39       -1.1730
  40       -1.1728
  41       -1.1728
  42       -1.1719
  43       -1.1715
  44       -1.1707
  45       -1.1707
  46       -1.1704
  47       -0.9723
  48       -0.9722
  49       -0.9722
  50       -0.9718
  51       -0.9714
  52       -0.9710
  53       -0.9710
  54       -0.9709
  55       -0.8283
  56       -0.8267
  57       -0.8267
  58       -0.8265
  59       -0.8261
  60       -0.8258
  61       -0.8258
  62       -0.8246
  63       -0.8181
  64       -0.8174
  65       -0.6940
  66       -0.6938
  67       -0.6938
  68       -0.6938
  69       -0.6934
  70       -0.6934
  71       -0.6933
  72       -0.6931
  73       -0.5345
  74       -0.5345
  75       -0.5344
  76       -0.5338
  77       -0.5334
  78       -0.5329
  79       -0.5328
  80       -0.5328
  81       -0.3896
  82       -0.3892
  83       -0.3892
  84       -0.3882
  85       -0.3877
  86       -0.3868
  87       -0.3868
  88       -0.3863
  89       -0.3725
  90       -0.3725
  91       -0.3707
  92       -0.3707
  93        0.1691
  94        0.1702
  95        0.2372
  96        0.2372
  97        0.2374
  98        0.2376
  99        0.2377
 100        0.2379
 101        0.2381
 102        0.2381
 103        0.3025
 104        0.3028
 105        0.3030
 106        0.3030
 107        0.3036
 108        0.3036
 109        0.3037
 110        0.3041
 111        0.3238
 112        0.3245
 113        0.3245
 114        0.3247
 115        0.3252
 116        0.3253
 117        0.3253
 118        0.3261
 119        0.3533
 120        0.3535
 121        0.3541
 122        0.3541
 123        0.3543
 124        0.3543
 125        0.3548
 126        0.3551
 127        0.4344
 128        0.4344
 129        0.4357
 130        0.4357
 131        0.4989
 132        0.5004
 133        0.8223
 134        0.8224
 135        0.8227
 136        0.8228
 137        0.8984
 138        0.8989
 139        0.8989
 140        0.8991
 141        0.8997
 142        0.8999
 143        0.8999
 144        0.9004
 145        0.9927
 146        0.9927
 147        0.9937
 148        0.9937
 149        0.9941
 150        0.9942
 151        0.9951
 152        0.9951
 153        1.0027
 154        1.0027
 155        1.0033
 156        1.0033
 157        1.0313
 158        1.0315
 159        1.3114
 160        1.3119
 161        1.3119
 162        1.3121
 163        1.3125
 164        1.3127
 165        1.3127
 166        1.3131
 167        1.3885
 168        1.3891
 169        1.3891
 170        1.3897
 171        1.7810
 172        1.7811
 173        2.6907
 174        2.6918
 175        2.6922
 176        2.6922
 177        2.6932
 178        2.6932
 179        2.6936
 180        2.6946
 181        4.6368
 182        4.6368
 183        4.6375
 184        4.6382
 185        4.6387
 186        4.6394
 187        4.6400
 188        4.6400
 189        6.1159
 190        6.1159
 191        6.1183
 192        6.1183
 193        6.9182
 194        6.9184
 195        6.9184
 196        6.9187
 197        7.1679
 198        7.1679
 199        7.1696
 200        7.1700
 201        7.1701
 202        7.1705
 203        7.1723
 204        7.1723
 205        9.0878
 206        9.0898
 207        9.0898
 208        9.0899
 209        9.0901
 210        9.0902
 211        9.0902
 212        9.0923
 213        9.6057
 214        9.6065
 215        9.6070
 216        9.6077
 
  0.0000000E+00  0.8333333E-01  0.0000000E+00  0.2314815E-02
   1       -4.5224
   2       -2.7757
   3       -2.5233
   4       -2.5211
   5       -2.5211
   6       -2.5190
   7       -2.3960
   8       -2.3960
   9       -2.3959
  10       -2.3959
  11       -2.3242
  12       -2.1521
  13       -2.1470
  14       -2.1470
  15       -1.9562
  16       -1.9534
  17       -1.9534
  18       -1.5823
  19       -1.5807
  20       -1.5807
  21       -1.5790
  22       -1.5455
  23       -1.5447
  24       -1.5445
  25       -1.5437
  26       -1.4349
  27       -1.4336
  28       -1.4336
  29       -1.4322
  30       -1.4095