       N       E                     dE             d eps       ncg     rms          rms(c)
DAV:   1     0.441107458076E+04    0.44111E+04   -0.20330E+05 84672   0.212E+03
DAV:   2     0.164232589878E+03   -0.42468E+04   -0.40470E+04 84712   0.531E+02
DAV:   3    -0.956822199773E+02   -0.25991E+03   -0.23511E+03 94688   0.135E+02
DAV:   4    -0.105345370031E+03   -0.96632E+01   -0.95053E+01 90424   0.255E+01
DAV:   5    -0.105521087036E+03   -0.17572E+00   -0.17525E+00 91448   0.305E+00    0.145E+01
DAV:   6    -0.989629427819E+02    0.65581E+01   -0.20752E+01 89192   0.153E+01    0.344E+00
DAV:   7    -0.987788848837E+02    0.18406E+00   -0.81731E-01 92536   0.231E+00    0.181E+00
DAV:   8    -0.987413197746E+02    0.37565E-01   -0.53087E-02 88720   0.853E-01    0.152E-01
DAV:   9    -0.987417312388E+02   -0.41146E-03   -0.57144E-03 94624   0.231E-01    0.893E-02
DAV:  10    -0.987417667004E+02   -0.35462E-04   -0.65512E-04 87776   0.743E-02    0.138E-02
DAV:  11    -0.987417737971E+02   -0.70967E-05   -0.19496E-05 93536   0.137E-02    0.322E-03
DAV:  12    -0.987417757088E+02   -0.19117E-05   -0.10290E-06 89136   0.348E-03    0.139E-03
DAV:  13    -0.987417743021E+02    0.14067E-05   -0.96422E-08 87696   0.101E-03    0.336E-04
DAV:  14    -0.987417741037E+02    0.19836E-06   -0.49309E-09 47880   0.288E-04    0.744E-05
DAV:  15    -0.987417741382E+02   -0.34477E-07   -0.78617E-10 46952   0.101E-04    0.409E-05
DAV:  16    -0.987417741283E+02    0.98407E-08   -0.50287E-11 46360   0.489E-05
   1 F= -.98741774E+02 E0= -.98741423E+02  d E =-.702135E-03
