 vasp.4.6.28 25Jul05 complex 
 executed on             LinuxIFC date 2017.01.14  12:19:28
 running on    8 nodes
 distr:  one band on    1 nodes,    8 groups


--------------------------------------------------------------------------------------------------------


 INCAR:
 POTCAR:   PAW_PBE Au 06Sep2000                   
 POTCAR:   PAW_PBE Au 06Sep2000                   
   VRHFIN =Au: s1d10                                                            
   LEXCH  = PE                                                                  
   EATOM  =   926.0567 eV,   68.0632 Ry                                         
                                                                                
   TITEL  = PAW_PBE Au 06Sep2000                                                
   LULTRA =        F    use ultrasoft PP ?                                      
   IUNSCR =        1    unscreen: 0-lin 1-nonlin 2-no                           
   RPACOR =    2.330    partial core radius                                     
   POMASS =  196.966; ZVAL   =   11.000    mass and valenz                      
   RCORE  =    2.500    outmost cutoff radius                                   
   RWIGS  =    2.840; RWIGS  =    1.503    wigner-seitz radius (au A)           
   ENMAX  =  229.948; ENMIN  =  172.461 eV                                      
   RCLOC  =    1.964    cutoff for local pot                                    
   LCOR   =        T    correct aug charges                                     
   LPAW   =        T    paw PP                                                  
   EAUG   =  356.670                                                            
   DEXC   =    -.025                                                            
   RMAX   =    3.041    core radius for proj-oper                               
   RAUG   =    1.300    factor for augmentation sphere                          
   RDEP   =    2.598    radius for radial grids                                 
   QCUT   =   -4.111; QGAM   =    8.222    optimization parameters              
                                                                                
   Description                                                                  
     l     E      TYP  RCUT    TYP  RCUT                                        
     2   .000     23  2.500                                                     
     2   .000     23  2.500                                                     
     0   .000     23  2.500                                                     
     0   .000     23  2.500                                                     
     1  -.200     23  2.500                                                     
     1   .000     23  2.500                                                     
     3   .000      7   .000                                                     
  local pseudopotential read in
  partial core-charges read in
  atomic valenz-charges read in
  non local Contribution for L=           2  read in
    real space projection operators read in
  non local Contribution for L=           2  read in
    real space projection operators read in
  non local Contribution for L=           0  read in
    real space projection operators read in
  non local Contribution for L=           0  read in
    real space projection operators read in
  non local Contribution for L=           1  read in
    real space projection operators read in
  non local Contribution for L=           1  read in
    real space projection operators read in
    PAW grid and wavefunctions read in
 
   number of l-projection  operators is LMAX  =           6
   number of lm-projection operators is LMMAX =          18
 

 ----------------------------------------------------------------------------- 
|                                                                             |
|  ADVICE TO THIS USER RUNNING 'VASP/VAMP'   (HEAR YOUR MASTER'S VOICE ...):  |
|                                                                             |
|      You have a (more or less) 'large supercell' and for larger cells       |
|      it might be more efficient to use real space projection operators      |
|      So try LREAL= Auto  in the INCAR   file.                               |
|      Mind: If you want to do an extremely accurate calculations keep the    |
|      reciprocal projection scheme          (i.e. LREAL=.FALSE.)             |
|                                                                             |
 ----------------------------------------------------------------------------- 

 PAW_PBE Au 06Sep2000                   :
 energy of atom  1       EATOM= -926.0567
 kinetic energy error for atom=    0.0008 (will be added to EATOM!!)
 
 EXHCAR: internal setup
 exchange correlation table for  LEXCH =        8
   RHO(1)=    0.500       N(1)  =     2000
   RHO(2)=  100.500       N(2)  =     4000
 
 POSCAR: Au                                      
  positions in direct lattice
  No initial velocities read in
 


--------------------------------------------------------------------------------------------------------


 ion  position               nearest neighbor table
   1  0.001  0.000  0.000-   9 3.12  11 3.12  17 3.12  21 3.12  25 3.13  27 3.13  29 3.13  31 3.13
                            10 3.13  18 3.13  12 3.13  22 3.13
   2  0.500  0.000  0.000-   9 3.13  10 3.13  11 3.13  12 3.13  17 3.13  18 3.13  21 3.13  22 3.13
                            26 3.13  28 3.13  30 3.13  32 3.13
   3  0.000  0.500  0.000-   9 3.13  10 3.13  11 3.13  12 3.13  19 3.13  20 3.13  23 3.13  24 3.13
                            25 3.13  27 3.13  29 3.13  31 3.13
   4  0.500  0.500  0.000-   9 3.13  10 3.13  11 3.13  12 3.13  19 3.13  20 3.13  23 3.13  24 3.13
                            26 3.13  28 3.13  30 3.13  32 3.13
   5  0.000  0.000  0.500-  13 3.13  14 3.13  15 3.13  16 3.13  17 3.13  18 3.13  21 3.13  22 3.13
                            25 3.13  27 3.13  29 3.13  31 3.13
   6  0.500  0.000  0.500-  13 3.13  14 3.13  15 3.13  16 3.13  17 3.13  18 3.13  21 3.13  22 3.13
                            26 3.13  28 3.13  30 3.13  32 3.13
   7  0.000  0.500  0.500-  13 3.13  14 3.13  15 3.13  16 3.13  19 3.13  20 3.13  23 3.13  24 3.13
                            25 3.13  27 3.13  29 3.13  31 3.13
   8  0.500  0.500  0.500-  13 3.13  14 3.13  15 3.13  16 3.13  19 3.13  20 3.13  23 3.13  24 3.13
                            26 3.13  28 3.13  30 3.13  32 3.13
   9  0.250  0.250  0.000-   1 3.12   2 3.13   3 3.13   4 3.13  17 3.13  19 3.13  21 3.13  23 3.13
                            25 3.13  26 3.13  29 3.13  30 3.13
  10  0.750  0.250  0.000-   2 3.13   3 3.13   4 3.13  18 3.13  20 3.13  22 3.13  24 3.13  25 3.13
                            26 3.13  29 3.13  30 3.13   1 3.13
  11  0.250  0.750  0.000-   1 3.12   2 3.13   3 3.13   4 3.13  17 3.13  19 3.13  21 3.13  23 3.13
                            27 3.13  28 3.13  31 3.13  32 3.13
  12  0.750  0.750  0.000-   2 3.13   3 3.13   4 3.13  18 3.13  20 3.13  22 3.13  24 3.13  27 3.13
                            28 3.13  31 3.13  32 3.13   1 3.13
  13  0.250  0.250  0.500-   5 3.13   6 3.13   7 3.13   8 3.13  17 3.13  19 3.13  21 3.13  23 3.13
                            25 3.13  26 3.13  29 3.13  30 3.13
  14  0.750  0.250  0.500-   5 3.13   6 3.13   7 3.13   8 3.13  18 3.13  20 3.13  22 3.13  24 3.13
                            25 3.13  26 3.13  29 3.13  30 3.13
  15  0.250  0.750  0.500-   5 3.13   6 3.13   7 3.13   8 3.13  17 3.13  19 3.13  21 3.13  23 3.13
                            27 3.13  28 3.13  31 3.13  32 3.13
  16  0.750  0.750  0.500-   5 3.13   6 3.13   7 3.13   8 3.13  18 3.13  20 3.13  22 3.13  24 3.13
                            27 3.13  28 3.13  31 3.13  32 3.13
  17  0.250  0.000  0.250-   1 3.12   2 3.13   5 3.13   6 3.13   9 3.13  11 3.13  13 3.13  15 3.13
                            25 3.13  26 3.13  27 3.13  28 3.13
  18  0.750  0.000  0.250-   2 3.13   5 3.13   6 3.13  10 3.13  12 3.13  14 3.13  16 3.13  25 3.13
                            26 3.13  27 3.13  28 3.13   1 3.13
  19  0.250  0.500  0.250-   3 3.13   4 3.13   7 3.13   8 3.13   9 3.13  11 3.13  13 3.13  15 3.13
                            25 3.13  26 3.13  27 3.13  28 3.13
  20  0.750  0.500  0.250-   3 3.13   4 3.13   7 3.13   8 3.13  10 3.13  12 3.13  14 3.13  16 3.13
                            25 3.13  26 3.13  27 3.13  28 3.13
  21  0.250  0.000  0.750-   1 3.12   2 3.13   5 3.13   6 3.13   9 3.13  11 3.13  13 3.13  15 3.13
                            29 3.13  30 3.13  31 3.13  32 3.13
  22  0.750  0.000  0.750-   2 3.13   5 3.13   6 3.13  10 3.13  12 3.13  14 3.13  16 3.13  29 3.13
                            30 3.13  31 3.13  32 3.13   1 3.13
  23  0.250  0.500  0.750-   3 3.13   4 3.13   7 3.13   8 3.13   9 3.13  11 3.13  13 3.13  15 3.13
                            29 3.13  30 3.13  31 3.13  32 3.13
  24  0.750  0.500  0.750-   3 3.13   4 3.13   7 3.13   8 3.13  10 3.13  12 3.13  14 3.13  16 3.13
                            29 3.13  30 3.13  31 3.13  32 3.13
  25  0.000  0.250  0.250-   3 3.13   5 3.13   7 3.13   9 3.13  10 3.13  13 3.13  14 3.13  17 3.13
                            18 3.13  19 3.13  20 3.13   1 3.13
  26  0.500  0.250  0.250-   2 3.13   4 3.13   6 3.13   8 3.13   9 3.13  10 3.13  13 3.13  14 3.13
                            17 3.13  18 3.13  19 3.13  20 3.13
  27  0.000  0.750  0.250-   3 3.13   5 3.13   7 3.13  11 3.13  12 3.13  15 3.13  16 3.13  17 3.13
                            18 3.13  19 3.13  20 3.13   1 3.13
  28  0.500  0.750  0.250-   2 3.13   4 3.13   6 3.13   8 3.13  11 3.13  12 3.13  15 3.13  16 3.13
                            17 3.13  18 3.13  19 3.13  20 3.13
  29  0.000  0.250  0.750-   3 3.13   5 3.13   7 3.13   9 3.13  10 3.13  13 3.13  14 3.13  21 3.13
                            22 3.13  23 3.13  24 3.13   1 3.13
  30  0.500  0.250  0.750-   2 3.13   4 3.13   6 3.13   8 3.13   9 3.13  10 3.13  13 3.13  14 3.13
                            21 3.13  22 3.13  23 3.13  24 3.13
  31  0.000  0.750  0.750-   3 3.13   5 3.13   7 3.13  11 3.13  12 3.13  15 3.13  16 3.13  21 3.13
                            22 3.13  23 3.13  24 3.13   1 3.13
  32  0.500  0.750  0.750-   2 3.13   4 3.13   6 3.13   8 3.13  11 3.13  12 3.13  15 3.13  16 3.13
                            21 3.13  22 3.13  23 3.13  24 3.13
 
  LATTYP: Found a simple cubic cell.
 ALAT       =     8.8464460329
  
  Lattice vectors:
  
 A1 = (   8.8464460329,   0.0000000000,   0.0000000000)
 A2 = (   0.0000000000,   8.8464460329,   0.0000000000)
 A3 = (   0.0000000000,   0.0000000000,   8.8464460329)
 Subroutine PRICEL returns:
 Original cell was already a primitive cell.
 

Analysis of symmetry for initial positions (statically):

 Routine SETGRP: Setting up the symmetry group for a 
 simple cubic supercell.


 Subroutine GETGRP returns: Found  8 space group operations
 (whereof  8 operations were pure point group operations)
 out of a pool of 48 trial point group operations.


The static configuration has the point symmetry C_4v.

Analysis of symmetry for dynamics (positions and initial velocities):

 Subroutine DYNSYM returns: Found  8 space group operations
 (whereof  8 operations were pure point group operations)
 out of a pool of  8 trial space group operations
 (whereof  8 operations were pure point group operations)
 and found also     1 'primitive' translations


The dynamic configuration has the point symmetry C_4v.
 
 
 KPOINTS: Automatic mesh                          

Automatic generation of k-mesh.
 
 Subroutine IBZKPT returns following result:
 ===========================================
 
 Found    196 irreducible k-points:
 
 Following reciprocal coordinates:
            Coordinates               Weight
  0.000000  0.000000  0.000000      1.000000
  0.083333  0.000000  0.000000      2.000000
  0.166667  0.000000  0.000000      2.000000
  0.250000  0.000000  0.000000      2.000000
  0.333333  0.000000  0.000000      2.000000
  0.416667  0.000000  0.000000      2.000000
  0.500000  0.000000  0.000000      1.000000
  0.000000  0.083333  0.000000      4.000000
  0.083333  0.083333  0.000000      8.000000
  0.166667  0.083333  0.000000      8.000000
  0.250000  0.083333  0.000000      8.000000
  0.333333  0.083333  0.000000      8.000000
  0.416667  0.083333  0.000000      8.000000
  0.500000  0.083333  0.000000      4.000000
  0.000000  0.166667  0.000000      4.000000
  0.083333  0.166667  0.000000      8.000000
  0.166667  0.166667  0.000000      8.000000
  0.250000  0.166667  0.000000      8.000000
  0.333333  0.166667  0.000000      8.000000
  0.416667  0.166667  0.000000      8.000000
  0.500000  0.166667  0.000000      4.000000
  0.000000  0.250000  0.000000      4.000000
  0.083333  0.250000  0.000000      8.000000
  0.166667  0.250000  0.000000      8.000000
  0.250000  0.250000  0.000000      8.000000
  0.333333  0.250000  0.000000      8.000000
  0.416667  0.250000  0.000000      8.000000
  0.500000  0.250000  0.000000      4.000000
  0.000000  0.333333  0.000000      4.000000
  0.083333  0.333333  0.000000      8.000000
  0.166667  0.333333  0.000000      8.000000
  0.250000  0.333333  0.000000      8.000000
  0.333333  0.333333  0.000000      8.000000
  0.416667  0.333333  0.000000      8.000000
  0.500000  0.333333  0.000000      4.000000
  0.000000  0.416667  0.000000      4.000000
  0.083333  0.416667  0.000000      8.000000
  0.166667  0.416667  0.000000      8.000000
  0.250000  0.416667  0.000000      8.000000
  0.333333  0.416667  0.000000      8.000000
  0.416667  0.416667  0.000000      8.000000
  0.500000  0.416667  0.000000      4.000000
  0.000000  0.500000  0.000000      2.000000
  0.083333  0.500000  0.000000      4.000000
  0.166667  0.500000  0.000000      4.000000
  0.250000  0.500000  0.000000      4.000000
  0.333333  0.500000  0.000000      4.000000
  0.416667  0.500000  0.000000      4.000000
  0.500000  0.500000  0.000000      2.000000
  0.000000  0.083333  0.083333      4.000000
  0.083333  0.083333  0.083333      8.000000
  0.166667  0.083333  0.083333      8.000000
  0.250000  0.083333  0.083333      8.000000
  0.333333  0.083333  0.083333      8.000000
  0.416667  0.083333  0.083333      8.000000
  0.500000  0.083333  0.083333      4.000000
  0.000000  0.166667  0.083333      8.000000
  0.083333  0.166667  0.083333     16.000000
  0.166667  0.166667  0.083333     16.000000
  0.250000  0.166667  0.083333     16.000000
  0.333333  0.166667  0.083333     16.000000
  0.416667  0.166667  0.083333     16.000000
  0.500000  0.166667  0.083333      8.000000
  0.000000  0.250000  0.083333      8.000000
  0.083333  0.250000  0.083333     16.000000
  0.166667  0.250000  0.083333     16.000000
  0.250000  0.250000  0.083333     16.000000
  0.333333  0.250000  0.083333     16.000000
  0.416667  0.250000  0.083333     16.000000
  0.500000  0.250000  0.083333      8.000000
  0.000000  0.333333  0.083333      8.000000
  0.083333  0.333333  0.083333     16.000000
  0.166667  0.333333  0.083333     16.000000
  0.250000  0.333333  0.083333     16.000000
  0.333333  0.333333  0.083333     16.000000
  0.416667  0.333333  0.083333     16.000000
  0.500000  0.333333  0.083333      8.000000
  0.000000  0.416667  0.083333      8.000000
  0.083333  0.416667  0.083333     16.000000
  0.166667  0.416667  0.083333     16.000000
  0.250000  0.416667  0.083333     16.000000
  0.333333  0.416667  0.083333     16.000000
  0.416667  0.416667  0.083333     16.000000
  0.500000  0.416667  0.083333      8.000000
  0.000000  0.500000  0.083333      4.000000
  0.083333  0.500000  0.083333      8.000000
  0.166667  0.500000  0.083333      8.000000
  0.250000  0.500000  0.083333      8.000000
  0.333333  0.500000  0.083333      8.000000
  0.416667  0.500000  0.083333      8.000000
  0.500000  0.500000  0.083333      4.000000
  0.000000  0.166667  0.166667      4.000000
  0.083333  0.166667  0.166667      8.000000
  0.166667  0.166667  0.166667      8.000000
  0.250000  0.166667  0.166667      8.000000
  0.333333  0.166667  0.166667      8.000000
  0.416667  0.166667  0.166667      8.000000
  0.500000  0.166667  0.166667      4.000000
  0.000000  0.250000  0.166667      8.000000
  0.083333  0.250000  0.166667     16.000000
  0.166667  0.250000  0.166667     16.000000
  0.250000  0.250000  0.166667     16.000000
  0.333333  0.250000  0.166667     16.000000
  0.416667  0.250000  0.166667     16.000000
  0.500000  0.250000  0.166667      8.000000
  0.000000  0.333333  0.166667      8.000000
  0.083333  0.333333  0.166667     16.000000
  0.166667  0.333333  0.166667     16.000000
  0.250000  0.333333  0.166667     16.000000
  0.333333  0.333333  0.166667     16.000000
  0.416667  0.333333  0.166667     16.000000
  0.500000  0.333333  0.166667      8.000000
  0.000000  0.416667  0.166667      8.000000
  0.083333  0.416667  0.166667     16.000000
  0.166667  0.416667  0.166667     16.000000
  0.250000  0.416667  0.166667     16.000000
  0.333333  0.416667  0.166667     16.000000
  0.416667  0.416667  0.166667     16.000000
  0.500000  0.416667  0.166667      8.000000
  0.000000  0.500000  0.166667      4.000000
  0.083333  0.500000  0.166667      8.000000
  0.166667  0.500000  0.166667      8.000000
  0.250000  0.500000  0.166667      8.000000
  0.333333  0.500000  0.166667      8.000000
  0.416667  0.500000  0.166667      8.000000
  0.500000  0.500000  0.166667      4.000000
  0.000000  0.250000  0.250000      4.000000
  0.083333  0.250000  0.250000      8.000000
  0.166667  0.250000  0.250000      8.000000
  0.250000  0.250000  0.250000      8.000000
  0.333333  0.250000  0.250000      8.000000
  0.416667  0.250000  0.250000      8.000000
  0.500000  0.250000  0.250000      4.000000
  0.000000  0.333333  0.250000      8.000000
  0.083333  0.333333  0.250000     16.000000
  0.166667  0.333333  0.250000     16.000000
  0.250000  0.333333  0.250000     16.000000
  0.333333  0.333333  0.250000     16.000000
  0.416667  0.333333  0.250000     16.000000
  0.500000  0.333333  0.250000      8.000000
  0.000000  0.416667  0.250000      8.000000
  0.083333  0.416667  0.250000     16.000000
  0.166667  0.416667  0.250000     16.000000
  0.250000  0.416667  0.250000     16.000000
  0.333333  0.416667  0.250000     16.000000
  0.416667  0.416667  0.250000     16.000000
  0.500000  0.416667  0.250000      8.000000
  0.000000  0.500000  0.250000      4.000000
  0.083333  0.500000  0.250000      8.000000
  0.166667  0.500000  0.250000      8.000000
  0.250000  0.500000  0.250000      8.000000
  0.333333  0.500000  0.250000      8.000000
  0.416667  0.500000  0.250000      8.000000
  0.500000  0.500000  0.250000      4.000000
  0.000000  0.333333  0.333333      4.000000
  0.083333  0.333333  0.333333      8.000000
  0.166667  0.333333  0.333333      8.000000
  0.250000  0.333333  0.333333      8.000000
  0.333333  0.333333  0.333333      8.000000
  0.416667  0.333333  0.333333      8.000000
  0.500000  0.333333  0.333333      4.000000
  0.000000  0.416667  0.333333      8.000000
  0.083333  0.416667  0.333333     16.000000
  0.166667  0.416667  0.333333     16.000000
  0.250000  0.416667  0.333333     16.000000
  0.333333  0.416667  0.333333     16.000000
  0.416667  0.416667  0.333333     16.000000
  0.500000  0.416667  0.333333      8.000000
  0.000000  0.500000  0.333333      4.000000
  0.083333  0.500000  0.333333      8.000000
  0.166667  0.500000  0.333333      8.000000
  0.250000  0.500000  0.333333      8.000000
  0.333333  0.500000  0.333333      8.000000
  0.416667  0.500000  0.333333      8.000000
  0.500000  0.500000  0.333333      4.000000
  0.000000  0.416667  0.416667      4.000000
  0.083333  0.416667  0.416667      8.000000
  0.166667  0.416667  0.416667      8.000000
  0.250000  0.416667  0.416667      8.000000
  0.333333  0.416667  0.416667      8.000000
  0.416667  0.416667  0.416667      8.000000
  0.500000  0.416667  0.416667      4.000000
  0.000000  0.500000  0.416667      4.000000
  0.083333  0.500000  0.416667      8.000000
  0.166667  0.500000  0.416667      8.000000
  0.250000  0.500000  0.416667      8.000000
  0.333333  0.500000  0.416667      8.000000
  0.416667  0.500000  0.416667      8.000000
  0.500000  0.500000  0.416667      4.000000
  0.000000  0.500000  0.500000      1.000000
  0.083333  0.500000  0.500000      2.000000
  0.166667  0.500000  0.500000      2.000000
  0.250000  0.500000  0.500000      2.000000
  0.333333  0.500000  0.500000      2.000000
  0.416667  0.500000  0.500000      2.000000
  0.500000  0.500000  0.500000      1.000000
 
 Following cartesian coordinates:
            Coordinates               Weight
  0.000000  0.000000  0.000000      1.000000
  0.009420  0.000000  0.000000      2.000000
  0.018840  0.000000  0.000000      2.000000
  0.028260  0.000000  0.000000      2.000000
  0.037680  0.000000  0.000000      2.000000
  0.047100  0.000000  0.000000      2.000000
  0.056520  0.000000  0.000000      1.000000
  0.000000  0.009420  0.000000      4.000000
  0.009420  0.009420  0.000000      8.000000
  0.018840  0.009420  0.000000      8.000000
  0.028260  0.009420  0.000000      8.000000
  0.037680  0.009420  0.000000      8.000000
  0.047100  0.009420  0.000000      8.000000
  0.056520  0.009420  0.000000      4.000000
  0.000000  0.018840  0.000000      4.000000
  0.009420  0.018840  0.000000      8.000000
  0.018840  0.018840  0.000000      8.000000
  0.028260  0.018840  0.000000      8.000000
  0.037680  0.018840  0.000000      8.000000
  0.047100  0.018840  0.000000      8.000000
  0.056520  0.018840  0.000000      4.000000
  0.000000  0.028260  0.000000      4.000000
  0.009420  0.028260  0.000000      8.000000
  0.018840  0.028260  0.000000      8.000000
  0.028260  0.028260  0.000000      8.000000
  0.037680  0.028260  0.000000      8.000000
  0.047100  0.028260  0.000000      8.000000
  0.056520  0.028260  0.000000      4.000000
  0.000000  0.037680  0.000000      4.000000
  0.009420  0.037680  0.000000      8.000000
  0.018840  0.037680  0.000000      8.000000
  0.028260  0.037680  0.000000      8.000000
  0.037680  0.037680  0.000000      8.000000
  0.047100  0.037680  0.000000      8.000000
  0.056520  0.037680  0.000000      4.000000
  0.000000  0.047100  0.000000      4.000000
  0.009420  0.047100  0.000000      8.000000
  0.018840  0.047100  0.000000      8.000000
  0.028260  0.047100  0.000000      8.000000
  0.037680  0.047100  0.000000      8.000000
  0.047100  0.047100  0.000000      8.000000
  0.056520  0.047100  0.000000      4.000000
  0.000000  0.056520  0.000000      2.000000
  0.009420  0.056520  0.000000      4.000000
  0.018840  0.056520  0.000000      4.000000
  0.028260  0.056520  0.000000      4.000000
  0.037680  0.056520  0.000000      4.000000
  0.047100  0.056520  0.000000      4.000000
  0.056520  0.056520  0.000000      2.000000
  0.000000  0.009420  0.009420      4.000000
  0.009420  0.009420  0.009420      8.000000
  0.018840  0.009420  0.009420      8.000000
  0.028260  0.009420  0.009420      8.000000
  0.037680  0.009420  0.009420      8.000000
  0.047100  0.009420  0.009420      8.000000
  0.056520  0.009420  0.009420      4.000000
  0.000000  0.018840  0.009420      8.000000
  0.009420  0.018840  0.009420     16.000000
  0.018840  0.018840  0.009420     16.000000
  0.028260  0.018840  0.009420     16.000000
  0.037680  0.018840  0.009420     16.000000
  0.047100  0.018840  0.009420     16.000000
  0.056520  0.018840  0.009420      8.000000
  0.000000  0.028260  0.009420      8.000000
  0.009420  0.028260  0.009420     16.000000
  0.018840  0.028260  0.009420     16.000000
  0.028260  0.028260  0.009420     16.000000
  0.037680  0.028260  0.009420     16.000000
  0.047100  0.028260  0.009420     16.000000
  0.056520  0.028260  0.009420      8.000000
  0.000000  0.037680  0.009420      8.000000
  0.009420  0.037680  0.009420     16.000000
  0.018840  0.037680  0.009420     16.000000
  0.028260  0.037680  0.009420     16.000000
  0.037680  0.037680  0.009420     16.000000
  0.047100  0.037680  0.009420     16.000000
  0.056520  0.037680  0.009420      8.000000
  0.000000  0.047100  0.009420      8.000000
  0.009420  0.047100  0.009420     16.000000
  0.018840  0.047100  0.009420     16.000000
  0.028260  0.047100  0.009420     16.000000
  0.037680  0.047100  0.009420     16.000000
  0.047100  0.047100  0.009420     16.000000
  0.056520  0.047100  0.009420      8.000000
  0.000000  0.056520  0.009420      4.000000
  0.009420  0.056520  0.009420      8.000000
  0.018840  0.056520  0.009420      8.000000
  0.028260  0.056520  0.009420      8.000000
  0.037680  0.056520  0.009420      8.000000
  0.047100  0.056520  0.009420      8.000000
  0.056520  0.056520  0.009420      4.000000
  0.000000  0.018840  0.018840      4.000000
  0.009420  0.018840  0.018840      8.000000
  0.018840  0.018840  0.018840      8.000000
  0.028260  0.018840  0.018840      8.000000
  0.037680  0.018840  0.018840      8.000000
  0.047100  0.018840  0.018840      8.000000
  0.056520  0.018840  0.018840      4.000000
  0.000000  0.028260  0.018840      8.000000
  0.009420  0.028260  0.018840     16.000000
  0.018840  0.028260  0.018840     16.000000
  0.028260  0.028260  0.018840     16.000000
  0.037680  0.028260  0.018840     16.000000
  0.047100  0.028260  0.018840     16.000000
  0.056520  0.028260  0.018840      8.000000
  0.000000  0.037680  0.018840      8.000000
  0.009420  0.037680  0.018840     16.000000
  0.018840  0.037680  0.018840     16.000000
  0.028260  0.037680  0.018840     16.000000
  0.037680  0.037680  0.018840     16.000000
  0.047100  0.037680  0.018840     16.000000
  0.056520  0.037680  0.018840      8.000000
  0.000000  0.047100  0.018840      8.000000
  0.009420  0.047100  0.018840     16.000000
  0.018840  0.047100  0.018840     16.000000
  0.028260  0.047100  0.018840     16.000000
  0.037680  0.047100  0.018840     16.000000
  0.047100  0.047100  0.018840     16.000000
  0.056520  0.047100  0.018840      8.000000
  0.000000  0.056520  0.018840      4.000000
  0.009420  0.056520  0.018840      8.000000
  0.018840  0.056520  0.018840      8.000000
  0.028260  0.056520  0.018840      8.000000
  0.037680  0.056520  0.018840      8.000000
  0.047100  0.056520  0.018840      8.000000
  0.056520  0.056520  0.018840      4.000000
  0.000000  0.028260  0.028260      4.000000
  0.009420  0.028260  0.028260      8.000000
  0.018840  0.028260  0.028260      8.000000
  0.028260  0.028260  0.028260      8.000000
  0.037680  0.028260  0.028260      8.000000
  0.047100  0.028260  0.028260      8.000000
  0.056520  0.028260  0.028260      4.000000
  0.000000  0.037680  0.028260      8.000000
  0.009420  0.037680  0.028260     16.000000
  0.018840  0.037680  0.028260     16.000000
  0.028260  0.037680  0.028260     16.000000
  0.037680  0.037680  0.028260     16.000000
  0.047100  0.037680  0.028260     16.000000
  0.056520  0.037680  0.028260      8.000000
  0.000000  0.047100  0.028260      8.000000
  0.009420  0.047100  0.028260     16.000000
  0.018840  0.047100  0.028260     16.000000
  0.028260  0.047100  0.028260     16.000000
  0.037680  0.047100  0.028260     16.000000
  0.047100  0.047100  0.028260     16.000000
  0.056520  0.047100  0.028260      8.000000
  0.000000  0.056520  0.028260      4.000000
  0.009420  0.056520  0.028260      8.000000
  0.018840  0.056520  0.028260      8.000000
  0.028260  0.056520  0.028260      8.000000
  0.037680  0.056520  0.028260      8.000000
  0.047100  0.056520  0.028260      8.000000
  0.056520  0.056520  0.028260      4.000000
  0.000000  0.037680  0.037680      4.000000
  0.009420  0.037680  0.037680      8.000000
  0.018840  0.037680  0.037680      8.000000
  0.028260  0.037680  0.037680      8.000000
  0.037680  0.037680  0.037680      8.000000
  0.047100  0.037680  0.037680      8.000000
  0.056520  0.037680  0.037680      4.000000
  0.000000  0.047100  0.037680      8.000000
  0.009420  0.047100  0.037680     16.000000
  0.018840  0.047100  0.037680     16.000000
  0.028260  0.047100  0.037680     16.000000
  0.037680  0.047100  0.037680     16.000000
  0.047100  0.047100  0.037680     16.000000
  0.056520  0.047100  0.037680      8.000000
  0.000000  0.056520  0.037680      4.000000
  0.009420  0.056520  0.037680      8.000000
  0.018840  0.056520  0.037680      8.000000
  0.028260  0.056520  0.037680      8.000000
  0.037680  0.056520  0.037680      8.000000
  0.047100  0.056520  0.037680      8.000000
  0.056520  0.056520  0.037680      4.000000
  0.000000  0.047100  0.047100      4.000000
  0.009420  0.047100  0.047100      8.000000
  0.018840  0.047100  0.047100      8.000000
  0.028260  0.047100  0.047100      8.000000
  0.037680  0.047100  0.047100      8.000000
  0.047100  0.047100  0.047100      8.000000
  0.056520  0.047100  0.047100      4.000000
  0.000000  0.056520  0.047100      4.000000
  0.009420  0.056520  0.047100      8.000000
  0.018840  0.056520  0.047100      8.000000
  0.028260  0.056520  0.047100      8.000000
  0.037680  0.056520  0.047100      8.000000
  0.047100  0.056520  0.047100      8.000000
  0.056520  0.056520  0.047100      4.000000
  0.000000  0.056520  0.056520      1.000000
  0.009420  0.056520  0.056520      2.000000
  0.018840  0.056520  0.056520      2.000000
  0.028260  0.056520  0.056520      2.000000
  0.037680  0.056520  0.056520      2.000000
  0.047100  0.056520  0.056520      2.000000
  0.056520  0.056520  0.056520      1.000000
 


--------------------------------------------------------------------------------------------------------




 Dimension of arrays:
   k-Points           NKPTS =    196   number of bands    NBANDS=    216
   number of dos      NEDOS =    301   number of ions     NIONS =     32
   non local maximal  LDIM  =      6   non local SUM 2l+1 LMDIM =     18
   total plane-waves  NPLWV = 512000
   max r-space proj   IRMAX =      1   max aug-charges    IRDMAX= 361960
   dimension x,y,z NGX =    80 NGY =   80 NGZ =   80
   dimension x,y,z NGXF=   160 NGYF=  160 NGZF=  160
   support grid    NGXF=   320 NGYF=  320 NGZF=  320
   ions per type =              32
 NGX,Y,Z   is equivalent  to a cutoff of  15.03, 15.03, 15.03 a.u.
 NGXF,Y,Z  is equivalent  to a cutoff of  30.07, 30.07, 30.07 a.u.


 I would recommend the setting:
   dimension x,y,z NGX =    79 NGY =   79 NGZ =   79
 SYSTEM =  unknown system                          
 POSCAR =  Au                                      

 Startparameter for this run:
   NWRITE =      2    write-flag & timer
   PREC   = accura    medium, high low
   ISTART =      0    job   : 0-new  1-cont  2-samecut
   ICHARG =      2    charge: 1-file 2-atom 10-const
   ISPIN  =      1    spin polarized calculation?
   LNONCOLLINEAR =      F non collinear calculations
   LSORBIT =      F    spin-orbit coupling
   INIWAV =      1    electr: 0-lowe 1-rand  2-diag
   LASPH  =      F    aspherical Exc in radial PAW
   METAGGA=      F    non-selfconsistent MetaGGA calc.

 Electronic Relaxation 1
   ENCUT  =  750.0 eV  55.12 Ry    7.42 a.u.  19.75 19.75 19.75*2*pi/ulx,y,z
   ENINI  =  750.0     initial cutoff
   ENAUG  =  356.7 eV  augmentation charge cutoff
   NELM   =     60;   NELMIN=  2; NELMDL=  0     # of ELM steps 
   EDIFF  = 0.1E-07   stopping-criterion for ELM
   LREAL  =      F    real-space projection
   LCOMPAT=      F    compatible to vasp.4.4
   LREAL_COMPAT= F    compatible to vasp.4.5.1-3
   GGA_COMPAT  = T    GGA compatible to vasp.4.4-vasp.4.6
   LMAXPAW     = -100 max onsite density
   LMAXMIX     =    2 max onsite mixed and CHGCAR
   VOSKOWN=      0    Vosko Wilk Nusair interpolation
   ROPT   =    0.00000
 Ionic relaxation
   EDIFFG = 0.1E-06   stopping-criterion for IOM
   NSW    =      0    number of steps for IOM
   NBLOCK =      1;   KBLOCK =      1    inner block; outer block 
   IBRION =     -1    ionic relax: 0-MD 1-quasi-New 2-CG
   NFREE  =      0    steps in history (QN), initial steepest desc. (CG)
   ISIF   =      2    stress and relaxation
   IWAVPR =     10    prediction:  0-non 1-charg 2-wave 3-comb
   ISYM   =      2    0-nonsym 1-usesym 2-fastsym
   LCORR  =      T    Harris-Foulkes like correction to forces

   POTIM  =   0.50    time-step for ionic-motion
   TEIN   =    0.0    initial temperature
   TEBEG  =    0.0;   TEEND  =   0.0 temperature during run
   SMASS  =  -3.00    Nose mass-parameter (am)
   estimated Nose-frequenzy (Omega)   =  0.10E-29 period in steps =****** mass=  -0.179E-26a.u.
   NPACO  =    256;   APACO  = 16.0  distance and # of slots for P.C.
   PSTRESS=    0.0 pullay stress

  Mass of Ions in am
   POMASS = 196.97
  Ionic Valenz
   ZVAL   =  11.00
  Atomic Wigner-Seitz radii
   RWIGS  =  -1.00
   NELECT =     352.0000    total number of electrons
   NUPDOWN=      -1.0000    fix difference up-down

 DOS related values:
   EMIN   =  10.00;   EMAX   =-10.00  energy-range for DOS
   ISMEAR =     0;   SIGMA  =   0.01  broadening in eV -4-tet -1-fermi 0-gaus

 Electronic relaxation 2 (details)
   IALGO  =     38    algorithm
   LDIAG  =      T    sub-space diagonalisation
   IMIX   =      4    mixing-type and parameters
     AMIX     =   0.40;   BMIX     =  1.00
     AMIX_MAG =   1.60;   BMIX_MAG =  1.00
     AMIN     =   0.10
     WC   =   100.;   INIMIX=   1;  MIXPRE=   1

 Intra band minimization:
   WEIMIN = 0.0000     energy-eigenvalue tresh-hold
   EBREAK =  0.12E-10  absolut break condition
   DEPER  =   0.30     relativ break condition  

   TIME   =   0.10     timestep for ELM

  volume/ion in A,a.u.               =      21.63       146.00
  Fermi-wavevector in a.u.,eV,Ry     =   1.306633 23.229080  1.707289

 Second variation
   LSECVAR=     F    do a second variation
 
 Write flags
   LWAVE  =      F    write WAVECAR
   LCHARG =      F    write CHGCAR
   LVTOT  =      F    write LOCPOT, local potential
   LELF   =      F    write electronic localiz. function (ELF)
   LORBIT =      0    0 simple, 1 ext, 2 COOP (PROOUT)


 Dipole corrections
   IDIPOL =      0    1-x, 2-y, 3-z
   LDIPOL =      F    correct potential



--------------------------------------------------------------------------------------------------------


 Static calculation
 charge density will be updated during run
 non-spin polarized calculation
 Variant of blocked Davidson
 Davidson routine will perform the subspace rotation
 performe sub-space diagonalisation
    after iterative eigenvector-optimisation
 modified Broyden-mixing scheme, WC =      100.0
 initial mixing is a Kerker type mixing with AMIX =  0.4000 and BMIX =      1.0000
 Hartree-type preconditioning will be used
 using additional bands           40
 reciprocal scheme for non local part
 use partial core corrections
 calculate Harris-corrections to forces 
   (improved forces if not selfconsistent)
 use gradient corrections 
 use of overlap-Matrix (Vanderbilt PP)
 Gauss-broadening in eV      SIGMA  =   0.01


--------------------------------------------------------------------------------------------------------


  energy-cutoff  :      750.00
  volume of cell :      692.32
      direct lattice vectors                 reciprocal lattice vectors
     8.846446033  0.000000000  0.000000000     0.113039745  0.000000000  0.000000000
     0.000000000  8.846446033  0.000000000     0.000000000  0.113039745  0.000000000
     0.000000000  0.000000000  8.846446033     0.000000000  0.000000000  0.113039745

  length of vectors
     8.846446033  8.846446033  8.846446033     0.113039745  0.113039745  0.113039745


 
 k-points in units of 2pi/SCALE and weight: Automatic mesh                          
   0.00000000  0.00000000  0.00000000       0.001
   0.00941998  0.00000000  0.00000000       0.001
   0.01883996  0.00000000  0.00000000       0.001
   0.02825994  0.00000000  0.00000000       0.001
   0.03767991  0.00000000  0.00000000       0.001
   0.04709989  0.00000000  0.00000000       0.001
   0.05651987  0.00000000  0.00000000       0.001
   0.00000000  0.00941998  0.00000000       0.002
   0.00941998  0.00941998  0.00000000       0.005
   0.01883996  0.00941998  0.00000000       0.005
   0.02825994  0.00941998  0.00000000       0.005
   0.03767991  0.00941998  0.00000000       0.005
   0.04709989  0.00941998  0.00000000       0.005
   0.05651987  0.00941998  0.00000000       0.002
   0.00000000  0.01883996  0.00000000       0.002
   0.00941998  0.01883996  0.00000000       0.005
   0.01883996  0.01883996  0.00000000       0.005
   0.02825994  0.01883996  0.00000000       0.005
   0.03767991  0.01883996  0.00000000       0.005
   0.04709989  0.01883996  0.00000000       0.005
   0.05651987  0.01883996  0.00000000       0.002
   0.00000000  0.02825994  0.00000000       0.002
   0.00941998  0.02825994  0.00000000       0.005
   0.01883996  0.02825994  0.00000000       0.005
   0.02825994  0.02825994  0.00000000       0.005
   0.03767991  0.02825994  0.00000000       0.005
   0.04709989  0.02825994  0.00000000       0.005
   0.05651987  0.02825994  0.00000000       0.002
   0.00000000  0.03767991  0.00000000       0.002
   0.00941998  0.03767991  0.00000000       0.005
   0.01883996  0.03767991  0.00000000       0.005
   0.02825994  0.03767991  0.00000000       0.005
   0.03767991  0.03767991  0.00000000       0.005
   0.04709989  0.03767991  0.00000000       0.005
   0.05651987  0.03767991  0.00000000       0.002
   0.00000000  0.04709989  0.00000000       0.002
   0.00941998  0.04709989  0.00000000       0.005
   0.01883996  0.04709989  0.00000000       0.005
   0.02825994  0.04709989  0.00000000       0.005
   0.03767991  0.04709989  0.00000000       0.005
   0.04709989  0.04709989  0.00000000       0.005
   0.05651987  0.04709989  0.00000000       0.002
   0.00000000  0.05651987  0.00000000       0.001
   0.00941998  0.05651987  0.00000000       0.002
   0.01883996  0.05651987  0.00000000       0.002
   0.02825994  0.05651987  0.00000000       0.002
   0.03767991  0.05651987  0.00000000       0.002
   0.04709989  0.05651987  0.00000000       0.002
   0.05651987  0.05651987  0.00000000       0.001
   0.00000000  0.00941998  0.00941998       0.002
   0.00941998  0.00941998  0.00941998       0.005
   0.01883996  0.00941998  0.00941998       0.005
   0.02825994  0.00941998  0.00941998       0.005
   0.03767991  0.00941998  0.00941998       0.005
   0.04709989  0.00941998  0.00941998       0.005
   0.05651987  0.00941998  0.00941998       0.002
   0.00000000  0.01883996  0.00941998       0.005
   0.00941998  0.01883996  0.00941998       0.009
   0.01883996  0.01883996  0.00941998       0.009
   0.02825994  0.01883996  0.00941998       0.009
   0.03767991  0.01883996  0.00941998       0.009
   0.04709989  0.01883996  0.00941998       0.009
   0.05651987  0.01883996  0.00941998       0.005
   0.00000000  0.02825994  0.00941998       0.005
   0.00941998  0.02825994  0.00941998       0.009
   0.01883996  0.02825994  0.00941998       0.009
   0.02825994  0.02825994  0.00941998       0.009
   0.03767991  0.02825994  0.00941998       0.009
   0.04709989  0.02825994  0.00941998       0.009
   0.05651987  0.02825994  0.00941998       0.005
   0.00000000  0.03767991  0.00941998       0.005
   0.00941998  0.03767991  0.00941998       0.009
   0.01883996  0.03767991  0.00941998       0.009
   0.02825994  0.03767991  0.00941998       0.009
   0.03767991  0.03767991  0.00941998       0.009
   0.04709989  0.03767991  0.00941998       0.009
   0.05651987  0.03767991  0.00941998       0.005
   0.00000000  0.04709989  0.00941998       0.005
   0.00941998  0.04709989  0.00941998       0.009
   0.01883996  0.04709989  0.00941998       0.009
   0.02825994  0.04709989  0.00941998       0.009
   0.03767991  0.04709989  0.00941998       0.009
   0.04709989  0.04709989  0.00941998       0.009
   0.05651987  0.04709989  0.00941998       0.005
   0.00000000  0.05651987  0.00941998       0.002
   0.00941998  0.05651987  0.00941998       0.005
   0.01883996  0.05651987  0.00941998       0.005
   0.02825994  0.05651987  0.00941998       0.005
   0.03767991  0.05651987  0.00941998       0.005
   0.04709989  0.05651987  0.00941998       0.005
   0.05651987  0.05651987  0.00941998       0.002
   0.00000000  0.01883996  0.01883996       0.002
   0.00941998  0.01883996  0.01883996       0.005
   0.01883996  0.01883996  0.01883996       0.005
   0.02825994  0.01883996  0.01883996       0.005
   0.03767991  0.01883996  0.01883996       0.005
   0.04709989  0.01883996  0.01883996       0.005
   0.05651987  0.01883996  0.01883996       0.002
   0.00000000  0.02825994  0.01883996       0.005
   0.00941998  0.02825994  0.01883996       0.009
   0.01883996  0.02825994  0.01883996       0.009
   0.02825994  0.02825994  0.01883996       0.009
   0.03767991  0.02825994  0.01883996       0.009
   0.04709989  0.02825994  0.01883996       0.009
   0.05651987  0.02825994  0.01883996       0.005
   0.00000000  0.03767991  0.01883996       0.005
   0.00941998  0.03767991  0.01883996       0.009
   0.01883996  0.03767991  0.01883996       0.009
   0.02825994  0.03767991  0.01883996       0.009
   0.03767991  0.03767991  0.01883996       0.009
   0.04709989  0.03767991  0.01883996       0.009
   0.05651987  0.03767991  0.01883996       0.005
   0.00000000  0.04709989  0.01883996       0.005
   0.00941998  0.04709989  0.01883996       0.009
   0.01883996  0.04709989  0.01883996       0.009
   0.02825994  0.04709989  0.01883996       0.009
   0.03767991  0.04709989  0.01883996       0.009
   0.04709989  0.04709989  0.01883996       0.009
   0.05651987  0.04709989  0.01883996       0.005
   0.00000000  0.05651987  0.01883996       0.002
   0.00941998  0.05651987  0.01883996       0.005
   0.01883996  0.05651987  0.01883996       0.005
   0.02825994  0.05651987  0.01883996       0.005
   0.03767991  0.05651987  0.01883996       0.005
   0.04709989  0.05651987  0.01883996       0.005
   0.05651987  0.05651987  0.01883996       0.002
   0.00000000  0.02825994  0.02825994       0.002
   0.00941998  0.02825994  0.02825994       0.005
   0.01883996  0.02825994  0.02825994       0.005
   0.02825994  0.02825994  0.02825994       0.005
   0.03767991  0.02825994  0.02825994       0.005
   0.04709989  0.02825994  0.02825994       0.005
   0.05651987  0.02825994  0.02825994       0.002
   0.00000000  0.03767991  0.02825994       0.005
   0.00941998  0.03767991  0.02825994       0.009
   0.01883996  0.03767991  0.02825994       0.009
   0.02825994  0.03767991  0.02825994       0.009
   0.03767991  0.03767991  0.02825994       0.009
   0.04709989  0.03767991  0.02825994       0.009
   0.05651987  0.03767991  0.02825994       0.005
   0.00000000  0.04709989  0.02825994       0.005
   0.00941998  0.04709989  0.02825994       0.009
   0.01883996  0.04709989  0.02825994       0.009
   0.02825994  0.04709989  0.02825994       0.009
   0.03767991  0.04709989  0.02825994       0.009
   0.04709989  0.04709989  0.02825994       0.009
   0.05651987  0.04709989  0.02825994       0.005
   0.00000000  0.05651987  0.02825994       0.002
   0.00941998  0.05651987  0.02825994       0.005
   0.01883996  0.05651987  0.02825994       0.005
   0.02825994  0.05651987  0.02825994       0.005
   0.03767991  0.05651987  0.02825994       0.005
   0.04709989  0.05651987  0.02825994       0.005
   0.05651987  0.05651987  0.02825994       0.002
   0.00000000  0.03767991  0.03767991       0.002
   0.00941998  0.03767991  0.03767991       0.005
   0.01883996  0.03767991  0.03767991       0.005
   0.02825994  0.03767991  0.03767991       0.005
   0.03767991  0.03767991  0.03767991       0.005
   0.04709989  0.03767991  0.03767991       0.005
   0.05651987  0.03767991  0.03767991       0.002
   0.00000000  0.04709989  0.03767991       0.005
   0.00941998  0.04709989  0.03767991       0.009
   0.01883996  0.04709989  0.03767991       0.009
   0.02825994  0.04709989  0.03767991       0.009
   0.03767991  0.04709989  0.03767991       0.009
   0.04709989  0.04709989  0.03767991       0.009
   0.05651987  0.04709989  0.03767991       0.005
   0.00000000  0.05651987  0.03767991       0.002
   0.00941998  0.05651987  0.03767991       0.005
   0.01883996  0.05651987  0.03767991       0.005
   0.02825994  0.05651987  0.03767991       0.005
   0.03767991  0.05651987  0.03767991       0.005
   0.04709989  0.05651987  0.03767991       0.005
   0.05651987  0.05651987  0.03767991       0.002
   0.00000000  0.04709989  0.04709989       0.002
   0.00941998  0.04709989  0.04709989       0.005
   0.01883996  0.04709989  0.04709989       0.005
   0.02825994  0.04709989  0.04709989       0.005
   0.03767991  0.04709989  0.04709989       0.005
   0.04709989  0.04709989  0.04709989       0.005
   0.05651987  0.04709989  0.04709989       0.002
   0.00000000  0.05651987  0.04709989       0.002
   0.00941998  0.05651987  0.04709989       0.005
   0.01883996  0.05651987  0.04709989       0.005
   0.02825994  0.05651987  0.04709989       0.005
   0.03767991  0.05651987  0.04709989       0.005
   0.04709989  0.05651987  0.04709989       0.005
   0.05651987  0.05651987  0.04709989       0.002
   0.00000000  0.05651987  0.05651987       0.001
   0.00941998  0.05651987  0.05651987       0.001
   0.01883996  0.05651987  0.05651987       0.001
   0.02825994  0.05651987  0.05651987       0.001
   0.03767991  0.05651987  0.05651987       0.001
   0.04709989  0.05651987  0.05651987       0.001
   0.05651987  0.05651987  0.05651987       0.001
 
 k-points in reciprocal lattice and weights: Automatic mesh                          
   0.00000000  0.00000000  0.00000000       0.001
   0.08333333  0.00000000  0.00000000       0.001
   0.16666667  0.00000000  0.00000000       0.001
   0.25000000  0.00000000  0.00000000       0.001
   0.33333333  0.00000000  0.00000000       0.001
   0.41666667  0.00000000  0.00000000       0.001
   0.50000000  0.00000000  0.00000000       0.001
   0.00000000  0.08333333  0.00000000       0.002
   0.08333333  0.08333333  0.00000000       0.005
   0.16666667  0.08333333  0.00000000       0.005
   0.25000000  0.08333333  0.00000000       0.005
   0.33333333  0.08333333  0.00000000       0.005
   0.41666667  0.08333333  0.00000000       0.005
   0.50000000  0.08333333  0.00000000       0.002
   0.00000000  0.16666667  0.00000000       0.002
   0.08333333  0.16666667  0.00000000       0.005
   0.16666667  0.16666667  0.00000000       0.005
   0.25000000  0.16666667  0.00000000       0.005
   0.33333333  0.16666667  0.00000000       0.005
   0.41666667  0.16666667  0.00000000       0.005
   0.50000000  0.16666667  0.00000000       0.002
   0.00000000  0.25000000  0.00000000       0.002
   0.08333333  0.25000000  0.00000000       0.005
   0.16666667  0.25000000  0.00000000       0.005
   0.25000000  0.25000000  0.00000000       0.005
   0.33333333  0.25000000  0.00000000       0.005
   0.41666667  0.25000000  0.00000000       0.005
   0.50000000  0.25000000  0.00000000       0.002
   0.00000000  0.33333333  0.00000000       0.002
   0.08333333  0.33333333  0.00000000       0.005
   0.16666667  0.33333333  0.00000000       0.005
   0.25000000  0.33333333  0.00000000       0.005
   0.33333333  0.33333333  0.00000000       0.005
   0.41666667  0.33333333  0.00000000       0.005
   0.50000000  0.33333333  0.00000000       0.002
   0.00000000  0.41666667  0.00000000       0.002
   0.08333333  0.41666667  0.00000000       0.005
   0.16666667  0.41666667  0.00000000       0.005
   0.25000000  0.41666667  0.00000000       0.005
   0.33333333  0.41666667  0.00000000       0.005
   0.41666667  0.41666667  0.00000000       0.005
   0.50000000  0.41666667  0.00000000       0.002
   0.00000000  0.50000000  0.00000000       0.001
   0.08333333  0.50000000  0.00000000       0.002
   0.16666667  0.50000000  0.00000000       0.002
   0.25000000  0.50000000  0.00000000       0.002
   0.33333333  0.50000000  0.00000000       0.002
   0.41666667  0.50000000  0.00000000       0.002
   0.50000000  0.50000000  0.00000000       0.001
   0.00000000  0.08333333  0.08333333       0.002
   0.08333333  0.08333333  0.08333333       0.005
   0.16666667  0.08333333  0.08333333       0.005
   0.25000000  0.08333333  0.08333333       0.005
   0.33333333  0.08333333  0.08333333       0.005
   0.41666667  0.08333333  0.08333333       0.005
   0.50000000  0.08333333  0.08333333       0.002
   0.00000000  0.16666667  0.08333333       0.005
   0.08333333  0.16666667  0.08333333       0.009
   0.16666667  0.16666667  0.08333333       0.009
   0.25000000  0.16666667  0.08333333       0.009
   0.33333333  0.16666667  0.08333333       0.009
   0.41666667  0.16666667  0.08333333       0.009
   0.50000000  0.16666667  0.08333333       0.005
   0.00000000  0.25000000  0.08333333       0.005
   0.08333333  0.25000000  0.08333333       0.009
   0.16666667  0.25000000  0.08333333       0.009
   0.25000000  0.25000000  0.08333333       0.009
   0.33333333  0.25000000  0.08333333       0.009
   0.41666667  0.25000000  0.08333333       0.009
   0.50000000  0.25000000  0.08333333       0.005
   0.00000000  0.33333333  0.08333333       0.005
   0.08333333  0.33333333  0.08333333       0.009
   0.16666667  0.33333333  0.08333333       0.009
   0.25000000  0.33333333  0.08333333       0.009
   0.33333333  0.33333333  0.08333333       0.009
   0.41666667  0.33333333  0.08333333       0.009
   0.50000000  0.33333333  0.08333333       0.005
   0.00000000  0.41666667  0.08333333       0.005
   0.08333333  0.41666667  0.08333333       0.009
   0.16666667  0.41666667  0.08333333       0.009
   0.25000000  0.41666667  0.08333333       0.009
   0.33333333  0.41666667  0.08333333       0.009
   0.41666667  0.41666667  0.08333333       0.009
   0.50000000  0.41666667  0.08333333       0.005
   0.00000000  0.50000000  0.08333333       0.002
   0.08333333  0.50000000  0.08333333       0.005
   0.16666667  0.50000000  0.08333333       0.005
   0.25000000  0.50000000  0.08333333       0.005
   0.33333333  0.50000000  0.08333333       0.005
   0.41666667  0.50000000  0.08333333       0.005
   0.50000000  0.50000000  0.08333333       0.002
   0.00000000  0.16666667  0.16666667       0.002
   0.08333333  0.16666667  0.16666667       0.005
   0.16666667  0.16666667  0.16666667       0.005
   0.25000000  0.16666667  0.16666667       0.005
   0.33333333  0.16666667  0.16666667       0.005
   0.41666667  0.16666667  0.16666667       0.005
   0.50000000  0.16666667  0.16666667       0.002
   0.00000000  0.25000000  0.16666667       0.005
   0.08333333  0.25000000  0.16666667       0.009
   0.16666667  0.25000000  0.16666667       0.009
   0.25000000  0.25000000  0.16666667       0.009
   0.33333333  0.25000000  0.16666667       0.009
   0.41666667  0.25000000  0.16666667       0.009
   0.50000000  0.25000000  0.16666667       0.005
   0.00000000  0.33333333  0.16666667       0.005
   0.08333333  0.33333333  0.16666667       0.009
   0.16666667  0.33333333  0.16666667       0.009
   0.25000000  0.33333333  0.16666667       0.009
   0.33333333  0.33333333  0.16666667       0.009
   0.41666667  0.33333333  0.16666667       0.009
   0.50000000  0.33333333  0.16666667       0.005
   0.00000000  0.41666667  0.16666667       0.005
   0.08333333  0.41666667  0.16666667       0.009
   0.16666667  0.41666667  0.16666667       0.009
   0.25000000  0.41666667  0.16666667       0.009
   0.33333333  0.41666667  0.16666667       0.009
   0.41666667  0.41666667  0.16666667       0.009
   0.50000000  0.41666667  0.16666667       0.005
   0.00000000  0.50000000  0.16666667       0.002
   0.08333333  0.50000000  0.16666667       0.005
   0.16666667  0.50000000  0.16666667       0.005
   0.25000000  0.50000000  0.16666667       0.005
   0.33333333  0.50000000  0.16666667       0.005
   0.41666667  0.50000000  0.16666667       0.005
   0.50000000  0.50000000  0.16666667       0.002
   0.00000000  0.25000000  0.25000000       0.002
   0.08333333  0.25000000  0.25000000       0.005
   0.16666667  0.25000000  0.25000000       0.005
   0.25000000  0.25000000  0.25000000       0.005
   0.33333333  0.25000000  0.25000000       0.005
   0.41666667  0.25000000  0.25000000       0.005
   0.50000000  0.25000000  0.25000000       0.002
   0.00000000  0.33333333  0.25000000       0.005
   0.08333333  0.33333333  0.25000000       0.009
   0.16666667  0.33333333  0.25000000       0.009
   0.25000000  0.33333333  0.25000000       0.009
   0.33333333  0.33333333  0.25000000       0.009
   0.41666667  0.33333333  0.25000000       0.009
   0.50000000  0.33333333  0.25000000       0.005
   0.00000000  0.41666667  0.25000000       0.005
   0.08333333  0.41666667  0.25000000       0.009
   0.16666667  0.41666667  0.25000000       0.009
   0.25000000  0.41666667  0.25000000       0.009
   0.33333333  0.41666667  0.25000000       0.009
   0.41666667  0.41666667  0.25000000       0.009
   0.50000000  0.41666667  0.25000000       0.005
   0.00000000  0.50000000  0.25000000       0.002
   0.08333333  0.50000000  0.25000000       0.005
   0.16666667  0.50000000  0.25000000       0.005
   0.25000000  0.50000000  0.25000000       0.005
   0.33333333  0.50000000  0.25000000       0.005
   0.41666667  0.50000000  0.25000000       0.005
   0.50000000  0.50000000  0.25000000       0.002
   0.00000000  0.33333333  0.33333333       0.002
   0.08333333  0.33333333  0.33333333       0.005
   0.16666667  0.33333333  0.33333333       0.005
   0.25000000  0.33333333  0.33333333       0.005
   0.33333333  0.33333333  0.33333333       0.005
   0.41666667  0.33333333  0.33333333       0.005
   0.50000000  0.33333333  0.33333333       0.002
   0.00000000  0.41666667  0.33333333       0.005
   0.08333333  0.41666667  0.33333333       0.009
   0.16666667  0.41666667  0.33333333       0.009
   0.25000000  0.41666667  0.33333333       0.009
   0.33333333  0.41666667  0.33333333       0.009
   0.41666667  0.41666667  0.33333333       0.009
   0.50000000  0.41666667  0.33333333       0.005
   0.00000000  0.50000000  0.33333333       0.002
   0.08333333  0.50000000  0.33333333       0.005
   0.16666667  0.50000000  0.33333333       0.005
   0.25000000  0.50000000  0.33333333       0.005
   0.33333333  0.50000000  0.33333333       0.005
   0.41666667  0.50000000  0.33333333       0.005
   0.50000000  0.50000000  0.33333333       0.002
   0.00000000  0.41666667  0.41666667       0.002
   0.08333333  0.41666667  0.41666667       0.005
   0.16666667  0.41666667  0.41666667       0.005
   0.25000000  0.41666667  0.41666667       0.005
   0.33333333  0.41666667  0.41666667       0.005
   0.41666667  0.41666667  0.41666667       0.005
   0.50000000  0.41666667  0.41666667       0.002
   0.00000000  0.50000000  0.41666667       0.002
   0.08333333  0.50000000  0.41666667       0.005
   0.16666667  0.50000000  0.41666667       0.005
   0.25000000  0.50000000  0.41666667       0.005
   0.33333333  0.50000000  0.41666667       0.005
   0.41666667  0.50000000  0.41666667       0.005
   0.50000000  0.50000000  0.41666667       0.002
   0.00000000  0.50000000  0.50000000       0.001
   0.08333333  0.50000000  0.50000000       0.001
   0.16666667  0.50000000  0.50000000       0.001
   0.25000000  0.50000000  0.50000000       0.001
   0.33333333  0.50000000  0.50000000       0.001
   0.41666667  0.50000000  0.50000000       0.001
   0.50000000  0.50000000  0.50000000       0.001
 
 position of ions in fractional coordinates (direct lattice) 
   0.00113040  0.00000000  0.00000000
   0.50000000  0.00000000  0.00000000
   0.00000000  0.50000000  0.00000000
   0.50000000  0.50000000  0.00000000
   0.00000000  0.00000000  0.50000000
   0.50000000  0.00000000  0.50000000
   0.00000000  0.50000000  0.50000000
   0.50000000  0.50000000  0.50000000
   0.25000000  0.25000000  0.00000000
   0.75000000  0.25000000  0.00000000
   0.25000000  0.75000000  0.00000000
   0.75000000  0.75000000  0.00000000
   0.25000000  0.25000000  0.50000000
   0.75000000  0.25000000  0.50000000
   0.25000000  0.75000000  0.50000000
   0.75000000  0.75000000  0.50000000
   0.25000000  0.00000000  0.25000000
   0.75000000  0.00000000  0.25000000
   0.25000000  0.50000000  0.25000000
   0.75000000  0.50000000  0.25000000
   0.25000000  0.00000000  0.75000000
   0.75000000  0.00000000  0.75000000
   0.25000000  0.50000000  0.75000000
   0.75000000  0.50000000  0.75000000
   0.00000000  0.25000000  0.25000000
   0.50000000  0.25000000  0.25000000
   0.00000000  0.75000000  0.25000000
   0.50000000  0.75000000  0.25000000
   0.00000000  0.25000000  0.75000000
   0.50000000  0.25000000  0.75000000
   0.00000000  0.75000000  0.75000000
   0.50000000  0.75000000  0.75000000
 
 position of ions in cartesian coordinates  (Angst):
   0.01000000  0.00000000  0.00000000
   4.42322302  0.00000000  0.00000000
   0.00000000  4.42322302  0.00000000
   4.42322302  4.42322302  0.00000000
   0.00000000  0.00000000  4.42322302
   4.42322302  0.00000000  4.42322302
   0.00000000  4.42322302  4.42322302
   4.42322302  4.42322302  4.42322302
   2.21161151  2.21161151  0.00000000
   6.63483452  2.21161151  0.00000000
   2.21161151  6.63483452  0.00000000
   6.63483452  6.63483452  0.00000000
   2.21161151  2.21161151  4.42322302
   6.63483452  2.21161151  4.42322302
   2.21161151  6.63483452  4.42322302
   6.63483452  6.63483452  4.42322302
   2.21161151  0.00000000  2.21161151
   6.63483452  0.00000000  2.21161151
   2.21161151  4.42322302  2.21161151
   6.63483452  4.42322302  2.21161151
   2.21161151  0.00000000  6.63483452
   6.63483452  0.00000000  6.63483452
   2.21161151  4.42322302  6.63483452
   6.63483452  4.42322302  6.63483452
   0.00000000  2.21161151  2.21161151
   4.42322302  2.21161151  2.21161151
   0.00000000  6.63483452  2.21161151
   4.42322302  6.63483452  2.21161151
   0.00000000  2.21161151  6.63483452
   4.42322302  2.21161151  6.63483452
   0.00000000  6.63483452  6.63483452
   4.42322302  6.63483452  6.63483452
 


--------------------------------------------------------------------------------------------------------


 k-point  1 :  0.00000.00000.0000  plane waves:  32423
 k-point  2 :  0.08330.00000.0000  plane waves:  32275
 k-point  3 :  0.16670.00000.0000  plane waves:  32283
 k-point  4 :  0.25000.00000.0000  plane waves:  32264
 k-point  5 :  0.33330.00000.0000  plane waves:  32256
 k-point  6 :  0.41670.00000.0000  plane waves:  32288
 k-point  7 :  0.50000.00000.0000  plane waves:  32264
 k-point  8 :  0.00000.08330.0000  plane waves:  32275
 k-point  9 :  0.08330.08330.0000  plane waves:  32260
 k-point 10 :  0.16670.08330.0000  plane waves:  32279
 k-point 11 :  0.25000.08330.0000  plane waves:  32277
 k-point 12 :  0.33330.08330.0000  plane waves:  32275
 k-point 13 :  0.41670.08330.0000  plane waves:  32293
 k-point 14 :  0.50000.08330.0000  plane waves:  32290
 k-point 15 :  0.00000.16670.0000  plane waves:  32283
 k-point 16 :  0.08330.16670.0000  plane waves:  32279
 k-point 17 :  0.16670.16670.0000  plane waves:  32264
 k-point 18 :  0.25000.16670.0000  plane waves:  32292
 k-point 19 :  0.33330.16670.0000  plane waves:  32305
 k-point 20 :  0.41670.16670.0000  plane waves:  32303
 k-point 21 :  0.50000.16670.0000  plane waves:  32300
 k-point 22 :  0.00000.25000.0000  plane waves:  32264
 k-point 23 :  0.08330.25000.0000  plane waves:  32277
 k-point 24 :  0.16670.25000.0000  plane waves:  32292
 k-point 25 :  0.25000.25000.0000  plane waves:  32320
 k-point 26 :  0.33330.25000.0000  plane waves:  32310
 k-point 27 :  0.41670.25000.0000  plane waves:  32296
 k-point 28 :  0.50000.25000.0000  plane waves:  32294
 k-point 29 :  0.00000.33330.0000  plane waves:  32256
 k-point 30 :  0.08330.33330.0000  plane waves:  32275
 k-point 31 :  0.16670.33330.0000  plane waves:  32305
 k-point 32 :  0.25000.33330.0000  plane waves:  32310
 k-point 33 :  0.33330.33330.0000  plane waves:  32312
 k-point 34 :  0.41670.33330.0000  plane waves:  32299
 k-point 35 :  0.50000.33330.0000  plane waves:  32306
 k-point 36 :  0.00000.41670.0000  plane waves:  32288
 k-point 37 :  0.08330.41670.0000  plane waves:  32293
 k-point 38 :  0.16670.41670.0000  plane waves:  32303
 k-point 39 :  0.25000.41670.0000  plane waves:  32296
 k-point 40 :  0.33330.41670.0000  plane waves:  32299
 k-point 41 :  0.41670.41670.0000  plane waves:  32300
 k-point 42 :  0.50000.41670.0000  plane waves:  32296
 k-point 43 :  0.00000.50000.0000  plane waves:  32264
 k-point 44 :  0.08330.50000.0000  plane waves:  32290
 k-point 45 :  0.16670.50000.0000  plane waves:  32300
 k-point 46 :  0.25000.50000.0000  plane waves:  32294
 k-point 47 :  0.33330.50000.0000  plane waves:  32306
 k-point 48 :  0.41670.50000.0000  plane waves:  32296
 k-point 49 :  0.50000.50000.0000  plane waves:  32240
 k-point 50 :  0.00000.08330.0833  plane waves:  32260
 k-point 51 :  0.08330.08330.0833  plane waves:  32279
 k-point 52 :  0.16670.08330.0833  plane waves:  32271
 k-point 53 :  0.25000.08330.0833  plane waves:  32264
 k-point 54 :  0.33330.08330.0833  plane waves:  32293
 k-point 55 :  0.41670.08330.0833  plane waves:  32318
 k-point 56 :  0.50000.08330.0833  plane waves:  32314
 k-point 57 :  0.00000.16670.0833  plane waves:  32279
 k-point 58 :  0.08330.16670.0833  plane waves:  32271
 k-point 59 :  0.16670.16670.0833  plane waves:  32249
 k-point 60 :  0.25000.16670.0833  plane waves:  32286
 k-point 61 :  0.33330.16670.0833  plane waves:  32299
 k-point 62 :  0.41670.16670.0833  plane waves:  32318
 k-point 63 :  0.50000.16670.0833  plane waves:  32298
 k-point 64 :  0.00000.25000.0833  plane waves:  32277
 k-point 65 :  0.08330.25000.0833  plane waves:  32264
 k-point 66 :  0.16670.25000.0833  plane waves:  32286
 k-point 67 :  0.25000.25000.0833  plane waves:  32282
 k-point 68 :  0.33330.25000.0833  plane waves:  32302
 k-point 69 :  0.41670.25000.0833  plane waves:  32293
 k-point 70 :  0.50000.25000.0833  plane waves:  32284
 k-point 71 :  0.00000.33330.0833  plane waves:  32275
 k-point 72 :  0.08330.33330.0833  plane waves:  32293
 k-point 73 :  0.16670.33330.0833  plane waves:  32299
 k-point 74 :  0.25000.33330.0833  plane waves:  32302
 k-point 75 :  0.33330.33330.0833  plane waves:  32297
 k-point 76 :  0.41670.33330.0833  plane waves:  32306
 k-point 77 :  0.50000.33330.0833  plane waves:  32294
 k-point 78 :  0.00000.41670.0833  plane waves:  32293
 k-point 79 :  0.08330.41670.0833  plane waves:  32318
 k-point 80 :  0.16670.41670.0833  plane waves:  32318
 k-point 81 :  0.25000.41670.0833  plane waves:  32293
 k-point 82 :  0.33330.41670.0833  plane waves:  32306
 k-point 83 :  0.41670.41670.0833  plane waves:  32312
 k-point 84 :  0.50000.41670.0833  plane waves:  32304
 k-point 85 :  0.00000.50000.0833  plane waves:  32290
 k-point 86 :  0.08330.50000.0833  plane waves:  32314
 k-point 87 :  0.16670.50000.0833  plane waves:  32298
 k-point 88 :  0.25000.50000.0833  plane waves:  32284
 k-point 89 :  0.33330.50000.0833  plane waves:  32294
 k-point 90 :  0.41670.50000.0833  plane waves:  32304
 k-point 91 :  0.50000.50000.0833  plane waves:  32312
 k-point 92 :  0.00000.16670.1667  plane waves:  32264
 k-point 93 :  0.08330.16670.1667  plane waves:  32249
 k-point 94 :  0.16670.16670.1667  plane waves:  32270
 k-point 95 :  0.25000.16670.1667  plane waves:  32268
 k-point 96 :  0.33330.16670.1667  plane waves:  32314
 k-point 97 :  0.41670.16670.1667  plane waves:  32290
 k-point 98 :  0.50000.16670.1667  plane waves:  32266
 k-point 99 :  0.00000.25000.1667  plane waves:  32292
 k-point ** :  0.08330.25000.1667  plane waves:  32286
 k-point ** :  0.16670.25000.1667  plane waves:  32268
 k-point ** :  0.25000.25000.1667  plane waves:  32264
 k-point ** :  0.33330.25000.1667  plane waves:  32305
 k-point ** :  0.41670.25000.1667  plane waves:  32313
 k-point ** :  0.50000.25000.1667  plane waves:  32300
 k-point ** :  0.00000.33330.1667  plane waves:  32305
 k-point ** :  0.08330.33330.1667  plane waves:  32299
 k-point ** :  0.16670.33330.1667  plane waves:  32314
 k-point ** :  0.25000.33330.1667  plane waves:  32305
 k-point ** :  0.33330.33330.1667  plane waves:  32256
 k-point ** :  0.41670.33330.1667  plane waves:  32286
 k-point ** :  0.50000.33330.1667  plane waves:  32272
 k-point ** :  0.00000.41670.1667  plane waves:  32303
 k-point ** :  0.08330.41670.1667  plane waves:  32318
 k-point ** :  0.16670.41670.1667  plane waves:  32290
 k-point ** :  0.25000.41670.1667  plane waves:  32313
 k-point ** :  0.33330.41670.1667  plane waves:  32286
 k-point ** :  0.41670.41670.1667  plane waves:  32293
 k-point ** :  0.50000.41670.1667  plane waves:  32274
 k-point ** :  0.00000.50000.1667  plane waves:  32300
 k-point ** :  0.08330.50000.1667  plane waves:  32298
 k-point ** :  0.16670.50000.1667  plane waves:  32266
 k-point ** :  0.25000.50000.1667  plane waves:  32300
 k-point ** :  0.33330.50000.1667  plane waves:  32272
 k-point ** :  0.41670.50000.1667  plane waves:  32274
 k-point ** :  0.50000.50000.1667  plane waves:  32304
 k-point ** :  0.00000.25000.2500  plane waves:  32320
 k-point ** :  0.08330.25000.2500  plane waves:  32282
 k-point ** :  0.16670.25000.2500  plane waves:  32264
 k-point ** :  0.25000.25000.2500  plane waves:  32288
 k-point ** :  0.33330.25000.2500  plane waves:  32253
 k-point ** :  0.41670.25000.2500  plane waves:  32268
 k-point ** :  0.50000.25000.2500  plane waves:  32246
 k-point ** :  0.00000.33330.2500  plane waves:  32310
 k-point ** :  0.08330.33330.2500  plane waves:  32302
 k-point ** :  0.16670.33330.2500  plane waves:  32305
 k-point ** :  0.25000.33330.2500  plane waves:  32253
 k-point ** :  0.33330.33330.2500  plane waves:  32266
 k-point ** :  0.41670.33330.2500  plane waves:  32265
 k-point ** :  0.50000.33330.2500  plane waves:  32278
 k-point ** :  0.00000.41670.2500  plane waves:  32296
 k-point ** :  0.08330.41670.2500  plane waves:  32293
 k-point ** :  0.16670.41670.2500  plane waves:  32313
 k-point ** :  0.25000.41670.2500  plane waves:  32268
 k-point ** :  0.33330.41670.2500  plane waves:  32265
 k-point ** :  0.41670.41670.2500  plane waves:  32261
 k-point ** :  0.50000.41670.2500  plane waves:  32260
 k-point ** :  0.00000.50000.2500  plane waves:  32294
 k-point ** :  0.08330.50000.2500  plane waves:  32284
 k-point ** :  0.16670.50000.2500  plane waves:  32300
 k-point ** :  0.25000.50000.2500  plane waves:  32246
 k-point ** :  0.33330.50000.2500  plane waves:  32278
 k-point ** :  0.41670.50000.2500  plane waves:  32260
 k-point ** :  0.50000.50000.2500  plane waves:  32304
 k-point ** :  0.00000.33330.3333  plane waves:  32312
 k-point ** :  0.08330.33330.3333  plane waves:  32297
 k-point ** :  0.16670.33330.3333  plane waves:  32256
 k-point ** :  0.25000.33330.3333  plane waves:  32266
 k-point ** :  0.33330.33330.3333  plane waves:  32288
 k-point ** :  0.41670.33330.3333  plane waves:  32282
 k-point ** :  0.50000.33330.3333  plane waves:  32290
 k-point ** :  0.00000.41670.3333  plane waves:  32299
 k-point ** :  0.08330.41670.3333  plane waves:  32306
 k-point ** :  0.16670.41670.3333  plane waves:  32286
 k-point ** :  0.25000.41670.3333  plane waves:  32265
 k-point ** :  0.33330.41670.3333  plane waves:  32282
 k-point ** :  0.41670.41670.3333  plane waves:  32265
 k-point ** :  0.50000.41670.3333  plane waves:  32288
 k-point ** :  0.00000.50000.3333  plane waves:  32306
 k-point ** :  0.08330.50000.3333  plane waves:  32294
 k-point ** :  0.16670.50000.3333  plane waves:  32272
 k-point ** :  0.25000.50000.3333  plane waves:  32278
 k-point ** :  0.33330.50000.3333  plane waves:  32290
 k-point ** :  0.41670.50000.3333  plane waves:  32288
 k-point ** :  0.50000.50000.3333  plane waves:  32284
 k-point ** :  0.00000.41670.4167  plane waves:  32300
 k-point ** :  0.08330.41670.4167  plane waves:  32312
 k-point ** :  0.16670.41670.4167  plane waves:  32293
 k-point ** :  0.25000.41670.4167  plane waves:  32261
 k-point ** :  0.33330.41670.4167  plane waves:  32265
 k-point ** :  0.41670.41670.4167  plane waves:  32329
 k-point ** :  0.50000.41670.4167  plane waves:  32292
 k-point ** :  0.00000.50000.4167  plane waves:  32296
 k-point ** :  0.08330.50000.4167  plane waves:  32304
 k-point ** :  0.16670.50000.4167  plane waves:  32274
 k-point ** :  0.25000.50000.4167  plane waves:  32260
 k-point ** :  0.33330.50000.4167  plane waves:  32288
 k-point ** :  0.41670.50000.4167  plane waves:  32292
 k-point ** :  0.50000.50000.4167  plane waves:  32292
 k-point ** :  0.00000.50000.5000  plane waves:  32240
 k-point ** :  0.08330.50000.5000  plane waves:  32312
 k-point ** :  0.16670.50000.5000  plane waves:  32304
 k-point ** :  0.25000.50000.5000  plane waves:  32304
 k-point ** :  0.33330.50000.5000  plane waves:  32284
 k-point ** :  0.41670.50000.5000  plane waves:  32292
 k-point ** :  0.50000.50000.5000  plane waves:  32200

 maximum and minimum number of plane-waves per node :  32423 32200

 maximum number of plane-waves:  32423
 maximal index in each direction: 
   IXMAX= 19   IYMAX= 19   IZMAX= 19
   IXMIN=-20   IYMIN=-20   IZMIN=-20

 NGX is ok and might be reduce to  80
 NGY is ok and might be reduce to  80
 NGZ is ok and might be reduce to  80

 parallel 3dFFT wavefunction:
    minimum data exchange during FFTs selected (reduces bandwidth)
 parallel 3dFFT charge:
    minimum data exchange during FFTs selected (reduces bandwidth)

 For storing wavefunctions ******* MBYTES are necessary
 For predicting wavefunctions  234.36 MBYTES are necessary
Broyden mixing: mesh for mixing (old mesh)
   NGX = 39   NGY = 39   NGZ = 39
  (NGX  =160   NGY  =160   NGZ  =160)
 gives a total of  59319 points
 initial charge density was supplied:
 charge density of overlapping atoms calculated
 number of electron  352.0000000 magnetization 
 keeping initial charge density in first step


--------------------------------------------------------------------------------------------------------


 Maximum index for augmentation-charges        44039 (set IRDMAX)


--------------------------------------------------------------------------------------------------------


 First call to EWALD:  gamma=   0.200
 Maximum number of real-space cells 3x 3x 3
 Maximum number of reciprocal cells 3x 3x 3

    FEWALD:  VPU time    0.00: CPU time    0.00


----------------------------------------- Iteration    1(   1)  ---------------------------------------


    POTLOK:  VPU time    0.38: CPU time    0.38
    SETDIJ:  VPU time    0.63: CPU time    0.64
    EDDAV :  VPU time 2131.96: CPU time 2136.12
    DOS   :  VPU time    0.00: CPU time   -0.00
    ------------------------------------------
      LOOP:  VPU time 2133.08: CPU time 2137.23

 eigenvalue-minimisations  : 84672
 total energy-change (2. order) : 0.4411075E+04  (-0.2032952E+05)
 number of electron  352.0000000 magnetization 
 augmentation part   352.0000000 magnetization 

 Free energy of the ion-electron system (eV)
  ---------------------------------------------------
  alpha Z        PSCENC =      2770.06264378
  Ewald energy   TEWEN  =    -28896.72802246
  -1/2 Hartree   DENC   =     -4989.31391367
  -V(xc)+E(xc)   XCENC  =       468.20900749
  PAW double counting   =     23920.39735419   -23172.13309131
  entropy T*S    EENTRO =        -0.00076254
  eigenvalues    EBANDS =      4676.79157339
  atomic energy  EATOM  =     29633.78979189
  ---------------------------------------------------
  free energy    TOTEN  =      4411.07458076 eV

  energy without entropy =     4411.07534330  energy(sigma->0) =     4411.07496203


--------------------------------------------------------------------------------------------------------




----------------------------------------- Iteration    1(   2)  ---------------------------------------


    EDDAV :  VPU time 2136.30: CPU time 2139.76
    DOS   :  VPU time    0.00: CPU time   -0.00
    ------------------------------------------
      LOOP:  VPU time 2136.40: CPU time 2139.86

 eigenvalue-minimisations  : 84712
 total energy-change (2. order) :-0.4246842E+04  (-0.4046951E+04)
 number of electron  352.0000000 magnetization 
 augmentation part   352.0000000 magnetization 

 Free energy of the ion-electron system (eV)
  ---------------------------------------------------
  alpha Z        PSCENC =      2770.06264378
  Ewald energy   TEWEN  =    -28896.72802246
  -1/2 Hartree   DENC   =     -4989.31391367
  -V(xc)+E(xc)   XCENC  =       468.20900749
  PAW double counting   =     23920.39735419   -23172.13309131
  entropy T*S    EENTRO =        -0.00072850
  eigenvalues    EBANDS =       429.94954847
  atomic energy  EATOM  =     29633.78979189
  ---------------------------------------------------
  free energy    TOTEN  =       164.23258988 eV

  energy without entropy =      164.23331838  energy(sigma->0) =      164.23295413


--------------------------------------------------------------------------------------------------------




----------------------------------------- Iteration    1(   3)  ---------------------------------------


    EDDAV :  VPU time 2330.06: CPU time 2333.99
    DOS   :  VPU time    0.00: CPU time   -0.00
    ------------------------------------------
      LOOP:  VPU time 2330.16: CPU time 2334.09

 eigenvalue-minimisations  : 94688
 total energy-change (2. order) :-0.2599148E+03  (-0.2351090E+03)
 number of electron  352.0000000 magnetization 
 augmentation part   352.0000000 magnetization 

 Free energy of the ion-electron system (eV)
  ---------------------------------------------------
  alpha Z        PSCENC =      2770.06264378
  Ewald energy   TEWEN  =    -28896.72802246
  -1/2 Hartree   DENC   =     -4989.31391367
  -V(xc)+E(xc)   XCENC  =       468.20900749
  PAW double counting   =     23920.39735419   -23172.13309131
  entropy T*S    EENTRO =        -0.00073257
  eigenvalues    EBANDS =       170.03474268
  atomic energy  EATOM  =     29633.78979189
  ---------------------------------------------------
  free energy    TOTEN  =       -95.68221998 eV

  energy without entropy =      -95.68148741  energy(sigma->0) =      -95.68185369


--------------------------------------------------------------------------------------------------------




----------------------------------------- Iteration    1(   4)  ---------------------------------------


    EDDAV :  VPU time 2245.83: CPU time 2249.56
    DOS   :  VPU time    0.00: CPU time   -0.00
    ------------------------------------------
      LOOP:  VPU time 2245.93: CPU time 2249.66

 eigenvalue-minimisations  : 90424
 total energy-change (2. order) :-0.9663150E+01  (-0.9505299E+01)
 number of electron  352.0000000 magnetization 
 augmentation part   352.0000000 magnetization 

 Free energy of the ion-electron system (eV)
  ---------------------------------------------------
  alpha Z        PSCENC =      2770.06264378
  Ewald energy   TEWEN  =    -28896.72802246
  -1/2 Hartree   DENC   =     -4989.31391367
  -V(xc)+E(xc)   XCENC  =       468.20900749
  PAW double counting   =     23920.39735419   -23172.13309131
  entropy T*S    EENTRO =        -0.00119387
  eigenvalues    EBANDS =       160.37205393
  atomic energy  EATOM  =     29633.78979189
  ---------------------------------------------------
  free energy    TOTEN  =      -105.34537003 eV

  energy without entropy =     -105.34417616  energy(sigma->0) =     -105.34477310


--------------------------------------------------------------------------------------------------------




----------------------------------------- Iteration    1(   5)  ---------------------------------------


    EDDAV :  VPU time 2266.42: CPU time 2271.01
    DOS   :  VPU time    0.00: CPU time   -0.00
    CHARGE:  VPU time   63.22: CPU time   63.34
    MIXING:  VPU time    0.01: CPU time    0.01
    ------------------------------------------
      LOOP:  VPU time 2329.76: CPU time 2334.46

 eigenvalue-minimisations  : 91448
 total energy-change (2. order) :-0.1757170E+00  (-0.1752528E+00)
 number of electron  352.0000004 magnetization 
 augmentation part   125.2738168 magnetization 

 Broyden mixing:
  rms(total) = 0.14494E+01    rms(broyden)= 0.14494E+01
  rms(prec ) = 0.22117E+01
  weight for this iteration     100.00

 Free energy of the ion-electron system (eV)
  ---------------------------------------------------
  alpha Z        PSCENC =      2770.06264378
  Ewald energy   TEWEN  =    -28896.72802246
  -1/2 Hartree   DENC   =     -4989.31391367
  -V(xc)+E(xc)   XCENC  =       468.20900749
  PAW double counting   =     23920.39735419   -23172.13309131
  entropy T*S    EENTRO =        -0.00117842
  eigenvalues    EBANDS =       160.19632148
  atomic energy  EATOM  =     29633.78979189
  ---------------------------------------------------
  free energy    TOTEN  =      -105.52108704 eV

  energy without entropy =     -105.51990861  energy(sigma->0) =     -105.52049783


--------------------------------------------------------------------------------------------------------




----------------------------------------- Iteration    1(   6)  ---------------------------------------


    POTLOK:  VPU time    0.37: CPU time    0.37
    SETDIJ:  VPU time    0.63: CPU time    0.64
    EDDAV :  VPU time 2221.97: CPU time 2225.57
    DOS   :  VPU time    0.00: CPU time   -0.00
    CHARGE:  VPU time   62.88: CPU time   62.98
    MIXING:  VPU time    0.01: CPU time    0.01
    ------------------------------------------
      LOOP:  VPU time 2285.97: CPU time 2289.68

 eigenvalue-minimisations  : 89192
 total energy-change (2. order) : 0.6558144E+01  (-0.2075150E+01)
 number of electron  352.0000004 magnetization 
 augmentation part   129.7454466 magnetization 

 Broyden mixing:
  rms(total) = 0.34416E+00    rms(broyden)= 0.34416E+00
  rms(prec ) = 0.48009E+00
  weight for this iteration     100.00

 eigenvalues of (default mixing * dielectric matrix)
  average eigenvalue GAMMA=   1.1171
  1.1171

 Free energy of the ion-electron system (eV)
  ---------------------------------------------------
  alpha Z        PSCENC =      2770.06264378
  Ewald energy   TEWEN  =    -28896.72802246
  -1/2 Hartree   DENC   =     -4740.81119570
  -V(xc)+E(xc)   XCENC  =       457.13520479
  PAW double counting   =     23457.46365809   -22735.24793084
  entropy T*S    EENTRO =        -0.00093363
  eigenvalues    EBANDS =       -44.62615870
  atomic energy  EATOM  =     29633.78979189
  ---------------------------------------------------
  free energy    TOTEN  =       -98.96294278 eV

  energy without entropy =      -98.96200916  energy(sigma->0) =      -98.96247597


--------------------------------------------------------------------------------------------------------




----------------------------------------- Iteration    1(   7)  ---------------------------------------


    POTLOK:  VPU time    0.38: CPU time    0.38
    SETDIJ:  VPU time    0.62: CPU time    0.63
    EDDAV :  VPU time 2288.07: CPU time 2291.77
    DOS   :  VPU time    0.00: CPU time   -0.00
    CHARGE:  VPU time   62.97: CPU time   63.07
    MIXING:  VPU time    0.01: CPU time    0.01
    ------------------------------------------
      LOOP:  VPU time 2352.15: CPU time 2355.95

 eigenvalue-minimisations  : 92536
 total energy-change (2. order) : 0.1840579E+00  (-0.8173065E-01)
 number of electron  352.0000004 magnetization 
 augmentation part   130.4858318 magnetization 

 Broyden mixing:
  rms(total) = 0.18068E+00    rms(broyden)= 0.18068E+00
  rms(prec ) = 0.21236E+00
  weight for this iteration     100.00

 eigenvalues of (default mixing * dielectric matrix)
  average eigenvalue GAMMA=   1.8100
  1.1435  2.4764

 Free energy of the ion-electron system (eV)
  ---------------------------------------------------
  alpha Z        PSCENC =      2770.06264378
  Ewald energy   TEWEN  =    -28896.72802246
  -1/2 Hartree   DENC   =     -4688.42466463
  -V(xc)+E(xc)   XCENC  =       454.62314125
  PAW double counting   =     23404.67466987   -22695.91447107
  entropy T*S    EENTRO =        -0.00072096
  eigenvalues    EBANDS =       -80.86125255
  atomic energy  EATOM  =     29633.78979189
[...]
     72      -0.4012      2.00000
     73      -0.4010      2.00000
     74      -0.4010      2.00000
     75      -0.4009      2.00000
     76      -0.4008      2.00000
     77      -0.4004      2.00000
     78      -0.4003      2.00000
     79      -0.4000      2.00000
     80      -0.4000      2.00000
     81      -0.2726      2.00000
     82      -0.2726      2.00000
     83      -0.2719      2.00000
     84      -0.2713      2.00000
     85      -0.2701      2.00000
     86      -0.2695      2.00000
     87      -0.2695      2.00000
     88      -0.2695      2.00000
     89      -0.2694      2.00000
     90      -0.2694      2.00000
     91      -0.2694      2.00000
     92      -0.2694      2.00000
     93      -0.2693      2.00000
     94      -0.2693      2.00000
     95      -0.2693      2.00000
     96      -0.2693      2.00000
     97      -0.2692      2.00000
     98      -0.2692      2.00000
     99      -0.2692      2.00000
    100      -0.2687      2.00000
    101      -0.2674      2.00000
    102      -0.2668      2.00000
    103      -0.2661      2.00000
    104      -0.2661      2.00000
    105       0.2053      2.00000
    106       0.2064      2.00000
    107       0.2064      2.00000
    108       0.2081      2.00000
    109       0.2082      2.00000
    110       0.2083      2.00000
    111       0.2083      2.00000
    112       0.2085      2.00000
    113       0.2086      2.00000
    114       0.2087      2.00000
    115       0.2087      2.00000
    116       0.2087      2.00000
    117       0.2088      2.00000
    118       0.2088      2.00000
    119       0.2088      2.00000
    120       0.2088      2.00000
    121       0.2089      2.00000
    122       0.2091      2.00000
    123       0.2091      2.00000
    124       0.2092      2.00000
    125       0.2093      2.00000
    126       0.2110      2.00000
    127       0.2110      2.00000
    128       0.2121      2.00000
    129       0.5191      2.00000
    130       0.5203      2.00000
    131       0.5203      2.00000
    132       0.5203      2.00000
    133       0.5211      2.00000
    134       0.5211      2.00000
    135       0.5213      2.00000
    136       0.5214      2.00000
    137       0.5215      2.00000
    138       0.5215      2.00000
    139       0.5217      2.00000
    140       0.5217      2.00000
    141       0.5225      2.00000
    142       0.5225      2.00000
    143       0.5226      2.00000
    144       0.5238      2.00000
    145       1.2372      2.00000
    146       1.2372      2.00000
    147       1.2374      2.00000
    148       1.2375      2.00000
    149       1.2376      2.00000
    150       1.2376      2.00000
    151       1.2376      2.00000
    152       1.2376      2.00000
    153       1.2377      2.00000
    154       1.2378      2.00000
    155       1.2378      2.00000
    156       1.2378      2.00000
    157       1.2379      2.00000
    158       1.2380      2.00000
    159       1.2380      2.00000
    160       1.2381      2.00000
    161       1.2381      2.00000
    162       1.2382      2.00000
    163       1.2382      2.00000
    164       1.2382      2.00000
    165       1.2382      2.00000
    166       1.2384      2.00000
    167       1.2386      2.00000
    168       1.2386      2.00000
    169       3.8012      0.00000
    170       3.8049      0.00000
    171       3.8049      0.00000
    172       3.8064      0.00000
    173       3.8067      0.00000
    174       3.8070      0.00000
    175       3.8070      0.00000
    176       3.8070      0.00000
    177       3.8070      0.00000
    178       3.8070      0.00000
    179       3.8071      0.00000
    180       3.8072      0.00000
    181       3.8072      0.00000
    182       3.8073      0.00000
    183       3.8073      0.00000
    184       3.8073      0.00000
    185       3.8073      0.00000
    186       3.8074      0.00000
    187       3.8074      0.00000
    188       3.8076      0.00000
    189       3.8080      0.00000
    190       3.8094      0.00000
    191       3.8094      0.00000
    192       3.8131      0.00000
    193       7.7660      0.00000
    194       7.7660      0.00000
    195       7.7676      0.00000
    196       7.7689      0.00000
    197       7.7694      0.00000
    198       7.7697      0.00000
    199       7.7697      0.00000
    200       7.7700      0.00000
    201       7.7701      0.00000
    202       7.7701      0.00000
    203       7.7702      0.00000
    204       7.7702      0.00000
    205       7.7703      0.00000
    206       7.7703      0.00000
    207       7.7704      0.00000
    208       7.7704      0.00000
    209       7.7705      0.00000
    210       7.7708      0.00000
    211       7.7708      0.00000
    212       7.7711      0.00000
    213       7.7716      0.00000
    214       7.7729      0.00000
    215       7.7746      0.00000
    216       7.7746      0.00000


--------------------------------------------------------------------------------------------------------


 soft charge-density along one line, spin component           1
         0         1         2         3         4         5         6         7         8         9
 total charge-density along one line
 
 pseudopotential strength for first ion, spin component:           1
-10.655  -0.000  -0.000  -0.000   0.000   0.019   0.000   0.000
 -0.000 -10.655   0.000  -0.000   0.000   0.000   0.019  -0.000
 -0.000   0.000 -10.644   0.000  -0.000   0.000  -0.000   0.017
 -0.000  -0.000   0.000 -10.655  -0.000   0.000   0.000  -0.000
  0.000   0.000  -0.000  -0.000 -10.644  -0.000  -0.000   0.000
  0.019   0.000   0.000   0.000  -0.000   0.268  -0.000  -0.000
  0.000   0.019  -0.000   0.000  -0.000  -0.000   0.268   0.000
  0.000  -0.000   0.017  -0.000   0.000  -0.000   0.000   0.268
  0.000   0.000  -0.000   0.019   0.000  -0.000  -0.000   0.000
 -0.000  -0.000   0.000   0.000   0.017   0.000   0.000  -0.000
  0.000   0.000   0.000   0.000  -0.000   0.000   0.000  -0.000
 -0.000  -0.000  -0.000  -0.000   0.000   0.000   0.000   0.000
 -0.000  -0.000   0.000  -0.000  -0.000   0.000   0.000  -0.000
 -0.000  -0.000   0.000  -0.000  -0.000   0.000   0.000   0.000
 -0.000  -0.000   0.000  -0.000  -0.000   0.000   0.000  -0.000
  0.000   0.000  -0.000   0.000   0.000  -0.000  -0.000   0.000
  0.000  -0.000  -0.000   0.000   0.000  -0.000  -0.000   0.000
  0.000   0.000  -0.000   0.000   0.000  -0.000  -0.000   0.000
 total augmentation occupancy for first ion, spin component:           1
  1.911   0.000  -0.002  -0.001  -0.001  -0.073   0.000  -0.000   0.000   0.000   0.004  -0.000   0.000   0.000  -0.000  -0.000
  0.000   1.917  -0.001  -0.001  -0.002   0.000  -0.078   0.002   0.001   0.000   0.003  -0.000   0.000   0.000  -0.000  -0.000
 -0.002  -0.001   1.962  -0.000  -0.003  -0.000   0.002  -0.110   0.001   0.002   0.013   0.003   0.000  -0.000   0.000  -0.000
 -0.001  -0.001  -0.000   1.922   0.001   0.000   0.001   0.001  -0.083   0.001   0.002  -0.001   0.000   0.000  -0.000  -0.000
 -0.001  -0.002  -0.003   0.001   1.951   0.000   0.000   0.002   0.001  -0.103   0.007   0.002   0.000   0.000  -0.000  -0.000
 -0.073   0.000  -0.000   0.000   0.000   0.101  -0.000   0.002  -0.000  -0.000  -0.001   0.001   0.001  -0.000   0.000  -0.000
  0.000  -0.078   0.002   0.001   0.000  -0.000   0.105  -0.002  -0.000   0.001   0.000   0.001  -0.000  -0.000   0.000   0.000
 -0.000   0.002  -0.110   0.001   0.002   0.002  -0.002   0.084  -0.001  -0.001  -0.007  -0.001   0.000   0.000  -0.000   0.000
  0.000   0.001   0.001  -0.083   0.001  -0.000  -0.000  -0.001   0.108  -0.002   0.001   0.002  -0.000   0.001   0.000   0.000
  0.000   0.000   0.002   0.001  -0.103  -0.000   0.001  -0.001  -0.002   0.080  -0.004  -0.000  -0.000  -0.000   0.000   0.000
  0.004   0.003   0.013   0.002   0.007  -0.001   0.000  -0.007   0.001  -0.004   0.981  -0.254   0.000  -0.000   0.002  -0.000
 -0.000  -0.000   0.003  -0.001   0.002   0.001   0.001  -0.001   0.002  -0.000  -0.254   0.135   0.000   0.000  -0.001  -0.000
  0.000   0.000   0.000   0.000   0.000   0.001  -0.000   0.000  -0.000  -0.000   0.000   0.000   0.093   0.001   0.002  -0.006
  0.000   0.000  -0.000   0.000   0.000  -0.000  -0.000   0.000   0.001  -0.000  -0.000   0.000   0.001   0.094  -0.000  -0.000
 -0.000  -0.000   0.000  -0.000  -0.000   0.000   0.000  -0.000   0.000   0.000   0.002  -0.001   0.002  -0.000   0.093  -0.000
 -0.000  -0.000  -0.000  -0.000  -0.000  -0.000   0.000   0.000   0.000   0.000  -0.000  -0.000  -0.006  -0.000  -0.000   0.001
 -0.000  -0.000   0.000  -0.000   0.000   0.000   0.000  -0.000  -0.000   0.000   0.000   0.000  -0.000  -0.007  -0.000   0.000
  0.000   0.000   0.000   0.000  -0.000  -0.000  -0.000   0.000  -0.000  -0.000  -0.000   0.000  -0.000  -0.000  -0.007   0.000


------------------------ aborting loop because EDIFF is reached ----------------------------------------




--------------------------------------------------------------------------------------------------------


    CHARGE:  VPU time   64.28: CPU time   64.42
    FORLOC:  VPU time    0.06: CPU time    0.06
    FORNL :  VPU time  432.65: CPU time  433.35
    STRESS:  VPU time 2684.58: CPU time 2690.47
    FORCOR:  VPU time    0.41: CPU time    0.42
    FORHAR:  VPU time    0.13: CPU time    0.13
    MIXING:  VPU time    0.01: CPU time    0.01


--------------------------------------------------------------------------------------------------------



  FREE ENERGIE OF THE ION-ELECTRON SYSTEM (eV)
  ---------------------------------------------------
  free  energy   TOTEN  =       -98.741774 eV

  energy  without entropy=      -98.741072  energy(sigma->0) =      -98.741423
 

  FORCE on cell =-STRESS in cart. coord.  units (eV/reduce length):
  Direction    X        Y        Z        XY       YZ       ZX
  --------------------------------------------------------------------------------------
  Alpha Z   2770.06   2770.06   2770.06
  Ewald    -9632.30  -9632.27  -9632.27      0.00     -0.00     -0.00
  Hartree   1554.53   1554.55   1554.55     -0.00     -0.00     -0.00
  E(xc)    -1572.59  -1572.59  -1572.59      0.00      0.00      0.00
  Local     2265.00   2264.95   2264.95     -0.00      0.00      0.00
  n-local  -1701.93  -1708.06  -1695.79      3.14      2.19      1.25
  augment   1377.15   1377.15   1377.15     -0.00     -0.00     -0.00
  Kinetic   4879.80   4873.89   4885.71      0.54     -0.39     -1.31
  -------------------------------------------------------------------------------------
  Total      -60.27    -60.27    -60.27      0.00      0.00     -0.00
  in kB     -139.49   -139.49   -139.49      0.00      0.00     -0.00
  external pressure =     -139.49 kB  Pullay stress =        0.00 kB


 VOLUME and BASIS-vectors are now :
 -----------------------------------------------------------------------------
  energy-cutoff  :      750.00
  volume of cell :      692.32
      direct lattice vectors                 reciprocal lattice vectors
     8.846446033  0.000000000  0.000000000     0.113039745  0.000000000  0.000000000
     0.000000000  8.846446033  0.000000000     0.000000000  0.113039745  0.000000000
     0.000000000  0.000000000  8.846446033     0.000000000  0.000000000  0.113039745

  length of vectors
     8.846446033  8.846446033  8.846446033     0.113039745  0.113039745  0.113039745


 FORCES acting on ions
    electron-ion (+dipol)            ewald-force                    non-local-force                 convergence-correction
 -----------------------------------------------------------------------------------------------
   0.330E+01 0.458E-13 0.196E-07   -.327E+01 0.426E-13 -.107E-13   -.356E-01 0.401E-20 -.664E-20   -.444E-04 0.973E-13 -.125E-12
   -.854E+00 0.870E-13 -.196E-07   0.863E+00 -.284E-13 -.142E-13   -.553E-02 0.667E-20 -.354E-20   -.155E-04 0.870E-13 -.212E-12
   0.272E+00 -.554E-13 -.580E-11   -.273E+00 0.213E-13 -.391E-13   0.390E-03 -.867E-20 -.577E-22   -.193E-05 -.210E-12 -.720E-13
   -.219E+00 0.113E-11 -.592E-11   0.214E+00 -.142E-13 0.142E-13   0.300E-02 0.947E-20 -.123E-20   0.311E-05 -.190E-12 -.108E-12
   0.272E+00 0.509E-13 -.172E-11   -.273E+00 -.391E-13 -.355E-13   0.390E-03 -.666E-21 0.466E-20   -.160E-05 0.930E-13 0.220E-13
   -.219E+00 0.387E-13 -.631E-12   0.214E+00 -.426E-13 0.142E-13   0.300E-02 0.244E-21 0.325E-20   0.303E-05 0.849E-13 0.892E-13
   0.114E+00 -.619E-13 0.213E-13   -.113E+00 0.355E-13 -.178E-13   -.947E-03 0.432E-20 -.813E-20   -.522E-05 -.207E-12 -.274E-13
   -.105E+00 -.504E-11 0.141E-11   0.105E+00 0.000E+00 -.142E-13   -.180E-03 -.388E-20 0.759E-21   0.510E-05 -.187E-12 -.104E-13
   -.417E+00 -.796E+00 0.585E-12   0.415E+00 0.796E+00 0.320E-13   0.371E-02 0.217E-02 0.172E-21   0.883E-05 0.131E-05 -.168E-12
   -.419E+00 0.790E+00 -.615E-11   0.417E+00 -.790E+00 0.178E-13   0.363E-02 -.209E-02 -.800E-21   0.966E-05 -.560E-05 -.124E-12
   -.417E+00 0.796E+00 0.466E-12   0.415E+00 -.796E+00 -.426E-13   0.371E-02 -.217E-02 0.241E-21   0.883E-05 -.131E-05 -.130E-12
   -.419E+00 -.790E+00 0.645E-11   0.417E+00 0.790E+00 -.426E-13   0.363E-02 0.209E-02 0.605E-20   0.966E-05 0.560E-05 -.101E-12
   -.121E-01 -.656E-01 -.130E-10   0.127E-01 0.655E-01 0.249E-13   -.286E-03 0.111E-03 -.736E-21   -.265E-05 -.229E-05 0.581E-13
   -.133E-01 0.655E-01 -.121E-10   0.139E-01 -.654E-01 -.178E-13   -.287E-03 -.117E-03 -.234E-20   0.459E-06 0.198E-06 0.980E-14
   -.121E-01 0.656E-01 -.129E-10   0.127E-01 -.655E-01 0.426E-13   -.286E-03 -.111E-03 0.251E-20   -.265E-05 0.229E-05 0.144E-13
   -.133E-01 -.655E-01 -.248E-10   0.139E-01 0.654E-01 0.426E-13   -.287E-03 0.117E-03 0.146E-20   0.459E-06 -.198E-06 -.140E-13
   -.417E+00 0.425E-13 -.796E+00   0.415E+00 -.178E-13 0.796E+00   0.371E-02 -.444E-20 0.217E-02   0.876E-05 0.535E-13 0.137E-05
   -.419E+00 0.422E-13 0.790E+00   0.417E+00 0.107E-13 -.790E+00   0.363E-02 -.103E-19 -.209E-02   0.959E-05 0.935E-13 -.566E-05
   -.121E-01 0.651E-12 -.656E-01   0.127E-01 0.711E-14 0.655E-01   -.286E-03 -.209E-20 0.111E-03   -.263E-05 -.167E-12 -.223E-05
   -.133E-01 0.766E-11 0.655E-01   0.139E-01 0.711E-14 -.654E-01   -.287E-03 -.324E-21 -.117E-03   0.478E-06 -.202E-12 0.136E-06
   -.417E+00 0.640E-13 0.796E+00   0.415E+00 -.426E-13 -.796E+00   0.371E-02 0.262E-20 -.217E-02   0.876E-05 0.959E-13 -.137E-05
   -.419E+00 0.497E-13 -.790E+00   0.417E+00 0.142E-13 0.790E+00   0.363E-02 -.391E-20 0.209E-02   0.959E-05 0.116E-12 0.566E-05
   -.121E-01 0.816E-12 0.656E-01   0.127E-01 0.142E-13 -.655E-01   -.286E-03 -.144E-20 -.111E-03   -.263E-05 -.207E-12 0.223E-05
   -.133E-01 -.524E-11 -.655E-01   0.139E-01 0.142E-13 0.654E-01   -.287E-03 -.684E-21 0.117E-03   0.478E-06 -.224E-12 -.136E-06
   0.511E+00 0.184E-02 0.184E-02   -.515E+00 -.183E-02 -.183E-02   0.229E-02 -.141E-06 -.141E-06   0.310E-06 -.167E-05 -.167E-05
   -.289E+00 -.531E-03 -.531E-03   0.290E+00 0.549E-03 0.549E-03   -.190E-03 -.107E-04 -.107E-04   -.226E-05 -.275E-05 -.275E-05
   0.511E+00 -.184E-02 0.184E-02   -.515E+00 0.183E-02 -.183E-02   0.229E-02 0.141E-06 -.141E-06   0.310E-06 0.167E-05 -.167E-05
   -.289E+00 0.531E-03 -.531E-03   0.290E+00 -.549E-03 0.549E-03   -.190E-03 0.107E-04 -.107E-04   -.226E-05 0.275E-05 -.275E-05
   0.511E+00 0.184E-02 -.184E-02   -.515E+00 -.183E-02 0.183E-02   0.229E-02 -.141E-06 0.141E-06   0.310E-06 -.167E-05 0.167E-05
   -.289E+00 -.531E-03 0.531E-03   0.290E+00 0.549E-03 -.549E-03   -.190E-03 -.107E-04 0.107E-04   -.226E-05 -.275E-05 0.275E-05
   0.511E+00 -.184E-02 -.184E-02   -.515E+00 0.183E-02 0.183E-02   0.229E-02 0.141E-06 0.141E-06   0.310E-06 0.167E-05 0.167E-05
   -.289E+00 0.531E-03 0.531E-03   0.290E+00 -.549E-03 -.549E-03   -.190E-03 0.107E-04 0.107E-04   -.226E-05 0.275E-05 0.275E-05
 -----------------------------------------------------------------------------------------------
   -.149E-05 0.336E-11 0.284E-10   0.455E-13 0.396E-13 -.444E-13   0.589E-05 -.237E-19 0.447E-18   -.252E-06 -.301E-12 -.364E-12
 
 
 POSITION                                       TOTAL-FORCE (eV/Angst)
 -----------------------------------------------------------------------------------
      0.01000      0.00000      0.00000        -0.008307     -0.000000      0.000000
      4.42322      0.00000      0.00000         0.003310      0.000000      0.000000
      0.00000      4.42322      0.00000        -0.000475     -0.000000     -0.000000
      4.42322      4.42322      0.00000        -0.001729     -0.000000      0.000000
      0.00000      0.00000      4.42322        -0.000475      0.000000      0.000000
      4.42322      0.00000      4.42322        -0.001729     -0.000000      0.000000
      0.00000      4.42322      4.42322         0.000243     -0.000000      0.000000
      4.42322      4.42322      4.42322        -0.000149      0.000000     -0.000000
      2.21161      2.21161      0.00000         0.001463      0.002208      0.000000
      6.63483      2.21161      0.00000         0.001348     -0.002057      0.000000
      2.21161      6.63483      0.00000         0.001463     -0.002208     -0.000000
      6.63483      6.63483      0.00000         0.001348      0.002057     -0.000000
      2.21161      2.21161      4.42322         0.000247      0.000011     -0.000000
      6.63483      2.21161      4.42322         0.000246     -0.000007      0.000000
      2.21161      6.63483      4.42322         0.000247     -0.000011      0.000000
      6.63483      6.63483      4.42322         0.000246      0.000007      0.000000
      2.21161      0.00000      2.21161         0.001463      0.000000      0.002208
      6.63483      0.00000      2.21161         0.001348      0.000000     -0.002057
      2.21161      4.42322      2.21161         0.000247      0.000000      0.000011
      6.63483      4.42322      2.21161         0.000246     -0.000000     -0.000007
      2.21161      0.00000      6.63483         0.001463     -0.000000     -0.002208
      6.63483      0.00000      6.63483         0.001348     -0.000000      0.002057
      2.21161      4.42322      6.63483         0.000247      0.000000     -0.000011
      6.63483      4.42322      6.63483         0.000246     -0.000000      0.000007
      0.00000      2.21161      2.21161        -0.001621      0.000006      0.000006
      4.42322      2.21161      2.21161         0.000644      0.000004      0.000004
      0.00000      6.63483      2.21161        -0.001621     -0.000006      0.000006
      4.42322      6.63483      2.21161         0.000644     -0.000004      0.000004
      0.00000      2.21161      6.63483        -0.001621      0.000006     -0.000006
      4.42322      2.21161      6.63483         0.000644      0.000004     -0.000004
      0.00000      6.63483      6.63483        -0.001621     -0.000006     -0.000006
      4.42322      6.63483      6.63483         0.000644     -0.000004     -0.000004
 -----------------------------------------------------------------------------------
    total drift:                                0.000004      0.000000      0.000000


--------------------------------------------------------------------------------------------------------



 mean value of Nose-termostat <S>:     1.000 mean value of <T> :     0.000
 mean temperature <T/S>/<1/S>  :     0.000

     LOOP+:  VPU time37210.08: CPU time37281.63
  
  
 General timing and accounting informations for this job:
 ========================================================
  
                  Total CPU time used (sec):    37590.955
                            User time (sec):    37080.101
                          System time (sec):      510.854
                         Elapsed time (sec):    37663.477
  
                   Maximum memory used (kb):     9171988.
                   Average memory used (kb):           0.
  
                          Minor page faults:      1187315
                          Major page faults:            0
                 Voluntary context switches:         1039
