<?xml version="1.0" encoding="ISO-8859-1"?>
<modeling>
 <generator>
  <i name="program" type="string">vasp</i>
  <i name="version" type="string">4.6.28 </i>
  <i name="subversion" type="string">25Jul05 complex  parallel</i>
  <i name="platform" type="string">LinuxIFC</i>
  <i name="date" type="string">2017 01 14</i>
  <i name="time" type="string">12:19:28</i>
 </generator>
 <incar>
  <i type="string" name="PREC">accurate</i>
  <i type="int" name="IALGO">    38</i>
  <i type="logical" name="ADDGRID"> T  </i>
  <i name="EDIFF">      0.00000001</i>
  <i type="int" name="IBRION">    -1</i>
  <i name="ENCUT">    750.00000000</i>
  <i type="logical" name="LREAL"> F  </i>
  <i type="int" name="ISMEAR">     0</i>
  <i name="SIGMA">      0.01000000</i>
  <i type="logical" name="LWAVE"> F  </i>
  <i type="logical" name="LCHARG"> F  </i>
 </incar>
 <kpoints>
  <generation param="Gamma">
   <v type="int" name="divisions">      12      12      12</v>
   <v name="usershift">      0.00000000      0.00000000      0.00000000</v>
   <v name="genvec1">      0.08333333      0.00000000      0.00000000</v>
   <v name="genvec2">      0.00000000      0.08333333      0.00000000</v>
   <v name="genvec3">      0.00000000      0.00000000      0.08333333</v>
   <v name="shift">      0.00000000      0.00000000      0.00000000</v>
  </generation>
  <varray name="kpointlist" >
   <v>       0.00000000      0.00000000      0.00000000</v>
   <v>       0.08333333      0.00000000      0.00000000</v>
   <v>       0.16666667      0.00000000      0.00000000</v>
   <v>       0.25000000      0.00000000      0.00000000</v>
   <v>       0.33333333      0.00000000      0.00000000</v>
   <v>       0.41666667      0.00000000      0.00000000</v>
   <v>       0.50000000      0.00000000      0.00000000</v>
   <v>       0.00000000      0.08333333      0.00000000</v>
   <v>       0.08333333      0.08333333      0.00000000</v>
   <v>       0.16666667      0.08333333      0.00000000</v>
   <v>       0.25000000      0.08333333      0.00000000</v>
   <v>       0.33333333      0.08333333      0.00000000</v>
   <v>       0.41666667      0.08333333      0.00000000</v>
   <v>       0.50000000      0.08333333      0.00000000</v>
   <v>       0.00000000      0.16666667      0.00000000</v>
   <v>       0.08333333      0.16666667      0.00000000</v>
   <v>       0.16666667      0.16666667      0.00000000</v>
   <v>       0.25000000      0.16666667      0.00000000</v>
   <v>       0.33333333      0.16666667      0.00000000</v>
   <v>       0.41666667      0.16666667      0.00000000</v>
   <v>       0.50000000      0.16666667      0.00000000</v>
   <v>       0.00000000      0.25000000      0.00000000</v>
   <v>       0.08333333      0.25000000      0.00000000</v>
   <v>       0.16666667      0.25000000      0.00000000</v>
   <v>       0.25000000      0.25000000      0.00000000</v>
   <v>       0.33333333      0.25000000      0.00000000</v>
   <v>       0.41666667      0.25000000      0.00000000</v>
   <v>       0.50000000      0.25000000      0.00000000</v>
   <v>       0.00000000      0.33333333      0.00000000</v>
   <v>       0.08333333      0.33333333      0.00000000</v>
   <v>       0.16666667      0.33333333      0.00000000</v>
   <v>       0.25000000      0.33333333      0.00000000</v>
   <v>       0.33333333      0.33333333      0.00000000</v>
   <v>       0.41666667      0.33333333      0.00000000</v>
   <v>       0.50000000      0.33333333      0.00000000</v>
   <v>       0.00000000      0.41666667      0.00000000</v>
   <v>       0.08333333      0.41666667      0.00000000</v>
   <v>       0.16666667      0.41666667      0.00000000</v>
   <v>       0.25000000      0.41666667      0.00000000</v>
   <v>       0.33333333      0.41666667      0.00000000</v>
   <v>       0.41666667      0.41666667      0.00000000</v>
   <v>       0.50000000      0.41666667      0.00000000</v>
   <v>       0.00000000      0.50000000      0.00000000</v>
   <v>       0.08333333      0.50000000      0.00000000</v>
   <v>       0.16666667      0.50000000      0.00000000</v>
   <v>       0.25000000      0.50000000      0.00000000</v>
   <v>       0.33333333      0.50000000      0.00000000</v>
   <v>       0.41666667      0.50000000      0.00000000</v>
   <v>       0.50000000      0.50000000      0.00000000</v>
   <v>       0.00000000      0.08333333      0.08333333</v>
   <v>       0.08333333      0.08333333      0.08333333</v>
   <v>       0.16666667      0.08333333      0.08333333</v>
   <v>       0.25000000      0.08333333      0.08333333</v>
   <v>       0.33333333      0.08333333      0.08333333</v>
   <v>       0.41666667      0.08333333      0.08333333</v>
   <v>       0.50000000      0.08333333      0.08333333</v>
   <v>       0.00000000      0.16666667      0.08333333</v>
   <v>       0.08333333      0.16666667      0.08333333</v>
   <v>       0.16666667      0.16666667      0.08333333</v>
   <v>       0.25000000      0.16666667      0.08333333</v>
   <v>       0.33333333      0.16666667      0.08333333</v>
   <v>       0.41666667      0.16666667      0.08333333</v>
   <v>       0.50000000      0.16666667      0.08333333</v>
   <v>       0.00000000      0.25000000      0.08333333</v>
   <v>       0.08333333      0.25000000      0.08333333</v>
   <v>       0.16666667      0.25000000      0.08333333</v>
   <v>       0.25000000      0.25000000      0.08333333</v>
   <v>       0.33333333      0.25000000      0.08333333</v>
   <v>       0.41666667      0.25000000      0.08333333</v>
   <v>       0.50000000      0.25000000      0.08333333</v>
   <v>       0.00000000      0.33333333      0.08333333</v>
   <v>       0.08333333      0.33333333      0.08333333</v>
   <v>       0.16666667      0.33333333      0.08333333</v>
   <v>       0.25000000      0.33333333      0.08333333</v>
   <v>       0.33333333      0.33333333      0.08333333</v>
   <v>       0.41666667      0.33333333      0.08333333</v>
   <v>       0.50000000      0.33333333      0.08333333</v>
   <v>       0.00000000      0.41666667      0.08333333</v>
   <v>       0.08333333      0.41666667      0.08333333</v>
   <v>       0.16666667      0.41666667      0.08333333</v>
   <v>       0.25000000      0.41666667      0.08333333</v>
   <v>       0.33333333      0.41666667      0.08333333</v>
   <v>       0.41666667      0.41666667      0.08333333</v>
   <v>       0.50000000      0.41666667      0.08333333</v>
   <v>       0.00000000      0.50000000      0.08333333</v>
   <v>       0.08333333      0.50000000      0.08333333</v>
   <v>       0.16666667      0.50000000      0.08333333</v>
   <v>       0.25000000      0.50000000      0.08333333</v>
   <v>       0.33333333      0.50000000      0.08333333</v>
   <v>       0.41666667      0.50000000      0.08333333</v>
   <v>       0.50000000      0.50000000      0.08333333</v>
   <v>       0.00000000      0.16666667      0.16666667</v>
   <v>       0.08333333      0.16666667      0.16666667</v>
   <v>       0.16666667      0.16666667      0.16666667</v>
   <v>       0.25000000      0.16666667      0.16666667</v>
   <v>       0.33333333      0.16666667      0.16666667</v>
   <v>       0.41666667      0.16666667      0.16666667</v>
   <v>       0.50000000      0.16666667      0.16666667</v>
   <v>       0.00000000      0.25000000      0.16666667</v>
   <v>       0.08333333      0.25000000      0.16666667</v>
   <v>       0.16666667      0.25000000      0.16666667</v>
   <v>       0.25000000      0.25000000      0.16666667</v>
   <v>       0.33333333      0.25000000      0.16666667</v>
   <v>       0.41666667      0.25000000      0.16666667</v>
   <v>       0.50000000      0.25000000      0.16666667</v>
   <v>       0.00000000      0.33333333      0.16666667</v>
   <v>       0.08333333      0.33333333      0.16666667</v>
   <v>       0.16666667      0.33333333      0.16666667</v>
   <v>       0.25000000      0.33333333      0.16666667</v>
   <v>       0.33333333      0.33333333      0.16666667</v>
   <v>       0.41666667      0.33333333      0.16666667</v>
   <v>       0.50000000      0.33333333      0.16666667</v>
   <v>       0.00000000      0.41666667      0.16666667</v>
   <v>       0.08333333      0.41666667      0.16666667</v>
   <v>       0.16666667      0.41666667      0.16666667</v>
   <v>       0.25000000      0.41666667      0.16666667</v>
   <v>       0.33333333      0.41666667      0.16666667</v>
   <v>       0.41666667      0.41666667      0.16666667</v>
   <v>       0.50000000      0.41666667      0.16666667</v>
   <v>       0.00000000      0.50000000      0.16666667</v>
   <v>       0.08333333      0.50000000      0.16666667</v>
   <v>       0.16666667      0.50000000      0.16666667</v>
   <v>       0.25000000      0.50000000      0.16666667</v>
   <v>       0.33333333      0.50000000      0.16666667</v>
   <v>       0.41666667      0.50000000      0.16666667</v>
   <v>       0.50000000      0.50000000      0.16666667</v>
   <v>       0.00000000      0.25000000      0.25000000</v>
   <v>       0.08333333      0.25000000      0.25000000</v>
   <v>       0.16666667      0.25000000      0.25000000</v>
   <v>       0.25000000      0.25000000      0.25000000</v>
   <v>       0.33333333      0.25000000      0.25000000</v>
   <v>       0.41666667      0.25000000      0.25000000</v>
   <v>       0.50000000      0.25000000      0.25000000</v>
   <v>       0.00000000      0.33333333      0.25000000</v>
   <v>       0.08333333      0.33333333      0.25000000</v>
   <v>       0.16666667      0.33333333      0.25000000</v>
   <v>       0.25000000      0.33333333      0.25000000</v>
   <v>       0.33333333      0.33333333      0.25000000</v>
   <v>       0.41666667      0.33333333      0.25000000</v>
   <v>       0.50000000      0.33333333      0.25000000</v>
   <v>       0.00000000      0.41666667      0.25000000</v>
   <v>       0.08333333      0.41666667      0.25000000</v>
   <v>       0.16666667      0.41666667      0.25000000</v>
   <v>       0.25000000      0.41666667      0.25000000</v>
   <v>       0.33333333      0.41666667      0.25000000</v>
   <v>       0.41666667      0.41666667      0.25000000</v>
   <v>       0.50000000      0.41666667      0.25000000</v>
   <v>       0.00000000      0.50000000      0.25000000</v>
   <v>       0.08333333      0.50000000      0.25000000</v>
   <v>       0.16666667      0.50000000      0.25000000</v>
   <v>       0.25000000      0.50000000      0.25000000</v>
   <v>       0.33333333      0.50000000      0.25000000</v>
   <v>       0.41666667      0.50000000      0.25000000</v>
   <v>       0.50000000      0.50000000      0.25000000</v>
   <v>       0.00000000      0.33333333      0.33333333</v>
   <v>       0.08333333      0.33333333      0.33333333</v>
   <v>       0.16666667      0.33333333      0.33333333</v>
   <v>       0.25000000      0.33333333      0.33333333</v>
   <v>       0.33333333      0.33333333      0.33333333</v>
   <v>       0.41666667      0.33333333      0.33333333</v>
   <v>       0.50000000      0.33333333      0.33333333</v>
   <v>       0.00000000      0.41666667      0.33333333</v>
   <v>       0.08333333      0.41666667      0.33333333</v>
   <v>       0.16666667      0.41666667      0.33333333</v>
   <v>       0.25000000      0.41666667      0.33333333</v>
   <v>       0.33333333      0.41666667      0.33333333</v>
   <v>       0.41666667      0.41666667      0.33333333</v>
   <v>       0.50000000      0.41666667      0.33333333</v>
   <v>       0.00000000      0.50000000      0.33333333</v>
   <v>       0.08333333      0.50000000      0.33333333</v>
   <v>       0.16666667      0.50000000      0.33333333</v>
   <v>       0.25000000      0.50000000      0.33333333</v>
   <v>       0.33333333      0.50000000      0.33333333</v>
   <v>       0.41666667      0.50000000      0.33333333</v>
   <v>       0.50000000      0.50000000      0.33333333</v>
   <v>       0.00000000      0.41666667      0.41666667</v>
   <v>       0.08333333      0.41666667      0.41666667</v>
   <v>       0.16666667      0.41666667      0.41666667</v>
   <v>       0.25000000      0.41666667      0.41666667</v>
   <v>       0.33333333      0.41666667      0.41666667</v>
   <v>       0.41666667      0.41666667      0.41666667</v>
   <v>       0.50000000      0.41666667      0.41666667</v>
   <v>       0.00000000      0.50000000      0.41666667</v>
   <v>       0.08333333      0.50000000      0.41666667</v>
   <v>       0.16666667      0.50000000      0.41666667</v>
   <v>       0.25000000      0.50000000      0.41666667</v>
   <v>       0.33333333      0.50000000      0.41666667</v>
   <v>       0.41666667      0.50000000      0.41666667</v>
   <v>       0.50000000      0.50000000      0.41666667</v>
   <v>       0.00000000      0.50000000      0.50000000</v>
   <v>       0.08333333      0.50000000      0.50000000</v>
   <v>       0.16666667      0.50000000      0.50000000</v>
   <v>       0.25000000      0.50000000      0.50000000</v>
   <v>       0.33333333      0.50000000      0.50000000</v>
   <v>       0.41666667      0.50000000      0.50000000</v>
   <v>       0.50000000      0.50000000      0.50000000</v>
  </varray>
  <varray name="weights" >
   <v>       0.00057870</v>
   <v>       0.00115741</v>
   <v>       0.00115741</v>
   <v>       0.00115741</v>
   <v>       0.00115741</v>
   <v>       0.00115741</v>
   <v>       0.00057870</v>
   <v>       0.00231481</v>
   <v>       0.00462963</v>
   <v>       0.00462963</v>
   <v>       0.00462963</v>
   <v>       0.00462963</v>
   <v>       0.00462963</v>
   <v>       0.00231481</v>
   <v>       0.00231481</v>
   <v>       0.00462963</v>
   <v>       0.00462963</v>
   <v>       0.00462963</v>
   <v>       0.00462963</v>
   <v>       0.00462963</v>
   <v>       0.00231481</v>
   <v>       0.00231481</v>
   <v>       0.00462963</v>
   <v>       0.00462963</v>
   <v>       0.00462963</v>
   <v>       0.00462963</v>
   <v>       0.00462963</v>
   <v>       0.00231481</v>
   <v>       0.00231481</v>
   <v>       0.00462963</v>
   <v>       0.00462963</v>
   <v>       0.00462963</v>
   <v>       0.00462963</v>
   <v>       0.00462963</v>
   <v>       0.00231481</v>
   <v>       0.00231481</v>
   <v>       0.00462963</v>
   <v>       0.00462963</v>
   <v>       0.00462963</v>
   <v>       0.00462963</v>
   <v>       0.00462963</v>
   <v>       0.00231481</v>
   <v>       0.00115741</v>
   <v>       0.00231481</v>
   <v>       0.00231481</v>
   <v>       0.00231481</v>
   <v>       0.00231481</v>
   <v>       0.00231481</v>
   <v>       0.00115741</v>
   <v>       0.00231481</v>
   <v>       0.00462963</v>
   <v>       0.00462963</v>
   <v>       0.00462963</v>
   <v>       0.00462963</v>
   <v>       0.00462963</v>
   <v>       0.00231481</v>
   <v>       0.00462963</v>
   <v>       0.00925926</v>
   <v>       0.00925926</v>
   <v>       0.00925926</v>
   <v>       0.00925926</v>
   <v>       0.00925926</v>
   <v>       0.00462963</v>
   <v>       0.00462963</v>
   <v>       0.00925926</v>
   <v>       0.00925926</v>
   <v>       0.00925926</v>
   <v>       0.00925926</v>
   <v>       0.00925926</v>
   <v>       0.00462963</v>
   <v>       0.00462963</v>
   <v>       0.00925926</v>
   <v>       0.00925926</v>
   <v>       0.00925926</v>
   <v>       0.00925926</v>
   <v>       0.00925926</v>
   <v>       0.00462963</v>
   <v>       0.00462963</v>
   <v>       0.00925926</v>
   <v>       0.00925926</v>
   <v>       0.00925926</v>
   <v>       0.00925926</v>
   <v>       0.00925926</v>
   <v>       0.00462963</v>
   <v>       0.00231481</v>
   <v>       0.00462963</v>
   <v>       0.00462963</v>
   <v>       0.00462963</v>
   <v>       0.00462963</v>
   <v>       0.00462963</v>
   <v>       0.00231481</v>
   <v>       0.00231481</v>
   <v>       0.00462963</v>
   <v>       0.00462963</v>
   <v>       0.00462963</v>
   <v>       0.00462963</v>
   <v>       0.00462963</v>
   <v>       0.00231481</v>
   <v>       0.00462963</v>
   <v>       0.00925926</v>
   <v>       0.00925926</v>
   <v>       0.00925926</v>
   <v>       0.00925926</v>
   <v>       0.00925926</v>
   <v>       0.00462963</v>
   <v>       0.00462963</v>
   <v>       0.00925926</v>
   <v>       0.00925926</v>
   <v>       0.00925926</v>
   <v>       0.00925926</v>
   <v>       0.00925926</v>
   <v>       0.00462963</v>
   <v>       0.00462963</v>
   <v>       0.00925926</v>
   <v>       0.00925926</v>
   <v>       0.00925926</v>
   <v>       0.00925926</v>
   <v>       0.00925926</v>
   <v>       0.00462963</v>
   <v>       0.00231481</v>
   <v>       0.00462963</v>
   <v>       0.00462963</v>
   <v>       0.00462963</v>
   <v>       0.00462963</v>
   <v>       0.00462963</v>
   <v>       0.00231481</v>
   <v>       0.00231481</v>
   <v>       0.00462963</v>
   <v>       0.00462963</v>
   <v>       0.00462963</v>
   <v>       0.00462963</v>
   <v>       0.00462963</v>
   <v>       0.00231481</v>
   <v>       0.00462963</v>
   <v>       0.00925926</v>
   <v>       0.00925926</v>
   <v>       0.00925926</v>
   <v>       0.00925926</v>
   <v>       0.00925926</v>
   <v>       0.00462963</v>
   <v>       0.00462963</v>
   <v>       0.00925926</v>
   <v>       0.00925926</v>
   <v>       0.00925926</v>
   <v>       0.00925926</v>
   <v>       0.00925926</v>
   <v>       0.00462963</v>
   <v>       0.00231481</v>
   <v>       0.00462963</v>
   <v>       0.00462963</v>
   <v>       0.00462963</v>
   <v>       0.00462963</v>
   <v>       0.00462963</v>
   <v>       0.00231481</v>
   <v>       0.00231481</v>
   <v>       0.00462963</v>
   <v>       0.00462963</v>
   <v>       0.00462963</v>
   <v>       0.00462963</v>
   <v>       0.00462963</v>
   <v>       0.00231481</v>
   <v>       0.00462963</v>
   <v>       0.00925926</v>
   <v>       0.00925926</v>
   <v>       0.00925926</v>
   <v>       0.00925926</v>
   <v>       0.00925926</v>
   <v>       0.00462963</v>
   <v>       0.00231481</v>
   <v>       0.00462963</v>
   <v>       0.00462963</v>
   <v>       0.00462963</v>
   <v>       0.00462963</v>
   <v>       0.00462963</v>
   <v>       0.00231481</v>
   <v>       0.00231481</v>
   <v>       0.00462963</v>
   <v>       0.00462963</v>
   <v>       0.00462963</v>
   <v>       0.00462963</v>
   <v>       0.00462963</v>
   <v>       0.00231481</v>
   <v>       0.00231481</v>
   <v>       0.00462963</v>
   <v>       0.00462963</v>
   <v>       0.00462963</v>
   <v>       0.00462963</v>
   <v>       0.00462963</v>
   <v>       0.00231481</v>
   <v>       0.00057870</v>
   <v>       0.00115741</v>
   <v>       0.00115741</v>
   <v>       0.00115741</v>
   <v>       0.00115741</v>
   <v>       0.00115741</v>
   <v>       0.00057870</v>
  </varray>
 </kpoints>
 <parameters>
  <separator name="general" >
   <i type="string" name="SYSTEM">unknown system</i>
   <i type="logical" name="LCOMPAT"> F  </i>
  </separator>
  <separator name="electronic" >
   <i type="string" name="PREC">accura</i>
   <i name="ENMAX">    750.00000000</i>
   <i name="ENAUG">    356.67000000</i>
   <i name="EDIFF">      0.00000001</i>
   <i type="int" name="IALGO">    38</i>
   <i type="int" name="IWAVPR">    10</i>
   <i type="int" name="NBANDS">   211</i>
   <i name="NELECT">    352.00000000</i>
   <separator name="electronic smearing" >
    <i type="int" name="ISMEAR">     0</i>
    <i name="SIGMA">      0.01000000</i>
   </separator>
   <separator name="electronic projectors" >
    <i type="logical" name="LREAL"> F  </i>
    <v name="ROPT">      0.00000000</v>
    <i type="int" name="LMAXPAW">  -100</i>
    <i type="int" name="LMAXMIX">     2</i>
   </separator>
   <separator name="electronic startup" >
    <i type="int" name="ISTART">     0</i>
    <i type="int" name="ICHARG">     2</i>
    <i type="int" name="INIWAV">     1</i>
   </separator>
   <separator name="electronic spin" >
    <i type="int" name="ISPIN">     1</i>
    <i type="logical" name="LNONCOLLINEAR"> F  </i>
    <v name="MAGMOM">      1.00000000      1.00000000      1.00000000      1.00000000      1.00000000      1.00000000      1.00000000      1.00000000      1.00000000      1.00000000      1.00000000      1.00000000      1.00000000      1.00000000      1.00000000      1.00000000      1.00000000      1.00000000      1.00000000      1.00000000
      1.00000000      1.00000000      1.00000000      1.00000000      1.00000000      1.00000000      1.00000000      1.00000000      1.00000000      1.00000000      1.00000000      1.00000000</v>
    <i name="NUPDOWN">     -1.00000000</i>
    <i type="logical" name="LSORBIT"> F  </i>
    <v name="SAXIS">      0.00000000      0.00000000      1.00000000</v>
    <i type="logical" name="LSPIRAL"> F  </i>
    <v name="QSPIRAL">      0.00000000      0.00000000      0.00000000</v>
    <i type="logical" name="LZEROZ"> F  </i>
   </separator>
   <separator name="electronic exchange-correlation" >
    <i type="string" name="GGA">--</i>
    <i type="int" name="VOSKOWN">     0</i>
    <i type="logical" name="LASPH"> F  </i>
    <i type="logical" name="LMETAGGA"> F  </i>
    <i type="string" name="GGA2">--</i>
   </separator>
   <separator name="electronic convergence" >
    <i type="int" name="NELM">    60</i>
    <i type="int" name="NELMDL">     0</i>
    <i type="int" name="NELMIN">     2</i>
    <i name="ENINI">    750.00000000</i>
    <separator name="electronic convergence detail" >
     <i type="logical" name="LDIAG"> T  </i>
     <i name="WEIMIN">      0.00000000</i>
     <i name="EBREAK">      0.00000000</i>
     <i name="DEPER">      0.30000000</i>
     <i type="int" name="NRMM">     4</i>
     <i name="TIME">      0.10000000</i>
    </separator>
   </separator>
   <separator name="electronic mixer" >
    <i name="AMIX">      0.40000000</i>
    <i name="BMIX">      1.00000000</i>
    <i name="AMIN">      0.10000000</i>
    <i name="AMIX_MAG">      1.60000000</i>
    <i name="BMIX_MAG">      1.00000000</i>
    <separator name="electronic mixer details" >
     <i type="int" name="IMIX">     4</i>
     <i type="int" name="MAXMIX">   -45</i>
     <i name="WC">    100.00000000</i>
     <i type="int" name="INIMIX">     1</i>
     <i type="int" name="MIXPRE">     1</i>
     <i type="int" name="MREMOVE">     5</i>
    </separator>
   </separator>
   <separator name="electronic dipolcorrection" >
    <i type="int" name="IDIPOL">     0</i>
    <i type="logical" name="LDIPOL"> F  </i>
    <v name="DIPOL">   -100.00000000</v>
    <i name="EFIELD">      0.00000000</i>
   </separator>
  </separator>
  <separator name="grids" >
   <i type="int" name="NGX">    80</i>
   <i type="int" name="NGY">    80</i>
   <i type="int" name="NGZ">    80</i>
   <i type="int" name="NGXF">   160</i>
   <i type="int" name="NGYF">   160</i>
   <i type="int" name="NGZF">   160</i>
   <i type="logical" name="ADDGRID"> T  </i>
  </separator>
  <separator name="ionic" >
   <i type="int" name="NSW">     0</i>
   <i type="int" name="IBRION">    -1</i>
   <i type="int" name="ISIF">     2</i>
   <i name="PSTRESS">      0.00000000</i>
   <i name="EDIFFG">      0.00000010</i>
   <i type="int" name="NFREE">     0</i>
   <i name="POTIM">      0.50000000</i>
   <i name="SMASS">     -3.00000000</i>
  </separator>
  <separator name="ionic md" >
   <i name="TEBEG">      0.00010000</i>
   <i name="TEEND">      0.00010000</i>
   <i type="int" name="NBLOCK">     1</i>
   <i type="int" name="KBLOCK">     1</i>
   <i type="int" name="NPACO">   256</i>
   <i name="APACO">     16.00000000</i>
  </separator>
  <separator name="symmetry" >
   <i type="int" name="ISYM">     2</i>
   <i name="SYMPREC">      0.00001000</i>
  </separator>
  <separator name="dos" >
   <i type="logical" name="LORBIT"> F  </i>
   <v name="RWIGS">     -1.00000000</v>
   <i type="int" name="NEDOS">   301</i>
   <i name="EMIN">     10.00000000</i>
   <i name="EMAX">    -10.00000000</i>
  </separator>
  <separator name="writing" >
   <i type="int" name="NWRITE">     2</i>
   <i type="logical" name="LWAVE"> F  </i>
   <i type="logical" name="LCHARG"> F  </i>
   <i type="logical" name="LPARD"> F  </i>
   <i type="logical" name="LVTOT"> F  </i>
   <i type="logical" name="LELF"> F  </i>
   <i type="logical" name="LOPTICS"> F  </i>
   <i name="STM">      0.00000000</i>
  </separator>
  <separator name="performance" >
   <i type="int" name="NPAR">     8</i>
   <i type="int" name="NSIM">     4</i>
   <i type="int" name="NBLK">   256</i>
   <i type="logical" name="LPLANE"> T  </i>
   <i type="logical" name="LCRITICAL_MEM"> F  </i>
   <i type="logical" name="LSCALAPACK"> F  </i>
   <i type="logical" name="LSCALU"> F  </i>
   <i type="logical" name="LASYNC"> F  </i>
  </separator>
  <separator name="miscellaneous" >
   <i type="int" name="IDIOT">     3</i>
   <i type="logical" name="LMUSIC"> F  </i>
   <v name="POMASS">    196.96600000</v>
   <i type="logical" name="LCORR"> T  </i>
  </separator>
  <i type="logical" name="LREAL_COMPAT"> F  </i>
  <i type="logical" name="GGA_COMPAT"> T  </i>
  <i type="logical" name="LBERRY"> F  </i>
  <i type="int" name="ICORELEVEL">     0</i>
  <i type="logical" name="LDAU"> F  </i>
  <i type="int" name="I_CONSTRAINED_M">     0</i>
 </parameters>
 <atominfo>
  <atoms>      32</atoms>
  <types>       1</types>
  <array name="atoms" >
   <dimension dim="1">ion</dimension>
   <field type="string">element</field>
   <field type="int">atomtype</field>
   <set>
    <rc><c>Au</c><c>   1</c></rc>
    <rc><c>Au</c><c>   1</c></rc>
    <rc><c>Au</c><c>   1</c></rc>
    <rc><c>Au</c><c>   1</c></rc>
    <rc><c>Au</c><c>   1</c></rc>
    <rc><c>Au</c><c>   1</c></rc>
    <rc><c>Au</c><c>   1</c></rc>
    <rc><c>Au</c><c>   1</c></rc>
    <rc><c>Au</c><c>   1</c></rc>
    <rc><c>Au</c><c>   1</c></rc>
    <rc><c>Au</c><c>   1</c></rc>
    <rc><c>Au</c><c>   1</c></rc>
    <rc><c>Au</c><c>   1</c></rc>
    <rc><c>Au</c><c>   1</c></rc>
    <rc><c>Au</c><c>   1</c></rc>
    <rc><c>Au</c><c>   1</c></rc>
    <rc><c>Au</c><c>   1</c></rc>
    <rc><c>Au</c><c>   1</c></rc>
    <rc><c>Au</c><c>   1</c></rc>
    <rc><c>Au</c><c>   1</c></rc>
    <rc><c>Au</c><c>   1</c></rc>
    <rc><c>Au</c><c>   1</c></rc>
    <rc><c>Au</c><c>   1</c></rc>
    <rc><c>Au</c><c>   1</c></rc>
    <rc><c>Au</c><c>   1</c></rc>
    <rc><c>Au</c><c>   1</c></rc>
    <rc><c>Au</c><c>   1</c></rc>
    <rc><c>Au</c><c>   1</c></rc>
    <rc><c>Au</c><c>   1</c></rc>
    <rc><c>Au</c><c>   1</c></rc>
    <rc><c>Au</c><c>   1</c></rc>
    <rc><c>Au</c><c>   1</c></rc>
   </set>
  </array>
  <array name="atomtypes" >
   <dimension dim="1">type</dimension>
   <field type="int">atomspertype</field>
   <field type="string">element</field>
   <field>mass</field>
   <field>valence</field>
   <field type="string">pseudopotential</field>
   <set>
    <rc><c>  32</c><c>Au</c><c>    196.96600000</c><c>     11.00000000</c><c> PAW_PBE Au 06Sep2000                   </c></rc>
   </set>
  </array>
 </atominfo>
 <structure name="initialpos" >
  <crystal>
   <varray name="basis" >
    <v>       8.84644603      0.00000000      0.00000000</v>
    <v>       0.00000000      8.84644603      0.00000000</v>
    <v>       0.00000000      0.00000000      8.84644603</v>
   </varray>
   <i name="volume">    692.31939354</i>
   <varray name="rec_basis" >
    <v>       0.11303974      0.00000000      0.00000000</v>
    <v>       0.00000000      0.11303974      0.00000000</v>
    <v>       0.00000000      0.00000000      0.11303974</v>
   </varray>
  </crystal>
  <varray name="positions" >
   <v>       0.00113040      0.00000000      0.00000000</v>
   <v>       0.50000000      0.00000000      0.00000000</v>
   <v>       0.00000000      0.50000000      0.00000000</v>
   <v>       0.50000000      0.50000000      0.00000000</v>
   <v>       0.00000000      0.00000000      0.50000000</v>
   <v>       0.50000000      0.00000000      0.50000000</v>
   <v>       0.00000000      0.50000000      0.50000000</v>
   <v>       0.50000000      0.50000000      0.50000000</v>
   <v>       0.25000000      0.25000000      0.00000000</v>
   <v>       0.75000000      0.25000000      0.00000000</v>
   <v>       0.25000000      0.75000000      0.00000000</v>
   <v>       0.75000000      0.75000000      0.00000000</v>
   <v>       0.25000000      0.25000000      0.50000000</v>
   <v>       0.75000000      0.25000000      0.50000000</v>
   <v>       0.25000000      0.75000000      0.50000000</v>
   <v>       0.75000000      0.75000000      0.50000000</v>
   <v>       0.25000000      0.00000000      0.25000000</v>
   <v>       0.75000000      0.00000000      0.25000000</v>
   <v>       0.25000000      0.50000000      0.25000000</v>
   <v>       0.75000000      0.50000000      0.25000000</v>
   <v>       0.25000000      0.00000000      0.75000000</v>
   <v>       0.75000000      0.00000000      0.75000000</v>
   <v>       0.25000000      0.50000000      0.75000000</v>
   <v>       0.75000000      0.50000000      0.75000000</v>
   <v>       0.00000000      0.25000000      0.25000000</v>
   <v>       0.50000000      0.25000000      0.25000000</v>
   <v>       0.00000000      0.75000000      0.25000000</v>
   <v>       0.50000000      0.75000000      0.25000000</v>
   <v>       0.00000000      0.25000000      0.75000000</v>
   <v>       0.50000000      0.25000000      0.75000000</v>
   <v>       0.00000000      0.75000000      0.75000000</v>
   <v>       0.50000000      0.75000000      0.75000000</v>
  </varray>
 </structure>
 <calculation>
  <scstep>
   <time name="dav"> 2131.96 2136.12</time>
   <time name="total"> 2133.08 2137.23</time>
   <energy>
    <i name="alphaZ">   2770.06264378</i>
    <i name="ewald"> -28896.72802246</i>
    <i name="hartreedc">  -4989.31391367</i>
    <i name="XCdc">    468.20900749</i>
    <i name="pawpsdc">  23920.39735419</i>
    <i name="pawaedc"> -23172.13309131</i>
    <i name="eentropy">     -0.00076254</i>
    <i name="bandstr">   4676.79157339</i>
    <i name="atom">  29633.78979189</i>
    <i name="e_fr_energy">   4411.07458076</i>
    <i name="e_wo_entrp">   4411.07534330</i>
    <i name="e_0_energy">   4411.07496203</i>
   </energy>
  </scstep>
  <scstep>
   <time name="dav"> 2136.30 2139.76</time>
   <time name="total"> 2136.40 2139.86</time>
   <energy>
    <i name="e_fr_energy">    164.23258988</i>
    <i name="e_wo_entrp">    164.23331838</i>
    <i name="e_0_energy">    164.23295413</i>
   </energy>
  </scstep>
  <scstep>
   <time name="dav"> 2330.06 2333.99</time>
   <time name="total"> 2330.16 2334.09</time>
   <energy>
    <i name="e_fr_energy">    -95.68221998</i>
    <i name="e_wo_entrp">    -95.68148741</i>
    <i name="e_0_energy">    -95.68185369</i>
   </energy>
  </scstep>
  <scstep>
   <time name="dav"> 2245.83 2249.56</time>
   <time name="total"> 2245.93 2249.66</time>
   <energy>
    <i name="e_fr_energy">   -105.34537003</i>
    <i name="e_wo_entrp">   -105.34417616</i>
    <i name="e_0_energy">   -105.34477310</i>
   </energy>
  </scstep>
  <scstep>
   <time name="dav"> 2266.42 2271.01</time>
   <time name="total"> 2329.76 2334.46</time>
   <energy>
    <i name="e_fr_energy">   -105.52108704</i>
    <i name="e_wo_entrp">   -105.51990861</i>
    <i name="e_0_energy">   -105.52049783</i>
   </energy>
  </scstep>
  <scstep>
   <time name="dav"> 2221.97 2225.57</time>
   <time name="total"> 2285.97 2289.68</time>
   <energy>
    <i name="e_fr_energy">    -98.96294278</i>
    <i name="e_wo_entrp">    -98.96200916</i>
    <i name="e_0_energy">    -98.96247597</i>
   </energy>
  </scstep>
  <scstep>
   <time name="dav"> 2288.07 2291.77</time>
   <time name="total"> 2352.15 2355.95</time>
   <energy>
    <i name="e_fr_energy">    -98.77888488</i>
    <i name="e_wo_entrp">    -98.77816393</i>
    <i name="e_0_energy">    -98.77852440</i>
   </energy>
  </scstep>
  <scstep>
   <time name="dav"> 2214.49 2218.34</time>
   <time name="total"> 2279.00 2282.96</time>
   <energy>
    <i name="e_fr_energy">    -98.74131977</i>
    <i name="e_wo_entrp">    -98.74059555</i>
    <i name="e_0_energy">    -98.74095766</i>
   </energy>
  </scstep>
  <scstep>
   <time name="dav"> 2326.97 2331.48</time>
   <time name="total"> 2391.43 2396.07</time>
   <energy>
    <i name="e_fr_energy">    -98.74173124</i>
    <i name="e_wo_entrp">    -98.74104576</i>
    <i name="e_0_energy">    -98.74138850</i>
   </energy>
  </scstep>
  <scstep>
   <time name="dav"> 2196.62 2200.87</time>
   <time name="total"> 2261.12 2265.51</time>
   <energy>
    <i name="e_fr_energy">    -98.74176670</i>
    <i name="e_wo_entrp">    -98.74106705</i>
    <i name="e_0_energy">    -98.74141688</i>
   </energy>
  </scstep>
  <scstep>
   <time name="dav"> 2305.18 2310.49</time>
   <time name="total"> 2368.64 2374.09</time>
   <energy>
    <i name="e_fr_energy">    -98.74177380</i>
    <i name="e_wo_entrp">    -98.74107225</i>
    <i name="e_0_energy">    -98.74142302</i>
   </energy>
  </scstep>
  <scstep>
   <time name="dav"> 2221.81 2225.52</time>
   <time name="total"> 2286.31 2290.13</time>
   <energy>
    <i name="e_fr_energy">    -98.74177571</i>
    <i name="e_wo_entrp">    -98.74107355</i>
    <i name="e_0_energy">    -98.74142463</i>
   </energy>
  </scstep>
  <scstep>
   <time name="dav"> 2194.00 2199.05</time>
   <time name="total"> 2258.48 2263.67</time>
   <energy>
    <i name="e_fr_energy">    -98.74177430</i>
    <i name="e_wo_entrp">    -98.74107212</i>
    <i name="e_0_energy">    -98.74142321</i>
   </energy>
  </scstep>
  <scstep>
   <time name="dav"> 1427.65 1430.04</time>
   <time name="total"> 1492.17 1494.66</time>
   <energy>
    <i name="e_fr_energy">    -98.74177410</i>
    <i name="e_wo_entrp">    -98.74107196</i>
    <i name="e_0_energy">    -98.74142303</i>
   </energy>
  </scstep>
  <scstep>
   <time name="dav"> 1412.92 1415.92</time>
   <time name="total"> 1477.76 1480.98</time>
   <energy>
    <i name="e_fr_energy">    -98.74177414</i>
    <i name="e_wo_entrp">    -98.74107200</i>
    <i name="e_0_energy">    -98.74142307</i>
   </energy>
  </scstep>
  <scstep>
   <time name="dav"> 1398.31 1402.45</time>
   <time name="total"> 1399.45 1403.60</time>
   <energy>
    <i name="alphaZ">   2770.06264378</i>
    <i name="ewald"> -28896.72802246</i>
    <i name="hartreedc">  -4663.62280496</i>
    <i name="XCdc">    453.21525496</i>
    <i name="pawpsdc">  23467.15749525</i>
    <i name="pawaedc"> -22770.67962649</i>
    <i name="eentropy">     -0.00070213</i>
    <i name="bandstr">    -91.93580397</i>
    <i name="atom">  29633.78979189</i>
    <i name="e_fr_energy">    -98.74177413</i>
    <i name="e_wo_entrp">    -98.74107199</i>
    <i name="e_0_energy">    -98.74142306</i>
   </energy>
  </scstep>
  <structure>
   <crystal>
    <varray name="basis" >
     <v>       8.84644603      0.00000000      0.00000000</v>
     <v>       0.00000000      8.84644603      0.00000000</v>
     <v>       0.00000000      0.00000000      8.84644603</v>
    </varray>
    <i name="volume">    692.31939354</i>
    <varray name="rec_basis" >
     <v>       0.11303974      0.00000000      0.00000000</v>
     <v>       0.00000000      0.11303974      0.00000000</v>
     <v>       0.00000000      0.00000000      0.11303974</v>
    </varray>
   </crystal>
   <varray name="positions" >
    <v>       0.00113040      0.00000000      0.00000000</v>
    <v>       0.50000000      0.00000000      0.00000000</v>
    <v>       0.00000000      0.50000000      0.00000000</v>
    <v>       0.50000000      0.50000000      0.00000000</v>
    <v>       0.00000000      0.00000000      0.50000000</v>
    <v>       0.50000000      0.00000000      0.50000000</v>
    <v>       0.00000000      0.50000000      0.50000000</v>
    <v>       0.50000000      0.50000000      0.50000000</v>
    <v>       0.25000000      0.25000000      0.00000000</v>
    <v>       0.75000000      0.25000000      0.00000000</v>
    <v>       0.25000000      0.75000000      0.00000000</v>
    <v>       0.75000000      0.75000000      0.00000000</v>
    <v>       0.25000000      0.25000000      0.50000000</v>
    <v>       0.75000000      0.25000000      0.50000000</v>
    <v>       0.25000000      0.75000000      0.50000000</v>
    <v>       0.75000000      0.75000000      0.50000000</v>
    <v>       0.25000000      0.00000000      0.25000000</v>
    <v>       0.75000000      0.00000000      0.25000000</v>
    <v>       0.25000000      0.50000000      0.25000000</v>
    <v>       0.75000000      0.50000000      0.25000000</v>
    <v>       0.25000000      0.00000000      0.75000000</v>
    <v>       0.75000000      0.00000000      0.75000000</v>
    <v>       0.25000000      0.50000000      0.75000000</v>
    <v>       0.75000000      0.50000000      0.75000000</v>
    <v>       0.00000000      0.25000000      0.25000000</v>
    <v>       0.50000000      0.25000000      0.25000000</v>
    <v>       0.00000000      0.75000000      0.25000000</v>
    <v>       0.50000000      0.75000000      0.25000000</v>
    <v>       0.00000000      0.25000000      0.75000000</v>
    <v>       0.50000000      0.25000000      0.75000000</v>
    <v>       0.00000000      0.75000000      0.75000000</v>
    <v>       0.50000000      0.75000000      0.75000000</v>
   </varray>
  </structure>
  <varray name="forces" >
   <v>      -0.00830721     -0.00000000      0.00000000</v>
   <v>       0.00331026      0.00000000      0.00000000</v>
   <v>      -0.00047462     -0.00000000     -0.00000000</v>
   <v>      -0.00172888     -0.00000000      0.00000000</v>
   <v>      -0.00047462      0.00000000      0.00000000</v>
   <v>      -0.00172888     -0.00000000      0.00000000</v>
   <v>       0.00024291     -0.00000000      0.00000000</v>
   <v>      -0.00014877      0.00000000     -0.00000000</v>
   <v>       0.00146286      0.00220820      0.00000000</v>
   <v>       0.00134797     -0.00205674      0.00000000</v>
   <v>       0.00146286     -0.00220820     -0.00000000</v>
   <v>       0.00134797      0.00205674     -0.00000000</v>
   <v>       0.00024748      0.00001083     -0.00000000</v>
   <v>       0.00024589     -0.00000708      0.00000000</v>
   <v>       0.00024748     -0.00001083      0.00000000</v>
   <v>       0.00024589      0.00000708      0.00000000</v>
   <v>       0.00146286      0.00000000      0.00220820</v>
   <v>       0.00134797      0.00000000     -0.00205674</v>
   <v>       0.00024748      0.00000000      0.00001083</v>
   <v>       0.00024589     -0.00000000     -0.00000708</v>
   <v>       0.00146286     -0.00000000     -0.00220820</v>
   <v>       0.00134797     -0.00000000      0.00205674</v>
   <v>       0.00024748      0.00000000     -0.00001083</v>
   <v>       0.00024589     -0.00000000      0.00000708</v>
   <v>      -0.00162056      0.00000601      0.00000601</v>
   <v>       0.00064381      0.00000402      0.00000402</v>
   <v>      -0.00162056     -0.00000601      0.00000601</v>
   <v>       0.00064381     -0.00000402      0.00000402</v>
   <v>      -0.00162056      0.00000601     -0.00000601</v>
   <v>       0.00064381      0.00000402     -0.00000402</v>
   <v>      -0.00162056     -0.00000601     -0.00000601</v>
   <v>       0.00064381     -0.00000402     -0.00000402</v>
  </varray>
  <varray name="stress" >
   <v>    -139.48574113     -0.00000000     -0.00000000</v>
   <v>       0.00000000   -139.48641337      0.00000000</v>
   <v>       0.00000000      0.00000000   -139.48641337</v>
  </varray>
  <energy>
   <i name="e_fr_energy">    -98.74177413</i>
   <i name="e_wo_entrp">    -98.74142306</i>
   <i name="e_0_energy">     -0.00070213</i>
  </energy>
  <eigenvalues>
   <array>
    <dimension dim="1">band</dimension>
    <dimension dim="2">kpoint</dimension>
    <dimension dim="3">spin</dimension>
    <field>eigene</field>
    <field>occ</field>
    <set>
     <set comment="spin 1">
      <set comment="kpoint 1">
       <r>  -4.5388  1.0000</r>
       <r>  -2.5357  1.0000</r>
       <r>  -2.5329  1.0000</r>
       <r>  -2.5329  1.0000</r>
       <r>  -2.5329  1.0000</r>
       <r>  -2.5329  1.0000</r>
       <r>  -2.5301  1.0000</r>
       <r>  -2.4044  1.0000</r>
       <r>  -2.4044  1.0000</r>
       <r>  -2.4044  1.0000</r>
       <r>  -2.4044  1.0000</r>
       <r>  -2.1569  1.0000</r>
       <r>  -2.1569  1.0000</r>
       <r>  -2.1569  1.0000</r>
       <r>  -1.9613  1.0000</r>
       <r>  -1.9613  1.0000</r>
       <r>  -1.9613  1.0000</r>
       <r>  -1.5038  1.0000</r>
       <r>  -1.5026  1.0000</r>
       <r>  -1.5026  1.0000</r>
       <r>  -1.5013  1.0000</r>
       <r>  -1.5011  1.0000</r>
       <r>  -1.5010  1.0000</r>
       <r>  -1.5010  1.0000</r>
       <r>  -1.5010  1.0000</r>
       <r>  -1.5008  1.0000</r>
       <r>  -1.4995  1.0000</r>
       <r>  -1.4995  1.0000</r>
       <r>  -1.4983  1.0000</r>
       <r>  -1.3674  1.0000</r>
       <r>  -1.3659  1.0000</r>
       <r>  -1.3659  1.0000</r>
       <r>  -1.3659  1.0000</r>
       <r>  -1.3658  1.0000</r>
       <r>  -1.3643  1.0000</r>
       <r>  -1.3232  1.0000</r>
       <r>  -1.3216  1.0000</r>
       <r>  -1.3216  1.0000</r>
       <r>  -1.3216  1.0000</r>
       <r>  -1.3216  1.0000</r>
       <r>  -1.3200  1.0000</r>
       <r>  -0.9001  1.0000</r>
       <r>  -0.8982  1.0000</r>
       <r>  -0.8982  1.0000</r>
       <r>  -0.8973  1.0000</r>
       <r>  -0.8973  1.0000</r>
       <r>  -0.8973  1.0000</r>
       <r>  -0.8973  1.0000</r>
       <r>  -0.8973  1.0000</r>
       <r>  -0.8972  1.0000</r>
       <r>  -0.8964  1.0000</r>
       <r>  -0.8964  1.0000</r>
       <r>  -0.8946  1.0000</r>
       <r>  -0.8459  1.0000</r>
       <r>  -0.8459  1.0000</r>
       <r>  -0.8441  1.0000</r>
       <r>  -0.8441  1.0000</r>
       <r>  -0.8441  1.0000</r>
       <r>  -0.8441  1.0000</r>
       <r>  -0.8441  1.0000</r>
       <r>  -0.8440  1.0000</r>
       <r>  -0.8440  1.0000</r>
       <r>  -0.8439  1.0000</r>
       <r>  -0.8422  1.0000</r>
       <r>  -0.8422  1.0000</r>
       <r>  -0.6276  1.0000</r>
       <r>  -0.6250  1.0000</r>
       <r>  -0.6248  1.0000</r>
       <r>  -0.6248  1.0000</r>
       <r>  -0.6246  1.0000</r>
       <r>  -0.6246  1.0000</r>
       <r>  -0.6246  1.0000</r>
       <r>  -0.6246  1.0000</r>
       <r>  -0.6244  1.0000</r>
       <r>  -0.6244  1.0000</r>
       <r>  -0.6243  1.0000</r>
       <r>  -0.6218  1.0000</r>
       <r>  -0.6078  1.0000</r>
       <r>  -0.6078  1.0000</r>
       <r>  -0.6078  1.0000</r>
       <r>  -0.6078  1.0000</r>
       <r>  -0.6078  1.0000</r>
       <r>  -0.6078  1.0000</r>
       <r>  -0.6078  1.0000</r>
       <r>  -0.6076  1.0000</r>
       <r>  -0.5940  1.0000</r>
       <r>  -0.5940  1.0000</r>
       <r>  -0.5940  1.0000</r>
       <r>  -0.0598  1.0000</r>
       <r>  -0.0583  1.0000</r>
       <r>  -0.0582  1.0000</r>
       <r>  -0.0582  1.0000</r>
       <r>  -0.0582  1.0000</r>
       <r>  -0.0567  1.0000</r>
       <r>   0.0367  1.0000</r>
       <r>   0.0373  1.0000</r>
       <r>   0.0381  1.0000</r>
       <r>   0.0381  1.0000</r>
       <r>   0.0386  1.0000</r>
       <r>   0.0386  1.0000</r>
       <r>   0.0386  1.0000</r>
       <r>   0.0386  1.0000</r>
       <r>   0.0390  1.0000</r>
       <r>   0.0390  1.0000</r>
       <r>   0.0399  1.0000</r>
       <r>   0.0404  1.0000</r>
       <r>   0.2375  1.0000</r>
       <r>   0.2375  1.0000</r>
       <r>   0.2394  1.0000</r>
       <r>   0.2394  1.0000</r>
       <r>   0.2395  1.0000</r>
       <r>   0.2396  1.0000</r>
       <r>   0.2396  1.0000</r>
       <r>   0.2396  1.0000</r>
       <r>   0.2397  1.0000</r>
       <r>   0.2397  1.0000</r>
       <r>   0.2415  1.0000</r>
       <r>   0.2415  1.0000</r>
       <r>   0.3479  1.0000</r>
       <r>   0.3492  1.0000</r>
       <r>   0.3492  1.0000</r>
       <r>   0.3492  1.0000</r>
       <r>   0.3492  1.0000</r>
       <r>   0.3504  1.0000</r>
       <r>   0.3951  1.0000</r>
       <r>   0.3952  1.0000</r>
       <r>   0.4097  1.0000</r>
       <r>   0.4097  1.0000</r>
       <r>   0.4115  1.0000</r>
       <r>   0.4118  1.0000</r>
       <r>   0.4119  1.0000</r>
       <r>   0.4119  1.0000</r>
       <r>   0.4119  1.0000</r>
       <r>   0.4119  1.0000</r>
       <r>   0.4120  1.0000</r>
       <r>   0.4122  1.0000</r>
       <r>   0.4142  1.0000</r>
       <r>   0.4142  1.0000</r>
       <r>   0.7588  1.0000</r>
       <r>   0.7597  1.0000</r>
       <r>   0.7597  1.0000</r>
       <r>   0.7597  1.0000</r>
       <r>   0.7597  1.0000</r>
       <r>   0.7606  1.0000</r>
       <r>   1.1476  1.0000</r>
       <r>   1.1476  1.0000</r>
       <r>   1.1476  1.0000</r>
       <r>   1.1813  1.0000</r>
       <r>   1.1813  1.0000</r>
       <r>   1.1813  1.0000</r>
       <r>   1.1813  1.0000</r>
       <r>   1.1813  1.0000</r>
       <r>   1.1813  1.0000</r>
       <r>   1.1813  1.0000</r>
       <r>   1.1814  1.0000</r>
       <r>   1.3883  1.0000</r>
       <r>   1.3886  1.0000</r>
       <r>   1.3886  1.0000</r>
       <r>   1.3886  1.0000</r>
       <r>   1.3886  1.0000</r>
       <r>   1.3886  1.0000</r>
       <r>   1.3896  1.0000</r>
       <r>   1.3896  1.0000</r>
       <r>   1.3896  1.0000</r>
       <r>   1.3896  1.0000</r>
       <r>   1.3897  1.0000</r>
       <r>   1.3899  1.0000</r>
       <r>   2.5746  1.0000</r>
       <r>   2.5756  1.0000</r>
       <r>   2.5756  1.0000</r>
       <r>   2.5761  1.0000</r>
       <r>   2.5765  1.0000</r>
       <r>   2.5765  1.0000</r>
       <r>   2.5765  1.0000</r>
       <r>   2.5765  1.0000</r>
       <r>   2.5769  1.0000</r>
       <r>   2.5775  1.0000</r>
       <r>   2.5775  1.0000</r>
       <r>   2.5785  1.0000</r>
       <r>   3.1044  0.0000</r>
       <r>   3.1044  0.0000</r>
       <r>   3.1044  0.0000</r>
       <r>   3.1044  0.0000</r>
       <r>   4.6989  0.0000</r>
       <r>   4.6989  0.0000</r>
       <r>   4.6990  0.0000</r>
       <r>   5.0492  0.0000</r>
       <r>   5.0492  0.0000</r>
       <r>   5.0492  0.0000</r>
       <r>   5.0492  0.0000</r>
       <r>   6.6577  0.0000</r>
       <r>   6.6578  0.0000</r>
       <r>   6.6578  0.0000</r>
       <r>   6.6578  0.0000</r>
       <r>   6.6578  0.0000</r>
       <r>   6.6579  0.0000</r>
       <r>   7.1876  0.0000</r>
       <r>   7.1876  0.0000</r>
       <r>   7.1876  0.0000</r>
       <r>   8.6776  0.0000</r>
       <r>   8.6776  0.0000</r>
       <r>   8.6804  0.0000</r>
       <r>   8.6804  0.0000</r>
       <r>   8.6807  0.0000</r>
       <r>   8.6807  0.0000</r>
       <r>   8.6807  0.0000</r>
       <r>   8.6808  0.0000</r>
       <r>   8.6811  0.0000</r>
       <r>   8.6811  0.0000</r>
       <r>   8.6838  0.0000</r>
       <r>   8.6838  0.0000</r>
       <r>  10.3874  0.0000</r>
       <r>  10.3883  0.0000</r>
       <r>  10.3887  0.0000</r>
       <r>  10.3889  0.0000</r>
       <r>  10.3893  0.0000</r>
      </set>
      <set comment="kpoint 2">
       <r>  -4.5224  1.0000</r>
       <r>  -2.7757  1.0000</r>
       <r>  -2.5211  1.0000</r>
       <r>  -2.5211  1.0000</r>
       <r>  -2.5211  1.0000</r>
       <r>  -2.5211  1.0000</r>
       <r>  -2.3960  1.0000</r>
       <r>  -2.3960  1.0000</r>
       <r>  -2.3960  1.0000</r>
       <r>  -2.3960  1.0000</r>
       <r>  -2.3242  1.0000</r>
       <r>  -2.1521  1.0000</r>
       <r>  -2.1470  1.0000</r>
       <r>  -2.1470  1.0000</r>
       <r>  -1.9562  1.0000</r>
       <r>  -1.9534  1.0000</r>
       <r>  -1.9534  1.0000</r>
       <r>  -1.5807  1.0000</r>
       <r>  -1.5807  1.0000</r>
       <r>  -1.5807  1.0000</r>
       <r>  -1.5807  1.0000</r>
       <r>  -1.5446  1.0000</r>
       <r>  -1.5446  1.0000</r>
       <r>  -1.5446  1.0000</r>
       <r>  -1.5446  1.0000</r>
       <r>  -1.4336  1.0000</r>
       <r>  -1.4336  1.0000</r>
       <r>  -1.4336  1.0000</r>
       <r>  -1.4336  1.0000</r>
       <r>  -1.4095  1.0000</r>
       <r>  -1.3862  1.0000</r>
       <r>  -1.3862  1.0000</r>
       <r>  -1.3593  1.0000</r>
       <r>  -1.3593  1.0000</r>
       <r>  -1.3593  1.0000</r>
       <r>  -1.3593  1.0000</r>
       <r>  -1.3171  1.0000</r>
       <r>  -1.3171  1.0000</r>
       <r>  -1.3171  1.0000</r>
       <r>  -1.3171  1.0000</r>
       <r>  -1.2322  1.0000</r>
       <r>  -1.0193  1.0000</r>
       <r>  -1.0193  1.0000</r>
       <r>  -0.9339  1.0000</r>
       <r>  -0.9338  1.0000</r>
       <r>  -0.9338  1.0000</r>
       <r>  -0.9338  1.0000</r>
       <r>  -0.8695  1.0000</r>
       <r>  -0.8686  1.0000</r>
       <r>  -0.8686  1.0000</r>
       <r>  -0.8685  1.0000</r>
       <r>  -0.8667  1.0000</r>
       <r>  -0.8667  1.0000</r>
       <r>  -0.8667  1.0000</r>
       <r>  -0.8659  1.0000</r>
       <r>  -0.8518  1.0000</r>
       <r>  -0.8518  1.0000</r>
       <r>  -0.8518  1.0000</r>
       <r>  -0.8518  1.0000</r>
       <r>  -0.8433  1.0000</r>
       <r>  -0.8433  1.0000</r>
       <r>  -0.8433  1.0000</r>
       <r>  -0.8431  1.0000</r>
       <r>  -0.6632  1.0000</r>
       <r>  -0.6631  1.0000</r>
       <r>  -0.6631  1.0000</r>
       <r>  -0.6631  1.0000</r>
       <r>  -0.6557  1.0000</r>
       <r>  -0.6557  1.0000</r>
       <r>  -0.6138  1.0000</r>
       <r>  -0.6132  1.0000</r>
       <r>  -0.6132  1.0000</r>
       <r>  -0.6132  1.0000</r>
       <r>  -0.6106  1.0000</r>
       <r>  -0.6106  1.0000</r>
       <r>  -0.6106  1.0000</r>
       <r>  -0.6101  1.0000</r>
       <r>  -0.6014  1.0000</r>
       <r>  -0.6014  1.0000</r>
       <r>  -0.6014  1.0000</r>
       <r>  -0.6014  1.0000</r>
       <r>  -0.6007  1.0000</r>
       <r>  -0.5955  1.0000</r>
       <r>  -0.5955  1.0000</r>
       <r>  -0.5955  1.0000</r>
       <r>  -0.5952  1.0000</r>
       <r>  -0.5877  1.0000</r>
       <r>  -0.5877  1.0000</r>
       <r>  -0.1026  1.0000</r>
       <r>  -0.1026  1.0000</r>
       <r>  -0.1025  1.0000</r>
       <r>  -0.1025  1.0000</r>
       <r>  -0.0866  1.0000</r>
       <r>   0.0079  1.0000</r>
       <r>   0.0079  1.0000</r>
       <r>   0.0079  1.0000</r>
       <r>   0.0080  1.0000</r>
       <r>   0.0358  1.0000</r>
       <r>   0.0395  1.0000</r>
       <r>   0.0396  1.0000</r>
       <r>   0.0396  1.0000</r>
       <r>   0.0404  1.0000</r>
       <r>   0.0755  1.0000</r>
       <r>   0.0755  1.0000</r>
       <r>   0.0756  1.0000</r>
       <r>   0.0756  1.0000</r>
       <r>   0.1174  1.0000</r>
       <r>   0.1174  1.0000</r>
       <r>   0.2391  1.0000</r>
       <r>   0.2391  1.0000</r>
       <r>   0.2391  1.0000</r>
       <r>   0.2391  1.0000</r>
       <r>   0.2783  1.0000</r>
       <r>   0.2783  1.0000</r>
       <r>   0.2783  1.0000</r>
       <r>   0.2783  1.0000</r>
       <r>   0.3518  1.0000</r>
       <r>   0.3518  1.0000</r>
       <r>   0.3521  1.0000</r>
       <r>   0.3522  1.0000</r>
       <r>   0.3537  1.0000</r>
       <r>   0.3537  1.0000</r>
       <r>   0.3540  1.0000</r>
       <r>   0.3540  1.0000</r>
       <r>   0.3669  1.0000</r>
       <r>   0.3669  1.0000</r>
       <r>   0.3700  1.0000</r>
       <r>   0.3701  1.0000</r>
       <r>   0.3882  1.0000</r>
       <r>   0.3982  1.0000</r>
       <r>   0.4446  1.0000</r>
       <r>   0.4446  1.0000</r>
       <r>   0.4446  1.0000</r>
       <r>   0.4447  1.0000</r>
       <r>   0.4844  1.0000</r>
       <r>   0.4844  1.0000</r>
       <r>   0.4845  1.0000</r>
       <r>   0.4845  1.0000</r>
       <r>   0.7109  1.0000</r>
       <r>   0.7692  1.0000</r>
       <r>   0.7692  1.0000</r>
       <r>   0.7692  1.0000</r>
       <r>   0.7692  1.0000</r>
       <r>   0.8089  1.0000</r>
       <r>   1.1380  1.0000</r>
       <r>   1.1380  1.0000</r>
       <r>   1.1442  1.0000</r>
       <r>   1.1505  1.0000</r>
       <r>   1.1505  1.0000</r>
       <r>   1.1505  1.0000</r>
       <r>   1.1505  1.0000</r>
       <r>   1.1728  1.0000</r>
       <r>   1.1728  1.0000</r>
       <r>   1.1728  1.0000</r>
       <r>   1.1728  1.0000</r>
       <r>   1.3502  1.0000</r>
       <r>   1.3502  1.0000</r>
       <r>   1.3764  1.0000</r>
       <r>   1.3764  1.0000</r>
       <r>   1.3764  1.0000</r>
       <r>   1.3764  1.0000</r>
       <r>   1.3766  1.0000</r>
       <r>   1.3766  1.0000</r>
       <r>   1.3884  1.0000</r>
       <r>   1.3886  1.0000</r>
       <r>   1.3896  1.0000</r>
       <r>   1.3899  1.0000</r>
       <r>   2.3293  1.0000</r>
       <r>   2.3293  1.0000</r>
       <r>   2.3293  1.0000</r>
       <r>   2.3293  1.0000</r>
       <r>   2.5792  1.0000</r>
       <r>   2.5792  1.0000</r>
       <r>   2.5792  1.0000</r>
       <r>   2.5792  1.0000</r>
       <r>   2.8468  1.0000</r>
       <r>   2.8468  1.0000</r>
       <r>   2.8468  1.0000</r>
       <r>   2.8468  1.0000</r>
       <r>   3.0713  0.0408</r>
       <r>   3.0713  0.0408</r>
       <r>   3.0713  0.0407</r>
       <r>   3.0713  0.0407</r>
       <r>   4.4961  0.0000</r>
       <r>   4.7505  0.0000</r>
       <r>   4.7505  0.0000</r>
       <r>   5.1363  0.0000</r>
       <r>   5.1363  0.0000</r>
       <r>   5.1363  0.0000</r>
       <r>   5.1363  0.0000</r>
       <r>   6.5600  0.0000</r>
       <r>   6.5600  0.0000</r>
       <r>   6.5600  0.0000</r>
       <r>   6.5600  0.0000</r>
       <r>   6.6665  0.0000</r>
       <r>   6.6665  0.0000</r>
       <r>   7.1784  0.0000</r>
       <r>   7.1784  0.0000</r>
       <r>   7.4200  0.0000</r>
       <r>   8.2335  0.0000</r>
       <r>   8.2335  0.0000</r>
       <r>   8.6959  0.0000</r>
       <r>   8.6959  0.0000</r>
       <r>   8.6960  0.0000</r>
       <r>   8.6960  0.0000</r>
       <r>   8.7087  0.0000</r>
       <r>   8.7087  0.0000</r>
       <r>   8.7087  0.0000</r>
       <r>   8.7087  0.0000</r>
       <r>   9.1276  0.0000</r>
       <r>   9.1276  0.0000</r>
       <r>  10.0936  0.0000</r>
       <r>  10.0942  0.0000</r>
       <r>  10.0973  0.0000</r>
       <r>  10.0985  0.0000</r>
       <r>  10.0992  0.0000</r>
      </set>
      <set comment="kpoint 3">
       <r>  -4.4731  1.0000</r>
       <r>  -3.0331  1.0000</r>
       <r>  -2.4861  1.0000</r>
       <r>  -2.4861  1.0000</r>
       <r>  -2.4861  1.0000</r>
       <r>  -2.4861  1.0000</r>
       <r>  -2.3707  1.0000</r>
       <r>  -2.3707  1.0000</r>
       <r>  -2.3707  1.0000</r>
       <r>  -2.3707  1.0000</r>
       <r>  -2.1677  1.0000</r>
       <r>  -2.1380  1.0000</r>
       <r>  -2.1175  1.0000</r>
       <r>  -2.1175  1.0000</r>
       <r>  -1.9407  1.0000</r>
       <r>  -1.9298  1.0000</r>
       <r>  -1.9298  1.0000</r>
       <r>  -1.6751  1.0000</r>
       <r>  -1.6751  1.0000</r>
       <r>  -1.6751  1.0000</r>
       <r>  -1.6751  1.0000</r>
       <r>  -1.6465  1.0000</r>
       <r>  -1.6465  1.0000</r>
       <r>  -1.6465  1.0000</r>
       <r>  -1.6465  1.0000</r>
       <r>  -1.4945  1.0000</r>
       <r>  -1.4430  1.0000</r>
       <r>  -1.4430  1.0000</r>
       <r>  -1.3746  1.0000</r>
       <r>  -1.3746  1.0000</r>
       <r>  -1.3746  1.0000</r>
       <r>  -1.3746  1.0000</r>
       <r>  -1.3402  1.0000</r>
       <r>  -1.3402  1.0000</r>
       <r>  -1.3402  1.0000</r>
       <r>  -1.3402  1.0000</r>
       <r>  -1.3037  1.0000</r>
       <r>  -1.3037  1.0000</r>
       <r>  -1.3037  1.0000</r>
       <r>  -1.3037  1.0000</r>
       <r>  -1.1806  1.0000</r>
       <r>  -1.1806  1.0000</r>
       <r>  -1.1428  1.0000</r>
       <r>  -0.9769  1.0000</r>
       <r>  -0.9768  1.0000</r>
       <r>  -0.9768  1.0000</r>
       <r>  -0.9768  1.0000</r>
       <r>  -0.8737  1.0000</r>
       <r>  -0.8737  1.0000</r>
       <r>  -0.8737  1.0000</r>
       <r>  -0.8737  1.0000</r>
       <r>  -0.8483  1.0000</r>
       <r>  -0.8478  1.0000</r>
       <r>  -0.8478  1.0000</r>
       <r>  -0.8478  1.0000</r>
       <r>  -0.8411  1.0000</r>
       <r>  -0.8410  1.0000</r>
       <r>  -0.8410  1.0000</r>
       <r>  -0.8407  1.0000</r>
       <r>  -0.8135  1.0000</r>
       <r>  -0.8135  1.0000</r>
       <r>  -0.8135  1.0000</r>
       <r>  -0.8134  1.0000</r>
       <r>  -0.7246  1.0000</r>
       <r>  -0.7246  1.0000</r>
       <r>  -0.7246  1.0000</r>
       <r>  -0.7246  1.0000</r>
       <r>  -0.6205  1.0000</r>
       <r>  -0.6197  1.0000</r>
       <r>  -0.6190  1.0000</r>
       <r>  -0.6190  1.0000</r>
       <r>  -0.6189  1.0000</r>
       <r>  -0.6181  1.0000</r>
       <r>  -0.6181  1.0000</r>
       <r>  -0.6181  1.0000</r>
       <r>  -0.6173  1.0000</r>
       <r>  -0.5824  1.0000</r>
       <r>  -0.5824  1.0000</r>
       <r>  -0.5824  1.0000</r>
       <r>  -0.5824  1.0000</r>
       <r>  -0.5689  1.0000</r>
       <r>  -0.5689  1.0000</r>
       <r>  -0.4989  1.0000</r>
       <r>  -0.4989  1.0000</r>
       <r>  -0.4989  1.0000</r>
       <r>  -0.4988  1.0000</r>
       <r>  -0.4550  1.0000</r>
       <r>  -0.4550  1.0000</r>
       <r>  -0.1937  1.0000</r>
       <r>  -0.1937  1.0000</r>
       <r>  -0.1937  1.0000</r>
       <r>  -0.1937  1.0000</r>
       <r>  -0.0697  1.0000</r>
       <r>  -0.0628  1.0000</r>
       <r>  -0.0628  1.0000</r>
       <r>  -0.0628  1.0000</r>
       <r>  -0.0628  1.0000</r>
       <r>   0.0018  1.0000</r>
       <r>   0.0018  1.0000</r>
       <r>   0.0756  1.0000</r>
       <r>   0.0757  1.0000</r>
       <r>   0.0757  1.0000</r>
       <r>   0.0757  1.0000</r>
       <r>   0.1378  1.0000</r>
       <r>   0.1378  1.0000</r>
       <r>   0.1378  1.0000</r>
       <r>   0.1378  1.0000</r>
       <r>   0.2172  1.0000</r>
       <r>   0.2379  1.0000</r>
       <r>   0.2379  1.0000</r>
       <r>   0.2379  1.0000</r>
       <r>   0.2379  1.0000</r>
       <r>   0.3095  1.0000</r>
       <r>   0.3095  1.0000</r>
       <r>   0.3096  1.0000</r>
       <r>   0.3096  1.0000</r>
       <r>   0.3459  1.0000</r>
       <r>   0.3460  1.0000</r>
       <r>   0.3460  1.0000</r>
       <r>   0.3460  1.0000</r>
       <r>   0.3601  1.0000</r>
       <r>   0.3601  1.0000</r>
       <r>   0.3601  1.0000</r>
       <r>   0.3601  1.0000</r>
       <r>   0.3675  1.0000</r>
       <r>   0.4072  1.0000</r>
       <r>   0.4283  1.0000</r>
       <r>   0.4283  1.0000</r>
       <r>   0.4970  1.0000</r>
       <r>   0.4970  1.0000</r>
       <r>   0.5214  1.0000</r>
       <r>   0.5214  1.0000</r>
       <r>   0.5214  1.0000</r>
       <r>   0.5214  1.0000</r>
       <r>   0.5704  1.0000</r>
       <r>   0.5704  1.0000</r>
       <r>   0.5705  1.0000</r>
       <r>   0.5705  1.0000</r>
       <r>   0.6632  1.0000</r>
       <r>   0.8044  1.0000</r>
       <r>   0.8044  1.0000</r>
       <r>   0.8044  1.0000</r>
       <r>   0.8044  1.0000</r>
       <r>   0.8577  1.0000</r>
       <r>   1.0604  1.0000</r>
       <r>   1.0604  1.0000</r>
       <r>   1.0604  1.0000</r>
       <r>   1.0604  1.0000</r>
       <r>   1.1092  1.0000</r>
       <r>   1.1092  1.0000</r>
       <r>   1.1340  1.0000</r>
       <r>   1.1475  1.0000</r>
       <r>   1.1475  1.0000</r>
       <r>   1.1475  1.0000</r>
       <r>   1.1475  1.0000</r>
       <r>   1.2417  1.0000</r>
       <r>   1.2417  1.0000</r>
       <r>   1.3377  1.0000</r>
       <r>   1.3377  1.0000</r>
       <r>   1.3377  1.0000</r>
       <r>   1.3377  1.0000</r>
       <r>   1.3409  1.0000</r>
       <r>   1.3409  1.0000</r>
       <r>   1.3884  1.0000</r>
       <r>   1.3887  1.0000</r>
       <r>   1.3896  1.0000</r>
       <r>   1.3898  1.0000</r>
       <r>   2.1007  1.0000</r>
       <r>   2.1007  1.0000</r>
       <r>   2.1007  1.0000</r>
       <r>   2.1007  1.0000</r>
       <r>   2.5875  1.0000</r>
       <r>   2.5875  1.0000</r>
       <r>   2.5875  1.0000</r>
       <r>   2.5875  1.0000</r>
       <r>   2.9913  1.0000</r>
       <r>   2.9913  1.0000</r>
       <r>   2.9913  1.0000</r>
       <r>   2.9913  1.0000</r>
       <r>   3.1445  0.0000</r>
       <r>   3.1445  0.0000</r>
       <r>   3.1445  0.0000</r>
       <r>   3.1445  0.0000</r>
       <r>   4.0276  0.0000</r>
       <r>   4.8983  0.0000</r>
       <r>   4.8983  0.0000</r>
       <r>   5.3761  0.0000</r>
       <r>   5.3761  0.0000</r>
       <r>   5.3761  0.0000</r>
       <r>   5.3761  0.0000</r>
       <r>   6.2969  0.0000</r>
       <r>   6.2969  0.0000</r>
       <r>   6.2969  0.0000</r>
       <r>   6.2969  0.0000</r>
       <r>   6.6920  0.0000</r>
       <r>   6.6920  0.0000</r>
       <r>   7.1513  0.0000</r>
       <r>   7.1513  0.0000</r>
       <r>   7.7893  0.0000</r>
       <r>   7.7893  0.0000</r>
       <r>   7.9772  0.0000</r>
       <r>   8.7367  0.0000</r>
       <r>   8.7367  0.0000</r>
       <r>   8.7368  0.0000</r>
       <r>   8.7368  0.0000</r>
       <r>   8.7917  0.0000</r>
       <r>   8.7917  0.0000</r>
       <r>   8.7917  0.0000</r>
       <r>   8.7917  0.0000</r>
       <r>   9.5400  0.0000</r>
       <r>   9.5400  0.0000</r>
       <r>   9.5401  0.0000</r>
       <r>   9.5401  0.0000</r>
       <r>   9.5703  0.0000</r>
       <r>   9.5703  0.0000</r>
       <r>   9.8323  0.0000</r>
      </set>
      <set comment="kpoint 4">
       <r>  -4.3913  1.0000</r>
       <r>  -3.2893  1.0000</r>
       <r>  -2.4289  1.0000</r>
       <r>  -2.4288  1.0000</r>
       <r>  -2.4288  1.0000</r>
       <r>  -2.4288  1.0000</r>
       <r>  -2.3288  1.0000</r>
       <r>  -2.3288  1.0000</r>
       <r>  -2.3288  1.0000</r>
       <r>  -2.3288  1.0000</r>
       <r>  -2.1161  1.0000</r>
       <r>  -2.0706  1.0000</r>
       <r>  -2.0693  1.0000</r>
       <r>  -2.0689  1.0000</r>
       <r>  -1.9152  1.0000</r>
       <r>  -1.8905  1.0000</r>
       <r>  -1.8904  1.0000</r>
       <r>  -1.7839  1.0000</r>
       <r>  -1.7839  1.0000</r>
       <r>  -1.7839  1.0000</r>
       <r>  -1.7839  1.0000</r>
       <r>  -1.7682  1.0000</r>
       <r>  -1.7681  1.0000</r>
       <r>  -1.7681  1.0000</r>
       <r>  -1.7681  1.0000</r>
       <r>  -1.5754  1.0000</r>
       <r>  -1.5263  1.0000</r>
       <r>  -1.5263  1.0000</r>
       <r>  -1.3276  1.0000</r>
       <r>  -1.3276  1.0000</r>
       <r>  -1.3215  1.0000</r>
       <r>  -1.3215  1.0000</r>
       <r>  -1.3214  1.0000</r>
       <r>  -1.3214  1.0000</r>
       <r>  -1.3103  1.0000</r>
       <r>  -1.3103  1.0000</r>
       <r>  -1.3103  1.0000</r>
       <r>  -1.3102  1.0000</r>
       <r>  -1.2817  1.0000</r>
       <r>  -1.2817  1.0000</r>
       <r>  -1.2817  1.0000</r>
       <r>  -1.2817  1.0000</r>
       <r>  -1.0551  1.0000</r>
       <r>  -1.0246  1.0000</r>
       <r>  -1.0246  1.0000</r>
       <r>  -1.0246  1.0000</r>
       <r>  -1.0245  1.0000</r>
       <r>  -0.9058  1.0000</r>
       <r>  -0.9057  1.0000</r>
       <r>  -0.9057  1.0000</r>
       <r>  -0.9057  1.0000</r>
       <r>  -0.8385  1.0000</r>
       <r>  -0.8377  1.0000</r>
       <r>  -0.8377  1.0000</r>
       <r>  -0.8377  1.0000</r>
       <r>  -0.8344  1.0000</r>
       <r>  -0.8344  1.0000</r>
       <r>  -0.8344  1.0000</r>
       <r>  -0.8336  1.0000</r>
       <r>  -0.7983  1.0000</r>
       <r>  -0.7982  1.0000</r>
       <r>  -0.7982  1.0000</r>
       <r>  -0.7982  1.0000</r>
       <r>  -0.7737  1.0000</r>
       <r>  -0.7737  1.0000</r>
       <r>  -0.7737  1.0000</r>
       <r>  -0.7736  1.0000</r>
       <r>  -0.6531  1.0000</r>
       <r>  -0.6323  1.0000</r>
       <r>  -0.6323  1.0000</r>
       <r>  -0.6323  1.0000</r>
       <r>  -0.6322  1.0000</r>
       <r>  -0.6218  1.0000</r>
       <r>  -0.6217  1.0000</r>
       <r>  -0.6217  1.0000</r>
       <r>  -0.6216  1.0000</r>
       <r>  -0.5510  1.0000</r>
       <r>  -0.5510  1.0000</r>
       <r>  -0.5510  1.0000</r>
       <r>  -0.5509  1.0000</r>
       <r>  -0.5377  1.0000</r>
       <r>  -0.5377  1.0000</r>
       <r>  -0.3389  1.0000</r>
       <r>  -0.3389  1.0000</r>
       <r>  -0.3389  1.0000</r>
       <r>  -0.3388  1.0000</r>
       <r>  -0.2926  1.0000</r>
       <r>  -0.2926  1.0000</r>
       <r>  -0.2926  1.0000</r>
       <r>  -0.2926  1.0000</r>
       <r>  -0.2434  1.0000</r>
       <r>  -0.2434  1.0000</r>
       <r>  -0.1472  1.0000</r>
       <r>  -0.1471  1.0000</r>
       <r>  -0.1471  1.0000</r>
       <r>  -0.1471  1.0000</r>
       <r>  -0.1058  1.0000</r>
       <r>  -0.1058  1.0000</r>
       <r>  -0.0249  1.0000</r>
       <r>   0.1335  1.0000</r>
       <r>   0.1335  1.0000</r>
       <r>   0.1335  1.0000</r>
       <r>   0.1335  1.0000</r>
       <r>   0.2076  1.0000</r>
       <r>   0.2076  1.0000</r>
       <r>   0.2076  1.0000</r>
       <r>   0.2076  1.0000</r>
       <r>   0.2364  1.0000</r>
       <r>   0.2364  1.0000</r>
       <r>   0.2364  1.0000</r>
       <r>   0.2364  1.0000</r>
       <r>   0.2780  1.0000</r>
       <r>   0.2780  1.0000</r>
       <r>   0.2780  1.0000</r>
       <r>   0.2780  1.0000</r>
       <r>   0.3338  1.0000</r>
       <r>   0.3690  1.0000</r>
       <r>   0.3691  1.0000</r>
       <r>   0.3691  1.0000</r>
       <r>   0.3691  1.0000</r>
       <r>   0.3903  1.0000</r>
       <r>   0.3903  1.0000</r>
       <r>   0.3903  1.0000</r>
       <r>   0.3903  1.0000</r>
       <r>   0.4221  1.0000</r>
       <r>   0.4915  1.0000</r>
       <r>   0.5137  1.0000</r>
       <r>   0.5137  1.0000</r>
       <r>   0.6148  1.0000</r>
       <r>   0.6153  1.0000</r>
       <r>   0.6153  1.0000</r>
       <r>   0.6153  1.0000</r>
       <r>   0.6181  1.0000</r>
       <r>   0.6284  1.0000</r>
       <r>   0.6284  1.0000</r>
       <r>   0.6679  1.0000</r>
       <r>   0.6679  1.0000</r>
       <r>   0.6679  1.0000</r>
       <r>   0.6679  1.0000</r>
       <r>   0.8793  1.0000</r>
       <r>   0.8793  1.0000</r>
       <r>   0.8793  1.0000</r>
       <r>   0.8793  1.0000</r>
       <r>   0.9052  1.0000</r>
       <r>   0.9183  1.0000</r>
       <r>   0.9183  1.0000</r>
       <r>   0.9183  1.0000</r>
       <r>   0.9183  1.0000</r>
       <r>   1.0618  1.0000</r>
       <r>   1.0618  1.0000</r>
       <r>   1.0796  1.0000</r>
       <r>   1.0796  1.0000</r>
       <r>   1.1062  1.0000</r>
       <r>   1.1062  1.0000</r>
       <r>   1.1062  1.0000</r>
       <r>   1.1062  1.0000</r>
       <r>   1.1172  1.0000</r>
       <r>   1.2760  1.0000</r>
       <r>   1.2760  1.0000</r>
       <r>   1.2760  1.0000</r>
       <r>   1.2760  1.0000</r>
       <r>   1.2832  1.0000</r>
       <r>   1.2832  1.0000</r>
       <r>   1.3884  1.0000</r>
       <r>   1.3887  1.0000</r>
       <r>   1.3895  1.0000</r>
       <r>   1.3898  1.0000</r>
       <r>   1.8867  1.0000</r>
       <r>   1.8867  1.0000</r>
       <r>   1.8867  1.0000</r>
       <r>   1.8867  1.0000</r>
       <r>   2.6019  1.0000</r>
       <r>   2.6019  1.0000</r>
       <r>   2.6019  1.0000</r>
       <r>   2.6019  1.0000</r>
       <r>   2.8983  1.0000</r>
       <r>   2.8984  1.0000</r>
       <r>   2.8984  1.0000</r>
       <r>   2.8984  1.0000</r>
       <r>   3.4652  0.0000</r>
       <r>   3.4726  0.0000</r>
       <r>   3.4726  0.0000</r>
       <r>   3.4726  0.0000</r>
       <r>   3.4726  0.0000</r>
       <r>   5.1257  0.0000</r>
       <r>   5.1257  0.0000</r>
       <r>   5.7271  0.0000</r>
       <r>   5.7271  0.0000</r>
       <r>   5.7271  0.0000</r>
       <r>   5.7271  0.0000</r>
       <r>   5.9291  0.0000</r>
       <r>   5.9291  0.0000</r>
       <r>   5.9291  0.0000</r>
       <r>   5.9291  0.0000</r>
       <r>   6.7329  0.0000</r>
       <r>   6.7329  0.0000</r>
       <r>   7.1083  0.0000</r>
       <r>   7.1083  0.0000</r>
       <r>   7.3516  0.0000</r>
       <r>   7.3516  0.0000</r>
       <r>   8.6885  0.0000</r>
       <r>   8.7966  0.0000</r>
       <r>   8.7966  0.0000</r>
       <r>   8.7967  0.0000</r>
       <r>   8.7967  0.0000</r>
       <r>   8.9268  0.0000</r>
       <r>   8.9268  0.0000</r>
       <r>   8.9271  0.0000</r>
       <r>   8.9271  0.0000</r>
       <r>   8.9312  0.0000</r>
       <r>   8.9312  0.0000</r>
       <r>   8.9315  0.0000</r>
       <r>   8.9315  0.0000</r>
       <r>   9.6027  0.0000</r>
       <r>   9.6027  0.0000</r>
       <r>   9.6027  0.0000</r>
      </set>
      <set comment="kpoint 5">
       <r>  -4.2777  1.0000</r>
       <r>  -3.5336  1.0000</r>
       <r>  -2.3511  1.0000</r>
       <r>  -2.3510  1.0000</r>
       <r>  -2.3510  1.0000</r>
       <r>  -2.3510  1.0000</r>
       <r>  -2.2706  1.0000</r>
       <r>  -2.2706  1.0000</r>
       <r>  -2.2706  1.0000</r>
       <r>  -2.2706  1.0000</r>
       <r>  -2.0884  1.0000</r>
       <r>  -2.0249  1.0000</r>
       <r>  -2.0037  1.0000</r>
       <r>  -2.0037  1.0000</r>
       <r>  -1.9030  1.0000</r>
       <r>  -1.9030  1.0000</r>
       <r>  -1.9029  1.0000</r>
       <r>  -1.9029  1.0000</r>
       <r>  -1.8904  1.0000</r>
       <r>  -1.8903  1.0000</r>
       <r>  -1.8903  1.0000</r>
       <r>  -1.8903  1.0000</r>
       <r>  -1.8798  1.0000</r>
       <r>  -1.8354  1.0000</r>
       <r>  -1.8354  1.0000</r>
       <r>  -1.6508  1.0000</r>
       <r>  -1.6247  1.0000</r>
       <r>  -1.6247  1.0000</r>
       <r>  -1.4596  1.0000</r>
       <r>  -1.4596  1.0000</r>
       <r>  -1.2749  1.0000</r>
       <r>  -1.2741  1.0000</r>
       <r>  -1.2741  1.0000</r>
       <r>  -1.2741  1.0000</r>
       <r>  -1.2734  1.0000</r>
       <r>  -1.2733  1.0000</r>
       <r>  -1.2733  1.0000</r>
       <r>  -1.2726  1.0000</r>
       <r>  -1.2518  1.0000</r>
       <r>  -1.2518  1.0000</r>
       <r>  -1.2518  1.0000</r>
       <r>  -1.2518  1.0000</r>
       <r>  -1.0746  1.0000</r>
       <r>  -1.0745  1.0000</r>
       <r>  -1.0745  1.0000</r>
       <r>  -1.0745  1.0000</r>
       <r>  -0.9706  1.0000</r>
       <r>  -0.9414  1.0000</r>
       <r>  -0.9414  1.0000</r>
       <r>  -0.9414  1.0000</r>
       <r>  -0.9414  1.0000</r>
       <r>  -0.8726  1.0000</r>
       <r>  -0.8726  1.0000</r>
       <r>  -0.8726  1.0000</r>
       <r>  -0.8726  1.0000</r>
       <r>  -0.8341  1.0000</r>
       <r>  -0.8336  1.0000</r>
       <r>  -0.8336  1.0000</r>
       <r>  -0.8336  1.0000</r>
       <r>  -0.8274  1.0000</r>
       <r>  -0.8273  1.0000</r>
       <r>  -0.8273  1.0000</r>
       <r>  -0.8269  1.0000</r>
       <r>  -0.7440  1.0000</r>
       <r>  -0.7440  1.0000</r>
       <r>  -0.7440  1.0000</r>
       <r>  -0.7440  1.0000</r>
       <r>  -0.6976  1.0000</r>
       <r>  -0.6498  1.0000</r>
       <r>  -0.6498  1.0000</r>
       <r>  -0.6498  1.0000</r>
       <r>  -0.6498  1.0000</r>
       <r>  -0.6115  1.0000</r>
       <r>  -0.6115  1.0000</r>
       <r>  -0.6115  1.0000</r>
       <r>  -0.6115  1.0000</r>
       <r>  -0.5076  1.0000</r>
       <r>  -0.5076  1.0000</r>
       <r>  -0.5076  1.0000</r>
       <r>  -0.5076  1.0000</r>
       <r>  -0.4942  1.0000</r>
       <r>  -0.4942  1.0000</r>
       <r>  -0.3857  1.0000</r>
       <r>  -0.3857  1.0000</r>
       <r>  -0.3857  1.0000</r>
       <r>  -0.3857  1.0000</r>
       <r>  -0.2327  1.0000</r>
       <r>  -0.2327  1.0000</r>
       <r>  -0.2327  1.0000</r>
       <r>  -0.2326  1.0000</r>
       <r>  -0.2045  1.0000</r>
       <r>  -0.2045  1.0000</r>
       <r>  -0.1404  1.0000</r>
       <r>  -0.1404  1.0000</r>
       <r>  -0.1404  1.0000</r>
       <r>  -0.1404  1.0000</r>
       <r>  -0.0227  1.0000</r>
       <r>  -0.0227  1.0000</r>
       <r>   0.0354  1.0000</r>
       <r>   0.2000  1.0000</r>
       <r>   0.2000  1.0000</r>
       <r>   0.2000  1.0000</r>
       <r>   0.2000  1.0000</r>
       <r>   0.2351  1.0000</r>
       <r>   0.2351  1.0000</r>
       <r>   0.2351  1.0000</r>
       <r>   0.2352  1.0000</r>
       <r>   0.2570  1.0000</r>
       <r>   0.2570  1.0000</r>
       <r>   0.2570  1.0000</r>
       <r>   0.2570  1.0000</r>
       <r>   0.2713  1.0000</r>
       <r>   0.2713  1.0000</r>
       <r>   0.2713  1.0000</r>
       <r>   0.2714  1.0000</r>
       <r>   0.2883  1.0000</r>
       <r>   0.3743  1.0000</r>
       <r>   0.3744  1.0000</r>
       <r>   0.3744  1.0000</r>
       <r>   0.3744  1.0000</r>
       <r>   0.3960  1.0000</r>
       <r>   0.3960  1.0000</r>
       <r>   0.3961  1.0000</r>
       <r>   0.3961  1.0000</r>
       <r>   0.4427  1.0000</r>
       <r>   0.5747  1.0000</r>
       <r>   0.6143  1.0000</r>
       <r>   0.6144  1.0000</r>
       <r>   0.7135  1.0000</r>
       <r>   0.7135  1.0000</r>
       <r>   0.7135  1.0000</r>
       <r>   0.7135  1.0000</r>
       <r>   0.7358  1.0000</r>
       <r>   0.7358  1.0000</r>
       <r>   0.7358  1.0000</r>
       <r>   0.7358  1.0000</r>
       <r>   0.7584  1.0000</r>
       <r>   0.7584  1.0000</r>
       <r>   0.7736  1.0000</r>
       <r>   0.7736  1.0000</r>
       <r>   0.7736  1.0000</r>
       <r>   0.7736  1.0000</r>
       <r>   0.8535  1.0000</r>
       <r>   0.8818  1.0000</r>
       <r>   0.8818  1.0000</r>
       <r>   0.9505  1.0000</r>
       <r>   0.9961  1.0000</r>
       <r>   0.9966  1.0000</r>
       <r>   0.9966  1.0000</r>
       <r>   0.9966  1.0000</r>
       <r>   0.9969  1.0000</r>
       <r>   0.9975  1.0000</r>
       <r>   1.0500  1.0000</r>
       <r>   1.0500  1.0000</r>
       <r>   1.0500  1.0000</r>
       <r>   1.0500  1.0000</r>
       <r>   1.0942  1.0000</r>
       <r>   1.1950  1.0000</r>
       <r>   1.1950  1.0000</r>
       <r>   1.1950  1.0000</r>
       <r>   1.1950  1.0000</r>
       <r>   1.2056  1.0000</r>
       <r>   1.2056  1.0000</r>
       <r>   1.3885  1.0000</r>
       <r>   1.3889  1.0000</r>
       <r>   1.3894  1.0000</r>
       <r>   1.3897  1.0000</r>
       <r>   1.6847  1.0000</r>
       <r>   1.6847  1.0000</r>
       <r>   1.6847  1.0000</r>
       <r>   1.6847  1.0000</r>
       <r>   2.6231  1.0000</r>
       <r>   2.6232  1.0000</r>
       <r>   2.6232  1.0000</r>
       <r>   2.6232  1.0000</r>
       <r>   2.8140  1.0000</r>
       <r>   2.8140  1.0000</r>
       <r>   2.8140  1.0000</r>
       <r>   2.8140  1.0000</r>
       <r>   2.8847  1.0000</r>
       <r>   3.8325  0.0000</r>
       <r>   3.8325  0.0000</r>
       <r>   3.8325  0.0000</r>
       <r>   3.8325  0.0000</r>
       <r>   5.4144  0.0000</r>
       <r>   5.4144  0.0000</r>
       <r>   5.5092  0.0000</r>
       <r>   5.5092  0.0000</r>
       <r>   5.5092  0.0000</r>
       <r>   5.5092  0.0000</r>
       <r>   6.1558  0.0000</r>
       <r>   6.1558  0.0000</r>
       <r>   6.1558  0.0000</r>
       <r>   6.1558  0.0000</r>
       <r>   6.7866  0.0000</r>
       <r>   6.7866  0.0000</r>
       <r>   6.9242  0.0000</r>
       <r>   6.9242  0.0000</r>
       <r>   7.0524  0.0000</r>
       <r>   7.0524  0.0000</r>
       <r>   8.3233  0.0000</r>
       <r>   8.3233  0.0000</r>
       <r>   8.3233  0.0000</r>
       <r>   8.3233  0.0000</r>
       <r>   8.8742  0.0000</r>
       <r>   8.8742  0.0000</r>
       <r>   8.8742  0.0000</r>
       <r>   8.8742  0.0000</r>
       <r>   9.1112  0.0000</r>
       <r>   9.1113  0.0000</r>
       <r>   9.1113  0.0000</r>
       <r>   9.1113  0.0000</r>
       <r>   9.4037  0.0000</r>
       <r>   9.4037  0.0000</r>
       <r>   9.4037  0.0000</r>
       <r>   9.4040  0.0000</r>
      </set>
      <set comment="kpoint 6">
       <r>  -4.1333  1.0000</r>
       <r>  -3.7585  1.0000</r>
       <r>  -2.2553  1.0000</r>
       <r>  -2.2553  1.0000</r>
       <r>  -2.2553  1.0000</r>
       <r>  -2.2553  1.0000</r>
       <r>  -2.1966  1.0000</r>
       <r>  -2.1966  1.0000</r>
       <r>  -2.1966  1.0000</r>
       <r>  -2.1966  1.0000</r>
       <r>  -2.0586  1.0000</r>
       <r>  -2.0258  1.0000</r>
       <r>  -2.0257  1.0000</r>
       <r>  -2.0257  1.0000</r>
       <r>  -2.0257  1.0000</r>
       <r>  -2.0171  1.0000</r>
       <r>  -2.0048  1.0000</r>
       <r>  -2.0048  1.0000</r>
       <r>  -2.0048  1.0000</r>
       <r>  -2.0047  1.0000</r>
       <r>  -1.9228  1.0000</r>
       <r>  -1.9228  1.0000</r>
       <r>  -1.8351  1.0000</r>
       <r>  -1.7647  1.0000</r>
       <r>  -1.7647  1.0000</r>
       <r>  -1.7284  1.0000</r>
       <r>  -1.7284  1.0000</r>
       <r>  -1.7199  1.0000</r>
       <r>  -1.5767  1.0000</r>
       <r>  -1.5767  1.0000</r>
       <r>  -1.2392  1.0000</r>
       <r>  -1.2383  1.0000</r>
       <r>  -1.2383  1.0000</r>
       <r>  -1.2383  1.0000</r>
       <r>  -1.2370  1.0000</r>
       <r>  -1.2370  1.0000</r>
       <r>  -1.2370  1.0000</r>
       <r>  -1.2362  1.0000</r>
       <r>  -1.2147  1.0000</r>
       <r>  -1.2147  1.0000</r>
       <r>  -1.2147  1.0000</r>
       <r>  -1.2147  1.0000</r>
       <r>  -1.1244  1.0000</r>
       <r>  -1.1243  1.0000</r>
       <r>  -1.1243  1.0000</r>
       <r>  -1.1243  1.0000</r>
       <r>  -0.9694  1.0000</r>
       <r>  -0.9694  1.0000</r>
       <r>  -0.9694  1.0000</r>
       <r>  -0.9694  1.0000</r>
       <r>  -0.9357  1.0000</r>
       <r>  -0.9357  1.0000</r>
       <r>  -0.9357  1.0000</r>
       <r>  -0.9357  1.0000</r>
       <r>  -0.8910  1.0000</r>
       <r>  -0.8301  1.0000</r>
       <r>  -0.8295  1.0000</r>
       <r>  -0.8295  1.0000</r>
       <r>  -0.8295  1.0000</r>
       <r>  -0.8251  1.0000</r>
       <r>  -0.8251  1.0000</r>
       <r>  -0.8251  1.0000</r>
       <r>  -0.8244  1.0000</r>
       <r>  -0.7530  1.0000</r>
       <r>  -0.7181  1.0000</r>
       <r>  -0.7181  1.0000</r>
       <r>  -0.7180  1.0000</r>
       <r>  -0.7180  1.0000</r>
       <r>  -0.6706  1.0000</r>
       <r>  -0.6706  1.0000</r>
       <r>  -0.6705  1.0000</r>
       <r>  -0.6705  1.0000</r>
       <r>  -0.5823  1.0000</r>
       <r>  -0.5823  1.0000</r>
       <r>  -0.5823  1.0000</r>
       <r>  -0.5822  1.0000</r>
       <r>  -0.4673  1.0000</r>
       <r>  -0.4673  1.0000</r>
       <r>  -0.4673  1.0000</r>
       <r>  -0.4672  1.0000</r>
       <r>  -0.4529  1.0000</r>
       <r>  -0.4529  1.0000</r>
       <r>  -0.4529  1.0000</r>
       <r>  -0.4529  1.0000</r>
       <r>  -0.4387  1.0000</r>
       <r>  -0.4387  1.0000</r>
       <r>  -0.3139  1.0000</r>
       <r>  -0.3139  1.0000</r>
       <r>  -0.3139  1.0000</r>
       <r>  -0.3139  1.0000</r>
       <r>  -0.2934  1.0000</r>
       <r>  -0.2934  1.0000</r>
       <r>   0.0776  1.0000</r>
       <r>   0.0776  1.0000</r>
       <r>   0.0776  1.0000</r>
       <r>   0.0776  1.0000</r>
       <r>   0.1024  1.0000</r>
       <r>   0.2046  1.0000</r>
       <r>   0.2046  1.0000</r>
       <r>   0.2327  1.0000</r>
       <r>   0.2351  1.0000</r>
       <r>   0.2351  1.0000</r>
       <r>   0.2351  1.0000</r>
       <r>   0.2352  1.0000</r>
       <r>   0.2443  1.0000</r>
       <r>   0.2443  1.0000</r>
       <r>   0.2443  1.0000</r>
       <r>   0.2443  1.0000</r>
       <r>   0.2660  1.0000</r>
       <r>   0.2660  1.0000</r>
       <r>   0.2660  1.0000</r>
       <r>   0.2660  1.0000</r>
       <r>   0.3212  1.0000</r>
       <r>   0.3212  1.0000</r>
       <r>   0.3212  1.0000</r>
       <r>   0.3212  1.0000</r>
       <r>   0.3699  1.0000</r>
       <r>   0.3701  1.0000</r>
       <r>   0.3705  1.0000</r>
       <r>   0.3705  1.0000</r>
       <r>   0.3712  1.0000</r>
       <r>   0.3712  1.0000</r>
       <r>   0.3716  1.0000</r>
       <r>   0.3718  1.0000</r>
       <r>   0.4687  1.0000</r>
       <r>   0.5265  1.0000</r>
       <r>   0.5265  1.0000</r>
       <r>   0.5265  1.0000</r>
       <r>   0.5265  1.0000</r>
       <r>   0.5352  1.0000</r>
       <r>   0.6633  1.0000</r>
       <r>   0.6633  1.0000</r>
       <r>   0.7200  1.0000</r>
       <r>   0.7200  1.0000</r>
       <r>   0.8095  1.0000</r>
       <r>   0.8095  1.0000</r>
       <r>   0.8095  1.0000</r>
       <r>   0.8095  1.0000</r>
       <r>   0.8837  1.0000</r>
       <r>   0.8837  1.0000</r>
       <r>   0.8837  1.0000</r>
       <r>   0.8837  1.0000</r>
       <r>   0.8843  1.0000</r>
       <r>   0.8843  1.0000</r>
       <r>   0.9163  1.0000</r>
       <r>   0.9163  1.0000</r>
       <r>   0.9803  1.0000</r>
       <r>   0.9804  1.0000</r>
       <r>   0.9804  1.0000</r>
       <r>   0.9804  1.0000</r>
       <r>   0.9929  1.0000</r>
       <r>   1.0654  1.0000</r>
       <r>   1.0994  1.0000</r>
       <r>   1.0994  1.0000</r>
       <r>   1.0994  1.0000</r>
       <r>   1.0994  1.0000</r>
       <r>   1.1111  1.0000</r>
       <r>   1.1111  1.0000</r>
       <r>   1.1447  1.0000</r>
       <r>   1.1447  1.0000</r>
       <r>   1.1447  1.0000</r>
       <r>   1.1447  1.0000</r>
       <r>   1.2885  1.0000</r>
       <r>   1.3885  1.0000</r>
       <r>   1.3890  1.0000</r>
       <r>   1.3892  1.0000</r>
       <r>   1.3897  1.0000</r>
       <r>   1.4931  1.0000</r>
       <r>   1.4931  1.0000</r>
       <r>   1.4931  1.0000</r>
       <r>   1.4931  1.0000</r>
[...]
       <r>   0.1018  1.0000</r>
       <r>   0.1018  1.0000</r>
       <r>   0.1021  1.0000</r>
       <r>   0.1021  1.0000</r>
       <r>   0.1021  1.0000</r>
       <r>   0.1021  1.0000</r>
       <r>   0.1024  1.0000</r>
       <r>   0.1024  1.0000</r>
       <r>   0.3478  1.0000</r>
       <r>   0.3480  1.0000</r>
       <r>   0.3480  1.0000</r>
       <r>   0.3481  1.0000</r>
       <r>   0.3911  1.0000</r>
       <r>   0.3911  1.0000</r>
       <r>   0.3911  1.0000</r>
       <r>   0.3912  1.0000</r>
       <r>   0.3957  1.0000</r>
       <r>   0.3957  1.0000</r>
       <r>   0.3962  1.0000</r>
       <r>   0.3962  1.0000</r>
       <r>   0.3962  1.0000</r>
       <r>   0.3964  1.0000</r>
       <r>   0.3967  1.0000</r>
       <r>   0.3967  1.0000</r>
       <r>   0.5636  1.0000</r>
       <r>   0.5641  1.0000</r>
       <r>   0.5641  1.0000</r>
       <r>   0.5641  1.0000</r>
       <r>   0.5655  1.0000</r>
       <r>   0.5655  1.0000</r>
       <r>   0.5656  1.0000</r>
       <r>   0.5661  1.0000</r>
       <r>   0.7050  1.0000</r>
       <r>   0.7050  1.0000</r>
       <r>   0.7050  1.0000</r>
       <r>   0.7050  1.0000</r>
       <r>   1.1930  1.0000</r>
       <r>   1.1930  1.0000</r>
       <r>   1.1931  1.0000</r>
       <r>   1.1931  1.0000</r>
       <r>   1.1931  1.0000</r>
       <r>   1.1931  1.0000</r>
       <r>   1.1933  1.0000</r>
       <r>   1.1933  1.0000</r>
       <r>   1.2062  1.0000</r>
       <r>   1.2062  1.0000</r>
       <r>   1.2062  1.0000</r>
       <r>   1.2062  1.0000</r>
       <r>   1.2204  1.0000</r>
       <r>   1.2204  1.0000</r>
       <r>   1.2204  1.0000</r>
       <r>   1.2204  1.0000</r>
       <r>   1.2235  1.0000</r>
       <r>   1.2235  1.0000</r>
       <r>   1.2237  1.0000</r>
       <r>   1.2237  1.0000</r>
       <r>   1.2237  1.0000</r>
       <r>   1.2237  1.0000</r>
       <r>   1.2239  1.0000</r>
       <r>   1.2239  1.0000</r>
       <r>   2.8395  1.0000</r>
       <r>   2.8395  1.0000</r>
       <r>   2.8395  1.0000</r>
       <r>   2.8395  1.0000</r>
       <r>   3.4301  0.0000</r>
       <r>   3.4301  0.0000</r>
       <r>   3.4303  0.0000</r>
       <r>   3.4303  0.0000</r>
       <r>   3.4303  0.0000</r>
       <r>   3.4303  0.0000</r>
       <r>   3.4304  0.0000</r>
       <r>   3.4304  0.0000</r>
       <r>   4.2654  0.0000</r>
       <r>   4.2654  0.0000</r>
       <r>   4.2656  0.0000</r>
       <r>   4.2656  0.0000</r>
       <r>   4.2656  0.0000</r>
       <r>   4.2656  0.0000</r>
       <r>   4.2658  0.0000</r>
       <r>   4.2658  0.0000</r>
       <r>   4.8452  0.0000</r>
       <r>   4.8452  0.0000</r>
       <r>   4.8452  0.0000</r>
       <r>   4.8452  0.0000</r>
       <r>   6.8865  0.0000</r>
       <r>   6.8865  0.0000</r>
       <r>   6.8871  0.0000</r>
       <r>   6.8871  0.0000</r>
       <r>   6.8871  0.0000</r>
       <r>   6.8871  0.0000</r>
       <r>   6.8876  0.0000</r>
       <r>   6.8876  0.0000</r>
       <r>   7.3188  0.0000</r>
       <r>   7.3188  0.0000</r>
       <r>   7.3188  0.0000</r>
       <r>   7.3189  0.0000</r>
       <r>   8.3792  0.0000</r>
       <r>   8.3792  0.0000</r>
       <r>   8.3792  0.0000</r>
       <r>   8.3792  0.0000</r>
       <r>   8.7333  0.0000</r>
       <r>   8.7333  0.0000</r>
       <r>   8.7336  0.0000</r>
       <r>   8.7336  0.0000</r>
       <r>   8.7336  0.0000</r>
       <r>   8.7336  0.0000</r>
       <r>   8.7339  0.0000</r>
       <r>   8.7339  0.0000</r>
      </set>
      <set comment="kpoint 195">
       <r>  -3.1649  1.0000</r>
       <r>  -3.1649  1.0000</r>
       <r>  -3.1649  1.0000</r>
       <r>  -3.1649  1.0000</r>
       <r>  -2.9304  1.0000</r>
       <r>  -2.9304  1.0000</r>
       <r>  -2.9304  1.0000</r>
       <r>  -2.9304  1.0000</r>
       <r>  -1.7845  1.0000</r>
       <r>  -1.7845  1.0000</r>
       <r>  -1.7844  1.0000</r>
       <r>  -1.7844  1.0000</r>
       <r>  -1.7595  1.0000</r>
       <r>  -1.7595  1.0000</r>
       <r>  -1.7593  1.0000</r>
       <r>  -1.7593  1.0000</r>
       <r>  -1.7592  1.0000</r>
       <r>  -1.7592  1.0000</r>
       <r>  -1.7590  1.0000</r>
       <r>  -1.7590  1.0000</r>
       <r>  -1.7425  1.0000</r>
       <r>  -1.7422  1.0000</r>
       <r>  -1.7422  1.0000</r>
       <r>  -1.7417  1.0000</r>
       <r>  -1.7416  1.0000</r>
       <r>  -1.7416  1.0000</r>
       <r>  -1.7413  1.0000</r>
       <r>  -1.7413  1.0000</r>
       <r>  -1.7397  1.0000</r>
       <r>  -1.7395  1.0000</r>
       <r>  -1.7395  1.0000</r>
       <r>  -1.7390  1.0000</r>
       <r>  -1.1762  1.0000</r>
       <r>  -1.1762  1.0000</r>
       <r>  -1.1758  1.0000</r>
       <r>  -1.1758  1.0000</r>
       <r>  -1.1758  1.0000</r>
       <r>  -1.1757  1.0000</r>
       <r>  -1.1753  1.0000</r>
       <r>  -1.1753  1.0000</r>
       <r>  -1.1493  1.0000</r>
       <r>  -1.1492  1.0000</r>
       <r>  -1.1492  1.0000</r>
       <r>  -1.1492  1.0000</r>
       <r>  -1.0135  1.0000</r>
       <r>  -1.0134  1.0000</r>
       <r>  -1.0134  1.0000</r>
       <r>  -1.0133  1.0000</r>
       <r>  -1.0126  1.0000</r>
       <r>  -1.0126  1.0000</r>
       <r>  -1.0122  1.0000</r>
       <r>  -1.0122  1.0000</r>
       <r>  -1.0122  1.0000</r>
       <r>  -1.0120  1.0000</r>
       <r>  -1.0118  1.0000</r>
       <r>  -1.0118  1.0000</r>
       <r>  -0.6652  1.0000</r>
       <r>  -0.6651  1.0000</r>
       <r>  -0.6651  1.0000</r>
       <r>  -0.6651  1.0000</r>
       <r>  -0.5555  1.0000</r>
       <r>  -0.5555  1.0000</r>
       <r>  -0.5555  1.0000</r>
       <r>  -0.5555  1.0000</r>
       <r>  -0.4053  1.0000</r>
       <r>  -0.4053  1.0000</r>
       <r>  -0.4053  1.0000</r>
       <r>  -0.4052  1.0000</r>
       <r>  -0.4027  1.0000</r>
       <r>  -0.4026  1.0000</r>
       <r>  -0.4026  1.0000</r>
       <r>  -0.4026  1.0000</r>
       <r>  -0.3909  1.0000</r>
       <r>  -0.3909  1.0000</r>
       <r>  -0.3906  1.0000</r>
       <r>  -0.3906  1.0000</r>
       <r>  -0.3900  1.0000</r>
       <r>  -0.3900  1.0000</r>
       <r>  -0.3897  1.0000</r>
       <r>  -0.3897  1.0000</r>
       <r>  -0.3505  1.0000</r>
       <r>  -0.3505  1.0000</r>
       <r>  -0.3505  1.0000</r>
       <r>  -0.3505  1.0000</r>
       <r>  -0.3036  1.0000</r>
       <r>  -0.3036  1.0000</r>
       <r>  -0.3024  1.0000</r>
       <r>  -0.3024  1.0000</r>
       <r>  -0.3023  1.0000</r>
       <r>  -0.3023  1.0000</r>
       <r>  -0.3011  1.0000</r>
       <r>  -0.3011  1.0000</r>
       <r>  -0.2336  1.0000</r>
       <r>  -0.2336  1.0000</r>
       <r>  -0.2326  1.0000</r>
       <r>  -0.2326  1.0000</r>
       <r>  -0.2326  1.0000</r>
       <r>  -0.2325  1.0000</r>
       <r>  -0.2315  1.0000</r>
       <r>  -0.2315  1.0000</r>
       <r>  -0.1841  1.0000</r>
       <r>  -0.1841  1.0000</r>
       <r>  -0.1841  1.0000</r>
       <r>  -0.1840  1.0000</r>
       <r>   0.1174  1.0000</r>
       <r>   0.1174  1.0000</r>
       <r>   0.1174  1.0000</r>
       <r>   0.1175  1.0000</r>
       <r>   0.1471  1.0000</r>
       <r>   0.1471  1.0000</r>
       <r>   0.1475  1.0000</r>
       <r>   0.1475  1.0000</r>
       <r>   0.1476  1.0000</r>
       <r>   0.1476  1.0000</r>
       <r>   0.1480  1.0000</r>
       <r>   0.1480  1.0000</r>
       <r>   0.2910  1.0000</r>
       <r>   0.2910  1.0000</r>
       <r>   0.2914  1.0000</r>
       <r>   0.2914  1.0000</r>
       <r>   0.2915  1.0000</r>
       <r>   0.2915  1.0000</r>
       <r>   0.2919  1.0000</r>
       <r>   0.2919  1.0000</r>
       <r>   0.3010  1.0000</r>
       <r>   0.3010  1.0000</r>
       <r>   0.3010  1.0000</r>
       <r>   0.3010  1.0000</r>
       <r>   0.4322  1.0000</r>
       <r>   0.4322  1.0000</r>
       <r>   0.4322  1.0000</r>
       <r>   0.4322  1.0000</r>
       <r>   0.5244  1.0000</r>
       <r>   0.5245  1.0000</r>
       <r>   0.5245  1.0000</r>
       <r>   0.5245  1.0000</r>
       <r>   0.5388  1.0000</r>
       <r>   0.5388  1.0000</r>
       <r>   0.5388  1.0000</r>
       <r>   0.5389  1.0000</r>
       <r>   0.6131  1.0000</r>
       <r>   0.6131  1.0000</r>
       <r>   0.6131  1.0000</r>
       <r>   0.6131  1.0000</r>
       <r>   1.2206  1.0000</r>
       <r>   1.2206  1.0000</r>
       <r>   1.2206  1.0000</r>
       <r>   1.2207  1.0000</r>
       <r>   1.2207  1.0000</r>
       <r>   1.2207  1.0000</r>
       <r>   1.2207  1.0000</r>
       <r>   1.2207  1.0000</r>
       <r>   1.2275  1.0000</r>
       <r>   1.2275  1.0000</r>
       <r>   1.2275  1.0000</r>
       <r>   1.2275  1.0000</r>
       <r>   1.2357  1.0000</r>
       <r>   1.2357  1.0000</r>
       <r>   1.2357  1.0000</r>
       <r>   1.2358  1.0000</r>
       <r>   1.2401  1.0000</r>
       <r>   1.2401  1.0000</r>
       <r>   1.2401  1.0000</r>
       <r>   1.2401  1.0000</r>
       <r>   1.2401  1.0000</r>
       <r>   1.2401  1.0000</r>
       <r>   1.2402  1.0000</r>
       <r>   1.2402  1.0000</r>
       <r>   3.3101  0.0000</r>
       <r>   3.3101  0.0000</r>
       <r>   3.3101  0.0000</r>
       <r>   3.3101  0.0000</r>
       <r>   3.6062  0.0000</r>
       <r>   3.6062  0.0000</r>
       <r>   3.6063  0.0000</r>
       <r>   3.6064  0.0000</r>
       <r>   3.6064  0.0000</r>
       <r>   3.6064  0.0000</r>
       <r>   3.6065  0.0000</r>
       <r>   3.6065  0.0000</r>
       <r>   4.0278  0.0000</r>
       <r>   4.0278  0.0000</r>
       <r>   4.0281  0.0000</r>
       <r>   4.0281  0.0000</r>
       <r>   4.0281  0.0000</r>
       <r>   4.0281  0.0000</r>
       <r>   4.0283  0.0000</r>
       <r>   4.0283  0.0000</r>
       <r>   4.3232  0.0000</r>
       <r>   4.3232  0.0000</r>
       <r>   4.3232  0.0000</r>
       <r>   4.3232  0.0000</r>
       <r>   7.3156  0.0000</r>
       <r>   7.3156  0.0000</r>
       <r>   7.3161  0.0000</r>
       <r>   7.3161  0.0000</r>
       <r>   7.3161  0.0000</r>
       <r>   7.3161  0.0000</r>
       <r>   7.3165  0.0000</r>
       <r>   7.3165  0.0000</r>
       <r>   7.5206  0.0000</r>
       <r>   7.5206  0.0000</r>
       <r>   7.5206  0.0000</r>
       <r>   7.5206  0.0000</r>
       <r>   8.0586  0.0000</r>
       <r>   8.0586  0.0000</r>
       <r>   8.0586  0.0000</r>
       <r>   8.0586  0.0000</r>
       <r>   8.2450  0.0000</r>
       <r>   8.2450  0.0000</r>
       <r>   8.2453  0.0000</r>
       <r>   8.2453  0.0000</r>
       <r>   8.2453  0.0000</r>
       <r>   8.2453  0.0000</r>
       <r>   8.2457  0.0000</r>
       <r>   8.2457  0.0000</r>
      </set>
      <set comment="kpoint 196">
       <r>  -3.0579  1.0000</r>
       <r>  -3.0550  1.0000</r>
       <r>  -3.0550  1.0000</r>
       <r>  -3.0546  1.0000</r>
       <r>  -3.0544  1.0000</r>
       <r>  -3.0539  1.0000</r>
       <r>  -3.0539  1.0000</r>
       <r>  -3.0511  1.0000</r>
       <r>  -1.7567  1.0000</r>
       <r>  -1.7567  1.0000</r>
       <r>  -1.7567  1.0000</r>
       <r>  -1.7565  1.0000</r>
       <r>  -1.7563  1.0000</r>
       <r>  -1.7555  1.0000</r>
       <r>  -1.7549  1.0000</r>
       <r>  -1.7549  1.0000</r>
       <r>  -1.7549  1.0000</r>
       <r>  -1.7548  1.0000</r>
       <r>  -1.7548  1.0000</r>
       <r>  -1.7547  1.0000</r>
       <r>  -1.7547  1.0000</r>
       <r>  -1.7546  1.0000</r>
       <r>  -1.7546  1.0000</r>
       <r>  -1.7546  1.0000</r>
       <r>  -1.7546  1.0000</r>
       <r>  -1.7545  1.0000</r>
       <r>  -1.7540  1.0000</r>
       <r>  -1.7532  1.0000</r>
       <r>  -1.7529  1.0000</r>
       <r>  -1.7528  1.0000</r>
       <r>  -1.7528  1.0000</r>
       <r>  -1.7527  1.0000</r>
       <r>  -1.0907  1.0000</r>
       <r>  -1.0879  1.0000</r>
       <r>  -1.0878  1.0000</r>
       <r>  -1.0876  1.0000</r>
       <r>  -1.0876  1.0000</r>
       <r>  -1.0872  1.0000</r>
       <r>  -1.0868  1.0000</r>
       <r>  -1.0868  1.0000</r>
       <r>  -1.0867  1.0000</r>
       <r>  -1.0866  1.0000</r>
       <r>  -1.0866  1.0000</r>
       <r>  -1.0866  1.0000</r>
       <r>  -1.0865  1.0000</r>
       <r>  -1.0865  1.0000</r>
       <r>  -1.0865  1.0000</r>
       <r>  -1.0865  1.0000</r>
       <r>  -1.0863  1.0000</r>
       <r>  -1.0863  1.0000</r>
       <r>  -1.0860  1.0000</r>
       <r>  -1.0856  1.0000</r>
       <r>  -1.0856  1.0000</r>
       <r>  -1.0854  1.0000</r>
       <r>  -1.0853  1.0000</r>
       <r>  -1.0824  1.0000</r>
       <r>  -0.6057  1.0000</r>
       <r>  -0.6046  1.0000</r>
       <r>  -0.6041  1.0000</r>
       <r>  -0.6041  1.0000</r>
       <r>  -0.6038  1.0000</r>
       <r>  -0.6038  1.0000</r>
       <r>  -0.6033  1.0000</r>
       <r>  -0.6022  1.0000</r>
       <r>  -0.4023  1.0000</r>
       <r>  -0.4023  1.0000</r>
       <r>  -0.4020  1.0000</r>
       <r>  -0.4018  1.0000</r>
       <r>  -0.4013  1.0000</r>
       <r>  -0.4013  1.0000</r>
       <r>  -0.4012  1.0000</r>
       <r>  -0.4012  1.0000</r>
       <r>  -0.4010  1.0000</r>
       <r>  -0.4010  1.0000</r>
       <r>  -0.4009  1.0000</r>
       <r>  -0.4008  1.0000</r>
       <r>  -0.4004  1.0000</r>
       <r>  -0.4003  1.0000</r>
       <r>  -0.4000  1.0000</r>
       <r>  -0.4000  1.0000</r>
       <r>  -0.2726  1.0000</r>
       <r>  -0.2726  1.0000</r>
       <r>  -0.2719  1.0000</r>
       <r>  -0.2713  1.0000</r>
       <r>  -0.2701  1.0000</r>
       <r>  -0.2695  1.0000</r>
       <r>  -0.2695  1.0000</r>
       <r>  -0.2695  1.0000</r>
       <r>  -0.2694  1.0000</r>
       <r>  -0.2694  1.0000</r>
       <r>  -0.2694  1.0000</r>
       <r>  -0.2694  1.0000</r>
       <r>  -0.2693  1.0000</r>
       <r>  -0.2693  1.0000</r>
       <r>  -0.2693  1.0000</r>
       <r>  -0.2693  1.0000</r>
       <r>  -0.2692  1.0000</r>
       <r>  -0.2692  1.0000</r>
       <r>  -0.2692  1.0000</r>
       <r>  -0.2687  1.0000</r>
       <r>  -0.2674  1.0000</r>
       <r>  -0.2668  1.0000</r>
       <r>  -0.2661  1.0000</r>
       <r>  -0.2661  1.0000</r>
       <r>   0.2053  1.0000</r>
       <r>   0.2064  1.0000</r>
       <r>   0.2064  1.0000</r>
       <r>   0.2081  1.0000</r>
       <r>   0.2082  1.0000</r>
       <r>   0.2083  1.0000</r>
       <r>   0.2083  1.0000</r>
       <r>   0.2085  1.0000</r>
       <r>   0.2086  1.0000</r>
       <r>   0.2087  1.0000</r>
       <r>   0.2087  1.0000</r>
       <r>   0.2087  1.0000</r>
       <r>   0.2088  1.0000</r>
       <r>   0.2088  1.0000</r>
       <r>   0.2088  1.0000</r>
       <r>   0.2088  1.0000</r>
       <r>   0.2089  1.0000</r>
       <r>   0.2091  1.0000</r>
       <r>   0.2091  1.0000</r>
       <r>   0.2092  1.0000</r>
       <r>   0.2093  1.0000</r>
       <r>   0.2110  1.0000</r>
       <r>   0.2110  1.0000</r>
       <r>   0.2121  1.0000</r>
       <r>   0.5191  1.0000</r>
       <r>   0.5203  1.0000</r>
       <r>   0.5203  1.0000</r>
       <r>   0.5203  1.0000</r>
       <r>   0.5211  1.0000</r>
       <r>   0.5211  1.0000</r>
       <r>   0.5213  1.0000</r>
       <r>   0.5214  1.0000</r>
       <r>   0.5215  1.0000</r>
       <r>   0.5215  1.0000</r>
       <r>   0.5217  1.0000</r>
       <r>   0.5217  1.0000</r>
       <r>   0.5225  1.0000</r>
       <r>   0.5225  1.0000</r>
       <r>   0.5226  1.0000</r>
       <r>   0.5238  1.0000</r>
       <r>   1.2372  1.0000</r>
       <r>   1.2372  1.0000</r>
       <r>   1.2374  1.0000</r>
       <r>   1.2375  1.0000</r>
       <r>   1.2376  1.0000</r>
       <r>   1.2376  1.0000</r>
       <r>   1.2376  1.0000</r>
       <r>   1.2376  1.0000</r>
       <r>   1.2377  1.0000</r>
       <r>   1.2378  1.0000</r>
       <r>   1.2378  1.0000</r>
       <r>   1.2378  1.0000</r>
       <r>   1.2379  1.0000</r>
       <r>   1.2380  1.0000</r>
       <r>   1.2380  1.0000</r>
       <r>   1.2381  1.0000</r>
       <r>   1.2381  1.0000</r>
       <r>   1.2382  1.0000</r>
       <r>   1.2382  1.0000</r>
       <r>   1.2382  1.0000</r>
       <r>   1.2382  1.0000</r>
       <r>   1.2384  1.0000</r>
       <r>   1.2386  1.0000</r>
       <r>   1.2386  1.0000</r>
       <r>   3.8012  0.0000</r>
       <r>   3.8049  0.0000</r>
       <r>   3.8049  0.0000</r>
       <r>   3.8064  0.0000</r>
       <r>   3.8067  0.0000</r>
       <r>   3.8070  0.0000</r>
       <r>   3.8070  0.0000</r>
       <r>   3.8070  0.0000</r>
       <r>   3.8070  0.0000</r>
       <r>   3.8070  0.0000</r>
       <r>   3.8071  0.0000</r>
       <r>   3.8072  0.0000</r>
       <r>   3.8072  0.0000</r>
       <r>   3.8073  0.0000</r>
       <r>   3.8073  0.0000</r>
       <r>   3.8073  0.0000</r>
       <r>   3.8073  0.0000</r>
       <r>   3.8074  0.0000</r>
       <r>   3.8074  0.0000</r>
       <r>   3.8076  0.0000</r>
       <r>   3.8080  0.0000</r>
       <r>   3.8094  0.0000</r>
       <r>   3.8094  0.0000</r>
       <r>   3.8131  0.0000</r>
       <r>   7.7660  0.0000</r>
       <r>   7.7660  0.0000</r>
       <r>   7.7676  0.0000</r>
       <r>   7.7689  0.0000</r>
       <r>   7.7694  0.0000</r>
       <r>   7.7697  0.0000</r>
       <r>   7.7697  0.0000</r>
       <r>   7.7700  0.0000</r>
       <r>   7.7701  0.0000</r>
       <r>   7.7701  0.0000</r>
       <r>   7.7702  0.0000</r>
       <r>   7.7702  0.0000</r>
       <r>   7.7703  0.0000</r>
       <r>   7.7703  0.0000</r>
       <r>   7.7704  0.0000</r>
       <r>   7.7704  0.0000</r>
       <r>   7.7705  0.0000</r>
       <r>   7.7708  0.0000</r>
       <r>   7.7708  0.0000</r>
       <r>   7.7711  0.0000</r>
       <r>   7.7716  0.0000</r>
       <r>   7.7729  0.0000</r>
       <r>   7.7746  0.0000</r>
       <r>   7.7746  0.0000</r>
      </set>
     </set>
    </set>
   </array>
  </eigenvalues>
 </calculation>
 <structure name="finalpos" >
  <crystal>
   <varray name="basis" >
    <v>       8.84644603      0.00000000      0.00000000</v>
    <v>       0.00000000      8.84644603      0.00000000</v>
    <v>       0.00000000      0.00000000      8.84644603</v>
   </varray>
   <i name="volume">    692.31939354</i>
   <varray name="rec_basis" >
    <v>       0.11303974      0.00000000      0.00000000</v>
    <v>       0.00000000      0.11303974      0.00000000</v>
    <v>       0.00000000      0.00000000      0.11303974</v>
   </varray>
  </crystal>
  <varray name="positions" >
   <v>       0.00113040      0.00000000      0.00000000</v>
   <v>       0.50000000      0.00000000      0.00000000</v>
   <v>       0.00000000      0.50000000      0.00000000</v>
   <v>       0.50000000      0.50000000      0.00000000</v>
   <v>       0.00000000      0.00000000      0.50000000</v>
   <v>       0.50000000      0.00000000      0.50000000</v>
   <v>       0.00000000      0.50000000      0.50000000</v>
   <v>       0.50000000      0.50000000      0.50000000</v>
   <v>       0.25000000      0.25000000      0.00000000</v>
   <v>       0.75000000      0.25000000      0.00000000</v>
   <v>       0.25000000      0.75000000      0.00000000</v>
   <v>       0.75000000      0.75000000      0.00000000</v>
   <v>       0.25000000      0.25000000      0.50000000</v>
   <v>       0.75000000      0.25000000      0.50000000</v>
   <v>       0.25000000      0.75000000      0.50000000</v>
   <v>       0.75000000      0.75000000      0.50000000</v>
   <v>       0.25000000      0.00000000      0.25000000</v>
   <v>       0.75000000      0.00000000      0.25000000</v>
   <v>       0.25000000      0.50000000      0.25000000</v>
   <v>       0.75000000      0.50000000      0.25000000</v>
   <v>       0.25000000      0.00000000      0.75000000</v>
   <v>       0.75000000      0.00000000      0.75000000</v>
   <v>       0.25000000      0.50000000      0.75000000</v>
   <v>       0.75000000      0.50000000      0.75000000</v>
   <v>       0.00000000      0.25000000      0.25000000</v>
   <v>       0.50000000      0.25000000      0.25000000</v>
   <v>       0.00000000      0.75000000      0.25000000</v>
   <v>       0.50000000      0.75000000      0.25000000</v>
   <v>       0.00000000      0.25000000      0.75000000</v>
   <v>       0.50000000      0.25000000      0.75000000</v>
   <v>       0.00000000      0.75000000      0.75000000</v>
   <v>       0.50000000      0.75000000      0.75000000</v>
  </varray>
 </structure>
</modeling>
