32   
1    

1    
  0.0100000000000000   0.0000000000000000   0.0000000000000000
  -0.0312307800    0.0000000000    0.0000000000
   0.0008391700    0.0000000000   -0.0000000000
  -0.0004173800   -0.0000000000   -0.0000000000
  -0.0003461400    0.0000000000    0.0000000000
  -0.0004173800   -0.0000000000   -0.0000000000
  -0.0003461400    0.0000000000   -0.0000000000
  -0.0001343800    0.0000000000   -0.0000000000
   0.0000185800    0.0000000000   -0.0000000000
   0.0034674500    0.0037070100    0.0000000000
   0.0033130500   -0.0035064600    0.0000000000
   0.0034674500   -0.0037070100    0.0000000000
   0.0033130500    0.0035064600   -0.0000000000
   0.0003092300    0.0000261500    0.0000000000
   0.0003095200   -0.0000228000   -0.0000000000
   0.0003092300   -0.0000261500    0.0000000000
   0.0003095200    0.0000228000   -0.0000000000
   0.0034674500   -0.0000000000    0.0037070100
   0.0033130500    0.0000000000   -0.0035064600
   0.0003092300   -0.0000000000    0.0000261500
   0.0003095200   -0.0000000000   -0.0000228000
   0.0034674500    0.0000000000   -0.0037070100
   0.0033130500   -0.0000000000    0.0035064600
   0.0003092300   -0.0000000000   -0.0000261500
   0.0003095200   -0.0000000000    0.0000228000
   0.0000113900   -0.0000026000   -0.0000026000
   0.0005979700    0.0000032500    0.0000032500
   0.0000113900    0.0000026000   -0.0000026000
   0.0005979700   -0.0000032500    0.0000032500
   0.0000113900   -0.0000026000    0.0000026000
   0.0005979700    0.0000032500   -0.0000032500
   0.0000113900    0.0000026000    0.0000026000
   0.0005979700   -0.0000032500   -0.0000032500
