mesh: [    48,    48,    48 ]
nqpoint: 2600   
reciprocal_lattice:
- [   0.26190100,   0.00000000,   0.00000000 ] # a*
- [   0.00000000,   0.26190100,   0.00000000 ] # b*
- [   0.00000000,   0.00000000,   0.26190100 ] # c*
natom:   4      
lattice:
- [     3.818236602319705,     0.000000000000000,     0.000000000000000 ] # a
- [     0.000000000000000,     3.818236602319705,     0.000000000000000 ] # b
- [     0.000000000000000,     0.000000000000000,     3.818236602319705 ] # c
points:
- symbol: Cu # 1
  coordinates: [  0.000000000000000,  0.000000000000000,  0.000000000000000 ]
  mass: 63.546000
- symbol: Cu # 2
  coordinates: [  0.500000000000000,  0.500000000000000,  0.000000000000000 ]
  mass: 63.546000
- symbol: Cu # 3
  coordinates: [  0.500000000000000,  0.000000000000000,  0.500000000000000 ]
  mass: 63.546000
- symbol: Cu # 4
  coordinates: [  0.000000000000000,  0.500000000000000,  0.500000000000000 ]
  mass: 63.546000
phonon:
- q-position: [    0.0104167,    0.0104167,    0.0104167 ]
  weight: 8    
  band:
  - # 1
    frequency:     0.0995292200
  - # 2
    frequency:     0.0995292200
  - # 3
    frequency:     0.1668738034
  - # 4
    frequency:     3.6397455486
  - # 5
    frequency:     3.6397455486
  - # 6
    frequency:     3.6397455486
  - # 7
    frequency:     3.6413871888
  - # 8
    frequency:     3.6413871888
  - # 9
    frequency:     3.6413871888
  - # 10
    frequency:     4.7700806710
  - # 11
    frequency:     4.7700806710
  - # 12
    frequency:     4.7700806710

- q-position: [    0.0312500,    0.0104167,    0.0104167 ]
  weight: 24   
  band:
  - # 1
    frequency:     0.1944622917
  - # 2
    frequency:     0.2014932807
  - # 3
    frequency:     0.3099971286
  - # 4
    frequency:     3.6361730797
  - # 5
    frequency:     3.6371505221
  - # 6
    frequency:     3.6371505221
  - # 7
    frequency:     3.6378078796
  - # 8
    frequency:     3.6428580979
  - # 9
    frequency:     3.6428580979
  - # 10
    frequency:     4.7664949725
  - # 11
    frequency:     4.7664949725
  - # 12
    frequency:     4.7667422682

- q-position: [    0.0520833,    0.0104167,    0.0104167 ]
  weight: 24   
  band:
  - # 1
    frequency:     0.3133327555
  - # 2
    frequency:     0.3191001595
  - # 3
    frequency:     0.4768656996
  - # 4
    frequency:     3.6290287730
  - # 5
    frequency:     3.6306499657
  - # 6
    frequency:     3.6329450509
  - # 7
    frequency:     3.6329450509
  - # 8
    frequency:     3.6448664004
  - # 9
    frequency:     3.6448664004
  - # 10
    frequency:     4.7593495661
  - # 11
    frequency:     4.7593495661
  - # 12
    frequency:     4.7600500839

- q-position: [    0.0729167,    0.0104167,    0.0104167 ]
  weight: 24   
  band:
  - # 1
    frequency:     0.4351191771
  - # 2
    frequency:     0.4396137118
  - # 3
    frequency:     0.6497001675
  - # 4
    frequency:     3.6183139237
  - # 5
    frequency:     3.6199148865
  - # 6
    frequency:     3.6269540164
  - # 7
    frequency:     3.6269540164
  - # 8
    frequency:     3.6476884331
  - # 9
    frequency:     3.6476884331
  - # 10
    frequency:     4.7486962591
  - # 11
    frequency:     4.7486962591
  - # 12
    frequency:     4.7499736238

- q-position: [    0.0937500,    0.0104167,    0.0104167 ]
  weight: 24   
  band:
  - # 1
    frequency:     0.5571469876
  - # 2
    frequency:     0.5607365876
  - # 3
    frequency:     0.8240991306
  - # 4
    frequency:     3.6040305555
  - # 5
    frequency:     3.6056048759
  - # 6
    frequency:     3.6191900549
  - # 7
    frequency:     3.6191900549
  - # 8
    frequency:     3.6514611081
  - # 9
    frequency:     3.6514611081
  - # 10
    frequency:     4.7346123255
  - # 11
    frequency:     4.7346123255
  - # 12
    frequency:     4.7364677995

- q-position: [    0.1145833,    0.0104167,    0.0104167 ]
  weight: 24   
  band:
  - # 1
    frequency:     0.6787382922
  - # 2
    frequency:     0.6816791677
  - # 3
    frequency:     0.9983349405
  - # 4
    frequency:     3.5861815169
  - # 5
    frequency:     3.5877230521
  - # 6
    frequency:     3.6097465678
  - # 7
    frequency:     3.6097465678
  - # 8
    frequency:     3.6562861819
  - # 9
    frequency:     3.6562861819
  - # 10
    frequency:     4.7171999791
  - # 11
    frequency:     4.7171999791
  - # 12
    frequency:     4.7194736987

- q-position: [    0.1354167,    0.0104167,    0.0104167 ]
  weight: 24   
  band:
  - # 1
    frequency:     0.7995777047
  - # 2
    frequency:     0.8020343278
  - # 3
    frequency:     1.1714883836
  - # 4
    frequency:     3.5647706075
  - # 5
    frequency:     3.5662735353
  - # 6
    frequency:     3.5987612593
  - # 7
    frequency:     3.5987612593
  - # 8
    frequency:     3.6622631212
  - # 9
    frequency:     3.6622631212
  - # 10
    frequency:     4.6965856656
  - # 11
    frequency:     4.6965856656
  - # 12
    frequency:     4.6989195877

- q-position: [    0.1562500,    0.0104167,    0.0104167 ]
  weight: 24   
  band:
  - # 1
    frequency:     0.9194482901
  - # 2
    frequency:     0.9215287530
  - # 3
    frequency:     1.3429508874
  - # 4
    frequency:     3.5398027325
  - # 5
    frequency:     3.5412615927
  - # 6
    frequency:     3.5864037289
  - # 7
    frequency:     3.5864037289
  - # 8
    frequency:     3.6694970621
  - # 9
    frequency:     3.6694970621
  - # 10
    frequency:     4.6729191702
  - # 11
    frequency:     4.6729191702
  - # 12
    frequency:     4.6747221297

- q-position: [    0.1770833,    0.0104167,    0.0104167 ]
  weight: 24   
  band:
  - # 1
    frequency:     1.0381690422
  - # 2
    frequency:     1.0399470374
  - # 3
    frequency:     1.5122569239
  - # 4
    frequency:     3.5112840842
  - # 5
    frequency:     3.5126938091
  - # 6
    frequency:     3.5728697774
  - # 7
    frequency:     3.5728697774
  - # 8
    frequency:     3.6780992473
  - # 9
    frequency:     3.6780992473
  - # 10
    frequency:     4.6463725358
  - # 11
    frequency:     4.6463725358
  - # 12
    frequency:     4.6467877950

- q-position: [    0.1979167,    0.0104167,    0.0104167 ]
  weight: 24   
  band:
  - # 1
    frequency:     1.1555758278
  - # 2
    frequency:     1.1571033596
  - # 3
    frequency:     1.6790179870
  - # 4
    frequency:     3.4792223470
  - # 5
    frequency:     3.4805782816
  - # 6
    frequency:     3.5583775370
  - # 7
    frequency:     3.5583775370
  - # 8
    frequency:     3.6881848815
  - # 9
    frequency:     3.6881848815
  - # 10
    frequency:     4.6150144389
  - # 11
    frequency:     4.6171387858
  - # 12
    frequency:     4.6171387858

- q-position: [    0.2187500,    0.0104167,    0.0104167 ]
  weight: 24   
  band:
  - # 1
    frequency:     1.2715145209
  - # 2
    frequency:     1.2728293904
  - # 3
    frequency:     1.8428935647
  - # 4
    frequency:     3.4436269244
  - # 5
    frequency:     3.4449248358
  - # 6
    frequency:     3.5431639745
  - # 7
    frequency:     3.5431639745
  - # 8
    frequency:     3.6998699299
  - # 9
    frequency:     3.6998699299
  - # 10
    frequency:     4.5792930192
  - # 11
    frequency:     4.5854304484
  - # 12
    frequency:     4.5854304484

- q-position: [    0.2395833,    0.0104167,    0.0104167 ]
  weight: 24   
  band:
  - # 1
    frequency:     1.3858382606
  - # 2
    frequency:     1.3869686284
  - # 3
    frequency:     2.0035773799
  - # 4
    frequency:     3.4045091847
  - # 5
    frequency:     3.4057452610
  - # 6
    frequency:     3.5274812857
  - # 7
    frequency:     3.5274812857
  - # 8
    frequency:     3.7132674273
  - # 9
    frequency:     3.7132674273
  - # 10
    frequency:     4.5395094260
  - # 11
    frequency:     4.5514778753
  - # 12
    frequency:     4.5514778753

- q-position: [    0.2604167,    0.0104167,    0.0104167 ]
  weight: 24   
  band:
  - # 1
    frequency:     1.4984063055
  - # 2
    frequency:     1.4993735789
  - # 3
    frequency:     2.1607905595
  - # 4
    frequency:     3.3618827217
  - # 5
    frequency:     3.3630535620
  - # 6
    frequency:     3.5115930153
  - # 7
    frequency:     3.5115930153
  - # 8
    frequency:     3.7284835752
  - # 9
    frequency:     3.7284835752
  - # 10
    frequency:     4.4955463937
  - # 11
    frequency:     4.5155273527
  - # 12
    frequency:     4.5155273527

- q-position: [    0.2812500,    0.0104167,    0.0104167 ]
  weight: 24   
  band:
  - # 1
    frequency:     1.6090835720
  - # 2
    frequency:     1.6099042939
  - # 3
    frequency:     2.3142781800
  - # 4
    frequency:     3.3157636286
  - # 5
    frequency:     3.3168662237
  - # 6
    frequency:     3.4957698509
  - # 7
    frequency:     3.4957698509
  - # 8
    frequency:     3.7456138068
  - # 9
    frequency:     3.7456138068
  - # 10
    frequency:     4.4472854665
  - # 11
    frequency:     4.4778390013
  - # 12
    frequency:     4.4778390013

- q-position: [    0.3020833,    0.0104167,    0.0104167 ]
  weight: 24   
  band:
  - # 1
    frequency:     1.7177404811
  - # 2
    frequency:     1.7184276066
  - # 3
    frequency:     2.4638075396
  - # 4
    frequency:     3.2661707800
  - # 5
    frequency:     3.2672024862
  - # 6
    frequency:     3.4802850963
  - # 7
    frequency:     3.4802850963
  - # 8
    frequency:     3.7647389649
  - # 9
    frequency:     3.7647389649
  - # 10
    frequency:     4.3946089897
  - # 11
    frequency:     4.4386844670
  - # 12
    frequency:     4.4386844670

- q-position: [    0.3229167,    0.0104167,    0.0104167 ]
  weight: 24   
  band:
  - # 1
    frequency:     1.8242529504
  - # 2
    frequency:     1.8248167326
  - # 3
    frequency:     2.6091673402
  - # 4
    frequency:     3.2131261195
  - # 5
    frequency:     3.2140846259
  - # 6
    frequency:     3.4654098670
  - # 7
    frequency:     3.4654098670
  - # 8
    frequency:     3.7859217218
  - # 9
    frequency:     3.7859217218
  - # 10
    frequency:     4.3374020980
  - # 11
    frequency:     4.3983444061
  - # 12
    frequency:     4.3983444061

- q-position: [    0.3437500,    0.0104167,    0.0104167 ]
  weight: 24   
  band:
  - # 1
    frequency:     1.9285024479
  - # 2
    frequency:     1.9289510698
  - # 3
    frequency:     2.7501673437
  - # 4
    frequency:     3.1566549496
  - # 5
    frequency:     3.1575382400
  - # 6
    frequency:     3.4514080746
  - # 7
    frequency:     3.4514080746
  - # 8
    frequency:     3.8092033557
  - # 9
    frequency:     3.8092033557
  - # 10
    frequency:     4.2755546777
  - # 11
    frequency:     4.3571057751
  - # 12
    frequency:     4.3571057751

- q-position: [    0.3645833,    0.0104167,    0.0104167 ]
  weight: 24   
  band:
  - # 1
    frequency:     2.0303760678
  - # 2
    frequency:     2.0307161031
  - # 3
    frequency:     2.8866382632
  - # 4
    frequency:     3.0967862196
  - # 5
    frequency:     3.0975925298
  - # 6
    frequency:     3.4385312988
  - # 7
    frequency:     3.4385312988
  - # 8
    frequency:     3.8346009833
  - # 9
    frequency:     3.8346009833
  - # 10
    frequency:     4.2089632775
  - # 11
    frequency:     4.3152589409
  - # 12
    frequency:     4.3152589409

- q-position: [    0.3854167,    0.0104167,    0.0104167 ]
  weight: 24   
  band:
  - # 1
    frequency:     2.1297666052
  - # 2
    frequency:     2.1300033627
  - # 3
    frequency:     3.0184317465
  - # 4
    frequency:     3.0335528087
  - # 5
    frequency:     3.0342805803
  - # 6
    frequency:     3.4270136647
  - # 7
    frequency:     3.4270136647
  - # 8
    frequency:     3.8621053290
  - # 9
    frequency:     3.8621053290
  - # 10
    frequency:     4.1375329479
  - # 11
    frequency:     4.2730946404
  - # 12
    frequency:     4.2730946404

- q-position: [    0.4062500,    0.0104167,    0.0104167 ]
  weight: 24   
  band:
  - # 1
    frequency:     2.2265726166
  - # 2
    frequency:     2.2267104025
  - # 3
    frequency:     2.9669918008
  - # 4
    frequency:     2.9676396315
  - # 5
    frequency:     3.1454203669
  - # 6
    frequency:     3.4170668649
  - # 7
    frequency:     3.4170668649
  - # 8
    frequency:     3.8916790796
  - # 9
    frequency:     3.8916790796
  - # 10
    frequency:     4.0611789897
  - # 11
    frequency:     4.2309008306
  - # 12
    frequency:     4.2309008306

- q-position: [    0.4270833,    0.0104167,    0.0104167 ]
  weight: 24   
  band:
  - # 1
    frequency:     2.3206984589
  - # 2
    frequency:     2.3207407816
  - # 3
    frequency:     2.8971447473
  - # 4
    frequency:     2.8977113388
  - # 5
    frequency:     3.2674975649
  - # 6
    frequency:     3.4088754802
  - # 7
    frequency:     3.4088754802
  - # 8
    frequency:     3.9232558182
  - # 9
    frequency:     3.9232558182
  - # 10
    frequency:     3.9798285962
  - # 11
    frequency:     4.1889595184
  - # 12
    frequency:     4.1889595184

- q-position: [    0.4479167,    0.0104167,    0.0104167 ]
  weight: 24   
  band:
  - # 1
    frequency:     2.4120040355
  - # 2
    frequency:     2.4120543024
  - # 3
    frequency:     2.8240579162
  - # 4
    frequency:     2.8245420187
  - # 5
    frequency:     3.3845775062
  - # 6
    frequency:     3.4025927583
  - # 7
    frequency:     3.4025927583
  - # 8
    frequency:     3.8934223756
  - # 9
    frequency:     3.9567393611
  - # 10
    frequency:     3.9567393611
  - # 11
    frequency:     4.1475438085
  - # 12
    frequency:     4.1475438085

- q-position: [    0.4687500,    0.0104167,    0.0104167 ]
  weight: 24   
  band:
  - # 1
    frequency:     2.5004156309
  - # 2
    frequency:     2.5005561156
  - # 3
    frequency:     2.7477825229
  - # 4
    frequency:     2.7481828768
  - # 5
    frequency:     3.3983370077
  - # 6
    frequency:     3.3983370077
  - # 7
    frequency:     3.4965948308
  - # 8
    frequency:     3.8019157414
  - # 9
    frequency:     3.9920022706
  - # 10
    frequency:     3.9920022706
  - # 11
    frequency:     4.1069164461
  - # 12
    frequency:     4.1069164461

- q-position: [    0.4895833,    0.0104167,    0.0104167 ]
  weight: 24   
  band:
  - # 1
    frequency:     2.5858968986
  - # 2
    frequency:     2.5861256201
  - # 3
    frequency:     2.6683749424
  - # 4
    frequency:     2.6686902157
  - # 5
    frequency:     3.3961887502
  - # 6
    frequency:     3.3961887502
  - # 7
    frequency:     3.6035042762
  - # 8
    frequency:     3.7052801639
  - # 9
    frequency:     4.0288629204
  - # 10
    frequency:     4.0288629204
  - # 11
    frequency:     4.0673505163
  - # 12
    frequency:     4.0673505163

- q-position: [    0.0312500,    0.0312500,    0.0104167 ]
  weight: 24   
  band:
  - # 1
    frequency:     0.2412666140
  - # 2
    frequency:     0.2654238005
  - # 3
    frequency:     0.4150852299
  - # 4
    frequency:     3.6320730131
  - # 5
    frequency:     3.6335763040
  - # 6
    frequency:     3.6335763040
  - # 7
    frequency:     3.6392743478
  - # 8
    frequency:     3.6392743478
  - # 9
    frequency:     3.6468100747
  - # 10
    frequency:     4.7629134952
  - # 11
    frequency:     4.7631906995
  - # 12
    frequency:     4.7631906995

- q-position: [    0.0520833,    0.0312500,    0.0104167 ]
  weight: 48   
  band:
  - # 1
    frequency:     0.3339137545
  - # 2
    frequency:     0.3625951319
  - # 3
    frequency:     0.5568201176
  - # 4
    frequency:     3.6257557365
  - # 5
    frequency:     3.6264285038
  - # 6
    frequency:     3.6293539642
  - # 7
    frequency:     3.6321078733
  - # 8
    frequency:     3.6412869161
  - # 9
    frequency:     3.6509271843
  - # 10
    frequency:     4.7557764776
  - # 11
    frequency:     4.7561134576
  - # 12
    frequency:     4.7565665571

- q-position: [    0.0729167,    0.0312500,    0.0104167 ]
  weight: 48   
  band:
  - # 1
    frequency:     0.4450750775
  - # 2
    frequency:     0.4718817749
  - # 3
    frequency:     0.7129698058
  - # 4
    frequency:     3.6157084269
  - # 5
    frequency:     3.6182119222
  - # 6
    frequency:     3.6213607461
  - # 7
    frequency:     3.6233319293
  - # 8
    frequency:     3.6441204936
  - # 9
    frequency:     3.6552970835
  - # 10
    frequency:     4.7451356199
  - # 11
    frequency:     4.7455621582
  - # 12
    frequency:     4.7465916251

- q-position: [    0.0937500,    0.0312500,    0.0104167 ]
  weight: 48   
  band:
  - # 1
    frequency:     0.5623338702
  - # 2
    frequency:     0.5861190069
  - # 3
    frequency:     0.8757781971
  - # 4
    frequency:     3.6014181147
  - # 5
    frequency:     3.6070361232
  - # 6
    frequency:     3.6093578656
  - # 7
    frequency:     3.6155237801
  - # 8
    frequency:     3.6479103987
  - # 9
    frequency:     3.6601525409
  - # 10
    frequency:     4.7310680369
  - # 11
    frequency:     4.7316137857
  - # 12
    frequency:     4.7332202002

- q-position: [    0.1145833,    0.0312500,    0.0104167 ]
  weight: 48   
  band:
  - # 1
    frequency:     0.6814914134
  - # 2
    frequency:     0.7024443553
  - # 3
    frequency:     1.0416025046
  - # 4
    frequency:     3.5835604426
  - # 5
    frequency:     3.5891383081
  - # 6
    frequency:     3.5991724920
  - # 7
    frequency:     3.6060230879
  - # 8
    frequency:     3.6527573748
  - # 9
    frequency:     3.6657091693
  - # 10
    frequency:     4.7136757328
  - # 11
    frequency:     4.7143701636
  - # 12
    frequency:     4.7163925928

- q-position: [    0.1354167,    0.0312500,    0.0104167 ]
  weight: 48   
  band:
  - # 1
    frequency:     0.8009367209
  - # 2
    frequency:     0.8194926948
  - # 3
    frequency:     1.2084113819
  - # 4
    frequency:     3.5621392500
  - # 5
    frequency:     3.5676728326
  - # 6
    frequency:     3.5877014606
  - # 7
    frequency:     3.5949672751
  - # 8
    frequency:     3.6587601519
  - # 9
    frequency:     3.6721577440
  - # 10
    frequency:     4.6930848950
  - # 11
    frequency:     4.6939572427
  - # 12
    frequency:     4.6960361635

- q-position: [    0.1562500,    0.0312500,    0.0104167 ]
  weight: 48   
  band:
  - # 1
    frequency:     0.9199246136
  - # 2
    frequency:     0.9364997832
  - # 3
    frequency:     1.3749276736
  - # 4
    frequency:     3.5371594992
  - # 5
    frequency:     3.5426465602
  - # 6
    frequency:     3.5750472488
  - # 7
    frequency:     3.5825254233
  - # 8
    frequency:     3.6660232141
  - # 9
    frequency:     3.6796696942
  - # 10
    frequency:     4.6694450048
  - # 11
    frequency:     4.6705242042
  - # 12
    frequency:     4.6720665801

- q-position: [    0.1770833,    0.0312500,    0.0104167 ]
  weight: 48   
  band:
  - # 1
    frequency:     1.0380364437
  - # 2
    frequency:     1.0529759103
  - # 3
    frequency:     1.5402682686
  - # 4
    frequency:     3.5086274617
  - # 5
    frequency:     3.5140678121
  - # 6
    frequency:     3.5613582135
  - # 7
    frequency:     3.5688926875
  - # 8
    frequency:     3.6746571575
  - # 9
    frequency:     3.6884028106
  - # 10
    frequency:     4.6429277591
  - # 11
    frequency:     4.6442423724
  - # 12
    frequency:     4.6443892698

- q-position: [    0.1979167,    0.0312500,    0.0104167 ]
  weight: 48   
  band:
  - # 1
    frequency:     1.1549918231
  - # 2
    frequency:     1.1685710391
  - # 3
    frequency:     1.7037739696
  - # 4
    frequency:     3.4765509298
  - # 5
    frequency:     3.4819465158
  - # 6
    frequency:     3.5468190993
  - # 7
    frequency:     3.5542864895
  - # 8
    frequency:     3.6847765170
  - # 9
    frequency:     3.6985047500
  - # 10
    frequency:     4.6129010406
  - # 11
    frequency:     4.6137257982
  - # 12
    frequency:     4.6153039331

- q-position: [    0.2187500,    0.0312500,    0.0104167 ]
  weight: 48   
  band:
  - # 1
    frequency:     1.2705756351
  - # 2
    frequency:     1.2830129567
  - # 3
    frequency:     1.8649226825
  - # 4
    frequency:     3.4409394500
  - # 5
    frequency:     3.4462943761
  - # 6
    frequency:     3.5316431404
  - # 7
    frequency:     3.5389430663
  - # 8
    frequency:     3.6964965565
  - # 9
    frequency:     3.7101142611
  - # 10
    frequency:     4.5774918426
  - # 11
    frequency:     4.5820512358
  - # 12
    frequency:     4.5839204508

- q-position: [    0.2395833,    0.0312500,    0.0104167 ]
  weight: 48   
  band:
  - # 1
    frequency:     1.3846071008
  - # 2
    frequency:     1.3960764475
  - # 3
    frequency:     2.0232825242
  - # 4
    frequency:     3.4018045751
  - # 5
    frequency:     3.4071250680
  - # 6
    frequency:     3.5160653364
  - # 7
    frequency:     3.5231139062
  - # 8
    frequency:     3.7099295794
  - # 9
    frequency:     3.7233606374
  - # 10
    frequency:     4.5380466398
  - # 11
    frequency:     4.5481339850
  - # 12
    frequency:     4.5503211826

- q-position: [    0.2604167,    0.0312500,    0.0104167 ]
  weight: 48   
  band:
  - # 1
    frequency:     1.4969256733
  - # 2
    frequency:     1.5075668713
  - # 3
    frequency:     2.1784853371
  - # 4
    frequency:     3.3591601317
  - # 5
    frequency:     3.3644544511
  - # 6
    frequency:     3.5003364434
  - # 7
    frequency:     3.5070619072
  - # 8
    frequency:     3.7251810315
  - # 9
    frequency:     3.7383619630
  - # 10
    frequency:     4.4944473628
  - # 11
    frequency:     4.5122198790
  - # 12
    frequency:     4.5147511847

- q-position: [    0.2812500,    0.0312500,    0.0104167 ]
  weight: 48   
  band:
  - # 1
    frequency:     1.6073842161
  - # 2
    frequency:     1.6173109361
  - # 3
    frequency:     2.3302111859
  - # 4
    frequency:     3.3130224972
  - # 5
    frequency:     3.3183008045
  - # 6
    frequency:     3.4847173373
  - # 7
    frequency:     3.4910572115
  - # 8
    frequency:     3.7423455703
  - # 9
    frequency:     3.7552226246
  - # 10
    frequency:     4.4465749117
  - # 11
    frequency:     4.4745685845
  - # 12
    frequency:     4.4774692101

- q-position: [    0.3020833,    0.0312500,    0.0104167 ]
  weight: 48   
  band:
  - # 1
    frequency:     1.7158455512
  - # 2
    frequency:     1.7251512825
  - # 3
    frequency:     2.4781790146
  - # 4
    frequency:     3.2634108853
  - # 5
    frequency:     3.2686850796
  - # 6
    frequency:     3.4694735272
  - # 7
    frequency:     3.4753727186
  - # 8
    frequency:     3.7615032470
  - # 9
    frequency:     3.7740304563
  - # 10
    frequency:     4.3943111820
  - # 11
    frequency:     4.4354513108
  - # 12
    frequency:     4.4387454012

- q-position: [    0.3229167,    0.0312500,    0.0104167 ]
  weight: 48   
  band:
  - # 1
    frequency:     1.8221806524
  - # 2
    frequency:     1.8309431895
  - # 3
    frequency:     2.6221408787
  - # 4
    frequency:     3.2103476322
  - # 5
    frequency:     3.2156311690
  - # 6
    frequency:     3.4548697052
  - # 7
    frequency:     3.4602793195
  - # 8
    frequency:     3.7827159224
  - # 9
    frequency:     3.7948537996
  - # 10
    frequency:     4.3375410857
  - # 11
    frequency:     4.3951483221
  - # 12
    frequency:     4.3988587853

- q-position: [    0.3437500,    0.0312500,    0.0104167 ]
  weight: 48   
  band:
  - # 1
    frequency:     1.9262676769
  - # 2
    frequency:     1.9345525083
  - # 3
    frequency:     2.7618783018
  - # 4
    frequency:     3.1538584814
  - # 5
    frequency:     3.1591661893
  - # 6
    frequency:     3.4411642970
  - # 7
    frequency:     3.4460409198
  - # 8
    frequency:     3.8060240253
  - # 9
    frequency:     3.8177386878
  - # 10
    frequency:     4.2761545445
  - # 11
    frequency:     4.3539462720
  - # 12
    frequency:     4.3580945890

- q-position: [    0.3645833,    0.0312500,    0.0104167 ]
  weight: 48   
  band:
  - # 1
    frequency:     2.0279914368
  - # 2
    frequency:     2.0358543272
  - # 3
    frequency:     2.8971999160
  - # 4
    frequency:     3.0939728640
  - # 5
    frequency:     3.0993207738
  - # 6
    frequency:     3.4286040427
  - # 7
    frequency:     3.4329093450
  - # 8
    frequency:     3.8314437391
  - # 9
    frequency:     3.8427063077
  - # 10
    frequency:     4.2100484304
  - # 11
    frequency:     4.3121353932
  - # 12
    frequency:     4.3167414036

- q-position: [    0.3854167,    0.0312500,    0.0104167 ]
  weight: 48   
  band:
  - # 1
    frequency:     2.1272431044
  - # 2
    frequency:     2.1347320852
  - # 3
    frequency:     3.0279398784
  - # 4
    frequency:     3.0307241694
  - # 5
    frequency:     3.0361293712
  - # 6
    frequency:     3.4174186811
  - # 7
    frequency:     3.4211192478
  - # 8
    frequency:     3.8589646591
  - # 9
    frequency:     3.8697508173
  - # 10
    frequency:     4.1391284359
  - # 11
    frequency:     4.2700066151
  - # 12
    frequency:     4.2750882656

- q-position: [    0.4062500,    0.0312500,    0.0104167 ]
  weight: 48   
  band:
  - # 1
    frequency:     2.2239200398
  - # 2
    frequency:     2.2310769601
  - # 3
    frequency:     2.9641500055
  - # 4
    frequency:     2.9696305466
  - # 5
    frequency:     3.1539567499
  - # 6
    frequency:     3.4078158489
  - # 7
    frequency:     3.4108831532
  - # 8
    frequency:     3.8885478726
  - # 9
    frequency:     3.8988374742
  - # 10
    frequency:     4.0633108560
  - # 11
    frequency:     4.2278487765
  - # 12
    frequency:     4.2334217924

- q-position: [    0.4270833,    0.0312500,    0.0104167 ]
  weight: 48   
  band:
  - # 1
    frequency:     2.3179256791
  - # 2
    frequency:     2.3247874287
  - # 3
    frequency:     2.8942924454
  - # 4
    frequency:     2.8998672797
  - # 5
    frequency:     3.2751326368
  - # 6
    frequency:     3.3999763268
  - # 7
    frequency:     3.4023867942
  - # 8
    frequency:     3.9201241466
  - # 9
    frequency:     3.9299006710
  - # 10
    frequency:     3.9825242682
  - # 11
    frequency:     4.1859464413
  - # 12
    frequency:     4.1920237694

- q-position: [    0.4479167,    0.0312500,    0.0104167 ]
  weight: 48   
  band:
  - # 1
    frequency:     2.4091694484
  - # 2
    frequency:     2.4157689306
  - # 3
    frequency:     2.8211982598
  - # 4
    frequency:     2.8268872579
  - # 5
    frequency:     3.3913724625
  - # 6
    frequency:     3.3940497804
  - # 7
    frequency:     3.3957848979
  - # 8
    frequency:     3.8967110990
  - # 9
    frequency:     3.9535907897
  - # 10
    frequency:     3.9628398884
  - # 11
    frequency:     4.1445803809
  - # 12
    frequency:     4.1511706863

- q-position: [    0.4687500,    0.0312500,    0.0104167 ]
  weight: 48   
  band:
  - # 1
    frequency:     2.4975666813
  - # 2
    frequency:     2.5039335936
  - # 3
    frequency:     2.7449191328
  - # 4
    frequency:     2.7507431583
  - # 5
    frequency:     3.3901511410
  - # 6
    frequency:     3.3911975771
  - # 7
    frequency:     3.5026032820
  - # 8
    frequency:     3.8058290698
  - # 9
    frequency:     3.9887985544
  - # 10
    frequency:     3.9975000667
  - # 11
    frequency:     4.1040442856
  - # 12
    frequency:     4.1111439050

- q-position: [    0.4895833,    0.0312500,    0.0104167 ]
  weight: 48   
  band:
  - # 1
    frequency:     2.5830385296
  - # 2
    frequency:     2.5891999918
  - # 3
    frequency:     2.6655118602
  - # 4
    frequency:     2.6714929182
  - # 5
    frequency:     3.3883577635
  - # 6
    frequency:     3.3887074722
  - # 7
    frequency:     3.6087735811
  - # 8
    frequency:     3.7098525163
  - # 9
    frequency:     4.0254083306
  - # 10
    frequency:     4.0333619797
  - # 11
    frequency:     4.0649521649
  - # 12
    frequency:     4.0723707454

- q-position: [    0.0520833,    0.0520833,    0.0104167 ]
  weight: 24   
  band:
  - # 1
    frequency:     0.3923825545
  - # 2
    frequency:     0.4384055427
  - # 3
    frequency:     0.6762287258
  - # 4
    frequency:     3.6168747523
  - # 5
    frequency:     3.6221726532
  - # 6
    frequency:     3.6221726532
  - # 7
    frequency:     3.6341294190
  - # 8
    frequency:     3.6341294190
  - # 9
    frequency:     3.6576016689
  - # 10
    frequency:     4.7486561303
  - # 11
    frequency:     4.7496251899
  - # 12
    frequency:     4.7496251899

- q-position: [    0.0729167,    0.0520833,    0.0104167 ]
  weight: 48   
  band:
  - # 1
    frequency:     0.4801846266
  - # 2
    frequency:     0.5319387300
  - # 3
    frequency:     0.8145745277
  - # 4
    frequency:     3.6069204258
  - # 5
    frequency:     3.6114028865
  - # 6
    frequency:     3.6160892648
  - # 7
    frequency:     3.6233968411
  - # 8
    frequency:     3.6369864963
  - # 9
    frequency:     3.6643717518
  - # 10
    frequency:     4.7380400113
  - # 11
    frequency:     4.7392771774
  - # 12
    frequency:     4.7398529549

- q-position: [    0.0937500,    0.0520833,    0.0104167 ]
  weight: 48   
  band:
  - # 1
    frequency:     0.5835763948
  - # 2
    frequency:     0.6350165978
  - # 3
    frequency:     0.9631559925
  - # 4
    frequency:     3.5959492334
  - # 5
    frequency:     3.5970474238
  - # 6
    frequency:     3.6081938586
  - # 7
    frequency:     3.6090935574
  - # 8
    frequency:     3.6408112470
  - # 9
    frequency:     3.6713290559
  - # 10
    frequency:     4.7240049181
  - # 11
    frequency:     4.7255988681
  - # 12
    frequency:     4.7267497676

- q-position: [    0.1145833,    0.0520833,    0.0104167 ]
  weight: 48   
  band:
  - # 1
    frequency:     0.6944746057
  - # 2
    frequency:     0.7432553382
  - # 3
    frequency:     1.1174916027
  - # 4
    frequency:     3.5791101382
  - # 5
    frequency:     3.5839798665
  - # 6
    frequency:     3.5912253678
  - # 7
    frequency:     3.5985803947
  - # 8
    frequency:     3.6457024219
  - # 9
    frequency:     3.6786481911
  - # 10
    frequency:     4.7066524367
  - # 11
    frequency:     4.7086912266
  - # 12
    frequency:     4.7102543187

- q-position: [    0.1354167,    0.0520833,    0.0104167 ]
  weight: 48   
  band:
  - # 1
    frequency:     0.8087968373
  - # 2