nqpoint: 306    
npath: 6      
segment_nqpoint:
- 51
- 51
- 51
- 51
- 51
- 51
reciprocal_lattice:
- [  -0.24283323,   0.24283323,   0.24283323 ] # a*
- [   0.24283323,  -0.24283323,   0.24283323 ] # b*
- [   0.24283323,   0.24283323,  -0.24283323 ] # c*
natom: 1      
lattice:
- [     0.000000000000000,     2.059026248533136,     2.059026248533136 ] # a
- [     2.059026248533136,     0.000000000000000,     2.059026248533136 ] # b
- [     2.059026248533136,     2.059026248533136,     0.000000000000000 ] # c
points:
- symbol: Al # 1
  coordinates: [  0.000000000000000,  0.000000000000000,  0.000000000000000 ]
  mass: 26.981539
supercell_matrix:
- [   -4,    4,    4 ]
- [    4,   -4,    4 ]
- [    4,    4,   -4 ]

phonon:
- q-position: [    0.0000000,    0.0000000,    0.0000000 ]
  distance:    0.0000000
  label: '\Gamma'
  band:
  - # 1
    frequency:   -0.0000000977
  - # 2
    frequency:   -0.0000000651
  - # 3
    frequency:   -0.0000000145

- q-position: [    0.0000000,    0.0100000,    0.0100000 ]
  distance:    0.0048567
  band:
  - # 1
    frequency:    0.1731733571
  - # 2
    frequency:    0.1731733571
  - # 3
    frequency:    0.2788944685

- q-position: [    0.0000000,    0.0200000,    0.0200000 ]
  distance:    0.0097133
  band:
  - # 1
    frequency:    0.3459257980
  - # 2
    frequency:    0.3459257980
  - # 3
    frequency:    0.5575022867

- q-position: [    0.0000000,    0.0300000,    0.0300000 ]
  distance:    0.0145700
  band:
  - # 1
    frequency:    0.5178384413
  - # 2
    frequency:    0.5178384413
  - # 3
    frequency:    0.8355371878

- q-position: [    0.0000000,    0.0400000,    0.0400000 ]
  distance:    0.0194267
  band:
  - # 1
    frequency:    0.6884964668
  - # 2
    frequency:    0.6884964668
  - # 3
    frequency:    1.1127136705

- q-position: [    0.0000000,    0.0500000,    0.0500000 ]
  distance:    0.0242833
  band:
  - # 1
    frequency:    0.8574911276
  - # 2
    frequency:    0.8574911276
  - # 3
    frequency:    1.3887473790

- q-position: [    0.0000000,    0.0600000,    0.0600000 ]
  distance:    0.0291400
  band:
  - # 1
    frequency:    1.0244217390
  - # 2
    frequency:    1.0244217390
  - # 3
    frequency:    1.6633554785

- q-position: [    0.0000000,    0.0700000,    0.0700000 ]
  distance:    0.0339967
  band:
  - # 1
    frequency:    1.1888976364
  - # 2
    frequency:    1.1888976364
  - # 3
    frequency:    1.9362570267

- q-position: [    0.0000000,    0.0800000,    0.0800000 ]
  distance:    0.0388533
  band:
  - # 1
    frequency:    1.3505400960
  - # 2
    frequency:    1.3505400960
  - # 3
    frequency:    2.2071733386

- q-position: [    0.0000000,    0.0900000,    0.0900000 ]
  distance:    0.0437100
  band:
  - # 1
    frequency:    1.5089842090
  - # 2
    frequency:    1.5089842090
  - # 3
    frequency:    2.4758283441

- q-position: [    0.0000000,    0.1000000,    0.1000000 ]
  distance:    0.0485666
  band:
  - # 1
    frequency:    1.6638807031
  - # 2
    frequency:    1.6638807031
  - # 3
    frequency:    2.7419489376

- q-position: [    0.0000000,    0.1100000,    0.1100000 ]
  distance:    0.0534233
  band:
  - # 1
    frequency:    1.8148977027
  - # 2
    frequency:    1.8148977027
  - # 3
    frequency:    3.0052653181

- q-position: [    0.0000000,    0.1200000,    0.1200000 ]
  distance:    0.0582800
  band:
  - # 1
    frequency:    1.9617224202
  - # 2
    frequency:    1.9617224202
  - # 3
    frequency:    3.2655113189

- q-position: [    0.0000000,    0.1300000,    0.1300000 ]
  distance:    0.0631366
  band:
  - # 1
    frequency:    2.1040627718
  - # 2
    frequency:    2.1040627718
  - # 3
    frequency:    3.5224247266

- q-position: [    0.0000000,    0.1400000,    0.1400000 ]
  distance:    0.0679933
  band:
  - # 1
    frequency:    2.2416489077
  - # 2
    frequency:    2.2416489077
  - # 3
    frequency:    3.7757475874

- q-position: [    0.0000000,    0.1500000,    0.1500000 ]
  distance:    0.0728500
  band:
  - # 1
    frequency:    2.3742346511
  - # 2
    frequency:    2.3742346511
  - # 3
    frequency:    4.0252265017

- q-position: [    0.0000000,    0.1600000,    0.1600000 ]
  distance:    0.0777066
  band:
  - # 1
    frequency:    2.5015988361
  - # 2
    frequency:    2.5015988361
  - # 3
    frequency:    4.2706129042

- q-position: [    0.0000000,    0.1700000,    0.1700000 ]
  distance:    0.0825633
  band:
  - # 1
    frequency:    2.6235465363
  - # 2
    frequency:    2.6235465363
  - # 3
    frequency:    4.5116633308

- q-position: [    0.0000000,    0.1800000,    0.1800000 ]
  distance:    0.0874200
  band:
  - # 1
    frequency:    2.7399101757
  - # 2
    frequency:    2.7399101757
  - # 3
    frequency:    4.7481396713

- q-position: [    0.0000000,    0.1900000,    0.1900000 ]
  distance:    0.0922766
  band:
  - # 1
    frequency:    2.8505505125
  - # 2
    frequency:    2.8505505125
  - # 3
    frequency:    4.9798094065

- q-position: [    0.0000000,    0.2000000,    0.2000000 ]
  distance:    0.0971333
  band:
  - # 1
    frequency:    2.9553574855
  - # 2
    frequency:    2.9553574855
  - # 3
    frequency:    5.2064458312

- q-position: [    0.0000000,    0.2100000,    0.2100000 ]
  distance:    0.1019900
  band:
  - # 1
    frequency:    3.0542509131
  - # 2
    frequency:    3.0542509131
  - # 3
    frequency:    5.4278282616

- q-position: [    0.0000000,    0.2200000,    0.2200000 ]
  distance:    0.1068466
  band:
  - # 1
    frequency:    3.1471810338
  - # 2
    frequency:    3.1471810338
  - # 3
    frequency:    5.6437422271

- q-position: [    0.0000000,    0.2300000,    0.2300000 ]
  distance:    0.1117033
  band:
  - # 1
    frequency:    3.2341288759
  - # 2
    frequency:    3.2341288759
  - # 3
    frequency:    5.8539796474

- q-position: [    0.0000000,    0.2400000,    0.2400000 ]
  distance:    0.1165600
  band:
  - # 1
    frequency:    3.3151064445
  - # 2
    frequency:    3.3151064445
  - # 3
    frequency:    6.0583389944

- q-position: [    0.0000000,    0.2500000,    0.2500000 ]
  distance:    0.1214166
  band:
  - # 1
    frequency:    3.3901567108
  - # 2
    frequency:    3.3901567108
  - # 3
    frequency:    6.2566254385

- q-position: [    0.0000000,    0.2600000,    0.2600000 ]
  distance:    0.1262733
  band:
  - # 1
    frequency:    3.4593533905
  - # 2
    frequency:    3.4593533905
  - # 3
    frequency:    6.4486509814

- q-position: [    0.0000000,    0.2700000,    0.2700000 ]
  distance:    0.1311299
  band:
  - # 1
    frequency:    3.5228004949
  - # 2
    frequency:    3.5228004949
  - # 3
    frequency:    6.6342345734

- q-position: [    0.0000000,    0.2800000,    0.2800000 ]
  distance:    0.1359866
  band:
  - # 1
    frequency:    3.5806316389
  - # 2
    frequency:    3.5806316389
  - # 3
    frequency:    6.8132022179

- q-position: [    0.0000000,    0.2900000,    0.2900000 ]
  distance:    0.1408433
  band:
  - # 1
    frequency:    3.6330090888
  - # 2
    frequency:    3.6330090888
  - # 3
    frequency:    6.9853870622

- q-position: [    0.0000000,    0.3000000,    0.3000000 ]
  distance:    0.1456999
  band:
  - # 1
    frequency:    3.6801225332
  - # 2
    frequency:    3.6801225332
  - # 3
    frequency:    7.1506294758

- q-position: [    0.0000000,    0.3100000,    0.3100000 ]
  distance:    0.1505566
  band:
  - # 1
    frequency:    3.7221875607
  - # 2
    frequency:    3.7221875607
  - # 3
    frequency:    7.3087771168

- q-position: [    0.0000000,    0.3200000,    0.3200000 ]
  distance:    0.1554133
  band:
  - # 1
    frequency:    3.7594438276
  - # 2
    frequency:    3.7594438276
  - # 3
    frequency:    7.4596849868

- q-position: [    0.0000000,    0.3300000,    0.3300000 ]
  distance:    0.1602699
  band:
  - # 1
    frequency:    3.7921529031
  - # 2
    frequency:    3.7921529031
  - # 3
    frequency:    7.6032154761

- q-position: [    0.0000000,    0.3400000,    0.3400000 ]
  distance:    0.1651266
  band:
  - # 1
    frequency:    3.8205957808
  - # 2
    frequency:    3.8205957808
  - # 3
    frequency:    7.7392383983

- q-position: [    0.0000000,    0.3500000,    0.3500000 ]
  distance:    0.1699833
  band:
  - # 1
    frequency:    3.8450700494
  - # 2
    frequency:    3.8450700494
  - # 3
    frequency:    7.8676310173

- q-position: [    0.0000000,    0.3600000,    0.3600000 ]
  distance:    0.1748399
  band:
  - # 1
    frequency:    3.8658867238
  - # 2
    frequency:    3.8658867238
  - # 3
    frequency:    7.9882780656

- q-position: [    0.0000000,    0.3700000,    0.3700000 ]
  distance:    0.1796966
  band:
  - # 1
    frequency:    3.8833667414
  - # 2
    frequency:    3.8833667414
  - # 3
    frequency:    8.1010717561

- q-position: [    0.0000000,    0.3800000,    0.3800000 ]
  distance:    0.1845533
  band:
  - # 1
    frequency:    3.8978371428
  - # 2
    frequency:    3.8978371428
  - # 3
    frequency:    8.2059117877

- q-position: [    0.0000000,    0.3900000,    0.3900000 ]
  distance:    0.1894099
  band:
  - # 1
    frequency:    3.9096269623
  - # 2
    frequency:    3.9096269623
  - # 3
    frequency:    8.3027053461

- q-position: [    0.0000000,    0.4000000,    0.4000000 ]
  distance:    0.1942666
  band:
  - # 1
    frequency:    3.9190628707
  - # 2
    frequency:    3.9190628707
  - # 3
    frequency:    8.3913670997

- q-position: [    0.0000000,    0.4100000,    0.4100000 ]
  distance:    0.1991233
  band:
  - # 1
    frequency:    3.9264646238
  - # 2
    frequency:    3.9264646238
  - # 3
    frequency:    8.4718191931

- q-position: [    0.0000000,    0.4200000,    0.4200000 ]
  distance:    0.2039799
  band:
  - # 1
    frequency:    3.9321403869
  - # 2
    frequency:    3.9321403869
  - # 3
    frequency:    8.5439912371

- q-position: [    0.0000000,    0.4300000,    0.4300000 ]
  distance:    0.2088366
  band:
  - # 1
    frequency:    3.9363820176
  - # 2
    frequency:    3.9363820176
  - # 3
    frequency:    8.6078202978

- q-position: [    0.0000000,    0.4400000,    0.4400000 ]
  distance:    0.2136932
  band:
  - # 1
    frequency:    3.9394604048
  - # 2
    frequency:    3.9394604048
  - # 3
    frequency:    8.6632508839

- q-position: [    0.0000000,    0.4500000,    0.4500000 ]
  distance:    0.2185499
  band:
  - # 1
    frequency:    3.9416209713
  - # 2
    frequency:    3.9416209713
  - # 3
    frequency:    8.7102349346

- q-position: [    0.0000000,    0.4600000,    0.4600000 ]
  distance:    0.2234066
  band:
  - # 1
    frequency:    3.9430794537
  - # 2
    frequency:    3.9430794537
  - # 3
    frequency:    8.7487318072

- q-position: [    0.0000000,    0.4700000,    0.4700000 ]
  distance:    0.2282632
  band:
  - # 1
    frequency:    3.9440180778
  - # 2
    frequency:    3.9440180778
  - # 3
    frequency:    8.7787082656

- q-position: [    0.0000000,    0.4800000,    0.4800000 ]
  distance:    0.2331199
  band:
  - # 1
    frequency:    3.9445822430
  - # 2
    frequency:    3.9445822430
  - # 3
    frequency:    8.8001384708

- q-position: [    0.0000000,    0.4900000,    0.4900000 ]
  distance:    0.2379766
  band:
  - # 1
    frequency:    3.9448778197
  - # 2
    frequency:    3.9448778197
  - # 3
    frequency:    8.8130039724

- q-position: [    0.0000000,    0.5000000,    0.5000000 ]
  distance:    0.2428332
  label: 'X'
  band:
  - # 1
    frequency:    3.9449691501
  - # 2
    frequency:    3.9449691501
  - # 3
    frequency:    8.8172937025

- q-position: [    0.0000000,    0.5000000,    0.5000000 ]
  distance:    0.2428332
  label: 'X'
  band:
  - # 1
    frequency:    3.9449691501
  - # 2
    frequency:    3.9449691501
  - # 3
    frequency:    8.8172937025

- q-position: [    0.0050000,    0.5050000,    0.5000000 ]
  distance:    0.2452616
  band:
  - # 1
    frequency:    3.9454312549
  - # 2
    frequency:    3.9460860392
  - # 3
    frequency:    8.8157603995

- q-position: [    0.0100000,    0.5100000,    0.5000000 ]
  distance:    0.2476899
  band:
  - # 1
    frequency:    3.9468211740
  - # 2
    frequency:    3.9494304081
  - # 3
    frequency:    8.8111623678

- q-position: [    0.0150000,    0.5150000,    0.5000000 ]
  distance:    0.2501182
  band:
  - # 1
    frequency:    3.9491496873
  - # 2
    frequency:    3.9549834313
  - # 3
    frequency:    8.8035052382

- q-position: [    0.0200000,    0.5200000,    0.5000000 ]
  distance:    0.2525466
  band:
  - # 1
    frequency:    3.9524346483
  - # 2
    frequency:    3.9627139669
  - # 3
    frequency:    8.7927983908

- q-position: [    0.0250000,    0.5250000,    0.5000000 ]
  distance:    0.2549749
  band:
  - # 1
    frequency:    3.9567008158
  - # 2
    frequency:    3.9725788994
  - # 3
    frequency:    8.7790549479

- q-position: [    0.0300000,    0.5300000,    0.5000000 ]
  distance:    0.2574032
  band:
  - # 1
    frequency:    3.9619796171
  - # 2
    frequency:    3.9845236087
  - # 3
    frequency:    8.7622917642

- q-position: [    0.0350000,    0.5350000,    0.5000000 ]
  distance:    0.2598316
  band:
  - # 1
    frequency:    3.9683088466
  - # 2
    frequency:    3.9984825511
  - # 3
    frequency:    8.7425294146

- q-position: [    0.0400000,    0.5400000,    0.5000000 ]
  distance:    0.2622599
  band:
  - # 1
    frequency:    3.9757322987
  - # 2
    frequency:    4.0143799399
  - # 3
    frequency:    8.7197921787

- q-position: [    0.0450000,    0.5450000,    0.5000000 ]
  distance:    0.2646882
  band:
  - # 1
    frequency:    3.9842993367
  - # 2
    frequency:    4.0321305081
  - # 3
    frequency:    8.6941080227

- q-position: [    0.0500000,    0.5500000,    0.5000000 ]
  distance:    0.2671166
  band:
  - # 1
    frequency:    3.9940644011
  - # 2
    frequency:    4.0516403374
  - # 3
    frequency:    8.6655085786

- q-position: [    0.0550000,    0.5550000,    0.5000000 ]
  distance:    0.2695449
  band:
  - # 1
    frequency:    4.0050864584
  - # 2
    frequency:    4.0728077353
  - # 3
    frequency:    8.6340291207

- q-position: [    0.0600000,    0.5600000,    0.5000000 ]
  distance:    0.2719732
  band:
  - # 1
    frequency:    4.0174283944
  - # 2
    frequency:    4.0955241433
  - # 3
    frequency:    8.5997085387

- q-position: [    0.0650000,    0.5650000,    0.5000000 ]
  distance:    0.2744016
  band:
  - # 1
    frequency:    4.0311563574
  - # 2
    frequency:    4.1196750602
  - # 3
    frequency:    8.5625893091

- q-position: [    0.0700000,    0.5700000,    0.5000000 ]
  distance:    0.2768299
  band:
  - # 1
    frequency:    4.0463390540
  - # 2
    frequency:    4.1451409646
  - # 3
    frequency:    8.5227174625

- q-position: [    0.0750000,    0.5750000,    0.5000000 ]
  distance:    0.2792582
  band:
  - # 1
    frequency:    4.0630470060
  - # 2
    frequency:    4.1717982238
  - # 3
    frequency:    8.4801425493

- q-position: [    0.0800000,    0.5800000,    0.5000000 ]
  distance:    0.2816865
  band:
  - # 1
    frequency:    4.0813517739
  - # 2
    frequency:    4.1995199769
  - # 3
    frequency:    8.4349176015

- q-position: [    0.0850000,    0.5850000,    0.5000000 ]
  distance:    0.2841149
  band:
  - # 1
    frequency:    4.1013251558
  - # 2
    frequency:    4.2281769831
  - # 3
    frequency:    8.3870990923

- q-position: [    0.0900000,    0.5900000,    0.5000000 ]
  distance:    0.2865432
  band:
  - # 1
    frequency:    4.1230383700
  - # 2
    frequency:    4.2576384268
  - # 3
    frequency:    8.3367468927

- q-position: [    0.0950000,    0.5950000,    0.5000000 ]
  distance:    0.2889715
  band:
  - # 1
    frequency:    4.1465612312
  - # 2
    frequency:    4.2877726737
  - # 3
    frequency:    8.2839242245

- q-position: [    0.1000000,    0.6000000,    0.5000000 ]
  distance:    0.2913999
  band:
  - # 1
    frequency:    4.1719613307
  - # 2
    frequency:    4.3184479749
  - # 3
    frequency:    8.2286976114

- q-position: [    0.1050000,    0.6050000,    0.5000000 ]
  distance:    0.2938282
  band:
  - # 1
    frequency:    4.1993032303
  - # 2
    frequency:    4.3495331157
  - # 3
    frequency:    8.1711368260

- q-position: [    0.1100000,    0.6100000,    0.5000000 ]
  distance:    0.2962565
  band:
  - # 1
    frequency:    4.2286476816
  - # 2
    frequency:    4.3808980085
  - # 3
    frequency:    8.1113148338

- q-position: [    0.1150000,    0.6150000,    0.5000000 ]
  distance:    0.2986849
  band:
  - # 1
    frequency:    4.2600508810
  - # 2
    frequency:    4.4124142306
  - # 3
    frequency:    8.0493077348

- q-position: [    0.1200000,    0.6200000,    0.5000000 ]
  distance:    0.3011132
  band:
  - # 1
    frequency:    4.2935637695
  - # 2
    frequency:    4.4439555080
  - # 3
    frequency:    7.9851947001

- q-position: [    0.1250000,    0.6250000,    0.5000000 ]
  distance:    0.3035415
  band:
  - # 1
    frequency:    4.3292313888
  - # 2
    frequency:    4.4753981467
  - # 3
    frequency:    7.9190579067

- q-position: [    0.1300000,    0.6300000,    0.5000000 ]
  distance:    0.3059699
  band:
  - # 1
    frequency:    4.3670922999
  - # 2
    frequency:    4.5066214158
  - # 3
    frequency:    7.8509824670

- q-position: [    0.1350000,    0.6350000,    0.5000000 ]
  distance:    0.3083982
  band:
  - # 1
    frequency:    4.4071780729
  - # 2
    frequency:    4.5375078843
  - # 3
    frequency:    7.7810563557

- q-position: [    0.1400000,    0.6400000,    0.5000000 ]
  distance:    0.3108265
  band:
  - # 1
    frequency:    4.4495128538
  - # 2
    frequency:    4.5679437148
  - # 3
    frequency:    7.7093703316

- q-position: [    0.1450000,    0.6450000,    0.5000000 ]
  distance:    0.3132549
  band:
  - # 1
    frequency:    4.4941130112
  - # 2
    frequency:    4.5978189197
  - # 3
    frequency:    7.6360178555

- q-position: [    0.1500000,    0.6500000,    0.5000000 ]
  distance:    0.3156832
  band:
  - # 1
    frequency:    4.5409868664
  - # 2
    frequency:    4.6270275805
  - # 3
    frequency:    7.5610950033

- q-position: [    0.1550000,    0.6550000,    0.5000000 ]
  distance:    0.3181115
  band:
  - # 1
    frequency:    4.5901345083
  - # 2
    frequency:    4.6554680368
  - # 3
    frequency:    7.4847003740

- q-position: [    0.1600000,    0.6600000,    0.5000000 ]
  distance:    0.3205399
  band:
  - # 1
    frequency:    4.6415476900
  - # 2
    frequency:    4.6830430459
  - # 3
    frequency:    7.4069349925

- q-position: [    0.1650000,    0.6650000,    0.5000000 ]
  distance:    0.3229682
  band:
  - # 1
    frequency:    4.6952098072
  - # 2
    frequency:    4.7096599179
  - # 3
    frequency:    7.3279022062

- q-position: [    0.1700000,    0.6700000,    0.5000000 ]
  distance:    0.3253965
  band:
  - # 1
    frequency:    4.7352306286
  - # 2
    frequency:    4.7510959523
  - # 3
    frequency:    7.2477075755

- q-position: [    0.1750000,    0.6750000,    0.5000000 ]
  distance:    0.3278249
  band:
  - # 1
    frequency:    4.7596719133
  - # 2
    frequency:    4.8091730409
  - # 3
    frequency:    7.1664587579

- q-position: [    0.1800000,    0.6800000,    0.5000000 ]
  distance:    0.3302532
  band:
  - # 1
    frequency:    4.7829053436
  - # 2
    frequency:    4.8694000024
  - # 3
    frequency:    7.0842653836

- q-position: [    0.1850000,    0.6850000,    0.5000000 ]
  distance:    0.3326815
  band:
  - # 1
    frequency:    4.8048573903
  - # 2
    frequency:    4.9317280301
  - # 3
    frequency:    7.0012389245

- q-position: [    0.1900000,    0.6900000,    0.5000000 ]
  distance:    0.3351099
  band:
  - # 1
    frequency:    4.8254594739
  - # 2
    frequency:    4.9961008814
  - # 3
    frequency:    6.9174925531

- q-position: [    0.1950000,    0.6950000,    0.5000000 ]
  distance:    0.3375382
  band:
  - # 1
    frequency:    4.8446480052
  - # 2
    frequency:    5.0624552216
  - # 3
    frequency:    6.8331409929

- q-position: [    0.2000000,    0.7000000,    0.5000000 ]
  distance:    0.3399665
  band:
  - # 1
    frequency:    4.8623644165
  - # 2
    frequency:    5.1307210026
  - # 3
    frequency:    6.7483003580

- q-position: [    0.2050000,    0.7050000,    0.5000000 ]
  distance:    0.3423949
  band:
  - # 1
    frequency:    4.8785551865
  - # 2
    frequency:    5.2008218702
  - # 3
    frequency:    6.6630879819

- q-position: [    0.2100000,    0.7100000,    0.5000000 ]
  distance:    0.3448232
  band:
  - # 1
    frequency:    4.8931718588
  - # 2
    frequency:    5.2726755908
  - # 3
    frequency:    6.5776222344

- q-position: [    0.2150000,    0.7150000,    0.5000000 ]
  distance:    0.3472515
  band:
  - # 1
    frequency:    4.9061710560
  - # 2
    frequency:    5.3461944933
  - # 3
    frequency:    6.4920223250

- q-position: [    0.2200000,    0.7200000,    0.5000000 ]
  distance:    0.3496799
  band:
  - # 1
    frequency:    4.9175144895
  - # 2
    frequency:    5.4212859169
  - # 3
    frequency:    6.4064080931

- q-position: [    0.2250000,    0.7250000,    0.5000000 ]
  distance:    0.3521082
  band:
  - # 1
    frequency:    4.9271689671
  - # 2
    frequency:    5.4978526626
  - # 3
    frequency:    6.3208997834

- q-position: [    0.2300000,    0.7300000,    0.5000000 ]
  distance:    0.3545365
  band:
  - # 1
    frequency:    4.9351063980
  - # 2
    frequency:    5.5757934405
  - # 3
    frequency:    6.2356178052

- q-position: [    0.2350000,    0.7350000,    0.5000000 ]
  distance:    0.3569649
  band:
  - # 1
    frequency:    4.9413037956
  - # 2
    frequency:    5.6550033109
  - # 3
    frequency:    6.1506824757

- q-position: [    0.2400000,    0.7400000,    0.5000000 ]
  distance:    0.3593932
  band:
  - # 1
    frequency:    4.9457432803
  - # 2
    frequency:    5.7353741149
  - # 3
    frequency:    6.0662137454

- q-position: [    0.2450000,    0.7450000,    0.5000000 ]
  distance:    0.3618215
  band:
  - # 1
    frequency:    4.9484120800
  - # 2
    frequency:    5.8167948918
  - # 3
    frequency:    5.9823309064

- q-position: [    0.2500000,    0.7500000,    0.5000000 ]
  distance:    0.3642498
  label: 'W'
  band:
  - # 1
    frequency:    4.9493025314
  - # 2
    frequency:    5.8991522808
  - # 3
    frequency:    5.8991522808

- q-position: [    0.2500000,    0.7500000,    0.5000000 ]
  distance:    0.3642498
  label: 'W'
  band:
  - # 1
    frequency:    4.9493025314
  - # 2
    frequency:    5.8991522808
  - # 3
    frequency:    5.8991522808

- q-position: [    0.2450000,    0.7450000,    0.5000000 ]
  distance:    0.3666782
  band:
  - # 1
    frequency:    4.9484120800
  - # 2
    frequency:    5.8167948918
  - # 3
    frequency:    5.9823309064

- q-position: [    0.2400000,    0.7400000,    0.5000000 ]
  distance:    0.3691065
  band:
  - # 1
    frequency:    4.9457432803
  - # 2
    frequency:    5.7353741149
  - # 3
    frequency:    6.0662137454

- q-position: [    0.2350000,    0.7350000,    0.5000000 ]
  distance:    0.3715348
  band:
  - # 1
    frequency:    4.9413037956
  - # 2
    frequency:    5.6550033109
  - # 3
    frequency:    6.1506824757

- q-position: [    0.2300000,    0.7300000,    0.5000000 ]
  distance:    0.3739632
  band:
  - # 1
    frequency:    4.9351063980
  - # 2
    frequency:    5.5757934405
  - # 3
    frequency:    6.2356178052

- q-position: [    0.2250000,    0.7250000,    0.5000000 ]
  distance:    0.3763915
  band:
  - # 1
    frequency:    4.9271689671
  - # 2
    frequency:    5.4978526626
  - # 3
    frequency:    6.3208997834

- q-position: [    0.2200000,    0.7200000,    0.5000000 ]
  distance:    0.3788198
  band:
  - # 1
    frequency:    4.9175144895
  - # 2
    frequency:    5.4212859169
  - # 3
    frequency:    6.4064080931

- q-position: [    0.2150000,    0.7150000,    0.5000000 ]
  distance:    0.3812482
  band:
  - # 1
    frequency:    4.9061710560
  - # 2
    frequency:    5.3461944933
  - # 3
    frequency:    6.4920223250

- q-position: [    0.2100000,    0.7100000,    0.5000000 ]
  distance:    0.3836765
  band:
  - # 1
    frequency:    4.8931718588
  - # 2
    frequency:    5.2726755908
  - # 3
    frequency:    6.5776222344

- q-position: [    0.2050000,    0.7050000,    0.5000000 ]
  distance:    0.3861048
  band:
  - # 1
    frequency:    4.8785551865
  - # 2
    frequency:    5.2008218702
  - # 3
    frequency:    6.6630879819

- q-position: [    0.2000000,    0.7000000,    0.5000000 ]
  distance:    0.3885332
  band:
  - # 1
    frequency:    4.8623644165
  - # 2
    frequency:    5.1307210026
  - # 3
    frequency:    6.7483003580

- q-position: [    0.1950000,    0.6950000,    0.5000000 ]
  distance:    0.3909615
  band:
  - # 1
    frequency:    4.8446480052
  - # 2
    frequency:    5.0624552216
  - # 3
    frequency:    6.8331409929

- q-position: [    0.1900000,    0.6900000,    0.5000000 ]
  distance:    0.3933898
  band:
  - # 1
    frequency:    4.8254594739
  - # 2
    frequency:    4.9961008814
  - # 3
    frequency:    6.9174925531

- q-position: [    0.1850000,    0.6850000,    0.5000000 ]
  distance:    0.3958182
  band:
  - # 1
    frequency:    4.8048573903
  - # 2
    frequency:    4.9317280301
  - # 3
    frequency:    7.0012389245

- q-position: [    0.1800000,    0.6800000,    0.5000000 ]
  distance:    0.3982465
  band:
  - # 1
    frequency:    4.7829053436
  - # 2
    frequency:    4.8694000024
  - # 3
    frequency:    7.0842653836

- q-position: [    0.1750000,    0.6750000,    0.5000000 ]
  distance:    0.4006748
  band:
  - # 1
    frequency:    4.7596719133
  - # 2
    frequency:    4.8091730409
  - # 3
    frequency:    7.1664587579

- q-position: [    0.1700000,    0.6700000,    0.5000000 ]
  distance:    0.4031032
  band:
  - # 1
    frequency:    4.7352306286
  - # 2
    frequency:    4.7510959523
  - # 3
    frequency:    7.2477075755

- q-position: [    0.1650000,    0.6650000,    0.5000000 ]
  distance:    0.4055315
  band:
  - # 1
    frequency:    4.6952098072
  - # 2
    frequency:    4.7096599179
  - # 3
    frequency:    7.3279022062

- q-position: [    0.1600000,    0.6600000,    0.5000000 ]
  distance:    0.4079598
  band:
  - # 1
    frequency:    4.6415476900
  - # 2
    frequency:    4.6830430459
  - # 3
    frequency:    7.4069349925

- q-position: [    0.1550000,    0.6550000,    0.5000000 ]
  distance:    0.4103882
  band:
  - # 1
    frequency:    4.5901345083
  - # 2
    frequency:    4.6554680368
  - # 3
    frequency:    7.4847003740

- q-position: [    0.1500000,    0.6500000,    0.5000000 ]
  distance:    0.4128165
  band:
  - # 1
    frequency:    4.5409868664
  - # 2
    frequency:    4.6270275805
  - # 3
    frequency:    7.5610950033

- q-position: [    0.1450000,    0.6450000,    0.5000000 ]
  distance:    0.4152448
  band:
  - # 1
    frequency:    4.4941130112
  - # 2
    frequency:    4.5978189197
  - # 3
    frequency:    7.6360178555

- q-position: [    0.1400000,    0.6400000,    0.5000000 ]
  distance:    0.4176732
  band:
  - # 1
    frequency:    4.4495128538
  - # 2
    frequency:    4.5679437148
  - # 3
    frequency:    7.7093703316

- q-position: [    0.1350000,    0.6350000,    0.5000000 ]
  distance:    0.4201015
  band:
  - # 1
    frequency:    4.4071780729
  - # 2
    frequency:    4.5375078843
  - # 3
    frequency:    7.7810563557

- q-position: [    0.1300000,    0.6300000,    0.5000000 ]
  distance:    0.4225298
  band:
  - # 1
    frequency:    4.3670922999
  - # 2
    frequency:    4.5066214158
  - # 3
    frequency:    7.8509824670

- q-position: [    0.1250000,    0.6250000,    0.5000000 ]
  distance:    0.4249582
  band:
  - # 1
    frequency:    4.3292313888
  - # 2
    frequency:    4.4753981467
  - # 3
    frequency:    7.9190579067

- q-position: [    0.1200000,    0.6200000,    0.5000000 ]
  distance:    0.4273865
  band:
  - # 1
    frequency:    4.2935637695
  - # 2
    frequency:    4.4439555080
  - # 3
    frequency:    7.9851947001

- q-position: [    0.1150000,    0.6150000,    0.5000000 ]
  distance:    0.4298148
  band:
  - # 1
    frequency:    4.2600508810
  - # 2
    frequency:    4.4124142306
  - # 3
    frequency:    8.0493077348

- q-position: [    0.1100000,    0.6100000,    0.5000000 ]
  distance:    0.4322432
  band:
  - # 1
    frequency:    4.2286476816
  - # 2
    frequency:    4.3808980085
  - # 3
    frequency:    8.1113148338

- q-position: [    0.1050000,    0.6050000,    0.5000000 ]
  distance:    0.4346715
  band:
  - # 1
    frequency:    4.1993032303
  - # 2
    frequency:    4.3495331157
  - # 3
    frequency:    8.1711368260

- q-position: [    0.1000000,    0.6000000,    0.5000000 ]
  distance:    0.4370998
  band:
  - # 1
    frequency:    4.1719613307
  - # 2
    frequency:    4.3184479749
  - # 3
    frequency:    8.2286976114

- q-position: [    0.0950000,    0.5950000,    0.5000000 ]
  distance:    0.4395282
  band:
  - # 1
    frequency:    4.1465612312
  - # 2
    frequency:    4.2877726737
  - # 3
    frequency:    8.2839242245

- q-position: [    0.0900000,    0.5900000,    0.5000000 ]
  distance:    0.4419565
  band:
  - # 1
    frequency:    4.1230383700
  - # 2
    frequency:    4.2576384268
  - # 3
    frequency:    8.3367468927

- q-position: [    0.0850000,    0.5850000,    0.5000000 ]
  distance:    0.4443848
  band:
  - # 1
    frequency:    4.1013251558
  - # 2
    frequency:    4.2281769831
  - # 3
    frequency:    8.3870990923

- q-position: [    0.0800000,    0.5800000,    0.5000000 ]
  distance:    0.4468131
  band:
  - # 1
    frequency:    4.0813517739
  - # 2
    frequency:    4.1995199769
  - # 3
    frequency:    8.4349176015

- q-position: [    0.0750000,    0.5750000,    0.5000000 ]
  distance:    0.4492415
  band:
  - # 1
    frequency:    4.0630470060
  - # 2
    frequency:    4.1717982238
  - # 3
    frequency:    8.4801425493

- q-position: [    0.0700000,    0.5700000,    0.5000000 ]
  distance:    0.4516698
  band:
  - # 1
    frequency:    4.0463390540
  - # 2
    frequency:    4.1451409646
  - # 3
    frequency:    8.5227174625
