32   
1    

1    
  0.0100000000000000   0.0000000000000000   0.0000000000000000
  -0.0325742800    0.0000000000    0.0000000000
   0.0035645100    0.0000000000    0.0000000000
   0.0011241700   -0.0000000000    0.0000000000
   0.0000848400   -0.0000000000   -0.0000000000
   0.0011241700    0.0000000000   -0.0000000000
   0.0000848400   -0.0000000000   -0.0000000000
  -0.0022627700   -0.0000000000   -0.0000000000
  -0.0011934000    0.0000000000    0.0000000000
  -0.0026191700    0.0000002800   -0.0000002800
  -0.0005975200    0.0000213300   -0.0000213300
  -0.0026191700   -0.0000002800   -0.0000002800
  -0.0005975200   -0.0000213300   -0.0000213300
  -0.0026191700    0.0000002800    0.0000002800
  -0.0005975200    0.0000213300    0.0000213300
  -0.0026191700   -0.0000002800    0.0000002800
  -0.0005975200   -0.0000213300    0.0000213300
   0.0042151500    0.0000000000   -0.0051309500
   0.0043655000    0.0000000000    0.0053652200
   0.0010932300   -0.0000000000    0.0010699400
   0.0010547900   -0.0000000000   -0.0011099300
   0.0042151500   -0.0000000000    0.0051309500
   0.0043655000    0.0000000000   -0.0053652200
   0.0010932300   -0.0000000000   -0.0010699400
   0.0010547900   -0.0000000000    0.0011099300
   0.0042151500    0.0051309500    0.0000000000
   0.0043655000   -0.0053652200   -0.0000000000
   0.0042151500   -0.0051309500   -0.0000000000
   0.0043655000    0.0053652200   -0.0000000000
   0.0010932300   -0.0010699400    0.0000000000
   0.0010547900    0.0011099300    0.0000000000
   0.0010932300    0.0010699400    0.0000000000
   0.0010547900   -0.0011099300   -0.0000000000
