mesh: [    48,    48,    48 ]
nqpoint: 2600   
reciprocal_lattice:
- [   0.24283323,   0.00000000,   0.00000000 ] # a*
- [   0.00000000,   0.24283323,   0.00000000 ] # b*
- [   0.00000000,   0.00000000,   0.24283323 ] # c*
natom:   4      
lattice:
- [     4.118052497066271,     0.000000000000000,     0.000000000000000 ] # a
- [     0.000000000000000,     4.118052497066271,     0.000000000000000 ] # b
- [     0.000000000000000,     0.000000000000000,     4.118052497066271 ] # c
points:
- symbol: Al # 1
  coordinates: [  0.500000000000000,  0.500000000000000,  0.000000000000000 ]
  mass: 26.981539
- symbol: Al # 2
  coordinates: [  0.500000000000000,  0.000000000000000,  0.500000000000000 ]
  mass: 26.981539
- symbol: Al # 3
  coordinates: [  0.000000000000000,  0.500000000000000,  0.500000000000000 ]
  mass: 26.981539
- symbol: Al # 4
  coordinates: [  0.000000000000000,  0.000000000000000,  0.000000000000000 ]
  mass: 26.981539
phonon:
- q-position: [    0.0104167,    0.0104167,    0.0104167 ]
  weight: 8    
  band:
  - # 1
    frequency:     0.1457735133
  - # 2
    frequency:     0.1457735133
  - # 3
    frequency:     0.2639373466
  - # 4
    frequency:     3.9446148153
  - # 5
    frequency:     3.9446148153
  - # 6
    frequency:     3.9446148153
  - # 7
    frequency:     3.9487026967
  - # 8
    frequency:     3.9487026967
  - # 9
    frequency:     3.9487026967
  - # 10
    frequency:     8.8128057003
  - # 11
    frequency:     8.8128057003
  - # 12
    frequency:     8.8128057003

- q-position: [    0.0312500,    0.0104167,    0.0104167 ]
  weight: 24   
  band:
  - # 1
    frequency:     0.2849445451
  - # 2
    frequency:     0.2936222644
  - # 3
    frequency:     0.4934363587
  - # 4
    frequency:     3.9444151536
  - # 5
    frequency:     3.9467795601
  - # 6
    frequency:     3.9467795601
  - # 7
    frequency:     3.9485130244
  - # 8
    frequency:     3.9602266672
  - # 9
    frequency:     3.9602266672
  - # 10
    frequency:     8.7995266272
  - # 11
    frequency:     8.7995266272
  - # 12
    frequency:     8.8035133490

- q-position: [    0.0520833,    0.0104167,    0.0104167 ]
  weight: 24   
  band:
  - # 1
    frequency:     0.4576186263
  - # 2
    frequency:     0.4641739985
  - # 3
    frequency:     0.7624547445
  - # 4
    frequency:     3.9439651108
  - # 5
    frequency:     3.9480827155
  - # 6
    frequency:     3.9541026233
  - # 7
    frequency:     3.9541026233
  - # 8
    frequency:     3.9801808267
  - # 9
    frequency:     3.9801808267
  - # 10
    frequency:     8.7730391146
  - # 11
    frequency:     8.7730391146
  - # 12
    frequency:     8.7849372823

- q-position: [    0.0729167,    0.0104167,    0.0104167 ]
  weight: 24   
  band:
  - # 1
    frequency:     0.6338608689
  - # 2
    frequency:     0.6384517775
  - # 3
    frequency:     1.0413947434
  - # 4
    frequency:     3.9431643017
  - # 5
    frequency:     3.9473109016
  - # 6
    frequency:     3.9662717940
  - # 7
    frequency:     3.9662717940
  - # 8
    frequency:     4.0086825612
  - # 9
    frequency:     4.0086825612
  - # 10
    frequency:     8.7334842039
  - # 11
    frequency:     8.7334842039
  - # 12
    frequency:     8.7570947761

- q-position: [    0.0937500,    0.0104167,    0.0104167 ]
  weight: 24   
  band:
  - # 1
    frequency:     0.8096824358
  - # 2
    frequency:     0.8128275591
  - # 3
    frequency:     1.3234089131
  - # 4
    frequency:     3.9418647443
  - # 5
    frequency:     3.9460488906
  - # 6
    frequency:     3.9834177879
  - # 7
    frequency:     3.9834177879
  - # 8
    frequency:     4.0453217487
  - # 9
    frequency:     4.0453217487
  - # 10
    frequency:     8.6810728928
  - # 11
    frequency:     8.6810728928
  - # 12
    frequency:     8.7200117545

- q-position: [    0.1145833,    0.0104167,    0.0104167 ]
  weight: 24   
  band:
  - # 1
    frequency:     0.9838674680
  - # 2
    frequency:     0.9859108798
  - # 3
    frequency:     1.6060112455
  - # 4
    frequency:     3.9398738636
  - # 5
    frequency:     3.9441031881
  - # 6
    frequency:     4.0059139351
  - # 7
    frequency:     4.0059139351
  - # 8
    frequency:     4.0893735423
  - # 9
    frequency:     4.0893735423
  - # 10
    frequency:     8.6160854573
  - # 11
    frequency:     8.6160854573
  - # 12
    frequency:     8.6737228016

- q-position: [    0.1354167,    0.0104167,    0.0104167 ]
  weight: 24   
  band:
  - # 1
    frequency:     1.1557248967
  - # 2
    frequency:     1.1568863881
  - # 3
    frequency:     1.8879778125
  - # 4
    frequency:     3.9369583244
  - # 5
    frequency:     3.9412393510
  - # 6
    frequency:     4.0342667056
  - # 7
    frequency:     4.0342667056
  - # 8
    frequency:     4.1399203430
  - # 9
    frequency:     4.1399203430
  - # 10
    frequency:     8.5388705492
  - # 11
    frequency:     8.5388705492
  - # 12
    frequency:     8.6182711765

- q-position: [    0.1562500,    0.0104167,    0.0104167 ]
  weight: 24   
  band:
  - # 1
    frequency:     1.3247205845
  - # 2
    frequency:     1.3251470746
  - # 3
    frequency:     2.1685514182
  - # 4
    frequency:     3.9328485568
  - # 5
    frequency:     3.9371865381
  - # 6
    frequency:     4.0690548557
  - # 7
    frequency:     4.0690548557
  - # 8
    frequency:     4.1959229182
  - # 9
    frequency:     4.1959229182
  - # 10
    frequency:     8.4498440662
  - # 11
    frequency:     8.4498440662
  - # 12
    frequency:     8.5537088317

- q-position: [    0.1770833,    0.0104167,    0.0104167 ]
  weight: 24   
  band:
  - # 1
    frequency:     1.4901834218
  - # 2
    frequency:     1.4903881398
  - # 3
    frequency:     2.4471795135
  - # 4
    frequency:     3.9272438275
  - # 5
    frequency:     3.9316426083
  - # 6
    frequency:     4.1108842006
  - # 7
    frequency:     4.1108842006
  - # 8
    frequency:     4.2562719994
  - # 9
    frequency:     4.2562719994
  - # 10
    frequency:     8.3494877946
  - # 11
    frequency:     8.3494877946
  - # 12
    frequency:     8.4800964329

- q-position: [    0.1979167,    0.0104167,    0.0104167 ]
  weight: 24   
  band:
  - # 1
    frequency:     1.6515430539
  - # 2
    frequency:     1.6523016506
  - # 3
    frequency:     2.7234116251
  - # 4
    frequency:     3.9198177011
  - # 5
    frequency:     3.9242796095
  - # 6
    frequency:     4.1603448418
  - # 7
    frequency:     4.1603448418
  - # 8
    frequency:     4.3198327605
  - # 9
    frequency:     4.3198327605
  - # 10
    frequency:     8.2383478206
  - # 11
    frequency:     8.2383478206
  - # 12
    frequency:     8.3975033813

- q-position: [    0.2187500,    0.0104167,    0.0104167 ]
  weight: 24   
  band:
  - # 1
    frequency:     1.8088144184
  - # 2
    frequency:     1.8100664149
  - # 3
    frequency:     2.9968538997
  - # 4
    frequency:     3.9102237359
  - # 5
    frequency:     3.9147495029
  - # 6
    frequency:     4.2179644145
  - # 7
    frequency:     4.2179644145
  - # 8
    frequency:     4.3854888155
  - # 9
    frequency:     4.3854888155
  - # 10
    frequency:     8.1170327045
  - # 11
    frequency:     8.1170327045
  - # 12
    frequency:     8.3060078355

- q-position: [    0.2395833,    0.0104167,    0.0104167 ]
  weight: 24   
  band:
  - # 1
    frequency:     1.9616199538
  - # 2
    frequency:     1.9633159586
  - # 3
    frequency:     3.2671470077
  - # 4
    frequency:     3.8981012724
  - # 5
    frequency:     3.9026899780
  - # 6
    frequency:     4.2841490580
  - # 7
    frequency:     4.2841490580
  - # 8
    frequency:     4.4521950847
  - # 9
    frequency:     4.4521950847
  - # 10
    frequency:     7.9862114095
  - # 11
    frequency:     7.9862114095
  - # 12
    frequency:     8.2056967344

- q-position: [    0.2604167,    0.0104167,    0.0104167 ]
  weight: 24   
  band:
  - # 1
    frequency:     2.1096134163
  - # 2
    frequency:     2.1117115425
  - # 3
    frequency:     3.5339546261
  - # 4
    frequency:     3.8830811797
  - # 5
    frequency:     3.8877302251
  - # 6
    frequency:     4.3590897623
  - # 7
    frequency:     4.3590897623
  - # 8
    frequency:     4.5190635172
  - # 9
    frequency:     4.5190635172
  - # 10
    frequency:     7.8466109716
  - # 11
    frequency:     7.8466109716
  - # 12
    frequency:     8.0966658176

- q-position: [    0.2812500,    0.0104167,    0.0104167 ]
  weight: 24   
  band:
  - # 1
    frequency:     2.2524791601
  - # 2
    frequency:     2.2549427297
  - # 3
    frequency:     3.7969571161
  - # 4
    frequency:     3.8647914504
  - # 5
    frequency:     3.8694965535
  - # 6
    frequency:     4.4425590077
  - # 7
    frequency:     4.4425590077
  - # 8
    frequency:     4.5855586323
  - # 9
    frequency:     4.5855586323
  - # 10
    frequency:     7.6990138904
  - # 11
    frequency:     7.6990138904
  - # 12
    frequency:     7.9790196451

- q-position: [    0.3020833,    0.0104167,    0.0104167 ]
  weight: 24   
  band:
  - # 1
    frequency:     2.3899323726
  - # 2
    frequency:     2.3927284090
  - # 3
    frequency:     3.8428625493
  - # 4
    frequency:     3.8476177604
  - # 5
    frequency:     4.0558479184
  - # 6
    frequency:     4.5333078432
  - # 7
    frequency:     4.5333078432
  - # 8
    frequency:     4.6520945167
  - # 9
    frequency:     4.6520945167
  - # 10
    frequency:     7.5442552171
  - # 11
    frequency:     7.5442552171
  - # 12
    frequency:     7.8528716126

- q-position: [    0.3229167,    0.0104167,    0.0104167 ]
  weight: 24   
  band:
  - # 1
    frequency:     2.5217197707
  - # 2
    frequency:     2.5248179916
  - # 3
    frequency:     3.8169324429
  - # 4
    frequency:     3.8217301793
  - # 5
    frequency:     4.3103314500
  - # 6
    frequency:     4.6269155280
  - # 7
    frequency:     4.6269155280
  - # 8
    frequency:     4.7221825467
  - # 9
    frequency:     4.7221825467
  - # 10
    frequency:     7.3832193037
  - # 11
    frequency:     7.3832193037
  - # 12
    frequency:     7.7183439632

- q-position: [    0.3437500,    0.0104167,    0.0104167 ]
  weight: 24   
  band:
  - # 1
    frequency:     2.6476204972
  - # 2
    frequency:     2.6509926351
  - # 3
    frequency:     3.7866512580
  - # 4
    frequency:     3.7914823529
  - # 5
    frequency:     4.5601218641
  - # 6
    frequency:     4.7111280234
  - # 7
    frequency:     4.7111280234
  - # 8
    frequency:     4.8070943827
  - # 9
    frequency:     4.8070943827
  - # 10
    frequency:     7.2168361707
  - # 11
    frequency:     7.2168361707
  - # 12
    frequency:     7.5755677936

- q-position: [    0.3645833,    0.0104167,    0.0104167 ]
  weight: 24   
  band:
  - # 1
    frequency:     2.7674470709
  - # 2
    frequency:     2.7710664133
  - # 3
    frequency:     3.7516855323
  - # 4
    frequency:     3.7565392965
  - # 5
    frequency:     4.7754748967
  - # 6
    frequency:     4.7754748967
  - # 7
    frequency:     4.8049423236
  - # 8
    frequency:     4.9162508956
  - # 9
    frequency:     4.9162508956
  - # 10
    frequency:     7.0460774448
  - # 11
    frequency:     7.0460774448
  - # 12
    frequency:     7.4246830539

- q-position: [    0.3854167,    0.0104167,    0.0104167 ]
  weight: 24   
  band:
  - # 1
    frequency:     2.8810462993
  - # 2
    frequency:     2.8848873816
  - # 3
    frequency:     3.7117220376
  - # 4
    frequency:     3.7165863301
  - # 5
    frequency:     4.8251236451
  - # 6
    frequency:     4.8251236451
  - # 7
    frequency:     5.0433776760
  - # 8
    frequency:     5.0433776760
  - # 9
    frequency:     5.0445245886
  - # 10
    frequency:     6.8719518089
  - # 11
    frequency:     6.8719518089
  - # 12
    frequency:     7.2658385405

- q-position: [    0.4062500,    0.0104167,    0.0104167 ]
  weight: 24   
  band:
  - # 1
    frequency:     2.9883000960
  - # 2
    frequency:     2.9923385009
  - # 3
    frequency:     3.6664711672
  - # 4
    frequency:     3.6713324730
  - # 5
    frequency:     4.8650216427
  - # 6
    frequency:     4.8650216427
  - # 7
    frequency:     5.1823761493
  - # 8
    frequency:     5.1823761493
  - # 9
    frequency:     5.2786087989
  - # 10
    frequency:     6.6954999245
  - # 11
    frequency:     6.6954999245
  - # 12
    frequency:     7.0991918808

- q-position: [    0.4270833,    0.0104167,    0.0104167 ]
  weight: 24   
  band:
  - # 1
    frequency:     3.0891261604
  - # 2
    frequency:     3.0933383950
  - # 3
    frequency:     3.6156698922
  - # 4
    frequency:     3.6205134031
  - # 5
    frequency:     4.8966881103
  - # 6
    frequency:     4.8966881103
  - # 7
    frequency:     5.3305468140
  - # 8
    frequency:     5.3305468140
  - # 9
    frequency:     5.5069433782
  - # 10
    frequency:     6.5177888370
  - # 11
    frequency:     6.5177888370
  - # 12
    frequency:     6.9249095088

- q-position: [    0.4479167,    0.0104167,    0.0104167 ]
  weight: 24   
  band:
  - # 1
    frequency:     3.1834784872
  - # 2
    frequency:     3.1878419161
  - # 3
    frequency:     3.5590842941
  - # 4
    frequency:     3.5638939919
  - # 5
    frequency:     4.9204668245
  - # 6
    frequency:     4.9204668245
  - # 7
    frequency:     5.4863524714
  - # 8
    frequency:     5.4863524714
  - # 9
    frequency:     5.7292850133
  - # 10
    frequency:     6.3399061336
  - # 11
    frequency:     6.3399061336
  - # 12
    frequency:     6.7431666322

- q-position: [    0.4687500,    0.0104167,    0.0104167 ]
  weight: 24   
  band:
  - # 1
    frequency:     3.2713476784
  - # 2
    frequency:     3.2758404986
  - # 3
    frequency:     3.4965116925
  - # 4
    frequency:     3.5012704307
  - # 5
    frequency:     4.9363719664
  - # 6
    frequency:     4.9363719664
  - # 7
    frequency:     5.6485860865
  - # 8
    frequency:     5.6485860865
  - # 9
    frequency:     5.9453986809
  - # 10
    frequency:     6.1629557266
  - # 11
    frequency:     6.1629557266
  - # 12
    frequency:     6.5541471899

- q-position: [    0.4895833,    0.0104167,    0.0104167 ]
  weight: 24   
  band:
  - # 1
    frequency:     3.3527610322
  - # 2
    frequency:     3.3573622801
  - # 3
    frequency:     3.4277823866
  - # 4
    frequency:     3.4324719679
  - # 5
    frequency:     4.9443459850
  - # 6
    frequency:     4.9443459850
  - # 7
    frequency:     5.8160925683
  - # 8
    frequency:     5.8160925683
  - # 9
    frequency:     5.9880861673
  - # 10
    frequency:     5.9880861673
  - # 11
    frequency:     6.1550577004
  - # 12
    frequency:     6.3580438001

- q-position: [    0.0312500,    0.0312500,    0.0104167 ]
  weight: 24   
  band:
  - # 1
    frequency:     0.3550504179
  - # 2
    frequency:     0.3876222492
  - # 3
    frequency:     0.6583891522
  - # 4
    frequency:     3.9420324857
  - # 5
    frequency:     3.9466317949
  - # 6
    frequency:     3.9466317949
  - # 7
    frequency:     3.9600660506
  - # 8
    frequency:     3.9600660506
  - # 9
    frequency:     3.9785917922
  - # 10
    frequency:     8.7863239288
  - # 11
    frequency:     8.7902975865
  - # 12
    frequency:     8.7902975865

- q-position: [    0.0520833,    0.0312500,    0.0104167 ]
  weight: 48   
  band:
  - # 1
    frequency:     0.4910692263
  - # 2
    frequency:     0.5295871329
  - # 3
    frequency:     0.8853466929
  - # 4
    frequency:     3.9431248400
  - # 5
    frequency:     3.9462837387
  - # 6
    frequency:     3.9540986955
  - # 7
    frequency:     3.9596943853
  - # 8
    frequency:     3.9800347457
  - # 9
    frequency:     4.0046372365
  - # 10
    frequency:     8.7599886751
  - # 11
    frequency:     8.7639368543
  - # 12
    frequency:     8.7718479372

- q-position: [    0.0729167,    0.0312500,    0.0104167 ]
  weight: 48   
  band:
  - # 1
    frequency:     0.6528823750
  - # 2
    frequency:     0.6886180758
  - # 3
    frequency:     1.1371748510
  - # 4
    frequency:     3.9456314857
  - # 5
    frequency:     3.9501301714
  - # 6
    frequency:     3.9590118118
  - # 7
    frequency:     3.9665010956
  - # 8
    frequency:     4.0085320354
  - # 9
    frequency:     4.0380982378
  - # 10
    frequency:     8.7206609268
  - # 11
    frequency:     8.7245725241
  - # 12
    frequency:     8.7441945512

- q-position: [    0.0937500,    0.0312500,    0.0104167 ]
  weight: 48   
  band:
  - # 1
    frequency:     0.8224037488
  - # 2
    frequency:     0.8540486606
  - # 3
    frequency:     1.4007909774
  - # 4
    frequency:     3.9445220001
  - # 5
    frequency:     3.9578710111
  - # 6
    frequency:     3.9629967812
  - # 7
    frequency:     3.9839576403
  - # 8
    frequency:     4.0451494942
  - # 9
    frequency:     4.0787520423
  - # 10
    frequency:     8.6685502097
  - # 11
    frequency:     8.6724161189
  - # 12
    frequency:     8.7073627557

- q-position: [    0.1145833,    0.0312500,    0.0104167 ]
  weight: 48   
  band:
  - # 1
    frequency:     0.9934742783
  - # 2
    frequency:     1.0214889404
  - # 3
    frequency:     1.6702490311
  - # 4
    frequency:     3.9427563874
  - # 5
    frequency:     3.9560800607
  - # 6
    frequency:     3.9818211873
  - # 7
    frequency:     4.0068273673
  - # 8
    frequency:     4.0891630055
  - # 9
    frequency:     4.1261564470
  - # 10
    frequency:     8.6039348380
  - # 11
    frequency:     8.6077486746
  - # 12
    frequency:     8.6613863561

- q-position: [    0.1354167,    0.0312500,    0.0104167 ]
  weight: 48   
  band:
  - # 1
    frequency:     1.1636141963
  - # 2
    frequency:     1.1887361070
  - # 3
    frequency:     1.9423941855
  - # 4
    frequency:     3.9400940684
  - # 5
    frequency:     3.9534060710
  - # 6
    frequency:     4.0068435902
  - # 7
    frequency:     4.0356011273
  - # 8
    frequency:     4.1396540922
  - # 9
    frequency:     4.1796663408
  - # 10
    frequency:     8.5271610107
  - # 11
    frequency:     8.5309198910
  - # 12
    frequency:     8.6063076662

- q-position: [    0.1562500,    0.0312500,    0.0104167 ]
  weight: 48   
  band:
  - # 1
    frequency:     1.3315628472
  - # 2
    frequency:     1.3544691934
  - # 3
    frequency:     2.2153471925
  - # 4
    frequency:     3.9362577038
  - # 5
    frequency:     3.9495794826
  - # 6
    frequency:     4.0384049894
  - # 7
    frequency:     4.0708405055
  - # 8
    frequency:     4.1955815942
  - # 9
    frequency:     4.2384863999
  - # 10
    frequency:     8.4386416823
  - # 11
    frequency:     8.4423470757
  - # 12
    frequency:     8.5421775442

- q-position: [    0.1770833,    0.0312500,    0.0104167 ]
  weight: 48   
  band:
  - # 1
    frequency:     1.4965261983
  - # 2
    frequency:     1.5177753184
  - # 3
    frequency:     2.4878727303
  - # 4
    frequency:     3.9309386949
  - # 5
    frequency:     3.9442988918
  - # 6
    frequency:     4.0768907459
  - # 7
    frequency:     4.1131324320
  - # 8
    frequency:     4.2558338413
  - # 9
    frequency:     4.3017335308
  - # 10
    frequency:     8.3388552049
  - # 11
    frequency:     8.3425138839
  - # 12
    frequency:     8.4690554350

- q-position: [    0.1979167,    0.0312500,    0.0104167 ]
  weight: 48   
  band:
  - # 1
    frequency:     1.6579185384
  - # 2
    frequency:     1.6779552859
  - # 3
    frequency:     2.7590862836
  - # 4
    frequency:     3.9238030670
  - # 5
    frequency:     3.9372362807
  - # 6
    frequency:     4.1226661642
  - # 7
    frequency:     4.1630462345
  - # 8
    frequency:     4.3192737917
  - # 9
    frequency:     4.3685027431
  - # 10
    frequency:     8.2283437400
  - # 11
    frequency:     8.2319688562
  - # 12
    frequency:     8.3870094180

- q-position: [    0.2187500,    0.0312500,    0.0104167 ]
  weight: 48   
  band:
  - # 1
    frequency:     1.8152632919
  - # 2
    frequency:     1.8344358683
  - # 3
    frequency:     3.0283070772
  - # 4
    frequency:     3.9144975423
  - # 5
    frequency:     3.9280425300
  - # 6
    frequency:     4.1760022773
  - # 7
    frequency:     4.2210862440
  - # 8
    frequency:     4.3847841937
  - # 9
    frequency:     4.4379384767
  - # 10
    frequency:     8.1077114333
  - # 11
    frequency:     8.1113237590
  - # 12
    frequency:     8.2961162581

- q-position: [    0.2395833,    0.0312500,    0.0104167 ]
  weight: 48   
  band:
  - # 1
    frequency:     1.9681511317
  - # 2
    frequency:     1.9867274762
  - # 3
    frequency:     3.2949795288
  - # 4
    frequency:     3.9026556171
  - # 5
    frequency:     3.9163531030
  - # 6
    frequency:     4.2369839847
  - # 7
    frequency:     4.2876305464
  - # 8
    frequency:     4.4513231906
  - # 9
    frequency:     4.5093202715
  - # 10
    frequency:     7.9776223453
  - # 11
    frequency:     7.9812517282
  - # 12
    frequency:     8.1964614614

- q-position: [    0.2604167,    0.0312500,    0.0104167 ]
  weight: 48   
  band:
  - # 1
    frequency:     2.1162209653
  - # 2
    frequency:     2.1344027964
  - # 3
    frequency:     3.5586290632
  - # 4
    frequency:     3.8879034859
  - # 5
    frequency:     3.9017937934
  - # 6
    frequency:     4.3053846492
  - # 7
    frequency:     4.3628301889
  - # 8
    frequency:     4.5180176315
  - # 9
    frequency:     4.5821802909
  - # 10
    frequency:     7.8387981245
  - # 11
    frequency:     7.8424852230
  - # 12
    frequency:     8.0881393327

- q-position: [    0.2812500,    0.0312500,    0.0104167 ]
  weight: 48   
  band:
  - # 1
    frequency:     2.2591509769
  - # 2
    frequency:     2.2770856863
  - # 3
    frequency:     3.8188361481
  - # 4
    frequency:     3.8698656911
  - # 5
    frequency:     3.8839864271
  - # 6
    frequency:     4.3804798620
  - # 7
    frequency:     4.4463818236
  - # 8
    frequency:     4.5843829105
  - # 9
    frequency:     4.6564818421
  - # 10
    frequency:     7.6920154062
  - # 11
    frequency:     7.6958137930
  - # 12
    frequency:     7.9712530349

- q-position: [    0.3020833,    0.0312500,    0.0104167 ]
  weight: 48   
  band:
  - # 1
    frequency:     2.3966545024
  - # 2
    frequency:     2.4144452826
  - # 3
    frequency:     3.8481704171
  - # 4
    frequency:     3.8625544140
  - # 5
    frequency:     4.0752204659
  - # 6
    frequency:     4.4607664891
  - # 7
    frequency:     4.5368361616
  - # 8
    frequency:     4.6510086520
  - # 9
    frequency:     4.7328945351
  - # 10
    frequency:     7.5381029145
  - # 11
    frequency:     7.5420816697
  - # 12
    frequency:     7.8459146500

- q-position: [    0.3229167,    0.0312500,    0.0104167 ]
  weight: 48   
  band:
  - # 1
    frequency:     2.5284783848
  - # 2
    frequency:     2.5461928415
  - # 3
    frequency:     3.8224543819
  - # 4
    frequency:     3.8371280476
  - # 5
    frequency:     4.3274309626
  - # 6
    frequency:     4.5435985895
  - # 7
    frequency:     4.6291679511
  - # 8
    frequency:     4.7219858291
  - # 9
    frequency:     4.8131558543
  - # 10
    frequency:     7.3779382388
  - # 11
    frequency:     7.3821852017
  - # 12
    frequency:     7.7122452394

- q-position: [    0.3437500,    0.0312500,    0.0104167 ]
  weight: 48   
  band:
  - # 1
    frequency:     2.6544026358
  - # 2
    frequency:     2.6720800539
  - # 3
    frequency:     3.7923673092
  - # 4
    frequency:     3.8073494656
  - # 5
    frequency:     4.5751394261
  - # 6
    frequency:     4.6249800338
  - # 7
    frequency:     4.7105741058
  - # 8
    frequency:     4.8091094183
  - # 9
    frequency:     4.9002801269
  - # 10
    frequency:     7.2124442539
  - # 11
    frequency:     7.2170701716
  - # 12
    frequency:     7.5703749047

- q-position: [    0.3645833,    0.0312500,    0.0104167 ]
  weight: 48   
  band:
  - # 1
    frequency:     2.7742407657
  - # 2
    frequency:     2.7918981824
  - # 3
    frequency:     3.7575759776
  - # 4
    frequency:     3.7728772035
  - # 5
    frequency:     4.7001648899
  - # 6
    frequency:     4.7725355937
  - # 7
    frequency:     4.8180362541
  - # 8
    frequency:     4.9198210649
  - # 9
    frequency:     4.9979640035
  - # 10
    frequency:     7.0425851601
  - # 11
    frequency:     7.0477290753
  - # 12
    frequency:     7.4204428477

- q-position: [    0.3854167,    0.0312500,    0.0104167 ]
  weight: 48   
  band:
  - # 1
    frequency:     2.8878404124
  - # 2
    frequency:     2.9054776583
  - # 3
    frequency:     3.7177678515
  - # 4
    frequency:     3.7333902982
  - # 5
    frequency:     4.7653533671
  - # 6
    frequency:     4.8206738660
  - # 7
    frequency:     5.0473604388
  - # 8
    frequency:     5.0558276131
  - # 9
    frequency:     5.1089002551
  - # 10
    frequency:     6.8693621507
  - # 11
    frequency:     6.8751985267
  - # 12
    frequency:     7.2625974304

- q-position: [    0.4062500,    0.0312500,    0.0104167 ]
  weight: 48   
  band:
  - # 1
    frequency:     2.9950840508
  - # 2
    frequency:     3.0126879289
  - # 3
    frequency:     3.6726543030
  - # 4
    frequency:     3.6885919202
  - # 5
    frequency:     4.8189856954
  - # 6
    frequency:     4.8592373048
  - # 7
    frequency:     5.1862886530
  - # 8
    frequency:     5.2334965621
  - # 9
    frequency:     5.2882335055
  - # 10
    frequency:     6.6938088368
  - # 11
    frequency:     6.7005571518
  - # 12
    frequency:     7.0969962346

- q-position: [    0.4270833,    0.0312500,    0.0104167 ]
  weight: 48   
  band:
  - # 1
    frequency:     3.0958896502
  - # 2
    frequency:     3.1134374148
  - # 3
    frequency:     3.6219734342
  - # 4
    frequency:     3.6382125332
  - # 5
    frequency:     4.8612536661
  - # 6
    frequency:     4.8894422895
  - # 7
    frequency:     5.3341572037
  - # 8
    frequency:     5.3703779221
  - # 9
    frequency:     5.5149864376
  - # 10
    frequency:     6.5169870152
  - # 11
    frequency:     6.5249248807
  - # 12
    frequency:     6.9238061234

- q-position: [    0.4479167,    0.0312500,    0.0104167 ]
  weight: 48   
  band:
  - # 1
    frequency:     3.1902111994
  - # 2
    frequency:     3.2076734793
  - # 3
    frequency:     3.5654925081
  - # 4
    frequency:     3.5820125964
  - # 5
    frequency:     4.8929277864
  - # 6
    frequency:     4.9114859656
  - # 7
    frequency:     5.4895012838
  - # 8
    frequency:     5.5175708803
  - # 9
    frequency:     5.7358304938
  - # 10
    frequency:     6.3399854785
  - # 11
    frequency:     6.3494665972
  - # 12
    frequency:     6.7432033064

- q-position: [    0.4687500,    0.0312500,    0.0104167 ]
  weight: 48   
  band:
  - # 1
    frequency:     3.2780390473
  - # 2
    frequency:     3.2953823372
  - # 3
    frequency:     3.5030100025
  - # 4
    frequency:     3.5197848319
  - # 5
    frequency:     4.9147174612
  - # 6
    frequency:     4.9252590277
  - # 7
    frequency:     5.6511125649
  - # 8
    frequency:     5.6731333648
  - # 9
    frequency:     5.9505206876
  - # 10
    frequency:     6.1639395967
  - # 11
    frequency:     6.1754156898
  - # 12
    frequency:     6.5553734109

- q-position: [    0.4895833,    0.0312500,    0.0104167 ]
  weight: 48   
  band:
  - # 1
    frequency:     3.3594000215
  - # 2
    frequency:     3.3765888400
  - # 3
    frequency:     3.4343572987
  - # 4
    frequency:     3.4513560894
  - # 5
    frequency:     4.9271381337
  - # 6
    frequency:     4.9305571757
  - # 7
    frequency:     5.8175656789
  - # 8
    frequency:     5.8349296316
  - # 9
    frequency:     5.9903973150
  - # 10
    frequency:     6.0043437089
  - # 11
    frequency:     6.1588225025
  - # 12
    frequency:     6.3605115656

- q-position: [    0.0520833,    0.0520833,    0.0104167 ]
  weight: 24   
  band:
  - # 1
    frequency:     0.5790446926
  - # 2
    frequency:     0.6425212474
  - # 3
    frequency:     1.0740745852
  - # 4
    frequency:     3.9371674971
  - # 5
    frequency:     3.9540335946
  - # 6
    frequency:     3.9540335946
  - # 7
    frequency:     3.9796943421
  - # 8
    frequency:     3.9796943421
  - # 9
    frequency:     4.0374571951
  - # 10
    frequency:     8.7339569551
  - # 11
    frequency:     8.7457403527
  - # 12
    frequency:     8.7457403527

- q-position: [    0.0729167,    0.0520833,    0.0104167 ]
  weight: 48   
  band:
  - # 1
    frequency:     0.7087450649
  - # 2
    frequency:     0.7808754066
  - # 3
    frequency:     1.2956644294
  - # 4
    frequency:     3.9373688036
  - # 5
    frequency:     3.9537939643
  - # 6
    frequency:     3.9668961366
  - # 7
    frequency:     3.9790642220
  - # 8
    frequency:     4.0081853198
  - # 9
    frequency:     4.0773182298
  - # 10
    frequency:     8.6950820462
  - # 11
    frequency:     8.7067565488
  - # 12
    frequency:     8.7184656623

- q-position: [    0.0937500,    0.0520833,    0.0104167 ]
  weight: 48   
  band:
  - # 1
    frequency:     0.8599073219
  - # 2
    frequency:     0.9322813734
  - # 3
    frequency:     1.5354674362
  - # 4
    frequency:     3.9438729975
  - # 5
    frequency:     3.9532125888
  - # 6
    frequency:     3.9780039479
  - # 7
    frequency:     3.9849664189
  - # 8
    frequency:     4.0447618153
  - # 9
    frequency:     4.1238111936
  - # 10
    frequency:     8.6435705216
  - # 11
    frequency:     8.6551090811
  - # 12
    frequency:     8.6821369002

- q-position: [    0.1145833,    0.0520833,    0.0104167 ]
  weight: 48   
  band:
  - # 1
    frequency:     1.0205855075
  - # 2
    frequency:     1.0900752339
  - # 3
    frequency:     1.7859789465
  - # 4
    frequency:     3.9520717367
  - # 5
    frequency:     3.9567912641
  - # 6
    frequency:     3.9763310246
  - # 7
    frequency:     4.0085749073
  - # 8
    frequency:     4.0887012910
  - # 9
    frequency:     4.1764904670
  - # 10
    frequency:     8.5796967585
  - # 11
    frequency:     8.5910804753
  - # 12
    frequency:     8.6367862924

- q-position: [    0.1354167,    0.0520833,    0.0104167 ]
  weight: 48   
  band:
  - # 1
    frequency:     1.1847074422
  - # 2