 running on    8 nodes
 distr:  one band on    1 nodes,    8 groups
 vasp.4.6.28 25Jul05 complex 
 POSCAR found :  1 types and   32 ions

 ----------------------------------------------------------------------------- 
|                                                                             |
|  ADVICE TO THIS USER RUNNING 'VASP/VAMP'   (HEAR YOUR MASTER'S VOICE ...):  |
|                                                                             |
|      You have a (more or less) 'large supercell' and for larger cells       |
|      it might be more efficient to use real space projection operators      |
|      So try LREAL= Auto  in the INCAR   file.                               |
|      Mind: If you want to do an extremely accurate calculations keep the    |
|      reciprocal projection scheme          (i.e. LREAL=.FALSE.)             |
|                                                                             |
 ----------------------------------------------------------------------------- 

 LDA part: xc-table for Pade appr. of Perdew
 generate k-points for:   6   6   6
 POSCAR, INCAR and KPOINTS ok, starting setup
 FFT: planning ...           1
 reading WAVECAR
 WARNING: random wavefunctions but no delay for mixing, default for NELMDL
 entering main loop
       N       E                     dE             d eps       ncg     rms          rms(c)
DAV:   1     0.108140408079E+03    0.10814E+03   -0.31868E+04  5760   0.103E+03
DAV:   2    -0.106064416157E+03   -0.21420E+03   -0.19857E+03  6776   0.131E+02
DAV:   3    -0.118653261867E+03   -0.12589E+02   -0.11969E+02  7200   0.252E+01
DAV:   4    -0.118908349795E+03   -0.25509E+00   -0.25260E+00  6704   0.383E+00
DAV:   5    -0.118911497516E+03   -0.31477E-02   -0.31463E-02  6744   0.511E-01    0.499E+00
DAV:   6    -0.118518302018E+03    0.39320E+00   -0.67875E-02  6584   0.794E-01    0.309E+00
DAV:   7    -0.118235088487E+03    0.28321E+00   -0.19786E-01  6336   0.127E+00    0.136E-01
DAV:   8    -0.118234986881E+03    0.10161E-03   -0.14728E-03  6912   0.136E-01    0.405E-02
DAV:   9    -0.118235001998E+03   -0.15117E-04   -0.48345E-05  6816   0.195E-02    0.316E-03
DAV:  10    -0.118235000419E+03    0.15794E-05   -0.16724E-06  6888   0.412E-03    0.178E-03
DAV:  11    -0.118234997071E+03    0.33476E-05   -0.13139E-07  6752   0.103E-03    0.613E-04
DAV:  12    -0.118234996093E+03    0.97833E-06   -0.17937E-08  4184   0.385E-04    0.942E-05
DAV:  13    -0.118234995995E+03    0.97495E-07   -0.29102E-09  3728   0.178E-04    0.293E-05
DAV:  14    -0.118234996000E+03   -0.46589E-08   -0.45260E-10  3728   0.713E-05
   1 F= -.11823500E+03 E0= -.11823461E+03  d E =-.775860E-03
