  32  32   0   0
  0.1850465E+02  0.8397376E-09  0.8397376E-09  0.8397376E-09  0.5000000E-15
  1.000000000000000E-004
  CAR 
 unknown system                          
     11.24077924     -4.21402021  301      6.89148368      1.00000000
     -4.214  0.0000E+00  0.0000E+00
     -4.163  0.0000E+00  0.0000E+00
     -4.111  0.0000E+00  0.0000E+00
     -4.059  0.0000E+00  0.0000E+00
     -4.008  0.0000E+00  0.0000E+00
     -3.956  0.0000E+00  0.0000E+00
     -3.905  0.0000E+00  0.0000E+00
     -3.853  0.0000E+00  0.0000E+00
     -3.802  0.0000E+00  0.0000E+00
     -3.750  0.0000E+00  0.0000E+00
     -3.699  0.0000E+00  0.0000E+00
     -3.647  0.0000E+00  0.0000E+00
     -3.596  0.0000E+00  0.0000E+00
     -3.544  0.3189E-06  0.1643E-07
     -3.493  0.1790E+00  0.9222E-02
     -3.441  0.1030E+01  0.6231E-01
     -3.390  0.1707E+01  0.1503E+00
     -3.338  0.1093E+01  0.2066E+00
     -3.287  0.9733E+00  0.2567E+00
     -3.235  0.1022E+01  0.3094E+00
     -3.184  0.4244E+01  0.5280E+00
     -3.132  0.4309E+01  0.7500E+00
     -3.081  0.8328E-06  0.7500E+00
     -3.029  0.2136E+01  0.8600E+00
     -2.978  0.4981E+01  0.1117E+01
     -2.926  0.3365E+01  0.1290E+01
     -2.875  0.2779E+01  0.1433E+01
     -2.823  0.3035E+01  0.1590E+01
     -2.772  0.1364E+01  0.1660E+01
     -2.720  0.4272E+01  0.1880E+01
     -2.669  0.8621E+01  0.2324E+01
     -2.617  0.7815E-04  0.2324E+01
     -2.566  0.1064E+01  0.2379E+01
     -2.514  0.7823E+01  0.2782E+01
     -2.462  0.5063E+01  0.3043E+01
     -2.411  0.3578E+01  0.3227E+01
     -2.359  0.3314E+01  0.3398E+01
     -2.308  0.4058E+01  0.3607E+01
     -2.256  0.8535E+01  0.4046E+01
     -2.205  0.4310E+01  0.4269E+01
     -2.153  0.6554E-04  0.4269E+01
     -2.102  0.4264E+01  0.4488E+01
     -2.050  0.5012E+01  0.4746E+01
     -1.999  0.9498E+01  0.5236E+01
     -1.947  0.5972E+01  0.5543E+01
     -1.896  0.3652E+01  0.5731E+01
     -1.844  0.2502E+00  0.5744E+01
     -1.793  0.1270E+02  0.6399E+01
     -1.741  0.8614E+01  0.6843E+01
     -1.690  0.2677E-05  0.6843E+01
     -1.638  0.2146E+01  0.6953E+01
     -1.587  0.8252E+01  0.7378E+01
     -1.535  0.7299E+01  0.7754E+01
     -1.484  0.6003E+01  0.8064E+01
     -1.432  0.5421E+01  0.8343E+01
     -1.381  0.4507E+01  0.8575E+01
     -1.329  0.4187E+01  0.8791E+01
     -1.278  0.1287E+02  0.9454E+01
     -1.226  0.6907E-04  0.9454E+01
     -1.175  0.4307E+01  0.9676E+01
     -1.123  0.1700E+02  0.1055E+02
     -1.072  0.8123E+01  0.1097E+02
     -1.020  0.3791E+01  0.1117E+02
     -0.969  0.2931E+01  0.1132E+02
     -0.917  0.4414E+01  0.1154E+02
     -0.865  0.1143E+02  0.1213E+02
     -0.814  0.8391E+01  0.1256E+02
     -0.762  0.2508E-03  0.1256E+02
     -0.711  0.1438E+01  0.1264E+02
     -0.659  0.9683E+01  0.1314E+02
     -0.608  0.1482E+02  0.1390E+02
     -0.556  0.7951E+01  0.1431E+02
     -0.505  0.3848E+01  0.1451E+02
     -0.453  0.6129E+01  0.1482E+02
     -0.402  0.1050E+02  0.1537E+02
     -0.350  0.1502E+02  0.1614E+02
     -0.299  0.3005E-01  0.1614E+02
     -0.247  0.8599E+01  0.1658E+02
     -0.196  0.8625E+01  0.1703E+02
     -0.144  0.4307E+01  0.1725E+02
     -0.093  0.1272E+02  0.1791E+02
     -0.041  0.2257E+00  0.1792E+02
      0.010  0.9318E+01  0.1840E+02
      0.062  0.1105E+02  0.1897E+02
      0.113  0.9827E+01  0.1947E+02
      0.165  0.5818E-01  0.1948E+02
      0.216  0.1156E+01  0.1953E+02
      0.268  0.1713E+02  0.2042E+02
      0.319  0.1724E+02  0.2131E+02
      0.371  0.4311E+01  0.2153E+02
      0.422  0.8579E+01  0.2197E+02
      0.474  0.1665E+02  0.2283E+02
      0.525  0.7843E+01  0.2323E+02
      0.577  0.1442E+01  0.2331E+02
      0.628  0.2191E+01  0.2342E+02
      0.680  0.5290E+01  0.2369E+02
      0.732  0.8225E+01  0.2411E+02
      0.783  0.2100E+02  0.2520E+02
      0.835  0.1003E+02  0.2571E+02
      0.886  0.4312E+01  0.2594E+02
      0.938  0.1724E+02  0.2682E+02
      0.989  0.8561E+01  0.2726E+02
      1.041  0.8334E-01  0.2727E+02
      1.092  0.3642E+01  0.2746E+02
      1.144  0.1163E+02  0.2806E+02
      1.195  0.1094E+02  0.2862E+02
      1.247  0.6992E+01  0.2898E+02
      1.298  0.1131E+02  0.2956E+02
      1.350  0.8403E+01  0.2999E+02
      1.401  0.8568E+01  0.3044E+02
      1.453  0.2154E+02  0.3155E+02
      1.504  0.1002E-02  0.3155E+02
      1.556  0.4280E+01  0.3177E+02
      1.607  0.2509E+02  0.3306E+02
      1.659  0.1986E+02  0.3408E+02
      1.710  0.9565E+01  0.3458E+02
      1.762  0.1592E+01  0.3466E+02
      1.813  0.1626E+01  0.3474E+02
      1.865  0.8588E+01  0.3518E+02
      1.916  0.1567E+02  0.3599E+02
      1.968  0.7823E-02  0.3599E+02
      2.019  0.4310E+01  0.3621E+02
      2.071  0.8623E+01  0.3666E+02
      2.122  0.1939E+02  0.3766E+02
      2.174  0.1280E+02  0.3832E+02
      2.225  0.5305E+01  0.3859E+02
      2.277  0.2664E+02  0.3996E+02
      2.329  0.1049E+02  0.4050E+02
      2.380  0.1939E+01  0.4060E+02
      2.432  0.4729E+01  0.4085E+02
      2.483  0.1347E+02  0.4154E+02
      2.535  0.1245E+02  0.4218E+02
      2.586  0.1255E+02  0.4283E+02
      2.638  0.1376E+02  0.4354E+02
      2.689  0.4193E+01  0.4375E+02
      2.741  0.1683E+02  0.4462E+02
      2.792  0.1834E+02  0.4556E+02
      2.844  0.4333E+01  0.4579E+02
      2.895  0.7920E-03  0.4579E+02
      2.947  0.1501E+02  0.4656E+02
      2.998  0.1025E+02  0.4709E+02
      3.050  0.1243E+02  0.4773E+02
      3.101  0.1272E+02  0.4838E+02
      3.153  0.9579E+01  0.4888E+02
      3.204  0.1881E+02  0.4985E+02
      3.256  0.1178E+02  0.5045E+02
      3.307  0.2566E+00  0.5047E+02
      3.359  0.9445E+01  0.5095E+02
      3.410  0.1757E+02  0.5186E+02
      3.462  0.1374E+02  0.5257E+02
      3.513  0.1121E+02  0.5314E+02
      3.565  0.3500E+01  0.5332E+02
      3.616  0.2257E+02  0.5449E+02
      3.668  0.2166E+02  0.5560E+02
      3.719  0.4644E+01  0.5584E+02
      3.771  0.3713E+00  0.5586E+02
      3.822  0.1068E+02  0.5641E+02
      3.874  0.2140E+02  0.5751E+02
      3.926  0.1289E+02  0.5818E+02
      3.977  0.1374E+02  0.5889E+02
      4.029  0.7773E+01  0.5929E+02
      4.080  0.1737E+02  0.6018E+02
      4.132  0.2117E+02  0.6127E+02
      4.183  0.3059E+00  0.6129E+02
      4.235  0.1213E+02  0.6191E+02
      4.286  0.2184E+02  0.6304E+02
      4.338  0.1135E+02  0.6362E+02
      4.389  0.1089E+02  0.6418E+02
      4.441  0.1567E+02  0.6499E+02
      4.492  0.1833E+02  0.6593E+02
      4.544  0.3317E+01  0.6610E+02
      4.595  0.8389E+01  0.6654E+02
      4.647  0.1839E+01  0.6663E+02
      4.698  0.6617E+01  0.6697E+02
      4.750  0.2876E+02  0.6845E+02
      4.801  0.2747E+02  0.6987E+02
      4.853  0.1398E+01  0.6994E+02
      4.904  0.1047E+01  0.7000E+02
      4.956  0.3127E+02  0.7161E+02
      5.007  0.1515E+02  0.7239E+02
      5.059  0.1098E+00  0.7239E+02
      5.110  0.1305E+02  0.7306E+02
      5.162  0.1578E+02  0.7388E+02
      5.213  0.1384E+02  0.7459E+02
      5.265  0.1426E+02  0.7533E+02
      5.316  0.1479E+02  0.7609E+02
      5.368  0.6544E+01  0.7642E+02
      5.419  0.9268E+01  0.7690E+02
      5.471  0.8162E+01  0.7732E+02
      5.523  0.1979E+01  0.7742E+02
      5.574  0.1918E+02  0.7841E+02
      5.626  0.3009E+02  0.7996E+02
      5.677  0.6223E+01  0.8028E+02
      5.729  0.6873E+01  0.8064E+02
      5.780  0.1268E+02  0.8129E+02
      5.832  0.3132E+02  0.8290E+02
      5.883  0.8714E+01  0.8335E+02
      5.935  0.6352E+01  0.8368E+02
      5.986  0.1004E+02  0.8420E+02
      6.038  0.6363E+01  0.8453E+02
      6.089  0.8847E+01  0.8498E+02
      6.141  0.1962E+02  0.8599E+02
      6.192  0.9014E+01  0.8646E+02
      6.244  0.2278E+02  0.8763E+02
      6.295  0.2296E+02  0.8881E+02
      6.347  0.1277E+02  0.8947E+02
      6.398  0.8159E+01  0.8989E+02
      6.450  0.8565E+01  0.9033E+02
      6.501  0.1050E+02  0.9087E+02
      6.553  0.1585E+02  0.9169E+02
      6.604  0.3528E+01  0.9187E+02
      6.656  0.1438E+02  0.9261E+02
      6.707  0.2670E+02  0.9399E+02
      6.759  0.2242E+02  0.9514E+02
      6.810  0.8553E+01  0.9558E+02
      6.862  0.3476E+01  0.9576E+02
      6.913  0.3004E+02  0.9731E+02
      6.965  0.2679E+02  0.9869E+02
      7.016  0.1640E+01  0.9877E+02
      7.068  0.9949E+01  0.9929E+02
      7.119  0.1680E+02  0.1002E+03
      7.171  0.1636E+02  0.1010E+03
      7.223  0.1691E+02  0.1019E+03
      7.274  0.2048E+01  0.1020E+03
      7.326  0.7655E+01  0.1024E+03
      7.377  0.2505E+02  0.1037E+03
      7.429  0.1662E+02  0.1045E+03
      7.480  0.6380E+00  0.1045E+03
      7.532  0.8624E+01  0.1050E+03
      7.583  0.1296E+02  0.1057E+03
      7.635  0.1978E+02  0.1067E+03
      7.686  0.1359E+02  0.1074E+03
      7.738  0.2782E+02  0.1088E+03
      7.789  0.1943E+02  0.1098E+03
      7.841  0.1555E+02  0.1106E+03
      7.892  0.1116E+02  0.1112E+03
      7.944  0.1251E+02  0.1118E+03
      7.995  0.8434E+01  0.1123E+03
      8.047  0.1892E+02  0.1132E+03
      8.098  0.1684E+02  0.1141E+03
      8.150  0.1293E+02  0.1148E+03
      8.201  0.1491E+02  0.1155E+03
      8.253  0.3996E+02  0.1176E+03
      8.304  0.8700E+01  0.1181E+03
      8.356  0.8508E+01  0.1185E+03
      8.407  0.8688E+01  0.1189E+03
      8.459  0.1722E+02  0.1198E+03
      8.510  0.1289E+02  0.1205E+03
      8.562  0.8700E+01  0.1209E+03
      8.613  0.1503E+02  0.1217E+03
      8.665  0.2719E+02  0.1231E+03
      8.716  0.1442E+02  0.1239E+03
      8.768  0.8964E+01  0.1243E+03
      8.820  0.1822E+02  0.1253E+03
      8.871  0.1742E+02  0.1262E+03
      8.923  0.8942E+01  0.1266E+03
      8.974  0.8043E+01  0.1270E+03
      9.026  0.1650E+02  0.1279E+03
      9.077  0.3518E+02  0.1297E+03
      9.129  0.1052E+02  0.1302E+03
      9.180  0.2113E+02  0.1313E+03
      9.232  0.4383E+00  0.1313E+03
      9.283  0.1703E+02  0.1322E+03
      9.335  0.1473E+02  0.1330E+03
      9.386  0.1708E+02  0.1339E+03
      9.438  0.1289E+02  0.1345E+03
      9.489  0.8573E+01  0.1350E+03
      9.541  0.2795E+02  0.1364E+03
      9.592  0.7869E-01  0.1364E+03
      9.644  0.7542E+01  0.1368E+03
      9.695  0.3340E+02  0.1385E+03
      9.747  0.1622E+02  0.1394E+03
      9.798  0.2806E+02  0.1408E+03
      9.850  0.6020E+01  0.1411E+03
      9.901  0.4302E+01  0.1413E+03
      9.953  0.2148E+02  0.1424E+03
     10.004  0.5254E+00  0.1425E+03
     10.056  0.2172E+00  0.1425E+03
     10.107  0.3124E+01  0.1426E+03
     10.159  0.1411E+02  0.1434E+03
     10.210  0.6284E+01  0.1437E+03
     10.262  0.7130E+00  0.1437E+03
     10.313  0.0000E+00  0.1437E+03
     10.365  0.7305E-02  0.1437E+03
     10.417  0.4306E+01  0.1439E+03
     10.468  0.3728E-03  0.1439E+03
     10.520  0.8236E-02  0.1439E+03
     10.571  0.1070E+01  0.1440E+03
     10.623  0.0000E+00  0.1440E+03
     10.674  0.0000E+00  0.1440E+03
     10.726  0.0000E+00  0.1440E+03
     10.777  0.0000E+00  0.1440E+03
     10.829  0.0000E+00  0.1440E+03
     10.880  0.0000E+00  0.1440E+03
     10.932  0.0000E+00  0.1440E+03
     10.983  0.0000E+00  0.1440E+03
     11.035  0.0000E+00  0.1440E+03
     11.086  0.0000E+00  0.1440E+03
     11.138  0.0000E+00  0.1440E+03
     11.189  0.0000E+00  0.1440E+03
     11.241  0.0000E+00  0.1440E+03
