   32   32    1    1
  0.1850465E+02  0.8397376E-09  0.8397376E-09  0.8397376E-09  0.5000000E-15
  1.000000000000000E-004
  CAR 
 unknown system                          
   96   40   72
 
  0.0000000E+00  0.0000000E+00  0.0000000E+00  0.4629630E-02
   1       -3.5115
   2       -1.4295
   3       -1.4260
   4       -1.4260
   5       -1.4260
   6       -1.4260
   7       -1.4225
   8        0.6263
   9        0.6307
  10        0.6307
  11        0.6322
  12        0.6323
  13        0.6323
  14        0.6323
  15        0.6323
  16        0.6325
  17        0.6340
  18        0.6340
  19        0.6384
  20        2.6208
  21        2.6209
  22        2.6209
  23        2.6209
  24        2.7098
  25        2.7099
  26        2.7099
  27        2.7099
  28        4.2072
  29        4.2072
  30        4.2072
  31        5.2490
  32        5.2490
  33        5.2490
  34        6.1496
  35        6.1496
  36        6.1537
  37        6.1537
  38        6.1538
  39        6.1538
  40        6.1538
  41        6.1538
  42        6.1539
  43        6.1539
  44        6.1579
  45        6.1579
  46        7.2117
  47        7.2156
  48        7.2156
  49        7.2156
  50        7.2156
  51        7.2194
  52        7.3538
  53        7.3547
  54        7.3547
  55        7.3547
  56        7.3547
  57        7.3556
  58        8.0982
  59        8.0982
  60        8.1000
  61        8.1020
  62        8.1021
  63        8.1021
  64        8.1021
  65        8.1021
  66        8.1022
  67        8.1042
  68        8.1060
  69        8.1060
  70        9.2601
  71        9.2621
  72        9.2633
 
  0.1666667E+00  0.0000000E+00  0.0000000E+00  0.9259259E-02
   1       -3.4533
   2       -2.0603
   3       -1.3684
   4       -1.3684
   5       -1.3684
   6       -1.3684
   7       -0.6798
   8        0.0062
   9        0.0062
  10        0.0062
  11        0.0062
  12        0.6891
  13        0.6891
  14        0.6891
  15        0.6891
  16        1.3690
  17        1.3690
  18        1.3690
  19        1.3690
  20        2.0454
  21        2.0454
  22        2.0454
  23        2.0454
  24        3.3401
  25        3.3946
  26        3.3946
  27        3.3946
  28        3.3946
  29        4.2612
  30        4.2612
  31        5.3062
  32        5.3064
  33        5.3279
  34        5.3279
  35        5.3279
  36        5.3282
  37        5.5585
  38        5.5585
  39        6.2079
  40        6.2079
  41        6.2079
  42        6.2079
  43        6.2186
  44        6.6671
  45        6.6671
  46        6.8578
  47        6.8578
  48        7.3000
  49        7.3000
  50        7.3000
  51        7.3001
  52        7.3369
  53        7.3369
  54        7.3369
  55        7.3370
  56        7.5066
  57        7.5066
  58        7.5067
  59        7.5067
  60        8.0049
  61        8.0049
  62        8.2147
  63        8.2147
  64        8.2147
  65        8.2147
  66        8.6652
  67        8.6652
  68        8.6652
  69        8.6653
  70        8.8059
  71        8.8059
  72        8.8059
 
  0.3333333E+00  0.0000000E+00  0.0000000E+00  0.9259259E-02
   1       -3.2785
   2       -2.5812
   3       -1.1960
   4       -1.1960
   5       -1.1960
   6       -1.1960
   7       -0.5080
   8       -0.5079
   9       -0.5079
  10       -0.5079
  11        0.1762
  12        0.8593
  13        0.8593
  14        0.8593
  15        0.8593
  16        1.5384
  17        1.5384
  18        1.5384
  19        1.5384
  20        2.2016
  21        2.2140
  22        2.2140
  23        2.2140
  24        2.2141
  25        4.2115
  26        4.2115
  27        4.2115
  28        4.2115
  29        4.2287
  30        4.2287
  31        4.2287
  32        4.2287
  33        4.4233
  34        4.4233
  35        5.0718
  36        5.0718
  37        5.4783
  38        5.4783
  39        6.1610
  40        6.1611
  41        6.2008
  42        6.2008
  43        6.2008
  44        6.2009
  45        6.3702
  46        6.3702
  47        6.3702
  48        6.3702
  49        7.0195
  50        7.0195
  51        7.0195
  52        7.0195
  53        7.5064
  54        7.5064
  55        7.5064
  56        7.5064
  57        7.6641
  58        7.6707
  59        7.6707
  60        8.1715
  61        8.1715
  62        8.1715
  63        8.1715
  64        8.8131
  65        8.8131
  66        9.6177
  67        9.6179
  68        9.6202
  69        9.6214
  70        9.6236
  71        9.6252
  72        9.6262
 
  0.5000000E+00  0.0000000E+00  0.0000000E+00  0.4629630E-02
   1       -2.9889
   2       -2.9862
   3       -0.9127
   4       -0.9097
   5       -0.9097
   6       -0.9090
   7       -0.9089
   8       -0.9082
   9       -0.9082
  10       -0.9052
  11        1.1360
  12        1.1389
  13        1.1414
  14        1.1414
  15        1.1416
  16        1.1423
  17        1.1430
  18        1.1438
  19        1.1438
  20        1.1464
  21        3.1627
  22        3.1633
  23        3.1633
  24        3.1639
  25        3.1641
  26        3.1647
  27        3.1647
  28        3.1654
  29        4.6920
  30        4.6920
  31        4.6948
  32        4.6948
  33        5.1657
  34        5.1657
  35        5.1664
  36        5.1665
  37        5.1671
  38        5.1672
  39        5.1680
  40        5.1680
  41        5.7621
  42        5.7628
  43        5.7646
  44        5.7654
  45        6.6385
  46        6.6385
  47        6.6395
  48        6.6406
  49        6.6407
  50        6.6419
  51        6.6429
  52        6.6429
  53        7.7823
  54        7.7835
  55        7.7835
  56        7.7836
  57        7.7854
  58        7.7855
  59        7.7855
  60        7.7868
  61        8.5913
  62        8.5913
  63        8.5935
  64        8.5935
  65        9.2366
  66        9.2382
  67        9.7003
  68        9.7009
  69        9.7021
  70        9.7027
  71       10.5372
  72       10.5383
 
  0.0000000E+00  0.1666667E+00  0.0000000E+00  0.1851852E-01
   1       -3.4533
   2       -2.0603
   3       -1.3712
   4       -1.3684
   5       -1.3684
   6       -1.3657
   7       -0.6798
   8        0.0035
   9        0.0062
  10        0.0062
  11        0.0089
  12        0.6870
  13        0.6881
  14        0.6901
  15        0.6913
  16        1.3663
  17        1.3690
  18        1.3690
  19        1.3717
  20        2.0433
  21        2.0444
  22        2.0465
  23        2.0476
  24        3.3401
  25        3.3924
  26        3.3935
  27        3.3956
  28        3.3967
  29        4.2612
  30        4.2612
  31        5.3063
  32        5.3064
  33        5.3251
  34        5.3279
  35        5.3279
  36        5.3308
  37        5.5585
  38        5.5585
  39        6.2053
  40        6.2078
  41        6.2079
  42        6.2104
  43        6.2187
  44        6.6670
  45        6.6671
  46        6.8578
  47        6.8578
  48        7.2977
  49        7.2991
  50        7.3011
  51        7.3025
  52        7.3349
  53        7.3369
  54        7.3369
  55        7.3389
  56        7.5041
  57        7.5066
  58        7.5067
  59        7.5092
  60        8.0049
  61        8.0049
  62        8.2122
  63        8.2147
  64        8.2147
  65        8.2172
  66        8.6632
  67        8.6652
  68        8.6652
  69        8.6672
  70        8.8036
  71        8.8059
  72        8.8065
 
  0.1666667E+00  0.1666667E+00  0.0000000E+00  0.3703704E-01
   1       -3.3950
   2       -2.0036
   3       -2.0014
   4       -1.3109
   5       -1.3109
   6       -0.6243
   7       -0.6225
   8       -0.6207
   9        0.0617
  10        0.0625
  11        0.0639
  12        0.0647
  13        0.7451
  14        0.7462
  15        1.4231
  16        1.4243
  17        1.4254
  18        1.4254
  19        1.4266
  20        1.4278
  21        2.1023
  22        2.7360
  23        2.7360
  24        2.8185
  25        2.8185
  26        3.3950
  27        3.3960
  28        4.1186
  29        4.1186
  30        4.3152
  31        4.7213
  32        4.7236
  33        5.3636
  34        5.3747
  35        5.3748
  36        5.3914
  37        5.3914
  38        5.6114
  39        5.6138
  40        6.0399
  41        6.0411
  42        6.2740
  43        6.2750
  44        6.6977
  45        6.6986
  46        6.7000
  47        6.7008
  48        6.7256
  49        6.7275
  50        6.9094
  51        6.9116
  52        6.9138
  53        7.5982
  54        7.5995
  55        8.0067
  56        8.0078
  57        8.0078
  58        8.0088
  59        8.0624
  60        8.0646
  61        8.0661
  62        8.2094
  63        8.2110
  64        8.2116
  65        8.2124
  66        8.3191
  67        8.3191
  68        8.9156
  69        8.9178
  70        9.3671
  71        9.3673
  72        9.5099
 
  0.3333333E+00  0.1666667E+00  0.0000000E+00  0.3703704E-01
   1       -3.2203
   2       -2.5232
   3       -1.8294
   4       -1.1399
   5       -1.1385
   6       -1.1372
   7       -0.4522
   8       -0.4508
   9       -0.4495
  10        0.2316
  11        0.2339
  12        0.2341
  13        0.2356
  14        0.9158
  15        0.9158
  16        1.5937
  17        1.5949
  18        1.5953
  19        2.2576
  20        2.2688
  21        2.2695
  22        2.2713
  23        2.2722
  24        2.9435
  25        3.5618
  26        3.5998
  27        3.6162
  28        3.6162
  29        4.2258
  30        4.2670
  31        4.2671
  32        4.4773
  33        4.9314
  34        4.9497
  35        4.9497
  36        5.1258
  37        5.5355
  38        5.5479
  39        5.5480
  40        5.5953
  41        5.5953
  42        5.7748
  43        6.2066
  44        6.2066
  45        6.2170
  46        6.4240
  47        6.4419
  48        6.8629
  49        6.8948
  50        6.9135
  51        6.9136
  52        7.0742
  53        7.1080
  54        7.5649
  55        7.7191
  56        7.7225
  57        7.7259
  58        8.2174
  59        8.4275
  60        8.4275
  61        8.8048
  62        8.8206
  63        8.8207
  64        8.8680
  65        8.8784
  66        9.0231
  67        9.0361
  68        9.0830
  69        9.0830
  70        9.6780
  71        9.6806
  72        9.6845
 
  0.5000000E+00  0.1666667E+00  0.0000000E+00  0.1851852E-01
   1       -2.9308
   2       -2.9281
   3       -1.5425
   4       -1.5398
   5       -0.8535
   6       -0.8524
   7       -0.8509
   8       -0.8497
   9       -0.1666
  10       -0.1639
  11        0.5166
  12        0.5177
  13        0.5193
  14        0.5204
  15        1.1947
  16        1.1961
  17        1.8750
  18        1.8761
  19        1.8777
  20        1.8788
  21        2.5471
  22        2.5485
  23        3.2192
  24        3.2192
  25        3.2206
  26        3.2207
  27        3.8373
  28        3.8401
  29        3.8884
  30        3.8899
  31        4.5566
  32        4.5567
  33        4.5581
  34        4.5581
  35        4.7460
  36        4.7489
  37        5.8193
  38        5.8206
  39        5.8219
  40        5.8219
  41        5.8233
  42        5.8246
  43        5.8833
  44        5.8834
  45        5.8848
  46        5.8848
  47        6.0438
  48        6.0467
  49        6.7189
  50        6.7216
  51        7.1736
  52        7.1761
  53        7.3434
  54        7.3462
  55        7.7841
  56        7.7859
  57        8.4936
  58        8.4962
  59        8.6453
  60        8.6476
  61        8.6999
  62        8.7008
  63        8.7026
  64        8.7035
  65        9.2908
  66        9.2924
  67        9.7345
  68        9.7348
  69        9.7363
  70        9.7365
  71        9.7550
  72        9.7556
 
  0.0000000E+00  0.3333333E+00  0.0000000E+00  0.1851852E-01
   1       -3.2785
   2       -2.5812
   3       -1.1987
   4       -1.1960
   5       -1.1960
   6       -1.1933
   7       -0.5107
   8       -0.5079
   9       -0.5079
  10       -0.5052
  11        0.1762
  12        0.8572
  13        0.8583
  14        0.8604
  15        0.8615
  16        1.5362
  17        1.5373
  18        1.5394
  19        1.5405
  20        2.2017
  21        2.2113
  22        2.2140
  23        2.2140
  24        2.2168
  25        4.2087
  26        4.2115
  27        4.2115
  28        4.2143
  29        4.2265
  30        4.2276
  31        4.2297
  32        4.2308
  33        4.4233
  34        4.4233
  35        5.0718
  36        5.0718
  37        5.4783
  38        5.4783
  39        6.1609
  40        6.1611
  41        6.1986
  42        6.1997
  43        6.2018
  44        6.2031
  45        6.3676
  46        6.3702
  47        6.3702
  48        6.3727
  49        7.0169
  50        7.0195
  51        7.0195
  52        7.0221
  53        7.5044
  54        7.5064
  55        7.5064
  56        7.5083
  57        7.6637
  58        7.6707
  59        7.6711
  60        8.1695
  61        8.1715
  62        8.1715
  63        8.1734
  64        8.8131
  65        8.8131
  66        9.6168
  67        9.6178
  68        9.6198
  69        9.6206
  70        9.6236
  71        9.6252
  72        9.6268
 
  0.1666667E+00  0.3333333E+00  0.0000000E+00  0.3703704E-01
   1       -3.2202
   2       -2.5233
   3       -1.8294
   4       -1.1399
   5       -1.1385
   6       -1.1372
   7       -0.4522
   8       -0.4508
   9       -0.4495
  10        0.2317
  11        0.2336
  12        0.2341
  13        0.2359
  14        0.9158
  15        0.9158
  16        1.5930
  17        1.5950
  18        1.5960
  19        2.2576
  20        2.2698
  21        2.2699
  22        2.2709
  23        2.2712
  24        2.9435
  25        3.5618
  26        3.5998
  27        3.6162
  28        3.6162
  29        4.2257
  30        4.2670
  31        4.2671
  32        4.4773
  33        4.9314
  34        4.9497
  35        4.9497
  36        5.1258
  37        5.5353
  38        5.5480
  39        5.5482
  40        5.5953
  41        5.5953
  42        5.7748
  43        6.2064
  44        6.2066
  45        6.2172
  46        6.4240
  47        6.4419
  48        6.8629
  49        6.8948
  50        6.9136
  51        6.9136
  52        7.0742
  53        7.1080
  54        7.5649
  55        7.7191
  56        7.7232
  57        7.7252
  58        8.2174
  59        8.4275
  60        8.4275
  61        8.8048
  62        8.8206
  63        8.8206
  64        8.8681
  65        8.8783
  66        9.0231
  67        9.0361
  68        9.0830
  69        9.0830
  70        9.6775
  71        9.6806
  72        9.6998
 
  0.3333333E+00  0.3333333E+00  0.0000000E+00  0.3703704E-01
   1       -3.0457
   2       -2.3506
   3       -2.3484
   4       -1.6564
   5       -0.9664
   6       -0.9663
   7       -0.2809
   8       -0.2800
   9       -0.2787
  10       -0.2778
  11        0.4022
  12        0.4041
  13        0.4047
  14        0.4061
  15        1.0844
  16        1.0855
  17        2.4254
  18        2.4265
  19        2.4374
  20        2.4381
  21        2.4395
  22        2.4405
  23        3.0799
  24        3.0800
  25        3.0966
  26        3.0989
  27        3.1440
  28        3.1440
  29        3.7804
  30        4.4305
  31        4.4305
  32        4.4366
  33        4.4366
  34        4.6393
  35        5.0967
  36        5.0976
  37        5.0989
  38        5.0998
  39        5.2868
  40        5.2892
  41        5.7067
  42        5.7563
  43        5.7573
  44        5.7770
  45        5.7771
  46        5.9370
  47        6.3889
  48        6.3908
  49        7.0636
  50        7.7126
  51        7.7304
  52        7.7314
  53        7.7315
  54        7.7325
  55        7.8834
  56        7.8845
  57        7.8858
  58        7.8883
  59        8.5347
  60        8.5354
  61        8.5360
  62        8.5373
  63        9.0353
  64        9.0369
  65        9.6645
  66        9.6645
  67        9.6773
  68        9.6775
  69        9.7980
  70        9.7980
  71        9.8385
  72        9.8423
 
  0.5000000E+00  0.3333333E+00  0.0000000E+00  0.1851852E-01
   1       -2.7566
   2       -2.7539
   3       -2.0617
   4       -2.0590
   5       -0.6817
   6       -0.6805
   7       -0.6790
   8       -0.6778
   9        0.0041
  10        0.0052
  11        0.0068
  12        0.0079
  13        0.6866
  14        0.6893
  15        1.3643
  16        1.3658
  17        2.0412
  18        2.0426
  19        2.7048
  20        2.7076
  21        2.7173
  22        2.7184
  23        2.7200
  24        2.7211
  25        3.3868
  26        3.3868
  27        3.3882
  28        3.3882
  29        4.0565
  30        4.0565
  31        4.0579
  32        4.0580
  33        4.7088
  34        4.7100
  35        4.7116
  36        4.7128
  37        4.7202
  38        4.7217
  39        4.9081
  40        4.9110
  41        5.5569
  42        5.5598
  43        5.9893
  44        5.9919
  45        6.6697
  46        6.6722
  47        6.6881
  48        6.6897
  49        6.7061
  50        6.7062
  51        6.7077
  52        6.7077
  53        8.1562
  54        8.1563
  55        8.1590
  56        8.1590
  57        8.6501
  58        8.6502
  59        8.6518
  60        8.6518
  61        8.8076
  62        8.8099
  63        9.2955
  64        9.2982
  65        9.4530
  66        9.4546
  67        9.4564
  68        9.4587
  69        9.9164
  70        9.9170
  71       10.1074
  72       10.1094
 
  0.0000000E+00  0.5000000E+00  0.0000000E+00  0.9259259E-02
   1       -2.9876
   2       -2.9876
   3       -0.9139
   4       -0.9094
   5       -0.9089
   6       -0.9089
   7       -0.9089
   8       -0.9089
   9       -0.9085
  10       -0.9040
  11        1.1367
  12        1.1386
  13        1.1405
  14        1.1407
  15        1.1423
  16        1.1425
  17        1.1428
  18        1.1432
  19        1.1445
  20        1.1469
  21        3.1611
  22        3.1614
  23        3.1640
  24        3.1640
  25        3.1640
  26        3.1640
  27        3.1666
  28        3.1669
  29        4.6934
  30        4.6934
  31        4.6934
  32        4.6934
  33        5.1641
  34        5.1652
  35        5.1656
  36        5.1660
  37        5.1677
  38        5.1681
  39        5.1685
  40        5.1696
  41        5.7637
  42        5.7637
  43        5.7637
  44        5.7637
  45        6.6360
  46        6.6403
  47        6.6407
  48        6.6407
  49        6.6407
  50        6.6407
  51        6.6411
  52        6.6454
  53        7.7809
  54        7.7841
  55        7.7845
  56        7.7845
  57        7.7845
  58        7.7845
  59        7.7849
  60        7.7882
  61        8.5924
  62        8.5924
  63        8.5924
  64        8.5924
  65        9.2374
  66        9.2374
  67        9.7015
  68        9.7015
  69        9.7015
  70        9.7015
  71       10.5353
  72       10.5380
 
  0.1666667E+00  0.5000000E+00  0.0000000E+00  0.1851852E-01
   1       -2.9295
   2       -2.9294
   3       -1.5412
   4       -1.5412
   5       -0.8516
   6       -0.8516
   7       -0.8516
   8       -0.8516
   9       -0.1652
  10       -0.1652
  11        0.5185
  12        0.5185
  13        0.5185
  14        0.5185
  15        1.1954
  16        1.1954
  17        1.8769
  18        1.8769
  19        1.8769
  20        1.8769
  21        2.5478
  22        2.5478
  23        3.2199
  24        3.2199
  25        3.2199
  26        3.2199
  27        3.8387
  28        3.8387
  29        3.8891
  30        3.8891
  31        4.5574
  32        4.5574
  33        4.5574
  34        4.5574
  35        4.7474
  36        4.7474
  37        5.8191
  38        5.8205
  39        5.8226
  40        5.8226
  41        5.8227
  42        5.8242
  43        5.8841
  44        5.8841
  45        5.8841
  46        5.8841
  47        6.0452
  48        6.0453
  49        6.7202
  50        6.7202
  51        7.1748
  52        7.1748
  53        7.3448
  54        7.3448
  55        7.7850
  56        7.7850
  57        8.4949
  58        8.4949
  59        8.6464
  60        8.6465
  61        8.7017
  62        8.7017
  63        8.7017
  64        8.7017
  65        9.2916
  66        9.2916
  67        9.7352
  68        9.7355
  69        9.7355
  70        9.7355
  71        9.7553
  72        9.7556
 
  0.3333333E+00  0.5000000E+00  0.0000000E+00  0.1851852E-01
   1       -2.7553
   2       -2.7553
   3       -2.0604
   4       -2.0604
   5       -0.6798
   6       -0.6798
   7       -0.6797
   8       -0.6797
   9        0.0060
  10        0.0060
  11        0.0060
  12        0.0060
  13        0.6880
  14        0.6880
  15        1.3650
  16        1.3650
  17        2.0419
  18        2.0419
  19        2.7061
  20        2.7062
  21        2.7192
  22        2.7192
  23        2.7192
  24        2.7193
  25        3.3875
  26        3.3875
  27        3.3875
  28        3.3875
  29        4.0572
  30        4.0572
  31        4.0572
  32        4.0572
  33        4.7108
  34        4.7108
  35        4.7108
  36        4.7108
  37        4.7210
  38        4.7210
  39        4.9095
  40        4.9096
  41        5.5583
  42        5.5583
  43        5.9906
  44        5.9906
  45        6.6709
  46        6.6709
  47        6.6888
  48        6.6889
  49        6.7069
  50        6.7069
  51        6.7069
  52        6.7070
  53        8.1576
  54        8.1576
  55        8.1576
  56        8.1576
  57        8.6510
  58        8.6510
  59        8.6510
  60        8.6510
  61        8.8088
  62        8.8088
  63        9.2968
  64        9.2968
  65        9.4538
  66        9.4538
  67        9.4575
  68        9.4575
  69        9.9167
  70        9.9167
  71       10.1081
  72       10.1090
 
  0.5000000E+00  0.5000000E+00  0.0000000E+00  0.9259259E-02
   1       -2.4678
   2       -2.4656
   3       -2.4651
   4       -2.4629
   5       -0.3971
   6       -0.3951
   7       -0.3940
   8       -0.3938
   9       -0.3936
  10       -0.3933
  11       -0.3922
  12       -0.3902
  13        1.6434
  14        1.6455
  15        1.6471
  16        1.6473
  17        1.6474
  18        1.6477
  19        1.6492
  20        1.6513
  21        3.6463
  22        3.6466
  23        3.6474
  24        3.6484
  25        3.6484
  26        3.6492
  27        3.6501
  28        3.6502
  29        3.6826
  30        3.6838
  31        3.6845
  32        3.6850
  33        3.6851
  34        3.6855
  35        3.6864
  36        3.6878
  37        5.1772
  38        5.1796
  39        5.1800
  40        5.1825
  41        5.6540
  42        5.6551
  43        5.6555
  44        5.6565
  45        6.2748
  46        6.2766
  47        6.2773
  48        6.2791
  49        7.6300
  50        7.6310
  51        7.6311
  52        7.6316
  53        7.6321
  54        7.6326
  55        7.6327
  56        7.6337
  57        9.0737
  58        9.0776
  59        9.0789
  60        9.0791
  61        9.0792
  62        9.0794
  63        9.0807
  64        9.0846
  65        9.7178
  66        9.7187
  67        9.7196
  68        9.7202
  69        9.7205
  70        9.7211
  71        9.7220
  72        9.7229
 
  0.0000000E+00  0.1666667E+00  0.1666667E+00  0.1851852E-01
   1       -3.3950
   2       -2.0025
   3       -2.0025
   4       -1.3125
   5       -1.3093
   6       -0.6225
   7       -0.6225
   8       -0.6224
   9        0.0606
  10        0.0626
  11        0.0638
  12        0.0658
  13        0.7457
  14        0.7457
  15        1.4226
  16        1.4240
  17        1.4249
  18        1.4261
  19        1.4267
  20        1.4283
  21        2.1023
  22        2.7360
  23        2.7360
  24        2.8185
  25        2.8185
  26        3.3955
  27        3.3955
  28        4.1170
  29        4.1202
  30        4.3152
  31        4.7225
  32        4.7225
  33        5.3637
  34        5.3746
  35        5.3746
  36        5.3915
  37        5.3915
  38        5.6126
  39        5.6126
  40        6.0405
  41        6.0405
  42        6.2745
  43        6.2745
  44        6.6966
  45        6.6986
  46        6.7000
  47        6.7020
  48        6.7265
  49        6.7265
  50        6.9111
  51        6.9119
  52        6.9119
  53        7.5989
  54        7.5989
  55        8.0057
  56        8.0065
  57        8.0091
  58        8.0099
  59        8.0628
  60        8.0651
  61        8.0651
  62        8.2098
  63        8.2107
  64        8.2116
  65        8.2124
  66        8.3191
  67        8.3192
  68        8.9167
  69        8.9167
  70        9.3672
  71        9.3672
  72        9.5102
 
  0.1666667E+00  0.1666667E+00  0.1666667E+00  0.3703704E-01
   1       -3.3367
   2       -1.9463
   3       -1.9448
   4       -1.9432
   5       -0.5686
   6       -0.5656
   7       -0.5655
   8       -0.5649
   9       -0.5649
  10       -0.5619
  11        0.7991
  12        0.8014
  13        0.8019
  14        0.8024
  15        0.8029
  16        0.8035
  17        0.8057
  18        2.1558
  19        2.1573
  20        2.1577
  21        2.1586
  22        2.1592
  23        2.1609
  24        3.4503
  25        3.4510
  26        3.4517
  27        3.5050
  28        3.5058
  29        3.5065
  30        4.7749
  31        4.7763
  32        4.7776
  33        4.7776
  34        4.7789
  35        4.7803
  36        4.8401
  37        6.0938
  38        6.0941
  39        6.0958
  40        6.0961
  41        6.0964
  42        6.0967
  43        6.0970
  44        6.0985
  45        6.0996
  46        6.3296
  47        6.3303
  48        6.3311
  49        7.4069
  50        7.4077
  51        7.4088
  52        7.4088
  53        7.4098
  54        7.4106
  55        7.6594
  56        7.6596
  57        7.6608
  58        7.6608
  59        7.6620
  60        7.6623
  61        8.7126
  62        8.7133
  63        8.7141
  64        8.9691
  65        8.9707
  66        8.9716
  67        8.9717
  68        8.9722
  69        8.9739
  70        8.9754
  71        8.9764
  72        8.9768
 
  0.3333333E+00  0.1666667E+00  0.1666667E+00  0.3703704E-01
   1       -3.1621
   2       -2.4653
   3       -1.7717
   4       -1.7717
   5       -1.0812
   6       -1.0811
   7       -0.3937
   8       -0.3937
   9       -0.3936
  10        0.2884
  11        0.2908
  12        0.2909
  13        0.2925
  14        0.9725
  15        0.9725
  16        1.6491
  17        1.6499
  18        1.6517
  19        1.6525
  20        2.3138
  21        2.3273
  22        2.9655
  23        2.9995
  24        2.9995
  25        3.0356
  26        3.6172
  27        3.6172
  28        3.6555
  29        3.6556
  30        4.2810
  31        4.2810
  32        4.3394
  33        4.3394
  34        4.9424
  35        4.9425
  36        4.9872
  37        4.9873
  38        4.9880
  39        5.6031
  40        5.6031
  41        5.6680
  42        6.2606
  43        6.2606
  44        6.3102
  45        6.3102
  46        6.4976
  47        6.4976
  48        6.9121
  49        6.9124
  50        6.9176
  51        6.9180
  52        7.1680
  53        7.1680
  54        7.6237
  55        7.7741
  56        7.8270
  57        7.8271
  58        8.2237
  59        8.2237
  60        8.4856
  61        8.4856
  62        8.8591
  63        8.8591
  64        9.0550
  65        9.0550
  66        9.1638
  67        9.1638
  68        9.5235
  69        9.5235
  70        9.7688
  71        9.7715
  72        9.7809
 
  0.5000000E+00  0.1666667E+00  0.1666667E+00  0.1851852E-01
   1       -2.8727
   2       -2.8700
   3       -1.4859
   4       -1.4840
   5       -1.4832
   6       -1.4814
   7       -0.1107
   8       -0.1091
   9       -0.1086
  10       -0.1077
  11       -0.1071
  12       -0.1056
  13        1.2502
  14        1.2522
  15        1.2544
  16        1.2550
  17        1.2568
  18        1.2579
  19        2.6027
  20        2.6035
  21        2.6043
  22        2.6046
  23        2.6067
  24        2.6093
  25        3.8925
  26        3.8928
  27        3.8953
  28        3.8955
  29        3.9438
  30        3.9444
  31        3.9453
  32        3.9455
  33        3.9458
  34        3.9470
  35        5.2160
  36        5.2177
  37        5.2187
  38        5.2205
  39        5.2758
  40        5.2766
  41        5.2773
  42        5.2781
  43        6.5329
  44        6.5334
  45        6.5357
  46        6.5362
  47        6.5977
  48        6.5992
  49        6.7740
  50        6.7745
  51        6.7766
  52        6.7771
  53        7.8387
  54        7.8392
  55        7.8404
  56        7.8409
  57        8.1006
  58        8.1011
  59        8.1032
  60        8.1038
  61        9.1399
  62        9.1408
  63        9.1417
  64        9.1425
  65        9.3448
  66        9.3464
  67        9.3995
  68        9.4014
  69        9.4022
  70        9.4041
  71       10.3837
  72       10.3892
 
  0.0000000E+00  0.3333333E+00  0.1666667E+00  0.3703704E-01
   1       -3.2202
   2       -2.5232
   3       -1.8294
   4       -1.1406
   5       -1.1385
   6       -1.1365
   7       -0.4529
   8       -0.4508
   9       -0.4487
  10        0.2317
  11        0.2335
  12        0.2340
  13        0.2361
  14        0.9143
  15        0.9174
  16        1.5931
  17        1.5942
  18        1.5966
  19        2.2576
  20        2.2684
  21        2.2693
  22        2.2716
  23        2.2725
  24        2.9435
  25        3.5618
  26        3.5998
  27        3.6146
  28        3.6178
  29        4.2258
  30        4.2654
  31        4.2687
  32        4.4773
  33        4.9314
  34        4.9481
  35        4.9513
  36        5.1258
  37        5.5354
  38        5.5463
  39        5.5497
  40        5.5936
  41        5.5969
  42        5.7748
  43        6.2049
  44        6.2082
  45        6.2170
  46        6.4240
  47        6.4419
  48        6.8629
  49        6.8947
  50        6.9119
  51        6.9152
  52        7.0742
  53        7.1081
  54        7.5649
  55        7.7186
  56        7.7236
  57        7.7252
  58        8.2174
  59        8.4260