 vasp.4.6.28 25Jul05 complex 
 executed on             LinuxIFC date 2016.10.19  12:25:52
 running on    8 nodes
 distr:  one band on    1 nodes,    8 groups


--------------------------------------------------------------------------------------------------------


 INCAR:
 POTCAR:   PAW_PBE Al 04Jan2001                   
 POTCAR:   PAW_PBE Al 04Jan2001                   
   VRHFIN =Al: s2p1                                                             
   LEXCH  = PE                                                                  
   EATOM  =    53.5387 eV,    3.9350 Ry                                         
                                                                                
   TITEL  = PAW_PBE Al 04Jan2001                                                
   LULTRA =        F    use ultrasoft PP ?                                      
   IUNSCR =        1    unscreen: 0-lin 1-nonlin 2-no                           
   RPACOR =    1.500    partial core radius                                     
   POMASS =   26.982; ZVAL   =    3.000    mass and valenz                      
   RCORE  =    1.900    outmost cutoff radius                                   
   RWIGS  =    2.650; RWIGS  =    1.402    wigner-seitz radius (au A)           
   ENMAX  =  240.300; ENMIN  =  180.225 eV                                      
   ICORE  =        2    local potential                                         
   LCOR   =        T    correct aug charges                                     
   LPAW   =        T    paw PP                                                  
   EAUG   =  291.052                                                            
   DEXC   =    -.041                                                            
   RMAX   =    2.974    core radius for proj-oper                               
   RAUG   =    1.300    factor for augmentation sphere                          
   RDEP   =    1.966    radius for radial grids                                 
   QCUT   =   -4.203; QGAM   =    8.405    optimization parameters              
                                                                                
   Description                                                                  
     l     E      TYP  RCUT    TYP  RCUT                                        
     0   .000     23  1.900                                                     
     0   .000     23  1.900                                                     
     1   .000     23  1.900                                                     
     1  1.000     23  1.900                                                     
     2   .000      7  1.900                                                     
  local pseudopotential read in
  partial core-charges read in
  atomic valenz-charges read in
  non local Contribution for L=           0  read in
    real space projection operators read in
  non local Contribution for L=           0  read in
    real space projection operators read in
  non local Contribution for L=           1  read in
    real space projection operators read in
  non local Contribution for L=           1  read in
    real space projection operators read in
    PAW grid and wavefunctions read in
 
   number of l-projection  operators is LMAX  =           4
   number of lm-projection operators is LMMAX =           8
 

 ----------------------------------------------------------------------------- 
|                                                                             |
|  ADVICE TO THIS USER RUNNING 'VASP/VAMP'   (HEAR YOUR MASTER'S VOICE ...):  |
|                                                                             |
|      You have a (more or less) 'large supercell' and for larger cells       |
|      it might be more efficient to use real space projection operators      |
|      So try LREAL= Auto  in the INCAR   file.                               |
|      Mind: If you want to do an extremely accurate calculations keep the    |
|      reciprocal projection scheme          (i.e. LREAL=.FALSE.)             |
|                                                                             |
 ----------------------------------------------------------------------------- 

 PAW_PBE Al 04Jan2001                   :
 energy of atom  1       EATOM=  -53.5387
 kinetic energy error for atom=    0.0003 (will be added to EATOM!!)
 
 EXHCAR: internal setup
 exchange correlation table for  LEXCH =        8
   RHO(1)=    0.500       N(1)  =     2000
   RHO(2)=  100.500       N(2)  =     4000
 
 POSCAR: Al                                      
  positions in direct lattice
  No initial velocities read in
 


--------------------------------------------------------------------------------------------------------


 ion  position               nearest neighbor table
   1  0.251  0.250  0.000-  18 2.96  22 2.96  26 2.96  28 2.96   9 2.97  11 2.97  13 2.97  15 2.97
                            27 2.98  25 2.98  21 2.98  17 2.98
   2  0.750  0.250  0.000-  10 2.97  12 2.97  14 2.97  16 2.97  17 2.97  18 2.97  21 2.97  22 2.97
                            25 2.97  26 2.97  27 2.97  28 2.97
   3  0.250  0.750  0.000-   9 2.97  11 2.97  13 2.97  15 2.97  19 2.97  20 2.97  23 2.97  24 2.97
                            25 2.97  26 2.97  27 2.97  28 2.97
   4  0.750  0.750  0.000-  10 2.97  12 2.97  14 2.97  16 2.97  19 2.97  20 2.97  23 2.97  24 2.97
                            25 2.97  26 2.97  27 2.97  28 2.97
   5  0.250  0.250  0.500-   9 2.97  11 2.97  13 2.97  15 2.97  17 2.97  18 2.97  21 2.97  22 2.97
                            29 2.97  30 2.97  31 2.97  32 2.97
   6  0.750  0.250  0.500-  10 2.97  12 2.97  14 2.97  16 2.97  17 2.97  18 2.97  21 2.97  22 2.97
                            29 2.97  30 2.97  31 2.97  32 2.97
   7  0.250  0.750  0.500-   9 2.97  11 2.97  13 2.97  15 2.97  19 2.97  20 2.97  23 2.97  24 2.97
                            29 2.97  30 2.97  31 2.97  32 2.97
   8  0.750  0.750  0.500-  10 2.97  12 2.97  14 2.97  16 2.97  19 2.97  20 2.97  23 2.97  24 2.97
                            29 2.97  30 2.97  31 2.97  32 2.97
   9  0.250  0.000  0.250-   3 2.97   5 2.97   7 2.97  17 2.97  18 2.97  19 2.97  20 2.97  25 2.97
                            26 2.97  29 2.97  30 2.97   1 2.97
  10  0.750  0.000  0.250-   2 2.97   4 2.97   6 2.97   8 2.97  17 2.97  18 2.97  19 2.97  20 2.97
                            25 2.97  26 2.97  29 2.97  30 2.97
  11  0.250  0.500  0.250-   3 2.97   5 2.97   7 2.97  17 2.97  18 2.97  19 2.97  20 2.97  27 2.97
                            28 2.97  31 2.97  32 2.97   1 2.97
  12  0.750  0.500  0.250-   2 2.97   4 2.97   6 2.97   8 2.97  17 2.97  18 2.97  19 2.97  20 2.97
                            27 2.97  28 2.97  31 2.97  32 2.97
  13  0.250  0.000  0.750-   3 2.97   5 2.97   7 2.97  21 2.97  22 2.97  23 2.97  24 2.97  25 2.97
                            26 2.97  29 2.97  30 2.97   1 2.97
  14  0.750  0.000  0.750-   2 2.97   4 2.97   6 2.97   8 2.97  21 2.97  22 2.97  23 2.97  24 2.97
                            25 2.97  26 2.97  29 2.97  30 2.97
  15  0.250  0.500  0.750-   3 2.97   5 2.97   7 2.97  21 2.97  22 2.97  23 2.97  24 2.97  27 2.97
                            28 2.97  31 2.97  32 2.97   1 2.97
  16  0.750  0.500  0.750-   2 2.97   4 2.97   6 2.97   8 2.97  21 2.97  22 2.97  23 2.97  24 2.97
                            27 2.97  28 2.97  31 2.97  32 2.97
  17  0.000  0.250  0.250-   2 2.97   5 2.97   6 2.97   9 2.97  10 2.97  11 2.97  12 2.97  25 2.97
                            27 2.97  29 2.97  31 2.97   1 2.98
  18  0.500  0.250  0.250-   1 2.96   2 2.97   5 2.97   6 2.97   9 2.97  10 2.97  11 2.97  12 2.97
                            26 2.97  28 2.97  30 2.97  32 2.97
  19  0.000  0.750  0.250-   3 2.97   4 2.97   7 2.97   8 2.97   9 2.97  10 2.97  11 2.97  12 2.97
                            25 2.97  27 2.97  29 2.97  31 2.97
  20  0.500  0.750  0.250-   3 2.97   4 2.97   7 2.97   8 2.97   9 2.97  10 2.97  11 2.97  12 2.97
                            26 2.97  28 2.97  30 2.97  32 2.97
  21  0.000  0.250  0.750-   2 2.97   5 2.97   6 2.97  13 2.97  14 2.97  15 2.97  16 2.97  25 2.97
                            27 2.97  29 2.97  31 2.97   1 2.98
  22  0.500  0.250  0.750-   1 2.96   2 2.97   5 2.97   6 2.97  13 2.97  14 2.97  15 2.97  16 2.97
                            26 2.97  28 2.97  30 2.97  32 2.97
  23  0.000  0.750  0.750-   3 2.97   4 2.97   7 2.97   8 2.97  13 2.97  14 2.97  15 2.97  16 2.97
                            25 2.97  27 2.97  29 2.97  31 2.97
  24  0.500  0.750  0.750-   3 2.97   4 2.97   7 2.97   8 2.97  13 2.97  14 2.97  15 2.97  16 2.97
                            26 2.97  28 2.97  30 2.97  32 2.97
  25  0.000  0.000  0.000-   2 2.97   3 2.97   4 2.97   9 2.97  10 2.97  13 2.97  14 2.97  17 2.97
                            19 2.97  21 2.97  23 2.97   1 2.98
  26  0.500  0.000  0.000-   1 2.96   2 2.97   3 2.97   4 2.97   9 2.97  10 2.97  13 2.97  14 2.97
                            18 2.97  20 2.97  22 2.97  24 2.97
  27  0.000  0.500  0.000-   2 2.97   3 2.97   4 2.97  11 2.97  12 2.97  15 2.97  16 2.97  17 2.97
                            19 2.97  21 2.97  23 2.97   1 2.98
  28  0.500  0.500  0.000-   1 2.96   2 2.97   3 2.97   4 2.97  11 2.97  12 2.97  15 2.97  16 2.97
                            18 2.97  20 2.97  22 2.97  24 2.97
  29  0.000  0.000  0.500-   5 2.97   6 2.97   7 2.97   8 2.97   9 2.97  10 2.97  13 2.97  14 2.97
                            17 2.97  19 2.97  21 2.97  23 2.97
  30  0.500  0.000  0.500-   5 2.97   6 2.97   7 2.97   8 2.97   9 2.97  10 2.97  13 2.97  14 2.97
                            18 2.97  20 2.97  22 2.97  24 2.97
  31  0.000  0.500  0.500-   5 2.97   6 2.97   7 2.97   8 2.97  11 2.97  12 2.97  15 2.97  16 2.97
                            17 2.97  19 2.97  21 2.97  23 2.97
  32  0.500  0.500  0.500-   5 2.97   6 2.97   7 2.97   8 2.97  11 2.97  12 2.97  15 2.97  16 2.97
                            18 2.97  20 2.97  22 2.97  24 2.97
 
  LATTYP: Found a simple cubic cell.
 ALAT       =     8.3973757920
  
  Lattice vectors:
  
 A1 = (   8.3973757920,   0.0000000000,   0.0000000000)
 A2 = (   0.0000000000,   8.3973757920,   0.0000000000)
 A3 = (   0.0000000000,   0.0000000000,   8.3973757920)
 Subroutine PRICEL returns:
 Original cell was already a primitive cell.
 

Analysis of symmetry for initial positions (statically):

 Routine SETGRP: Setting up the symmetry group for a 
 simple cubic supercell.


 Subroutine GETGRP returns: Found  8 space group operations
 (whereof  2 operations were pure point group operations)
 out of a pool of 48 trial point group operations.


The static configuration has the point symmetry C_1h.
 The point group associated with its full space group is C_4v.

Analysis of symmetry for dynamics (positions and initial velocities):

 Subroutine DYNSYM returns: Found  8 space group operations
 (whereof  2 operations were pure point group operations)
 out of a pool of  8 trial space group operations
 (whereof  2 operations were pure point group operations)
 and found also     1 'primitive' translations


The dynamic configuration has the point symmetry C_1h.
 The point group associated with its full space group is C_4v.
 
 
 KPOINTS: Automatic mesh                          

Automatic generation of k-mesh.
 generate k-points for:   6   6   6
 
 Subroutine IBZKPT returns following result:
 ===========================================
 
 Found     40 irreducible k-points:
 
 Following reciprocal coordinates:
            Coordinates               Weight
  0.000000  0.000000  0.000000      1.000000
  0.166667  0.000000  0.000000      2.000000
  0.333333  0.000000  0.000000      2.000000
  0.500000  0.000000  0.000000      1.000000
  0.000000  0.166667  0.000000      4.000000
  0.166667  0.166667  0.000000      8.000000
  0.333333  0.166667  0.000000      8.000000
  0.500000  0.166667  0.000000      4.000000
  0.000000  0.333333  0.000000      4.000000
  0.166667  0.333333  0.000000      8.000000
  0.333333  0.333333  0.000000      8.000000
  0.500000  0.333333  0.000000      4.000000
  0.000000  0.500000  0.000000      2.000000
  0.166667  0.500000  0.000000      4.000000
  0.333333  0.500000  0.000000      4.000000
  0.500000  0.500000  0.000000      2.000000
  0.000000  0.166667  0.166667      4.000000
  0.166667  0.166667  0.166667      8.000000
  0.333333  0.166667  0.166667      8.000000
  0.500000  0.166667  0.166667      4.000000
  0.000000  0.333333  0.166667      8.000000
  0.166667  0.333333  0.166667     16.000000
  0.333333  0.333333  0.166667     16.000000
  0.500000  0.333333  0.166667      8.000000
  0.000000  0.500000  0.166667      4.000000
  0.166667  0.500000  0.166667      8.000000
  0.333333  0.500000  0.166667      8.000000
  0.500000  0.500000  0.166667      4.000000
  0.000000  0.333333  0.333333      4.000000
  0.166667  0.333333  0.333333      8.000000
  0.333333  0.333333  0.333333      8.000000
  0.500000  0.333333  0.333333      4.000000
  0.000000  0.500000  0.333333      4.000000
  0.166667  0.500000  0.333333      8.000000
  0.333333  0.500000  0.333333      8.000000
  0.500000  0.500000  0.333333      4.000000
  0.000000  0.500000  0.500000      1.000000
  0.166667  0.500000  0.500000      2.000000
  0.333333  0.500000  0.500000      2.000000
  0.500000  0.500000  0.500000      1.000000
 
 Following cartesian coordinates:
            Coordinates               Weight
  0.000000  0.000000  0.000000      1.000000
  0.019847  0.000000  0.000000      2.000000
  0.039695  0.000000  0.000000      2.000000
  0.059542  0.000000  0.000000      1.000000
  0.000000  0.019847  0.000000      4.000000
  0.019847  0.019847  0.000000      8.000000
  0.039695  0.019847  0.000000      8.000000
  0.059542  0.019847  0.000000      4.000000
  0.000000  0.039695  0.000000      4.000000
  0.019847  0.039695  0.000000      8.000000
  0.039695  0.039695  0.000000      8.000000
  0.059542  0.039695  0.000000      4.000000
  0.000000  0.059542  0.000000      2.000000
  0.019847  0.059542  0.000000      4.000000
  0.039695  0.059542  0.000000      4.000000
  0.059542  0.059542  0.000000      2.000000
  0.000000  0.019847  0.019847      4.000000
  0.019847  0.019847  0.019847      8.000000
  0.039695  0.019847  0.019847      8.000000
  0.059542  0.019847  0.019847      4.000000
  0.000000  0.039695  0.019847      8.000000
  0.019847  0.039695  0.019847     16.000000
  0.039695  0.039695  0.019847     16.000000
  0.059542  0.039695  0.019847      8.000000
  0.000000  0.059542  0.019847      4.000000
  0.019847  0.059542  0.019847      8.000000
  0.039695  0.059542  0.019847      8.000000
  0.059542  0.059542  0.019847      4.000000
  0.000000  0.039695  0.039695      4.000000
  0.019847  0.039695  0.039695      8.000000
  0.039695  0.039695  0.039695      8.000000
  0.059542  0.039695  0.039695      4.000000
  0.000000  0.059542  0.039695      4.000000
  0.019847  0.059542  0.039695      8.000000
  0.039695  0.059542  0.039695      8.000000
  0.059542  0.059542  0.039695      4.000000
  0.000000  0.059542  0.059542      1.000000
  0.019847  0.059542  0.059542      2.000000
  0.039695  0.059542  0.059542      2.000000
  0.059542  0.059542  0.059542      1.000000
 


--------------------------------------------------------------------------------------------------------




 Dimension of arrays:
   k-Points           NKPTS =     40   number of bands    NBANDS=     72
   number of dos      NEDOS =    301   number of ions     NIONS =     32
   non local maximal  LDIM  =      4   non local SUM 2l+1 LMDIM =      8
   total plane-waves  NPLWV = 262144
   max r-space proj   IRMAX =      1   max aug-charges    IRDMAX=  17427
   dimension x,y,z NGX =    64 NGY =   64 NGZ =   64
   dimension x,y,z NGXF=   128 NGYF=  128 NGZF=  128
   support grid    NGXF=   128 NGYF=  128 NGZF=  128
   ions per type =              32
 NGX,Y,Z   is equivalent  to a cutoff of  12.67, 12.67, 12.67 a.u.
 NGXF,Y,Z  is equivalent  to a cutoff of  25.34, 25.34, 25.34 a.u.


 I would recommend the setting:
   dimension x,y,z NGX =    61 NGY =   61 NGZ =   61
 SYSTEM =  unknown system                          
 POSCAR =  Al                                      

 Startparameter for this run:
   NWRITE =      2    write-flag & timer
   PREC   = accura    medium, high low
   ISTART =      0    job   : 0-new  1-cont  2-samecut
   ICHARG =      2    charge: 1-file 2-atom 10-const
   ISPIN  =      1    spin polarized calculation?
   LNONCOLLINEAR =      F non collinear calculations
   LSORBIT =      F    spin-orbit coupling
   INIWAV =      1    electr: 0-lowe 1-rand  2-diag
   LASPH  =      F    aspherical Exc in radial PAW
   METAGGA=      F    non-selfconsistent MetaGGA calc.

 Electronic Relaxation 1
   ENCUT  =  500.0 eV  36.75 Ry    6.06 a.u.  15.31 15.31 15.31*2*pi/ulx,y,z
   ENINI  =  500.0     initial cutoff
   ENAUG  =  291.1 eV  augmentation charge cutoff
   NELM   =     60;   NELMIN=  2; NELMDL=  0     # of ELM steps 
   EDIFF  = 0.1E-07   stopping-criterion for ELM
   LREAL  =      F    real-space projection
   LCOMPAT=      F    compatible to vasp.4.4
   LREAL_COMPAT= F    compatible to vasp.4.5.1-3
   GGA_COMPAT  = T    GGA compatible to vasp.4.4-vasp.4.6
   LMAXPAW     = -100 max onsite density
   LMAXMIX     =    2 max onsite mixed and CHGCAR
   VOSKOWN=      0    Vosko Wilk Nusair interpolation
   ROPT   =    0.00000
 Ionic relaxation
   EDIFFG = 0.1E-06   stopping-criterion for IOM
   NSW    =      0    number of steps for IOM
   NBLOCK =      1;   KBLOCK =      1    inner block; outer block 
   IBRION =     -1    ionic relax: 0-MD 1-quasi-New 2-CG
   NFREE  =      0    steps in history (QN), initial steepest desc. (CG)
   ISIF   =      2    stress and relaxation
   IWAVPR =     10    prediction:  0-non 1-charg 2-wave 3-comb
   ISYM   =      2    0-nonsym 1-usesym 2-fastsym
   LCORR  =      T    Harris-Foulkes like correction to forces

   POTIM  =   0.50    time-step for ionic-motion
   TEIN   =    0.0    initial temperature
   TEBEG  =    0.0;   TEEND  =   0.0 temperature during run
   SMASS  =  -3.00    Nose mass-parameter (am)
   estimated Nose-frequenzy (Omega)   =  0.10E-29 period in steps =****** mass=  -0.161E-26a.u.
   NPACO  =    256;   APACO  = 16.0  distance and # of slots for P.C.
   PSTRESS=    0.0 pullay stress

  Mass of Ions in am
   POMASS =  26.98
  Ionic Valenz
   ZVAL   =   3.00
  Atomic Wigner-Seitz radii
   RWIGS  =  -1.00
   NELECT =      96.0000    total number of electrons
   NUPDOWN=      -1.0000    fix difference up-down

 DOS related values:
   EMIN   =  10.00;   EMAX   =-10.00  energy-range for DOS
   ISMEAR =     0;   SIGMA  =   0.01  broadening in eV -4-tet -1-fermi 0-gaus

 Electronic relaxation 2 (details)
   IALGO  =     38    algorithm
   LDIAG  =      T    sub-space diagonalisation
   IMIX   =      4    mixing-type and parameters
     AMIX     =   0.40;   BMIX     =  1.00
     AMIX_MAG =   1.60;   BMIX_MAG =  1.00
     AMIN     =   0.10
     WC   =   100.;   INIMIX=   1;  MIXPRE=   1

 Intra band minimization:
   WEIMIN = 0.0000     energy-eigenvalue tresh-hold
   EBREAK =  0.38E-10  absolut break condition
   DEPER  =   0.30     relativ break condition  

   TIME   =   0.10     timestep for ELM

  volume/ion in A,a.u.               =      18.50       124.88
  Fermi-wavevector in a.u.,eV,Ry     =   0.892665 10.841804  0.796850

 Second variation
   LSECVAR=     F    do a second variation
 
 Write flags
   LWAVE  =      F    write WAVECAR
   LCHARG =      F    write CHGCAR
   LVTOT  =      F    write LOCPOT, local potential
   LELF   =      F    write electronic localiz. function (ELF)
   LORBIT =      0    0 simple, 1 ext, 2 COOP (PROOUT)


 Dipole corrections
   IDIPOL =      0    1-x, 2-y, 3-z
   LDIPOL =      F    correct potential



--------------------------------------------------------------------------------------------------------


 Static calculation
 charge density will be updated during run
 non-spin polarized calculation
 Variant of blocked Davidson
 Davidson routine will perform the subspace rotation
 performe sub-space diagonalisation
    after iterative eigenvector-optimisation
 modified Broyden-mixing scheme, WC =      100.0
 initial mixing is a Kerker type mixing with AMIX =  0.4000 and BMIX =      1.0000
 Hartree-type preconditioning will be used
 using additional bands           24
 reciprocal scheme for non local part
 use partial core corrections
 calculate Harris-corrections to forces 
   (improved forces if not selfconsistent)
 use gradient corrections 
 use of overlap-Matrix (Vanderbilt PP)
 Gauss-broadening in eV      SIGMA  =   0.01


--------------------------------------------------------------------------------------------------------


  energy-cutoff  :      500.00
  volume of cell :      592.15
      direct lattice vectors                 reciprocal lattice vectors
     8.397375792  0.000000000  0.000000000     0.119084822  0.000000000  0.000000000
     0.000000000  8.397375792  0.000000000     0.000000000  0.119084822  0.000000000
     0.000000000  0.000000000  8.397375792     0.000000000  0.000000000  0.119084822

  length of vectors
     8.397375792  8.397375792  8.397375792     0.119084822  0.119084822  0.119084822


 
 k-points in units of 2pi/SCALE and weight: Automatic mesh                          
   0.00000000  0.00000000  0.00000000       0.005
   0.01984747  0.00000000  0.00000000       0.009
   0.03969494  0.00000000  0.00000000       0.009
   0.05954241  0.00000000  0.00000000       0.005
   0.00000000  0.01984747  0.00000000       0.019
   0.01984747  0.01984747  0.00000000       0.037
   0.03969494  0.01984747  0.00000000       0.037
   0.05954241  0.01984747  0.00000000       0.019
   0.00000000  0.03969494  0.00000000       0.019
   0.01984747  0.03969494  0.00000000       0.037
   0.03969494  0.03969494  0.00000000       0.037
   0.05954241  0.03969494  0.00000000       0.019
   0.00000000  0.05954241  0.00000000       0.009
   0.01984747  0.05954241  0.00000000       0.019
   0.03969494  0.05954241  0.00000000       0.019
   0.05954241  0.05954241  0.00000000       0.009
   0.00000000  0.01984747  0.01984747       0.019
   0.01984747  0.01984747  0.01984747       0.037
   0.03969494  0.01984747  0.01984747       0.037
   0.05954241  0.01984747  0.01984747       0.019
   0.00000000  0.03969494  0.01984747       0.037
   0.01984747  0.03969494  0.01984747       0.074
   0.03969494  0.03969494  0.01984747       0.074
   0.05954241  0.03969494  0.01984747       0.037
   0.00000000  0.05954241  0.01984747       0.019
   0.01984747  0.05954241  0.01984747       0.037
   0.03969494  0.05954241  0.01984747       0.037
   0.05954241  0.05954241  0.01984747       0.019
   0.00000000  0.03969494  0.03969494       0.019
   0.01984747  0.03969494  0.03969494       0.037
   0.03969494  0.03969494  0.03969494       0.037
   0.05954241  0.03969494  0.03969494       0.019
   0.00000000  0.05954241  0.03969494       0.019
   0.01984747  0.05954241  0.03969494       0.037
   0.03969494  0.05954241  0.03969494       0.037
   0.05954241  0.05954241  0.03969494       0.019
   0.00000000  0.05954241  0.05954241       0.005
   0.01984747  0.05954241  0.05954241       0.009
   0.03969494  0.05954241  0.05954241       0.009
   0.05954241  0.05954241  0.05954241       0.005
 
 k-points in reciprocal lattice and weights: Automatic mesh                          
   0.00000000  0.00000000  0.00000000       0.005
   0.16666667  0.00000000  0.00000000       0.009
   0.33333333  0.00000000  0.00000000       0.009
   0.50000000  0.00000000  0.00000000       0.005
   0.00000000  0.16666667  0.00000000       0.019
   0.16666667  0.16666667  0.00000000       0.037
   0.33333333  0.16666667  0.00000000       0.037
   0.50000000  0.16666667  0.00000000       0.019
   0.00000000  0.33333333  0.00000000       0.019
   0.16666667  0.33333333  0.00000000       0.037
   0.33333333  0.33333333  0.00000000       0.037
   0.50000000  0.33333333  0.00000000       0.019
   0.00000000  0.50000000  0.00000000       0.009
   0.16666667  0.50000000  0.00000000       0.019
   0.33333333  0.50000000  0.00000000       0.019
   0.50000000  0.50000000  0.00000000       0.009
   0.00000000  0.16666667  0.16666667       0.019
   0.16666667  0.16666667  0.16666667       0.037
   0.33333333  0.16666667  0.16666667       0.037
   0.50000000  0.16666667  0.16666667       0.019
   0.00000000  0.33333333  0.16666667       0.037
   0.16666667  0.33333333  0.16666667       0.074
   0.33333333  0.33333333  0.16666667       0.074
   0.50000000  0.33333333  0.16666667       0.037
   0.00000000  0.50000000  0.16666667       0.019
   0.16666667  0.50000000  0.16666667       0.037
   0.33333333  0.50000000  0.16666667       0.037
   0.50000000  0.50000000  0.16666667       0.019
   0.00000000  0.33333333  0.33333333       0.019
   0.16666667  0.33333333  0.33333333       0.037
   0.33333333  0.33333333  0.33333333       0.037
   0.50000000  0.33333333  0.33333333       0.019
   0.00000000  0.50000000  0.33333333       0.019
   0.16666667  0.50000000  0.33333333       0.037
   0.33333333  0.50000000  0.33333333       0.037
   0.50000000  0.50000000  0.33333333       0.019
   0.00000000  0.50000000  0.50000000       0.005
   0.16666667  0.50000000  0.50000000       0.009
   0.33333333  0.50000000  0.50000000       0.009
   0.50000000  0.50000000  0.50000000       0.005
 
 position of ions in fractional coordinates (direct lattice) 
   0.25119085  0.25000000  0.00000000
   0.75000000  0.25000000  0.00000000
   0.25000000  0.75000000  0.00000000
   0.75000000  0.75000000  0.00000000
   0.25000000  0.25000000  0.50000000
   0.75000000  0.25000000  0.50000000
   0.25000000  0.75000000  0.50000000
   0.75000000  0.75000000  0.50000000
   0.25000000  0.00000000  0.25000000
   0.75000000  0.00000000  0.25000000
   0.25000000  0.50000000  0.25000000
   0.75000000  0.50000000  0.25000000
   0.25000000  0.00000000  0.75000000
   0.75000000  0.00000000  0.75000000
   0.25000000  0.50000000  0.75000000
   0.75000000  0.50000000  0.75000000
   0.00000000  0.25000000  0.25000000
   0.50000000  0.25000000  0.25000000
   0.00000000  0.75000000  0.25000000
   0.50000000  0.75000000  0.25000000
   0.00000000  0.25000000  0.75000000
   0.50000000  0.25000000  0.75000000
   0.00000000  0.75000000  0.75000000
   0.50000000  0.75000000  0.75000000
   0.00000000  0.00000000  0.00000000
   0.50000000  0.00000000  0.00000000
   0.00000000  0.50000000  0.00000000
   0.50000000  0.50000000  0.00000000
   0.00000000  0.00000000  0.50000000
   0.50000000  0.00000000  0.50000000
   0.00000000  0.50000000  0.50000000
   0.50000000  0.50000000  0.50000000
 
 position of ions in cartesian coordinates  (Angst):
   2.10934395  2.09934395  0.00000000
   6.29803184  2.09934395  0.00000000
   2.09934395  6.29803184  0.00000000
   6.29803184  6.29803184  0.00000000
   2.09934395  2.09934395  4.19868790
   6.29803184  2.09934395  4.19868790
   2.09934395  6.29803184  4.19868790
   6.29803184  6.29803184  4.19868790
   2.09934395  0.00000000  2.09934395
   6.29803184  0.00000000  2.09934395
   2.09934395  4.19868790  2.09934395
   6.29803184  4.19868790  2.09934395
   2.09934395  0.00000000  6.29803184
   6.29803184  0.00000000  6.29803184
   2.09934395  4.19868790  6.29803184
   6.29803184  4.19868790  6.29803184
   0.00000000  2.09934395  2.09934395
   4.19868790  2.09934395  2.09934395
   0.00000000  6.29803184  2.09934395
   4.19868790  6.29803184  2.09934395
   0.00000000  2.09934395  6.29803184
   4.19868790  2.09934395  6.29803184
   0.00000000  6.29803184  6.29803184
   4.19868790  6.29803184  6.29803184
   0.00000000  0.00000000  0.00000000
   4.19868790  0.00000000  0.00000000
   0.00000000  4.19868790  0.00000000
   4.19868790  4.19868790  0.00000000
   0.00000000  0.00000000  4.19868790
   4.19868790  0.00000000  4.19868790
   0.00000000  4.19868790  4.19868790
   4.19868790  4.19868790  4.19868790
 


--------------------------------------------------------------------------------------------------------


 k-point  1 :  0.00000.00000.0000  plane waves:  15155
 k-point  2 :  0.16670.00000.0000  plane waves:  15087
 k-point  3 :  0.33330.00000.0000  plane waves:  15022
 k-point  4 :  0.50000.00000.0000  plane waves:  15006
 k-point  5 :  0.00000.16670.0000  plane waves:  15087
 k-point  6 :  0.16670.16670.0000  plane waves:  15055
 k-point  7 :  0.33330.16670.0000  plane waves:  15012
 k-point  8 :  0.50000.16670.0000  plane waves:  15034
 k-point  9 :  0.00000.33330.0000  plane waves:  15022
 k-point 10 :  0.16670.33330.0000  plane waves:  15012
 k-point 11 :  0.33330.33330.0000  plane waves:  15018
 k-point 12 :  0.50000.33330.0000  plane waves:  15048
 k-point 13 :  0.00000.50000.0000  plane waves:  15006
 k-point 14 :  0.16670.50000.0000  plane waves:  15034
 k-point 15 :  0.33330.50000.0000  plane waves:  15048
 k-point 16 :  0.50000.50000.0000  plane waves:  15036
 k-point 17 :  0.00000.16670.1667  plane waves:  15055
 k-point 18 :  0.16670.16670.1667  plane waves:  15027
 k-point 19 :  0.33330.16670.1667  plane waves:  15026
 k-point 20 :  0.50000.16670.1667  plane waves:  15044
 k-point 21 :  0.00000.33330.1667  plane waves:  15012
 k-point 22 :  0.16670.33330.1667  plane waves:  15026
 k-point 23 :  0.33330.33330.1667  plane waves:  15035
 k-point 24 :  0.50000.33330.1667  plane waves:  15048
 k-point 25 :  0.00000.50000.1667  plane waves:  15034
 k-point 26 :  0.16670.50000.1667  plane waves:  15044
 k-point 27 :  0.33330.50000.1667  plane waves:  15048
 k-point 28 :  0.50000.50000.1667  plane waves:  15020
 k-point 29 :  0.00000.33330.3333  plane waves:  15018
 k-point 30 :  0.16670.33330.3333  plane waves:  15035
 k-point 31 :  0.33330.33330.3333  plane waves:  15057
 k-point 32 :  0.50000.33330.3333  plane waves:  15006
 k-point 33 :  0.00000.50000.3333  plane waves:  15048
 k-point 34 :  0.16670.50000.3333  plane waves:  15048
 k-point 35 :  0.33330.50000.3333  plane waves:  15006
 k-point 36 :  0.50000.50000.3333  plane waves:  15052
 k-point 37 :  0.00000.50000.5000  plane waves:  15036
 k-point 38 :  0.16670.50000.5000  plane waves:  15020
 k-point 39 :  0.33330.50000.5000  plane waves:  15052
 k-point 40 :  0.50000.50000.5000  plane waves:  15000

 maximum and minimum number of plane-waves per node :  15155 15000

 maximum number of plane-waves:  15155
 maximal index in each direction: 
   IXMAX= 15   IYMAX= 15   IZMAX= 15
   IXMIN=-15   IYMIN=-15   IZMIN=-15

 NGX is ok and might be reduce to  62
 NGY is ok and might be reduce to  62
 NGZ is ok and might be reduce to  62

 parallel 3dFFT wavefunction:
    minimum data exchange during FFTs selected (reduces bandwidth)
 parallel 3dFFT charge:
    minimum data exchange during FFTs selected (reduces bandwidth)

 For storing wavefunctions  692.90 MBYTES are necessary
 For predicting wavefunctions   38.63 MBYTES are necessary
Broyden mixing: mesh for mixing (old mesh)
   NGX = 31   NGY = 31   NGZ = 31
  (NGX  =128   NGY  =128   NGZ  =128)
 gives a total of  29791 points
 initial charge density was supplied:
 charge density of overlapping atoms calculated
 number of electron   96.0000000 magnetization 
 keeping initial charge density in first step


--------------------------------------------------------------------------------------------------------


 Maximum index for augmentation-charges         1980 (set IRDMAX)


--------------------------------------------------------------------------------------------------------


 First call to EWALD:  gamma=   0.211
 Maximum number of real-space cells 3x 3x 3
 Maximum number of reciprocal cells 3x 3x 3

    FEWALD:  VPU time    0.00: CPU time    0.00


----------------------------------------- Iteration    1(   1)  ---------------------------------------


    POTLOK:  VPU time    0.19: CPU time    0.19
    SETDIJ:  VPU time    0.01: CPU time    0.01
    EDDAV :  VPU time   22.86: CPU time   22.87
    DOS   :  VPU time    0.00: CPU time   -0.00
    ------------------------------------------
      LOOP:  VPU time   23.06: CPU time   23.07

 eigenvalue-minimisations  :  5760
 total energy-change (2. order) : 0.1081404E+03  (-0.3186780E+04)
 number of electron   96.0000000 magnetization 
 augmentation part    96.0000000 magnetization 

 Free energy of the ion-electron system (eV)
  ---------------------------------------------------
  alpha Z        PSCENC =        -5.80837820
  Ewald energy   TEWEN  =     -2264.28466978
  -1/2 Hartree   DENC   =        -5.08528295
  -V(xc)+E(xc)   XCENC  =      -846.12430682
  PAW double counting   =      1137.73615723     -115.16745734
  entropy T*S    EENTRO =        -0.00072790
  eigenvalues    EBANDS =       493.64594164
  atomic energy  EATOM  =      1713.22913220
  ---------------------------------------------------
  free energy    TOTEN  =       108.14040808 eV

  energy without entropy =      108.14113598  energy(sigma->0) =      108.14077203


--------------------------------------------------------------------------------------------------------




----------------------------------------- Iteration    1(   2)  ---------------------------------------


    EDDAV :  VPU time   25.83: CPU time   25.82
    DOS   :  VPU time   -0.00: CPU time   -0.00
    ------------------------------------------
      LOOP:  VPU time   25.84: CPU time   25.83

 eigenvalue-minimisations  :  6776
 total energy-change (2. order) :-0.2142048E+03  (-0.1985746E+03)
 number of electron   96.0000000 magnetization 
 augmentation part    96.0000000 magnetization 

 Free energy of the ion-electron system (eV)
  ---------------------------------------------------
  alpha Z        PSCENC =        -5.80837820
  Ewald energy   TEWEN  =     -2264.28466978
  -1/2 Hartree   DENC   =        -5.08528295
  -V(xc)+E(xc)   XCENC  =      -846.12430682
  PAW double counting   =      1137.73615723     -115.16745734
  entropy T*S    EENTRO =        -0.00058139
  eigenvalues    EBANDS =       279.44097089
  atomic energy  EATOM  =      1713.22913220
  ---------------------------------------------------
  free energy    TOTEN  =      -106.06441616 eV

  energy without entropy =     -106.06383477  energy(sigma->0) =     -106.06412546


--------------------------------------------------------------------------------------------------------




----------------------------------------- Iteration    1(   3)  ---------------------------------------


    EDDAV :  VPU time   26.93: CPU time   26.92
    DOS   :  VPU time    0.00: CPU time   -0.00
    ------------------------------------------
      LOOP:  VPU time   26.93: CPU time   26.93

 eigenvalue-minimisations  :  7200
 total energy-change (2. order) :-0.1258885E+02  (-0.1196908E+02)
 number of electron   96.0000000 magnetization 
 augmentation part    96.0000000 magnetization 

 Free energy of the ion-electron system (eV)
  ---------------------------------------------------
  alpha Z        PSCENC =        -5.80837820
  Ewald energy   TEWEN  =     -2264.28466978
  -1/2 Hartree   DENC   =        -5.08528295
  -V(xc)+E(xc)   XCENC  =      -846.12430682
  PAW double counting   =      1137.73615723     -115.16745734
  entropy T*S    EENTRO =        -0.00106777
  eigenvalues    EBANDS =       266.85261156
  atomic energy  EATOM  =      1713.22913220
  ---------------------------------------------------
  free energy    TOTEN  =      -118.65326187 eV

  energy without entropy =     -118.65219410  energy(sigma->0) =     -118.65272798


--------------------------------------------------------------------------------------------------------




----------------------------------------- Iteration    1(   4)  ---------------------------------------


    EDDAV :  VPU time   25.44: CPU time   25.43
    DOS   :  VPU time    0.00: CPU time   -0.00
    ------------------------------------------
      LOOP:  VPU time   25.44: CPU time   25.44

 eigenvalue-minimisations  :  6704
 total energy-change (2. order) :-0.2550879E+00  (-0.2526021E+00)
 number of electron   96.0000000 magnetization 
 augmentation part    96.0000000 magnetization 

 Free energy of the ion-electron system (eV)
  ---------------------------------------------------
  alpha Z        PSCENC =        -5.80837820
  Ewald energy   TEWEN  =     -2264.28466978
  -1/2 Hartree   DENC   =        -5.08528295
  -V(xc)+E(xc)   XCENC  =      -846.12430682
  PAW double counting   =      1137.73615723     -115.16745734
  entropy T*S    EENTRO =        -0.00110420
  eigenvalues    EBANDS =       266.59756007
  atomic energy  EATOM  =      1713.22913220
  ---------------------------------------------------
  free energy    TOTEN  =      -118.90834979 eV

  energy without entropy =     -118.90724559  energy(sigma->0) =     -118.90779769


--------------------------------------------------------------------------------------------------------




----------------------------------------- Iteration    1(   5)  ---------------------------------------


    EDDAV :  VPU time   25.51: CPU time   25.50
    DOS   :  VPU time    0.00: CPU time   -0.00
    CHARGE:  VPU time    1.22: CPU time    1.22
    MIXING:  VPU time    0.00: CPU time    0.01
    ------------------------------------------
      LOOP:  VPU time   26.74: CPU time   26.73

 eigenvalue-minimisations  :  6744
 total energy-change (2. order) :-0.3147722E-02  (-0.3146292E-02)
 number of electron   96.0000002 magnetization 
 augmentation part    -1.2741660 magnetization 

 Broyden mixing:
  rms(total) = 0.49946E+00    rms(broyden)= 0.49946E+00
  rms(prec ) = 0.72897E+00
  weight for this iteration     100.00

 Free energy of the ion-electron system (eV)
  ---------------------------------------------------
  alpha Z        PSCENC =        -5.80837820
  Ewald energy   TEWEN  =     -2264.28466978
  -1/2 Hartree   DENC   =        -5.08528295
  -V(xc)+E(xc)   XCENC  =      -846.12430682
  PAW double counting   =      1137.73615723     -115.16745734
  entropy T*S    EENTRO =        -0.00110232
  eigenvalues    EBANDS =       266.59441047
  atomic energy  EATOM  =      1713.22913220
  ---------------------------------------------------
  free energy    TOTEN  =      -118.91149752 eV

  energy without entropy =     -118.91039519  energy(sigma->0) =     -118.91094636


--------------------------------------------------------------------------------------------------------




----------------------------------------- Iteration    1(   6)  ---------------------------------------


    POTLOK:  VPU time    0.18: CPU time    0.18
    SETDIJ:  VPU time    0.01: CPU time    0.01
    EDDAV :  VPU time   24.55: CPU time   24.55
    DOS   :  VPU time    0.00: CPU time   -0.00
    CHARGE:  VPU time    1.29: CPU time    1.29
    MIXING:  VPU time    0.00: CPU time    0.01
    ------------------------------------------
      LOOP:  VPU time   26.04: CPU time   26.03

 eigenvalue-minimisations  :  6584
 total energy-change (2. order) : 0.3931955E+00  (-0.6787470E-02)
 number of electron   96.0000002 magnetization 
 augmentation part    -1.2947388 magnetization 

 Broyden mixing:
  rms(total) = 0.30949E+00    rms(broyden)= 0.30949E+00
  rms(prec ) = 0.45328E+00
  weight for this iteration     100.00

 eigenvalues of (default mixing * dielectric matrix)
  average eigenvalue GAMMA=   2.6191
  2.6191

 Free energy of the ion-electron system (eV)
  ---------------------------------------------------
  alpha Z        PSCENC =        -5.80837820
  Ewald energy   TEWEN  =     -2264.28466978
  -1/2 Hartree   DENC   =        -3.82158863
  -V(xc)+E(xc)   XCENC  =      -845.29668375
  PAW double counting   =      1134.78671323     -112.11945021
  entropy T*S    EENTRO =        -0.00103283
  eigenvalues    EBANDS =       264.79765594
  atomic energy  EATOM  =      1713.22913220
  ---------------------------------------------------
  free energy    TOTEN  =      -118.51830202 eV

  energy without entropy =     -118.51726919  energy(sigma->0) =     -118.51778561


--------------------------------------------------------------------------------------------------------




----------------------------------------- Iteration    1(   7)  ---------------------------------------


    POTLOK:  VPU time    0.18: CPU time    0.18
    SETDIJ:  VPU time    0.01: CPU time    0.01
    EDDAV :  VPU time   24.15: CPU time   24.14
    DOS   :  VPU time   -0.00: CPU time   -0.00
    CHARGE:  VPU time    1.33: CPU time    1.33
    MIXING:  VPU time    0.00: CPU time    0.00
    ------------------------------------------
      LOOP:  VPU time   25.68: CPU time   25.67

 eigenvalue-minimisations  :  6336
 total energy-change (2. order) : 0.2832135E+00  (-0.1978609E-01)
 number of electron   96.0000002 magnetization 
 augmentation part    -1.3328124 magnetization 

 Broyden mixing:
  rms(total) = 0.13577E-01    rms(broyden)= 0.13577E-01
  rms(prec ) = 0.16202E-01
  weight for this iteration     100.00

 eigenvalues of (default mixing * dielectric matrix)
  average eigenvalue GAMMA=   2.5068
  2.5068  2.5068

 Free energy of the ion-electron system (eV)
  ---------------------------------------------------
  alpha Z        PSCENC =        -5.80837820
  Ewald energy   TEWEN  =     -2264.28466978
  -1/2 Hartree   DENC   =        -3.10865748
  -V(xc)+E(xc)   XCENC  =      -843.52556261
  PAW double counting   =      1130.50959213     -107.74317816
  entropy T*S    EENTRO =        -0.00078620
  eigenvalues    EBANDS =       262.49741961
  atomic energy  EATOM  =      1713.22913220
  ---------------------------------------------------
  free energy    TOTEN  =      -118.23508849 eV

  energy without entropy =     -118.23430229  energy(sigma->0) =     -118.23469539


--------------------------------------------------------------------------------------------------------




----------------------------------------- Iteration    1(   8)  ---------------------------------------


    POTLOK:  VPU time    0.18: CPU time    0.18
    SETDIJ:  VPU time    0.01: CPU time    0.01
    EDDAV :  VPU time   25.72: CPU time   25.71
    DOS   :  VPU time    0.00: CPU time   -0.00
    CHARGE:  VPU time    1.31: CPU time    1.31
    MIXING:  VPU time    0.00: CPU time    0.00
    ------------------------------------------
      LOOP:  VPU time   27.22: CPU time   27.22

 eigenvalue-minimisations  :  6912
 total energy-change (2. order) : 0.1016058E-03  (-0.1472772E-03)
 number of electron   96.0000002 magnetization 
 augmentation part    -1.3346198 magnetization 

 Broyden mixing:
  rms(total) = 0.40460E-02    rms(broyden)= 0.40460E-02
  rms(prec ) = 0.54655E-02
  weight for this iteration     100.00

 eigenvalues of (default mixing * dielectric matrix)
  average eigenvalue GAMMA=   2.0690
  0.9806  2.6791  2.5474

 Free energy of the ion-electron system (eV)
  ---------------------------------------------------
  alpha Z        PSCENC =        -5.80837820
  Ewald energy   TEWEN  =     -2264.28466978
  -1/2 Hartree   DENC   =        -3.16555406
  -V(xc)+E(xc)   XCENC  =      -843.48482725
  PAW double counting   =      1131.86999733     -109.18893504
  entropy T*S    EENTRO =        -0.00078112
  eigenvalues    EBANDS =       262.59902904
  atomic energy  EATOM  =      1713.22913220
  ---------------------------------------------------
  free energy    TOTEN  =      -118.23498688 eV

  energy without entropy =     -118.23420576  energy(sigma->0) =     -118.23459632


--------------------------------------------------------------------------------------------------------




----------------------------------------- Iteration    1(   9)  ---------------------------------------


    POTLOK:  VPU time    0.18: CPU time    0.18
    SETDIJ:  VPU time    0.01: CPU time    0.01
    EDDAV :  VPU time   37.35: CPU time   37.34
    DOS   :  VPU time    0.00: CPU time   -0.00
    CHARGE:  VPU time    1.45: CPU time    1.45
    MIXING:  VPU time    0.00: CPU time    0.00
    ------------------------------------------
      LOOP:  VPU time   39.00: CPU time   38.99

 eigenvalue-minimisations  :  6816
 total energy-change (2. order) :-0.1511715E-04  (-0.4834515E-05)
 number of electron   96.0000002 magnetization 
 augmentation part    -1.3355388 magnetization 

 Broyden mixing:
  rms(total) = 0.31580E-03    rms(broyden)= 0.31579E-03
  rms(prec ) = 0.45090E-03
  weight for this iteration     100.00

 eigenvalues of (default mixing * dielectric matrix)
  average eigenvalue GAMMA=   1.9535
  0.9972  2.6733  2.5526  1.5908

 Free energy of the ion-electron system (eV)
  ---------------------------------------------------
  alpha Z        PSCENC =        -5.80837820
  Ewald energy   TEWEN  =     -2264.28466978
  -1/2 Hartree   DENC   =        -3.19025426
  -V(xc)+E(xc)   XCENC  =      -843.44788825
  PAW double counting   =      1132.27204610     -109.62106574
  entropy T*S    EENTRO =        -0.00077634
  eigenvalues    EBANDS =       262.61685227
  atomic energy  EATOM  =      1713.22913220
  ---------------------------------------------------
  free energy    TOTEN  =      -118.23500200 eV

  energy without entropy =     -118.23422565  energy(sigma->0) =     -118.23461383


--------------------------------------------------------------------------------------------------------




----------------------------------------- Iteration    1(  10)  ---------------------------------------


    POTLOK:  VPU time    0.20: CPU time    0.20
    SETDIJ:  VPU time    0.01: CPU time    0.01
    EDDAV :  VPU time   35.65: CPU time   35.64
    DOS   :  VPU time    0.00: CPU time   -0.00
    CHARGE:  VPU time    1.60: CPU time    1.60
    MIXING:  VPU time    0.01: CPU time    0.02
    ------------------------------------------
      LOOP:  VPU time   37.49: CPU time   37.48

 eigenvalue-minimisations  :  6888
 total energy-change (2. order) : 0.1579398E-05  (-0.1672429E-06)
 number of electron   96.0000002 magnetization 
 augmentation part    -1.3356171 magnetization 

 Broyden mixing:
  rms(total) = 0.17846E-03    rms(broyden)= 0.17846E-03
  rms(prec ) = 0.23664E-03
  weight for this iteration     100.00

 eigenvalues of (default mixing * dielectric matrix)
  average eigenvalue GAMMA=   1.9108
  2.6483  2.6483  2.3547  1.0344  0.8680

 Free energy of the ion-electron system (eV)
  ---------------------------------------------------
  alpha Z        PSCENC =        -5.80837820
  Ewald energy   TEWEN  =     -2264.28466978
  -1/2 Hartree   DENC   =        -3.19126727
  -V(xc)+E(xc)   XCENC  =      -843.44672571
  PAW double counting   =      1132.22426197     -109.57212291
  entropy T*S    EENTRO =        -0.00077602
  eigenvalues    EBANDS =       262.61554531
  atomic energy  EATOM  =      1713.22913220
  ---------------------------------------------------
  free energy    TOTEN  =      -118.23500042 eV

  energy without entropy =     -118.23422440  energy(sigma->0) =     -118.23461241


--------------------------------------------------------------------------------------------------------




----------------------------------------- Iteration    1(  11)  ---------------------------------------


    POTLOK:  VPU time    0.35: CPU time    0.35
    SETDIJ:  VPU time    0.07: CPU time    0.07
    EDDAV :  VPU time   29.89: CPU time   29.88
    DOS   :  VPU time    0.00: CPU time   -0.00
    CHARGE:  VPU time    1.28: CPU time    1.28
    MIXING:  VPU time    0.01: CPU time    0.01
    ------------------------------------------
      LOOP:  VPU time   31.60: CPU time   31.59

 eigenvalue-minimisations  :  6752
 total energy-change (2. order) : 0.3347572E-05  (-0.1313934E-07)
 number of electron   96.0000002 magnetization 
 augmentation part    -1.3356320 magnetization 

 Broyden mixing:
  rms(total) = 0.61310E-04    rms(broyden)= 0.61310E-04
  rms(prec ) = 0.81322E-04
  weight for this iteration     100.00

 eigenvalues of (default mixing * dielectric matrix)
  average eigenvalue GAMMA=   1.8247
  2.7113  2.7113  2.4770  1.2325  0.9921  0.8241

 Free energy of the ion-electron system (eV)
  ---------------------------------------------------
  alpha Z        PSCENC =        -5.80837820
  Ewald energy   TEWEN  =     -2264.28466978
  -1/2 Hartree   DENC   =        -3.19163309
  -V(xc)+E(xc)   XCENC  =      -843.44708967
  PAW double counting   =      1132.16533753     -109.51126022
  entropy T*S    EENTRO =        -0.00077591
  eigenvalues    EBANDS =       262.61434006
  atomic energy  EATOM  =      1713.22913220
  ---------------------------------------------------
  free energy    TOTEN  =      -118.23499707 eV

  energy without entropy =     -118.23422116  energy(sigma->0) =     -118.23460911


--------------------------------------------------------------------------------------------------------




----------------------------------------- Iteration    1(  12)  ---------------------------------------


    POTLOK:  VPU time    0.19: CPU time    0.19
    SETDIJ:  VPU time    0.01: CPU time    0.01
    EDDAV :  VPU time   18.07: CPU time   18.06
    DOS   :  VPU time    0.00: CPU time   -0.00
    CHARGE:  VPU time    1.24: CPU time    1.24
    MIXING:  VPU time    0.00: CPU time    0.01
    ------------------------------------------
      LOOP:  VPU time   19.52: CPU time   19.52

 eigenvalue-minimisations  :  4184
 total energy-change (2. order) : 0.9783257E-06  (-0.1793729E-08)
 number of electron   96.0000002 magnetization 
 augmentation part    -1.3356398 magnetization 

 Broyden mixing:
  rms(total) = 0.94172E-05    rms(broyden)= 0.94171E-05
  rms(prec ) = 0.15632E-04
  weight for this iteration     100.00

 eigenvalues of (default mixing * dielectric matrix)
  average eigenvalue GAMMA=   1.7694
  2.6938  2.6938  2.4624  1.5993  1.0203  1.1090  0.8073

 Free energy of the ion-electron system (eV)
  ---------------------------------------------------
  alpha Z        PSCENC =        -5.80837820
  Ewald energy   TEWEN  =     -2264.28466978
  -1/2 Hartree   DENC   =        -3.19188860
  -V(xc)+E(xc)   XCENC  =      -843.44687767
  PAW double counting   =      1132.14536156     -109.49071079
  entropy T*S    EENTRO =        -0.00077585
  eigenvalues    EBANDS =       262.61381102
  atomic energy  EATOM  =      1713.22913220
  ---------------------------------------------------
  free energy    TOTEN  =      -118.23499609 eV

  energy without entropy =     -118.23422025  energy(sigma->0) =     -118.23460817


--------------------------------------------------------------------------------------------------------




----------------------------------------- Iteration    1(  13)  ---------------------------------------


    POTLOK:  VPU time    0.18: CPU time    0.18
    SETDIJ:  VPU time    0.01: CPU time    0.01
    EDDAV :  VPU time   16.76: CPU time   16.75
    DOS   :  VPU time    0.00: CPU time   -0.00
    CHARGE:  VPU time    1.29: CPU time    1.30
    MIXING:  VPU time    0.01: CPU time    0.01
    ------------------------------------------
      LOOP:  VPU time   18.25: CPU time   18.24

 eigenvalue-minimisations  :  3728
 total energy-change (2. order) : 0.9749533E-07  (-0.2910180E-09)
 number of electron   96.0000002 magnetization 
 augmentation part    -1.3356396 magnetization 

 Broyden mixing:
  rms(total) = 0.29253E-05    rms(broyden)= 0.29253E-05
  rms(prec ) = 0.45282E-05
  weight for this iteration     100.00

 eigenvalues of (default mixing * dielectric matrix)
  average eigenvalue GAMMA=   1.7203
  2.7134  2.7134  2.4893  1.7110  1.3435  1.0428  0.9407  0.8081

 Free energy of the ion-electron system (eV)
  ---------------------------------------------------
  alpha Z        PSCENC =        -5.80837820
  Ewald energy   TEWEN  =     -2264.28466978
  -1/2 Hartree   DENC   =        -3.19188506
  -V(xc)+E(xc)   XCENC  =      -843.44693640
  PAW double counting   =      1132.14468290     -109.48999962
  entropy T*S    EENTRO =        -0.00077586
  eigenvalues    EBANDS =       262.61383382
  atomic energy  EATOM  =      1713.22913220
  ---------------------------------------------------
  free energy    TOTEN  =      -118.23499600 eV

  energy without entropy =     -118.23422014  energy(sigma->0) =     -118.23460807


--------------------------------------------------------------------------------------------------------




----------------------------------------- Iteration    1(  14)  ---------------------------------------


    POTLOK:  VPU time    0.18: CPU time    0.18
    SETDIJ:  VPU time    0.01: CPU time    0.01
    EDDAV :  VPU time   16.89: CPU time   16.88
    DOS   :  VPU time    0.00: CPU time   -0.00
    ------------------------------------------
      LOOP:  VPU time   17.08: CPU time   17.08

 eigenvalue-minimisations  :  3728
 total energy-change (2. order) :-0.4658887E-08  (-0.4525973E-10)
 number of electron   96.0000002 magnetization 
 augmentation part    -1.3356396 magnetization 

 Free energy of the ion-electron system (eV)
  ---------------------------------------------------
  alpha Z        PSCENC =        -5.80837820
  Ewald energy   TEWEN  =     -2264.28466978
  -1/2 Hartree   DENC   =        -3.19189385
  -V(xc)+E(xc)   XCENC  =      -843.44692897
  PAW double counting   =      1132.14483976     -109.49016587
  entropy T*S    EENTRO =        -0.00077586
  eigenvalues    EBANDS =       262.61384457
  atomic energy  EATOM  =      1713.22913220
  ---------------------------------------------------
  free energy    TOTEN  =      -118.23499600 eV

  energy without entropy =     -118.23422014  energy(sigma->0) =     -118.23460807


--------------------------------------------------------------------------------------------------------




 average (electrostatic) potential at core
  the test charge radii are     1.0406
  (the norm of the test charge is              1.0000)
       1 -73.9276       2 -73.9276       3 -73.9276       4 -73.9276       5 -73.9276
       6 -73.9276       7 -73.9276       8 -73.9276       9 -73.9276      10 -73.9276
      11 -73.9276      12 -73.9276      13 -73.9276      14 -73.9276      15 -73.9276
      16 -73.9276      17 -73.9280      18 -73.9272      19 -73.9277      20 -73.9276
      21 -73.9280      22 -73.9272      23 -73.9277      24 -73.9276      25 -73.9280
      26 -73.9272      27 -73.9280      28 -73.9272      29 -73.9277      30 -73.9276
      31 -73.9277      32 -73.9276
 
 
 
 E-fermi :   6.8915     XC(G=0):  -9.7887     alpha+bet :-13.2648
   add alpha+bet to get absolut eigen values

 k-point   1 :       0.0000    0.0000    0.0000
  band No.  band energies     occupation 
      1      -3.5115      2.00000
      2      -1.4295      2.00000
      3      -1.4260      2.00000
      4      -1.4260      2.00000
      5      -1.4260      2.00000
      6      -1.4260      2.00000
      7      -1.4225      2.00000
      8       0.6263      2.00000
      9       0.6307      2.00000
     10       0.6307      2.00000
     11       0.6322      2.00000
     12       0.6323      2.00000
     13       0.6323      2.00000
     14       0.6323      2.00000
     15       0.6323      2.00000
     16       0.6325      2.00000
     17       0.6340      2.00000
     18       0.6340      2.00000
     19       0.6384      2.00000
     20       2.6208      2.00000
     21       2.6209      2.00000
     22       2.6209      2.00000
     23       2.6209      2.00000
     24       2.7098      2.00000
     25       2.7099      2.00000
     26       2.7099      2.00000
     27       2.7099      2.00000
     28       4.2072      2.00000
     29       4.2072      2.00000
     30       4.2072      2.00000
     31       5.2490      2.00000
     32       5.2490      2.00000
     33       5.2490      2.00000
     34       6.1496      2.00000
     35       6.1496      2.00000
     36       6.1537      2.00000
     37       6.1537      2.00000
     38       6.1538      2.00000
     39       6.1538      2.00000
     40       6.1538      2.00000
     41       6.1538      2.00000
     42       6.1539      2.00000
     43       6.1539      2.00000
     44       6.1579      2.00000
     45       6.1579      2.00000
     46       7.2117      0.00000
     47       7.2156      0.00000
     48       7.2156      0.00000
     49       7.2156      0.00000
     50       7.2156      0.00000
     51       7.2194      0.00000
     52       7.3538      0.00000
     53       7.3547      0.00000
     54       7.3547      0.00000
     55       7.3547      0.00000
     56       7.3547      0.00000
     57       7.3556      0.00000
     58       8.0982      0.00000
     59       8.0982      0.00000
     60       8.1000      0.00000
     61       8.1020      0.00000
     62       8.1021      0.00000
     63       8.1021      0.00000
     64       8.1021      0.00000
     65       8.1021      0.00000
     66       8.1022      0.00000
     67       8.1042      0.00000
     68       8.1060      0.00000
     69       8.1060      0.00000
     70       9.2601      0.00000
     71       9.2621      0.00000
     72       9.2633      0.00000

 k-point   2 :       0.1667    0.0000    0.0000
  band No.  band energies     occupation 
      1      -3.4533      2.00000
      2      -2.0603      2.00000
      3      -1.3684      2.00000
      4      -1.3684      2.00000
      5      -1.3684      2.00000
      6      -1.3684      2.00000
      7      -0.6798      2.00000
      8       0.0062      2.00000
      9       0.0062      2.00000
     10       0.0062      2.00000
     11       0.0062      2.00000
     12       0.6891      2.00000
     13       0.6891      2.00000
     14       0.6891      2.00000
     15       0.6891      2.00000
     16       1.3690      2.00000
     17       1.3690      2.00000
     18       1.3690      2.00000
     19       1.3690      2.00000
     20       2.0454      2.00000
     21       2.0454      2.00000
     22       2.0454      2.00000
     23       2.0454      2.00000
     24       3.3401      2.00000
     25       3.3946      2.00000
     26       3.3946      2.00000
     27       3.3946      2.00000
     28       3.3946      2.00000
     29       4.2612      2.00000
     30       4.2612      2.00000
     31       5.3062      2.00000
     32       5.3064      2.00000
     33       5.3279      2.00000
     34       5.3279      2.00000
     35       5.3279      2.00000
     36       5.3282      2.00000
     37       5.5585      2.00000
     38       5.5585      2.00000
     39       6.2079      2.00000
     40       6.2079      2.00000
     41       6.2079      2.00000
     42       6.2079      2.00000
     43       6.2186      2.00000
     44       6.6671      2.00000
     45       6.6671      2.00000
     46       6.8578      2.00000
     47       6.8578      2.00000
     48       7.3000      0.00000
     49       7.3000      0.00000
     50       7.3000      0.00000
     51       7.3001      0.00000
     52       7.3369      0.00000
     53       7.3369      0.00000
     54       7.3369      0.00000
     55       7.3370      0.00000
     56       7.5066      0.00000
     57       7.5066      0.00000
     58       7.5067      0.00000
     59       7.5067      0.00000
     60       8.0049      0.00000
     61       8.0049      0.00000
     62       8.2147      0.00000
     63       8.2147      0.00000
     64       8.2147      0.00000
     65       8.2147      0.00000
     66       8.6652      0.00000
     67       8.6652      0.00000
     68       8.6652      0.00000
     69       8.6653      0.00000
     70       8.8059      0.00000
     71       8.8059      0.00000
     72       8.8059      0.00000

 k-point   3 :       0.3333    0.0000    0.0000
  band No.  band energies     occupation 
      1      -3.2785      2.00000
      2      -2.5812      2.00000
      3      -1.1960      2.00000
      4      -1.1960      2.00000
      5      -1.1960      2.00000
      6      -1.1960      2.00000
      7      -0.5080      2.00000
      8      -0.5079      2.00000
      9      -0.5079      2.00000
     10      -0.5079      2.00000
     11       0.1762      2.00000
     12       0.8593      2.00000
     13       0.8593      2.00000
     14       0.8593      2.00000
     15       0.8593      2.00000
     16       1.5384      2.00000
     17       1.5384      2.00000
     18       1.5384      2.00000
     19       1.5384      2.00000
     20       2.2016      2.00000
     21       2.2140      2.00000
     22       2.2140      2.00000
     23       2.2140      2.00000
     24       2.2141      2.00000
     25       4.2115      2.00000
     26       4.2115      2.00000
     27       4.2115      2.00000
     28       4.2115      2.00000
     29       4.2287      2.00000
     30       4.2287      2.00000
     31       4.2287      2.00000
     32       4.2287      2.00000
     33       4.4233      2.00000
     34       4.4233      2.00000
     35       5.0718      2.00000
     36       5.0718      2.00000
     37       5.4783      2.00000
     38       5.4783      2.00000
     39       6.1610      2.00000
     40       6.1611      2.00000
     41       6.2008      2.00000
     42       6.2008      2.00000
     43       6.2008      2.00000
     44       6.2009      2.00000
     45       6.3702      2.00000
     46       6.3702      2.00000
     47       6.3702      2.00000
     48       6.3702      2.00000
     49       7.0195      0.00000
     50       7.0195      0.00000
     51       7.0195      0.00000
     52       7.0195      0.00000
     53       7.5064      0.00000
     54       7.5064      0.00000
     55       7.5064      0.00000
     56       7.5064      0.00000
     57       7.6641      0.00000
     58       7.6707      0.00000
     59       7.6707      0.00000
     60       8.1715      0.00000
     61       8.1715      0.00000
     62       8.1715      0.00000
     63       8.1715      0.00000
     64       8.8131      0.00000
     65       8.8131      0.00000
     66       9.6177      0.00000
     67       9.6179      0.00000
     68       9.6202      0.00000
     69       9.6214      0.00000
     70       9.6236      0.00000
     71       9.6252      0.00000
     72       9.6262      0.00000

 k-point   4 :       0.5000    0.0000    0.0000
  band No.  band energies     occupation 
      1      -2.9889      2.00000
      2      -2.9862      2.00000
      3      -0.9127      2.00000
      4      -0.9097      2.00000
      5      -0.9097      2.00000
      6      -0.9090      2.00000
      7      -0.9089      2.00000
      8      -0.9082      2.00000
      9      -0.9082      2.00000
     10      -0.9052      2.00000
     11       1.1360      2.00000
     12       1.1389      2.00000
     13       1.1414      2.00000
     14       1.1414      2.00000
     15       1.1416      2.00000
     16       1.1423      2.00000
     17       1.1430      2.00000
     18       1.1438      2.00000
     19       1.1438      2.00000
     20       1.1464      2.00000
     21       3.1627      2.00000
     22       3.1633      2.00000
     23       3.1633      2.00000
     24       3.1639      2.00000
     25       3.1641      2.00000
     26       3.1647      2.00000
     27       3.1647      2.00000
     28       3.1654      2.00000
     29       4.6920      2.00000
     30       4.6920      2.00000
     31       4.6948      2.00000
     32       4.6948      2.00000
     33       5.1657      2.00000
     34       5.1657      2.00000
     35       5.1664      2.00000
     36       5.1665      2.00000
     37       5.1671      2.00000
     38       5.1672      2.00000
     39       5.1680      2.00000
     40       5.1680      2.00000
     41       5.7621      2.00000
     42       5.7628      2.00000
     43       5.7646      2.00000
     44       5.7654      2.00000
     45       6.6385      2.00000
     46       6.6385      2.00000
     47       6.6395      2.00000
     48       6.6406      2.00000
     49       6.6407      2.00000
     50       6.6419      2.00000
     51       6.6429      2.00000
     52       6.6429      2.00000
     53       7.7823      0.00000
     54       7.7835      0.00000
     55       7.7835      0.00000
     56       7.7836      0.00000
     57       7.7854      0.00000
     58       7.7855      0.00000
     59       7.7855      0.00000
     60       7.7868      0.00000
     61       8.5913      0.00000
     62       8.5913      0.00000
     63       8.5935      0.00000
     64       8.5935      0.00000
     65       9.2366      0.00000
     66       9.2382      0.00000
     67       9.7003      0.00000
     68       9.7009      0.00000
     69       9.7021      0.00000
     70       9.7027      0.00000
     71      10.5372      0.00000
     72      10.5383      0.00000

 k-point   5 :       0.0000    0.1667    0.0000
  band No.  band energies     occupation 
      1      -3.4533      2.00000
      2      -2.0603      2.00000
      3      -1.3712      2.00000
      4      -1.3684      2.00000
      5      -1.3684      2.00000
      6      -1.3657      2.00000
      7      -0.6798      2.00000
      8       0.0035      2.00000
      9       0.0062      2.00000
     10       0.0062      2.00000
     11       0.0089      2.00000
     12       0.6870      2.00000
     13       0.6881      2.00000
     14       0.6901      2.00000
     15       0.6913      2.00000
     16       1.3663      2.00000
     17       1.3690      2.00000
     18       1.3690      2.00000
     19       1.3717      2.00000
     20       2.0433      2.00000
     21       2.0444      2.00000
     22       2.0465      2.00000
     23       2.0476      2.00000
     24       3.3401      2.00000
     25       3.3924      2.00000
     26       3.3935      2.00000
     27       3.3956      2.00000
     28       3.3967      2.00000
     29       4.2612      2.00000
     30       4.2612      2.00000
     31       5.3063      2.00000
     32       5.3064      2.00000
     33       5.3251      2.00000
     34       5.3279      2.00000
     35       5.3279      2.00000
     36       5.3308      2.00000
     37       5.5585      2.00000
     38       5.5585      2.00000
     39       6.2053      2.00000
     40       6.2078      2.00000
     41       6.2079      2.00000
     42       6.2104      2.00000
     43       6.2187      2.00000
     44       6.6670      2.00000
     45       6.6671      2.00000
     46       6.8578      2.00000
     47       6.8578      2.00000
     48       7.2977      0.00000
     49       7.2991      0.00000
     50       7.3011      0.00000
     51       7.3025      0.00000
     52       7.3349      0.00000
     53       7.3369      0.00000
     54       7.3369      0.00000
     55       7.3389      0.00000
     56       7.5041      0.00000
     57       7.5066      0.00000
     58       7.5067      0.00000
     59       7.5092      0.00000
     60       8.0049      0.00000
     61       8.0049      0.00000
     62       8.2122      0.00000
     63       8.2147      0.00000
     64       8.2147      0.00000
     65       8.2172      0.00000
     66       8.6632      0.00000
     67       8.6652      0.00000
     68       8.6652      0.00000
     69       8.6672      0.00000
     70       8.8036      0.00000
     71       8.8059      0.00000
     72       8.8065      0.00000

 k-point   6 :       0.1667    0.1667    0.0000
  band No.  band energies     occupation 
      1      -3.3950      2.00000
      2      -2.0036      2.00000
      3      -2.0014      2.00000
      4      -1.3109      2.00000
      5      -1.3109      2.00000
      6      -0.6243      2.00000
      7      -0.6225      2.00000
      8      -0.6207      2.00000
      9       0.0617      2.00000
     10       0.0625      2.00000
     11       0.0639      2.00000
     12       0.0647      2.00000
     13       0.7451      2.00000
     14       0.7462      2.00000
     15       1.4231      2.00000
     16       1.4243      2.00000
     17       1.4254      2.00000
     18       1.4254      2.00000
     19       1.4266      2.00000
     20       1.4278      2.00000
     21       2.1023      2.00000
     22       2.7360      2.00000
     23       2.7360      2.00000
     24       2.8185      2.00000
     25       2.8185      2.00000
     26       3.3950      2.00000
     27       3.3960      2.00000
     28       4.1186      2.00000
     29       4.1186      2.00000
     30       4.3152      2.00000
     31       4.7213      2.00000
     32       4.7236      2.00000
     33       5.3636      2.00000
     34       5.3747      2.00000
     35       5.3748      2.00000
     36       5.3914      2.00000
     37       5.3914      2.00000
     38       5.6114      2.00000
     39       5.6138      2.00000
     40       6.0399      2.00000
     41       6.0411      2.00000
     42       6.2740      2.00000
     43       6.2750      2.00000
     44       6.6977      2.00000
     45       6.6986      2.00000
     46       6.7000      2.00000
     47       6.7008      2.00000
     48       6.7256      2.00000
     49       6.7275      2.00000
     50       6.9094      0.01111
     51       6.9116      0.00437
     52       6.9138      0.00158
     53       7.5982      0.00000
     54       7.5995      0.00000
     55       8.0067      0.00000
     56       8.0078      0.00000
     57       8.0078      0.00000
     58       8.0088      0.00000
     59       8.0624      0.00000
     60       8.0646      0.00000
     61       8.0661      0.00000
     62       8.2094      0.00000
     63       8.2110      0.00000
     64       8.2116      0.00000
     65       8.2124      0.00000
     66       8.3191      0.00000
     67       8.3191      0.00000
     68       8.9156      0.00000
     69       8.9178      0.00000
     70       9.3671      0.00000
     71       9.3673      0.00000
     72       9.5099      0.00000

 k-point   7 :       0.3333    0.1667    0.0000
  band No.  band energies     occupation 
      1      -3.2203      2.00000
      2      -2.5232      2.00000
      3      -1.8294      2.00000
      4      -1.1399      2.00000
      5      -1.1385      2.00000
      6      -1.1372      2.00000
      7      -0.4522      2.00000
      8      -0.4508      2.00000
      9      -0.4495      2.00000
     10       0.2316      2.00000
     11       0.2339      2.00000
     12       0.2341      2.00000
     13       0.2356      2.00000
     14       0.9158      2.00000
     15       0.9158      2.00000
     16       1.5937      2.00000
     17       1.5949      2.00000
     18       1.5953      2.00000
     19       2.2576      2.00000
     20       2.2688      2.00000
     21       2.2695      2.00000
     22       2.2713      2.00000
     23       2.2722      2.00000
     24       2.9435      2.00000
     25       3.5618      2.00000
     26       3.5998      2.00000
     27       3.6162      2.00000
     28       3.6162      2.00000
     29       4.2258      2.00000
     30       4.2670      2.00000
     31       4.2671      2.00000
     32       4.4773      2.00000
     33       4.9314      2.00000
     34       4.9497      2.00000
     35       4.9497      2.00000
     36       5.1258      2.00000
     37       5.5355      2.00000
     38       5.5479      2.00000
     39       5.5480      2.00000
     40       5.5953      2.00000
     41       5.5953      2.00000
     42       5.7748      2.00000
     43       6.2066      2.00000
     44       6.2066      2.00000
     45       6.2170      2.00000
     46       6.4240      2.00000
     47       6.4419      2.00000
     48       6.8629      1.99995
     49       6.8948      0.64061
     50       6.9135      0.00182
     51       6.9136      0.00180
     52       7.0742      0.00000
     53       7.1080      0.00000
     54       7.5649      0.00000
     55       7.7191      0.00000
     56       7.7225      0.00000
     57       7.7259      0.00000
     58       8.2174      0.00000
     59       8.4275      0.00000
     60       8.4275      0.00000
     61       8.8048      0.00000
     62       8.8206      0.00000
     63       8.8207      0.00000
     64       8.8680      0.00000
     65       8.8784      0.00000
     66       9.0231      0.00000
     67       9.0361      0.00000
     68       9.0830      0.00000
     69       9.0830      0.00000
     70       9.6780      0.00000
     71       9.6806      0.00000
     72       9.6845      0.00000

 k-point   8 :       0.5000    0.1667    0.0000
  band No.  band energies     occupation 
      1      -2.9308      2.00000
      2      -2.9281      2.00000
      3      -1.5425      2.00000
      4      -1.5398      2.00000
      5      -0.8535      2.00000
      6      -0.8524      2.00000
      7      -0.8509      2.00000
      8      -0.8497      2.00000
      9      -0.1666      2.00000
     10      -0.1639      2.00000
     11       0.5166      2.00000
     12       0.5177      2.00000
     13       0.5193      2.00000
     14       0.5204      2.00000
     15       1.1947      2.00000
     16       1.1961      2.00000
     17       1.8750      2.00000
     18       1.8761      2.00000
     19       1.8777      2.00000
     20       1.8788      2.00000
     21       2.5471      2.00000
     22       2.5485      2.00000
     23       3.2192      2.00000
     24       3.2192      2.00000
     25       3.2206      2.00000
     26       3.2207      2.00000
     27       3.8373      2.00000
     28       3.8401      2.00000
     29       3.8884      2.00000
     30       3.8899      2.00000
     31       4.5566      2.00000
     32       4.5567      2.00000
     33       4.5581      2.00000
     34       4.5581      2.00000
     35       4.7460      2.00000
     36       4.7489      2.00000
     37       5.8193      2.00000
     38       5.8206      2.00000
     39       5.8219      2.00000
     40       5.8219      2.00000
     41       5.8233      2.00000
     42       5.8246      2.00000
     43       5.8833      2.00000
     44       5.8834      2.00000
     45       5.8848      2.00000
     46       5.8848      2.00000
     47       6.0438      2.00000
     48       6.0467      2.00000
     49       6.7189      2.00000
     50       6.7216      2.00000
     51       7.1736      0.00000
     52       7.1761      0.00000
     53       7.3434      0.00000
     54       7.3462      0.00000
     55       7.7841      0.00000
     56       7.7859      0.00000
     57       8.4936      0.00000
     58       8.4962      0.00000
     59       8.6453      0.00000
     60       8.6476      0.00000
     61       8.6999      0.00000
     62       8.7008      0.00000
     63       8.7026      0.00000
     64       8.7035      0.00000
     65       9.2908      0.00000
     66       9.2924      0.00000
     67       9.7345      0.00000
     68       9.7348      0.00000
     69       9.7363      0.00000
     70       9.7365      0.00000
     71       9.7550      0.00000
     72       9.7556      0.00000

 k-point   9 :       0.0000    0.3333    0.0000
  band No.  band energies     occupation 
      1      -3.2785      2.00000
      2      -2.5812      2.00000
      3      -1.1987      2.00000
      4      -1.1960      2.00000
      5      -1.1960      2.00000
      6      -1.1933      2.00000
      7      -0.5107      2.00000
      8      -0.5079      2.00000
      9      -0.5079      2.00000
     10      -0.5052      2.00000
     11       0.1762      2.00000
     12       0.8572      2.00000
     13       0.8583      2.00000
     14       0.8604      2.00000
     15       0.8615      2.00000
     16       1.5362      2.00000
     17       1.5373      2.00000
     18       1.5394      2.00000
     19       1.5405      2.00000
     20       2.2017      2.00000
     21       2.2113      2.00000
     22       2.2140      2.00000
     23       2.2140      2.00000
     24       2.2168      2.00000
     25       4.2087      2.00000
     26       4.2115      2.00000
     27       4.2115      2.00000
     28       4.2143      2.00000
     29       4.2265      2.00000
     30       4.2276      2.00000
     31       4.2297      2.00000
     32       4.2308      2.00000
     33       4.4233      2.00000
     34       4.4233      2.00000
     35       5.0718      2.00000
     36       5.0718      2.00000
     37       5.4783      2.00000
     38       5.4783      2.00000
     39       6.1609      2.00000
     40       6.1611      2.00000
     41       6.1986      2.00000
     42       6.1997      2.00000
     43       6.2018      2.00000
     44       6.2031      2.00000
     45       6.3676      2.00000
     46       6.3702      2.00000
     47       6.3702      2.00000
     48       6.3727      2.00000
     49       7.0169      0.00000
     50       7.0195      0.00000
     51       7.0195      0.00000
     52       7.0221      0.00000
     53       7.5044      0.00000
     54       7.5064      0.00000
     55       7.5064      0.00000
     56       7.5083      0.00000
     57       7.6637      0.00000
     58       7.6707      0.00000
     59       7.6711      0.00000
     60       8.1695      0.00000
     61       8.1715      0.00000
     62       8.1715      0.00000
     63       8.1734      0.00000
     64       8.8131      0.00000
     65       8.8131      0.00000
     66       9.6168      0.00000
     67       9.6178      0.00000
     68       9.6198      0.00000
     69       9.6206      0.00000
     70       9.6236      0.00000
     71       9.6252      0.00000
     72       9.6268      0.00000

 k-point  10 :       0.1667    0.3333    0.0000
  band No.  band energies     occupation 
      1      -3.2202      2.00000
      2      -2.5233      2.00000
      3      -1.8294      2.00000
      4      -1.1399      2.00000
      5      -1.1385      2.00000
      6      -1.1372      2.00000
      7      -0.4522      2.00000
      8      -0.4508      2.00000
      9      -0.4495      2.00000
     10       0.2317      2.00000
     11       0.2336      2.00000
     12       0.2341      2.00000
     13       0.2359      2.00000
     14       0.9158      2.00000
     15       0.9158      2.00000
     16       1.5930      2.00000
     17       1.5950      2.00000
     18       1.5960      2.00000
     19       2.2576      2.00000
     20       2.2698      2.00000
     21       2.2699      2.00000
     22       2.2709      2.00000
     23       2.2712      2.00000
     24       2.9435      2.00000
     25       3.5618      2.00000
     26       3.5998      2.00000
     27       3.6162      2.00000
     28       3.6162      2.00000
     29       4.2257      2.00000
     30       4.2670      2.00000
     31       4.2671      2.00000
     32       4.4773      2.00000
     33       4.9314      2.00000
     34       4.9497      2.00000
     35       4.9497      2.00000
     36       5.1258      2.00000
     37       5.5353      2.00000
     38       5.5480      2.00000
     39       5.5482      2.00000
     40       5.5953      2.00000
     41       5.5953      2.00000
     42       5.7748      2.00000
     43       6.2064      2.00000
     44       6.2066      2.00000
     45       6.2172      2.00000
     46       6.4240      2.00000
     47       6.4419      2.00000
     48       6.8629      1.99995
     49       6.8948      0.64068
     50       6.9136      0.00180
     51       6.9136      0.00180
     52       7.0742      0.00000
     53       7.1080      0.00000
     54       7.5649      0.00000
     55       7.7191      0.00000
     56       7.7232      0.00000
     57       7.7252      0.00000
     58       8.2174      0.00000
     59       8.4275      0.00000
     60       8.4275      0.00000
     61       8.8048      0.00000
     62       8.8206      0.00000
     63       8.8206      0.00000
     64       8.8681      0.00000
     65       8.8783      0.00000
     66       9.0231      0.00000
     67       9.0361      0.00000
     68       9.0830      0.00000
     69       9.0830      0.00000
     70       9.6775      0.00000
     71       9.6806      0.00000
     72       9.6998      0.00000

 k-point  11 :       0.3333    0.3333    0.0000
  band No.  band energies     occupation 
      1      -3.0457      2.00000
[...]
      6      -1.0238      2.00000
      7      -1.0238      2.00000
      8      -1.0238      2.00000
      9       0.3477      2.00000
     10       0.3477      2.00000
     11       0.3477      2.00000
     12       0.3477      2.00000
     13       1.7038      2.00000
     14       1.7038      2.00000
     15       1.7038      2.00000
     16       1.7038      2.00000
     17       1.7038      2.00000
     18       1.7038      2.00000
     19       1.7038      2.00000
     20       1.7038      2.00000
     21       3.0519      2.00000
     22       3.0519      2.00000
     23       3.0519      2.00000
     24       3.0520      2.00000
     25       3.0520      2.00000
     26       3.0520      2.00000
     27       3.0520      2.00000
     28       3.0520      2.00000
     29       4.3363      2.00000
     30       4.3363      2.00000
     31       4.3363      2.00000
     32       4.3363      2.00000
     33       4.3900      2.00000
     34       4.3900      2.00000
     35       4.3900      2.00000
     36       4.3900      2.00000
     37       4.3900      2.00000
     38       4.3900      2.00000
     39       4.3900      2.00000
     40       4.3901      2.00000
     41       5.7111      2.00000
     42       5.7111      2.00000
     43       5.7111      2.00000
     44       5.7111      2.00000
     45       7.0305      0.00000
     46       7.0305      0.00000
     47       7.0305      0.00000
     48       7.0305      0.00000
     49       7.2213      0.00000
     50       7.2213      0.00000
     51       7.2213      0.00000
     52       7.2213      0.00000
     53       8.2731      0.00000
     54       8.2731      0.00000
     55       8.2732      0.00000
     56       8.2732      0.00000
     57       8.2732      0.00000
     58       8.2733      0.00000
     59       8.2733      0.00000
     60       8.2733      0.00000
     61       8.3395      0.00000
     62       8.3395      0.00000
     63       8.3395      0.00000
     64       8.3395      0.00000
     65       9.7790      0.00000
     66       9.7790      0.00000
     67       9.7791      0.00000
     68       9.7791      0.00000
     69       9.7791      0.00000
     70       9.7792      0.00000
     71       9.7793      0.00000
     72       9.7793      0.00000

 k-point  39 :       0.3333    0.5000    0.5000
  band No.  band energies     occupation 
      1      -2.2339      2.00000
      2      -2.2338      2.00000
      3      -2.2338      2.00000
      4      -2.2338      2.00000
      5      -1.5413      2.00000
      6      -1.5413      2.00000
      7      -1.5413      2.00000
      8      -1.5413      2.00000
      9       1.1981      2.00000
     10       1.1981      2.00000
     11       1.1981      2.00000
     12       1.1981      2.00000
     13       1.8728      2.00000
     14       1.8728      2.00000
     15       1.8728      2.00000
     16       1.8729      2.00000
     17       1.8729      2.00000
     18       1.8729      2.00000
     19       1.8729      2.00000
     20       1.8729      2.00000
     21       2.5476      2.00000
     22       2.5476      2.00000
     23       2.5476      2.00000
     24       2.5476      2.00000
     25       2.5476      2.00000
     26       2.5476      2.00000
     27       2.5477      2.00000
     28       2.5477      2.00000
     29       3.2094      2.00000
     30       3.2094      2.00000
     31       3.2094      2.00000
     32       3.2094      2.00000
     33       5.2195      2.00000
     34       5.2195      2.00000
     35       5.2195      2.00000
     36       5.2195      2.00000
     37       5.2195      2.00000
     38       5.2195      2.00000
     39       5.2195      2.00000
     40       5.2195      2.00000
     41       5.8766      2.00000
     42       5.8766      2.00000
     43       5.8766      2.00000
     44       5.8766      2.00000
     45       6.5369      2.00000
     46       6.5369      2.00000
     47       6.5369      2.00000
     48       6.5369      2.00000
     49       7.1797      0.00000
     50       7.1797      0.00000
     51       7.1797      0.00000
     52       7.1797      0.00000
     53       7.1797      0.00000
     54       7.1797      0.00000
     55       7.1798      0.00000
     56       7.1798      0.00000
     57       8.6520      0.00000
     58       8.6520      0.00000
     59       8.6520      0.00000
     60       8.6520      0.00000
     61       9.1511      0.00000
     62       9.1511      0.00000
     63       9.1512      0.00000
     64       9.1512      0.00000
     65       9.9417      0.00000
     66       9.9417      0.00000
     67       9.9417      0.00000
     68       9.9418      0.00000
     69       9.9418      0.00000
     70       9.9418      0.00000
     71       9.9418      0.00000
     72       9.9418      0.00000

 k-point  40 :       0.5000    0.5000    0.5000
  band No.  band energies     occupation 
      1      -1.9494      2.00000
      2      -1.9453      2.00000
      3      -1.9453      2.00000
      4      -1.9450      2.00000
      5      -1.9449      2.00000
      6      -1.9445      2.00000
      7      -1.9445      2.00000
      8      -1.9405      2.00000
      9       2.1443      2.00000
     10       2.1506      2.00000
     11       2.1506      2.00000
     12       2.1536      2.00000
     13       2.1538      2.00000
     14       2.1539      2.00000
     15       2.1542      2.00000
     16       2.1542      2.00000
     17       2.1543      2.00000
     18       2.1543      2.00000
     19       2.1543      2.00000
     20       2.1543      2.00000
     21       2.1544      2.00000
     22       2.1544      2.00000
     23       2.1544      2.00000
     24       2.1544      2.00000
     25       2.1544      2.00000
     26       2.1544      2.00000
     27       2.1548      2.00000
     28       2.1548      2.00000
     29       2.1550      2.00000
     30       2.1581      2.00000
     31       2.1581      2.00000
     32       2.1644      2.00000
     33       6.1464      2.00000
     34       6.1464      2.00000
     35       6.1480      2.00000
     36       6.1501      2.00000
     37       6.1514      2.00000
     38       6.1518      2.00000
     39       6.1518      2.00000
     40       6.1518      2.00000
     41       6.1520      2.00000
     42       6.1520      2.00000
     43       6.1520      2.00000
     44       6.1520      2.00000
     45       6.1520      2.00000
     46       6.1521      2.00000
     47       6.1521      2.00000
     48       6.1521      2.00000
     49       6.1523      2.00000
     50       6.1523      2.00000
     51       6.1523      2.00000
     52       6.1527      2.00000
     53       6.1539      2.00000
     54       6.1561      2.00000
     55       6.1576      2.00000
     56       6.1576      2.00000
     57      10.0618      0.00000
     58      10.0620      0.00000
     59      10.0621      0.00000
     60      10.0626      0.00000
     61      10.0639      0.00000
     62      10.0646      0.00000
     63      10.0646      0.00000
     64      10.0650      0.00000
     65      10.2076      0.00000
     66      10.2092      0.00000
     67      10.2096      0.00000
     68      10.2107      0.00000
     69      10.2110      0.00000
     70      10.2111      0.00000
     71      10.2117      0.00000
     72      10.2121      0.00000


--------------------------------------------------------------------------------------------------------


 soft charge-density along one line, spin component           1
         0         1         2         3         4         5         6         7         8         9
 total charge-density along one line
 
 pseudopotential strength for first ion, spin component:           1
  8.481  -0.004  -0.000   0.000  -0.000  -0.000   0.000  -0.000
 -0.004   0.000  -0.000   0.000  -0.000   0.000  -0.000   0.000
 -0.000  -0.000   1.983   0.000   0.000  -0.023  -0.000  -0.000
  0.000   0.000   0.000   1.983  -0.000  -0.000  -0.023   0.000
 -0.000  -0.000   0.000  -0.000   1.983  -0.000   0.000  -0.023
 -0.000   0.000  -0.023  -0.000  -0.000  -0.013  -0.000  -0.000
  0.000  -0.000  -0.000  -0.023   0.000  -0.000  -0.013   0.000
 -0.000   0.000  -0.000   0.000  -0.023  -0.000   0.000  -0.013
 total augmentation occupancy for first ion, spin component:           1
  1.383  -0.349   0.000   0.000   0.001   0.000  -0.000  -0.001
 -0.349   0.366   0.000   0.000  -0.003  -0.000  -0.000   0.001
  0.000   0.000   0.645   0.004   0.010  -0.122  -0.001  -0.001
  0.000   0.000   0.004   0.647  -0.001  -0.001  -0.119  -0.000
  0.001  -0.003   0.010  -0.001   0.646  -0.001  -0.000  -0.120
  0.000  -0.000  -0.122  -0.001  -0.001   0.026   0.000   0.000
 -0.000  -0.000  -0.001  -0.119  -0.000   0.000   0.026   0.000
 -0.001   0.001  -0.001  -0.000  -0.120   0.000   0.000   0.026


------------------------ aborting loop because EDIFF is reached ----------------------------------------




--------------------------------------------------------------------------------------------------------


    CHARGE:  VPU time    1.29: CPU time    1.29
    FORLOC:  VPU time    0.03: CPU time    0.04
    FORNL :  VPU time    7.24: CPU time    7.24
    STRESS:  VPU time   15.81: CPU time   15.80
    FORCOR:  VPU time    0.20: CPU time    0.20
    FORHAR:  VPU time    0.06: CPU time    0.06
    MIXING:  VPU time    0.01: CPU time    0.01


--------------------------------------------------------------------------------------------------------



  FREE ENERGIE OF THE ION-ELECTRON SYSTEM (eV)
  ---------------------------------------------------
  free  energy   TOTEN  =      -118.234996 eV

  energy  without entropy=     -118.234220  energy(sigma->0) =     -118.234608
 

  FORCE on cell =-STRESS in cart. coord.  units (eV/reduce length):
  Direction    X        Y        Z        XY       YZ       ZX
  --------------------------------------------------------------------------------------
  Alpha Z     -5.81     -5.81     -5.81
  Ewald     -754.77   -754.76   -754.76      0.00      0.00      0.00
  Hartree      1.06      1.06      1.06     -0.00     -0.00     -0.00
  E(xc)     -264.82   -264.82   -264.82      0.00      0.00     -0.00
  Local       -5.95     -5.95     -5.95     -0.00      0.00     -0.00
  n-local    593.92    594.77    593.07     -0.33     -0.10      0.13
  augment    -35.69    -35.69    -35.69      0.00      0.00      0.00
  Kinetic    447.09    442.61    451.58      7.27      2.86     -1.55
  -------------------------------------------------------------------------------------
  Total      -24.96    -24.96    -24.96      0.00      0.00      0.00
  in kB      -67.53    -67.53    -67.53      0.00      0.00      0.00
  external pressure =      -67.53 kB  Pullay stress =        0.00 kB


 VOLUME and BASIS-vectors are now :
 -----------------------------------------------------------------------------
  energy-cutoff  :      500.00
  volume of cell :      592.15
      direct lattice vectors                 reciprocal lattice vectors
     8.397375792  0.000000000  0.000000000     0.119084822  0.000000000  0.000000000
     0.000000000  8.397375792  0.000000000     0.000000000  0.119084822  0.000000000
     0.000000000  0.000000000  8.397375792     0.000000000  0.000000000  0.119084822

  length of vectors
     8.397375792  8.397375792  8.397375792     0.119084822  0.119084822  0.119084822


 FORCES acting on ions
    electron-ion (+dipol)            ewald-force                    non-local-force                 convergence-correction
 -----------------------------------------------------------------------------------------------
   0.339E+00 -.331E-13 -.114E-07   -.284E+00 -.266E-14 -.222E-14   -.834E-01 -.398E-19 -.677E-19   0.334E-05 -.945E-14 -.697E-14
   -.773E-01 -.825E-13 0.825E-13   0.750E-01 -.422E-14 -.641E-15   0.365E-02 0.974E-20 0.424E-20   0.513E-06 -.135E-13 -.550E-14
   0.251E-01 -.378E-14 0.579E-13   -.238E-01 -.888E-15 0.248E-15   -.164E-02 -.161E-19 -.270E-19   0.114E-05 0.962E-14 -.434E-14
   -.198E-01 -.161E-12 -.335E-12   0.187E-01 0.266E-14 0.248E-15   0.149E-02 -.693E-20 -.820E-20   -.172E-05 0.136E-13 -.209E-14
   0.251E-01 -.528E-13 -.472E-14   -.238E-01 0.000E+00 0.100E-14   -.164E-02 0.421E-19 0.292E-20   0.115E-05 -.275E-14 0.687E-14
   -.198E-01 -.386E-12 0.440E-13   0.187E-01 -.355E-14 0.100E-14   0.149E-02 -.432E-20 0.376E-20   -.172E-05 -.398E-14 0.549E-14
   0.795E-02 0.281E-13 -.368E-14   -.980E-02 -.355E-14 0.558E-15   0.207E-02 0.398E-20 0.655E-21   -.513E-07 0.292E-14 0.426E-14
   -.664E-02 0.299E-12 0.248E-13   0.917E-02 0.355E-14 -.299E-14   -.283E-02 -.766E-20 -.751E-20   -.632E-06 0.412E-14 0.208E-14
   0.434E-01 -.167E-03 0.167E-03   -.448E-01 0.168E-03 -.168E-03   0.230E-03 0.191E-04 -.191E-04   0.148E-06 -.669E-07 0.669E-07
   -.263E-01 0.830E-04 -.830E-04   0.252E-01 -.503E-04 0.503E-04   0.348E-03 -.270E-04 0.270E-04   -.163E-06 -.138E-07 0.138E-07
   0.434E-01 0.167E-03 0.167E-03   -.448E-01 -.168E-03 -.168E-03   0.230E-03 -.191E-04 -.191E-04   0.148E-06 0.669E-07 0.669E-07
   -.263E-01 -.830E-04 -.830E-04   0.252E-01 0.503E-04 0.503E-04   0.348E-03 0.270E-04 0.270E-04   -.163E-06 0.138E-07 0.138E-07
   0.434E-01 -.167E-03 -.167E-03   -.448E-01 0.168E-03 0.168E-03   0.230E-03 0.191E-04 0.191E-04   0.148E-06 -.669E-07 -.669E-07
   -.263E-01 0.830E-04 0.830E-04   0.252E-01 -.503E-04 -.503E-04   0.348E-03 -.270E-04 -.270E-04   -.163E-06 -.138E-07 -.138E-07
   0.434E-01 0.167E-03 -.167E-03   -.448E-01 -.168E-03 0.168E-03   0.230E-03 -.191E-04 0.191E-04   0.148E-06 0.669E-07 -.669E-07
   -.263E-01 -.830E-04 0.830E-04   0.252E-01 0.503E-04 -.503E-04   0.348E-03 0.270E-04 -.270E-04   -.163E-06 0.138E-07 -.138E-07
   -.419E-01 -.172E-13 0.746E-01   0.363E-01 0.444E-15 -.687E-01   0.101E-01 0.142E-20 -.104E-01   -.739E-06 -.696E-14 0.504E-07
   -.418E-01 0.235E-12 -.753E-01   0.360E-01 0.000E+00 0.693E-01   0.102E-01 -.223E-20 0.107E-01   -.630E-06 -.318E-14 0.114E-07
   -.104E-02 -.237E-13 0.679E-02   0.121E-02 0.111E-14 -.568E-02   -.337E-03 0.152E-19 -.518E-03   0.439E-06 0.697E-14 0.538E-06
   -.917E-03 0.530E-13 -.684E-02   0.110E-02 0.178E-14 0.569E-02   -.356E-03 -.187E-19 0.545E-03   0.435E-06 0.343E-14 -.593E-06
   -.419E-01 -.174E-13 -.746E-01   0.363E-01 0.400E-14 0.687E-01   0.101E-01 -.501E-20 0.104E-01   -.739E-06 -.106E-13 -.504E-07
   -.418E-01 -.725E-13 0.753E-01   0.360E-01 0.178E-14 -.693E-01   0.102E-01 -.544E-20 -.107E-01   -.630E-06 -.891E-14 -.114E-07
   -.104E-02 -.273E-13 -.679E-02   0.121E-02 -.444E-15 0.568E-02   -.337E-03 0.185E-20 0.518E-03   0.439E-06 0.105E-13 -.538E-06
   -.917E-03 -.226E-12 0.684E-02   0.110E-02 0.533E-14 -.569E-02   -.356E-03 -.137E-20 -.545E-03   0.435E-06 0.912E-14 0.593E-06
   -.419E-01 -.746E-01 0.827E-14   0.363E-01 0.687E-01 -.107E-14   0.101E-01 0.104E-01 0.111E-19   -.738E-06 -.536E-07 -.507E-14
   -.418E-01 0.753E-01 -.433E-12   0.360E-01 -.693E-01 -.625E-15   0.102E-01 -.107E-01 -.297E-20   -.629E-06 -.808E-08 -.906E-14
   -.419E-01 0.746E-01 0.685E-15   0.363E-01 -.687E-01 -.107E-14   0.101E-01 -.104E-01 -.436E-20   -.738E-06 0.536E-07 -.151E-14
   -.418E-01 -.753E-01 -.637E-14   0.360E-01 0.693E-01 -.627E-15   0.102E-01 0.107E-01 -.381E-20   -.629E-06 0.808E-08 -.334E-14
   -.104E-02 -.679E-02 -.292E-14   0.121E-02 0.568E-02 0.483E-14   -.337E-03 0.518E-03 -.197E-19   0.438E-06 -.541E-06 0.509E-14
   -.917E-03 0.684E-02 0.165E-12   0.110E-02 -.569E-02 0.609E-15   -.356E-03 -.545E-03 0.428E-20   0.434E-06 0.597E-06 0.896E-14
   -.104E-02 0.679E-02 0.710E-15   0.121E-02 -.568E-02 -.250E-14   -.337E-03 -.518E-03 0.170E-19   0.438E-06 0.541E-06 0.148E-14
   -.917E-03 -.684E-02 -.580E-14   0.110E-02 0.569E-02 0.607E-15   -.356E-03 0.545E-03 -.406E-20   0.434E-06 -.597E-06 0.325E-14
 -----------------------------------------------------------------------------------------------
   0.354E-05 -.967E-12 -.114E-07   -.297E-14 0.142E-13 -.374E-14   -.531E-05 -.347E-17 -.653E-18   -.879E-08 0.761E-16 0.704E-16
 
 
 POSITION                                       TOTAL-FORCE (eV/Angst)
 -----------------------------------------------------------------------------------
      2.10934      2.09934      0.00000        -0.028200     -0.000000      0.000000
      6.29803      2.09934      0.00000         0.001382     -0.000000      0.000000
      2.09934      6.29803      0.00000        -0.000280     -0.000000      0.000000
      6.29803      6.29803      0.00000         0.000357     -0.000000      0.000000
      2.09934      2.09934      4.19869        -0.000280      0.000000     -0.000000
      6.29803      2.09934      4.19869         0.000357      0.000000      0.000000
      2.09934      6.29803      4.19869         0.000219      0.000000      0.000000
      6.29803      6.29803      4.19869        -0.000303      0.000000     -0.000000
      2.09934      0.00000      2.09934        -0.001175      0.000019     -0.000019
      6.29803      0.00000      2.09934        -0.000731      0.000006     -0.000006
      2.09934      4.19869      2.09934        -0.001175     -0.000019     -0.000019
      6.29803      4.19869      2.09934        -0.000731     -0.000006     -0.000006
      2.09934      0.00000      6.29803        -0.001175      0.000019      0.000019
      6.29803      0.00000      6.29803        -0.000731      0.000006      0.000006
      2.09934      4.19869      6.29803        -0.001175     -0.000019      0.000019
      6.29803      4.19869      6.29803        -0.000731     -0.000006      0.000006
      0.00000      2.09934      2.09934         0.004422     -0.000000     -0.004511
      4.19869      2.09934      2.09934         0.004511     -0.000000      0.004639
      0.00000      6.29803      2.09934        -0.000166     -0.000000      0.000588
      4.19869      6.29803      2.09934        -0.000174     -0.000000     -0.000603
      0.00000      2.09934      6.29803         0.004422     -0.000000      0.004511
      4.19869      2.09934      6.29803         0.004511      0.000000     -0.004639
      0.00000      6.29803      6.29803        -0.000166      0.000000     -0.000588
      4.19869      6.29803      6.29803        -0.000174      0.000000      0.000603
      0.00000      0.00000      0.00000         0.004422      0.004511      0.000000
      4.19869      0.00000      0.00000         0.004511     -0.004639     -0.000000
      0.00000      4.19869      0.00000         0.004422     -0.004511     -0.000000
      4.19869      4.19869      0.00000         0.004511      0.004639     -0.000000
      0.00000      0.00000      4.19869        -0.000166     -0.000588      0.000000
      4.19869      0.00000      4.19869        -0.000174      0.000603      0.000000
      0.00000      4.19869      4.19869        -0.000166      0.000588      0.000000
      4.19869      4.19869      4.19869        -0.000174     -0.000603     -0.000000
 -----------------------------------------------------------------------------------
    total drift:                               -0.000002     -0.000000     -0.000000


--------------------------------------------------------------------------------------------------------



 mean value of Nose-termostat <S>:     1.000 mean value of <T> :     0.000
 mean temperature <T/S>/<1/S>  :     0.000

     LOOP+:  VPU time  394.54: CPU time  394.47
  
  
 General timing and accounting informations for this job:
 ========================================================
  
                  Total CPU time used (sec):      402.585
                            User time (sec):      359.471
                          System time (sec):       43.113
                         Elapsed time (sec):      402.519
  
                   Maximum memory used (kb):     1038852.
                   Average memory used (kb):           0.
  
                          Minor page faults:       237951
                          Major page faults:            0
                 Voluntary context switches:          882
