<?xml version="1.0" encoding="ISO-8859-1"?>
<modeling>
 <generator>
  <i name="program" type="string">vasp</i>
  <i name="version" type="string">4.6.28 </i>
  <i name="subversion" type="string">25Jul05 complex  parallel</i>
  <i name="platform" type="string">LinuxIFC</i>
  <i name="date" type="string">2016 10 19</i>
  <i name="time" type="string">12:25:52</i>
 </generator>
 <incar>
  <i type="string" name="PREC">accurate</i>
  <i type="int" name="IALGO">    38</i>
  <i name="EDIFF">      0.00000001</i>
  <i type="int" name="IBRION">    -1</i>
  <i name="ENCUT">    500.00000000</i>
  <i type="logical" name="LREAL"> F  </i>
  <i type="int" name="ISMEAR">     0</i>
  <i name="SIGMA">      0.01000000</i>
  <i type="logical" name="LWAVE"> F  </i>
  <i type="logical" name="LCHARG"> F  </i>
 </incar>
 <kpoints>
  <generation param="Auto">
   <i name="subdivisionlength">     50.00000000</i>
   <v type="int" name="divisions">       6       6       6</v>
   <v name="usershift">      0.00000000      0.00000000      0.00000000</v>
   <v name="genvec1">      0.16666667      0.00000000      0.00000000</v>
   <v name="genvec2">      0.00000000      0.16666667      0.00000000</v>
   <v name="genvec3">      0.00000000      0.00000000      0.16666667</v>
   <v name="shift">      0.00000000      0.00000000      0.00000000</v>
  </generation>
  <varray name="kpointlist" >
   <v>       0.00000000      0.00000000      0.00000000</v>
   <v>       0.16666667      0.00000000      0.00000000</v>
   <v>       0.33333333      0.00000000      0.00000000</v>
   <v>       0.50000000      0.00000000      0.00000000</v>
   <v>       0.00000000      0.16666667      0.00000000</v>
   <v>       0.16666667      0.16666667      0.00000000</v>
   <v>       0.33333333      0.16666667      0.00000000</v>
   <v>       0.50000000      0.16666667      0.00000000</v>
   <v>       0.00000000      0.33333333      0.00000000</v>
   <v>       0.16666667      0.33333333      0.00000000</v>
   <v>       0.33333333      0.33333333      0.00000000</v>
   <v>       0.50000000      0.33333333      0.00000000</v>
   <v>       0.00000000      0.50000000      0.00000000</v>
   <v>       0.16666667      0.50000000      0.00000000</v>
   <v>       0.33333333      0.50000000      0.00000000</v>
   <v>       0.50000000      0.50000000      0.00000000</v>
   <v>       0.00000000      0.16666667      0.16666667</v>
   <v>       0.16666667      0.16666667      0.16666667</v>
   <v>       0.33333333      0.16666667      0.16666667</v>
   <v>       0.50000000      0.16666667      0.16666667</v>
   <v>       0.00000000      0.33333333      0.16666667</v>
   <v>       0.16666667      0.33333333      0.16666667</v>
   <v>       0.33333333      0.33333333      0.16666667</v>
   <v>       0.50000000      0.33333333      0.16666667</v>
   <v>       0.00000000      0.50000000      0.16666667</v>
   <v>       0.16666667      0.50000000      0.16666667</v>
   <v>       0.33333333      0.50000000      0.16666667</v>
   <v>       0.50000000      0.50000000      0.16666667</v>
   <v>       0.00000000      0.33333333      0.33333333</v>
   <v>       0.16666667      0.33333333      0.33333333</v>
   <v>       0.33333333      0.33333333      0.33333333</v>
   <v>       0.50000000      0.33333333      0.33333333</v>
   <v>       0.00000000      0.50000000      0.33333333</v>
   <v>       0.16666667      0.50000000      0.33333333</v>
   <v>       0.33333333      0.50000000      0.33333333</v>
   <v>       0.50000000      0.50000000      0.33333333</v>
   <v>       0.00000000      0.50000000      0.50000000</v>
   <v>       0.16666667      0.50000000      0.50000000</v>
   <v>       0.33333333      0.50000000      0.50000000</v>
   <v>       0.50000000      0.50000000      0.50000000</v>
  </varray>
  <varray name="weights" >
   <v>       0.00462963</v>
   <v>       0.00925926</v>
   <v>       0.00925926</v>
   <v>       0.00462963</v>
   <v>       0.01851852</v>
   <v>       0.03703704</v>
   <v>       0.03703704</v>
   <v>       0.01851852</v>
   <v>       0.01851852</v>
   <v>       0.03703704</v>
   <v>       0.03703704</v>
   <v>       0.01851852</v>
   <v>       0.00925926</v>
   <v>       0.01851852</v>
   <v>       0.01851852</v>
   <v>       0.00925926</v>
   <v>       0.01851852</v>
   <v>       0.03703704</v>
   <v>       0.03703704</v>
   <v>       0.01851852</v>
   <v>       0.03703704</v>
   <v>       0.07407407</v>
   <v>       0.07407407</v>
   <v>       0.03703704</v>
   <v>       0.01851852</v>
   <v>       0.03703704</v>
   <v>       0.03703704</v>
   <v>       0.01851852</v>
   <v>       0.01851852</v>
   <v>       0.03703704</v>
   <v>       0.03703704</v>
   <v>       0.01851852</v>
   <v>       0.01851852</v>
   <v>       0.03703704</v>
   <v>       0.03703704</v>
   <v>       0.01851852</v>
   <v>       0.00462963</v>
   <v>       0.00925926</v>
   <v>       0.00925926</v>
   <v>       0.00462963</v>
  </varray>
 </kpoints>
 <parameters>
  <separator name="general" >
   <i type="string" name="SYSTEM">unknown system</i>
   <i type="logical" name="LCOMPAT"> F  </i>
  </separator>
  <separator name="electronic" >
   <i type="string" name="PREC">accura</i>
   <i name="ENMAX">    500.00000000</i>
   <i name="ENAUG">    291.05200000</i>
   <i name="EDIFF">      0.00000001</i>
   <i type="int" name="IALGO">    38</i>
   <i type="int" name="IWAVPR">    10</i>
   <i type="int" name="NBANDS">    65</i>
   <i name="NELECT">     96.00000000</i>
   <separator name="electronic smearing" >
    <i type="int" name="ISMEAR">     0</i>
    <i name="SIGMA">      0.01000000</i>
   </separator>
   <separator name="electronic projectors" >
    <i type="logical" name="LREAL"> F  </i>
    <v name="ROPT">      0.00000000</v>
    <i type="int" name="LMAXPAW">  -100</i>
    <i type="int" name="LMAXMIX">     2</i>
   </separator>
   <separator name="electronic startup" >
    <i type="int" name="ISTART">     0</i>
    <i type="int" name="ICHARG">     2</i>
    <i type="int" name="INIWAV">     1</i>
   </separator>
   <separator name="electronic spin" >
    <i type="int" name="ISPIN">     1</i>
    <i type="logical" name="LNONCOLLINEAR"> F  </i>
    <v name="MAGMOM">      1.00000000      1.00000000      1.00000000      1.00000000      1.00000000      1.00000000      1.00000000      1.00000000      1.00000000      1.00000000      1.00000000      1.00000000      1.00000000      1.00000000      1.00000000      1.00000000      1.00000000      1.00000000      1.00000000      1.00000000
      1.00000000      1.00000000      1.00000000      1.00000000      1.00000000      1.00000000      1.00000000      1.00000000      1.00000000      1.00000000      1.00000000      1.00000000</v>
    <i name="NUPDOWN">     -1.00000000</i>
    <i type="logical" name="LSORBIT"> F  </i>
    <v name="SAXIS">      0.00000000      0.00000000      1.00000000</v>
    <i type="logical" name="LSPIRAL"> F  </i>
    <v name="QSPIRAL">      0.00000000      0.00000000      0.00000000</v>
    <i type="logical" name="LZEROZ"> F  </i>
   </separator>
   <separator name="electronic exchange-correlation" >
    <i type="string" name="GGA">--</i>
    <i type="int" name="VOSKOWN">     0</i>
    <i type="logical" name="LASPH"> F  </i>
    <i type="logical" name="LMETAGGA"> F  </i>
    <i type="string" name="GGA2">--</i>
   </separator>
   <separator name="electronic convergence" >
    <i type="int" name="NELM">    60</i>
    <i type="int" name="NELMDL">     0</i>
    <i type="int" name="NELMIN">     2</i>
    <i name="ENINI">    500.00000000</i>
    <separator name="electronic convergence detail" >
     <i type="logical" name="LDIAG"> T  </i>
     <i name="WEIMIN">      0.00000000</i>
     <i name="EBREAK">      0.00000000</i>
     <i name="DEPER">      0.30000000</i>
     <i type="int" name="NRMM">     4</i>
     <i name="TIME">      0.10000000</i>
    </separator>
   </separator>
   <separator name="electronic mixer" >
    <i name="AMIX">      0.40000000</i>
    <i name="BMIX">      1.00000000</i>
    <i name="AMIN">      0.10000000</i>
    <i name="AMIX_MAG">      1.60000000</i>
    <i name="BMIX_MAG">      1.00000000</i>
    <separator name="electronic mixer details" >
     <i type="int" name="IMIX">     4</i>
     <i type="int" name="MAXMIX">   -45</i>
     <i name="WC">    100.00000000</i>
     <i type="int" name="INIMIX">     1</i>
     <i type="int" name="MIXPRE">     1</i>
     <i type="int" name="MREMOVE">     5</i>
    </separator>
   </separator>
   <separator name="electronic dipolcorrection" >
    <i type="int" name="IDIPOL">     0</i>
    <i type="logical" name="LDIPOL"> F  </i>
    <v name="DIPOL">   -100.00000000</v>
    <i name="EFIELD">      0.00000000</i>
   </separator>
  </separator>
  <separator name="grids" >
   <i type="int" name="NGX">    64</i>
   <i type="int" name="NGY">    64</i>
   <i type="int" name="NGZ">    64</i>
   <i type="int" name="NGXF">   128</i>
   <i type="int" name="NGYF">   128</i>
   <i type="int" name="NGZF">   128</i>
   <i type="logical" name="ADDGRID"> F  </i>
  </separator>
  <separator name="ionic" >
   <i type="int" name="NSW">     0</i>
   <i type="int" name="IBRION">    -1</i>
   <i type="int" name="ISIF">     2</i>
   <i name="PSTRESS">      0.00000000</i>
   <i name="EDIFFG">      0.00000010</i>
   <i type="int" name="NFREE">     0</i>
   <i name="POTIM">      0.50000000</i>
   <i name="SMASS">     -3.00000000</i>
  </separator>
  <separator name="ionic md" >
   <i name="TEBEG">      0.00010000</i>
   <i name="TEEND">      0.00010000</i>
   <i type="int" name="NBLOCK">     1</i>
   <i type="int" name="KBLOCK">     1</i>
   <i type="int" name="NPACO">   256</i>
   <i name="APACO">     16.00000000</i>
  </separator>
  <separator name="symmetry" >
   <i type="int" name="ISYM">     2</i>
   <i name="SYMPREC">      0.00001000</i>
  </separator>
  <separator name="dos" >
   <i type="logical" name="LORBIT"> F  </i>
   <v name="RWIGS">     -1.00000000</v>
   <i type="int" name="NEDOS">   301</i>
   <i name="EMIN">     10.00000000</i>
   <i name="EMAX">    -10.00000000</i>
  </separator>
  <separator name="writing" >
   <i type="int" name="NWRITE">     2</i>
   <i type="logical" name="LWAVE"> F  </i>
   <i type="logical" name="LCHARG"> F  </i>
   <i type="logical" name="LPARD"> F  </i>
   <i type="logical" name="LVTOT"> F  </i>
   <i type="logical" name="LELF"> F  </i>
   <i type="logical" name="LOPTICS"> F  </i>
   <i name="STM">      0.00000000</i>
  </separator>
  <separator name="performance" >
   <i type="int" name="NPAR">     8</i>
   <i type="int" name="NSIM">     4</i>
   <i type="int" name="NBLK">   256</i>
   <i type="logical" name="LPLANE"> T  </i>
   <i type="logical" name="LCRITICAL_MEM"> F  </i>
   <i type="logical" name="LSCALAPACK"> F  </i>
   <i type="logical" name="LSCALU"> F  </i>
   <i type="logical" name="LASYNC"> F  </i>
  </separator>
  <separator name="miscellaneous" >
   <i type="int" name="IDIOT">     3</i>
   <i type="logical" name="LMUSIC"> F  </i>
   <v name="POMASS">     26.98200000</v>
   <i type="logical" name="LCORR"> T  </i>
  </separator>
  <i type="logical" name="LREAL_COMPAT"> F  </i>
  <i type="logical" name="GGA_COMPAT"> T  </i>
  <i type="logical" name="LBERRY"> F  </i>
  <i type="int" name="ICORELEVEL">     0</i>
  <i type="logical" name="LDAU"> F  </i>
  <i type="int" name="I_CONSTRAINED_M">     0</i>
 </parameters>
 <atominfo>
  <atoms>      32</atoms>
  <types>       1</types>
  <array name="atoms" >
   <dimension dim="1">ion</dimension>
   <field type="string">element</field>
   <field type="int">atomtype</field>
   <set>
    <rc><c>Al</c><c>   1</c></rc>
    <rc><c>Al</c><c>   1</c></rc>
    <rc><c>Al</c><c>   1</c></rc>
    <rc><c>Al</c><c>   1</c></rc>
    <rc><c>Al</c><c>   1</c></rc>
    <rc><c>Al</c><c>   1</c></rc>
    <rc><c>Al</c><c>   1</c></rc>
    <rc><c>Al</c><c>   1</c></rc>
    <rc><c>Al</c><c>   1</c></rc>
    <rc><c>Al</c><c>   1</c></rc>
    <rc><c>Al</c><c>   1</c></rc>
    <rc><c>Al</c><c>   1</c></rc>
    <rc><c>Al</c><c>   1</c></rc>
    <rc><c>Al</c><c>   1</c></rc>
    <rc><c>Al</c><c>   1</c></rc>
    <rc><c>Al</c><c>   1</c></rc>
    <rc><c>Al</c><c>   1</c></rc>
    <rc><c>Al</c><c>   1</c></rc>
    <rc><c>Al</c><c>   1</c></rc>
    <rc><c>Al</c><c>   1</c></rc>
    <rc><c>Al</c><c>   1</c></rc>
    <rc><c>Al</c><c>   1</c></rc>
    <rc><c>Al</c><c>   1</c></rc>
    <rc><c>Al</c><c>   1</c></rc>
    <rc><c>Al</c><c>   1</c></rc>
    <rc><c>Al</c><c>   1</c></rc>
    <rc><c>Al</c><c>   1</c></rc>
    <rc><c>Al</c><c>   1</c></rc>
    <rc><c>Al</c><c>   1</c></rc>
    <rc><c>Al</c><c>   1</c></rc>
    <rc><c>Al</c><c>   1</c></rc>
    <rc><c>Al</c><c>   1</c></rc>
   </set>
  </array>
  <array name="atomtypes" >
   <dimension dim="1">type</dimension>
   <field type="int">atomspertype</field>
   <field type="string">element</field>
   <field>mass</field>
   <field>valence</field>
   <field type="string">pseudopotential</field>
   <set>
    <rc><c>  32</c><c>Al</c><c>     26.98200000</c><c>      3.00000000</c><c> PAW_PBE Al 04Jan2001                   </c></rc>
   </set>
  </array>
 </atominfo>
 <structure name="initialpos" >
  <crystal>
   <varray name="basis" >
    <v>       8.39737579      0.00000000      0.00000000</v>
    <v>       0.00000000      8.39737579      0.00000000</v>
    <v>       0.00000000      0.00000000      8.39737579</v>
   </varray>
   <i name="volume">    592.14868117</i>
   <varray name="rec_basis" >
    <v>       0.11908482      0.00000000      0.00000000</v>
    <v>       0.00000000      0.11908482      0.00000000</v>
    <v>       0.00000000      0.00000000      0.11908482</v>
   </varray>
  </crystal>
  <varray name="positions" >
   <v>       0.25119085      0.25000000      0.00000000</v>
   <v>       0.75000000      0.25000000      0.00000000</v>
   <v>       0.25000000      0.75000000      0.00000000</v>
   <v>       0.75000000      0.75000000      0.00000000</v>
   <v>       0.25000000      0.25000000      0.50000000</v>
   <v>       0.75000000      0.25000000      0.50000000</v>
   <v>       0.25000000      0.75000000      0.50000000</v>
   <v>       0.75000000      0.75000000      0.50000000</v>
   <v>       0.25000000      0.00000000      0.25000000</v>
   <v>       0.75000000      0.00000000      0.25000000</v>
   <v>       0.25000000      0.50000000      0.25000000</v>
   <v>       0.75000000      0.50000000      0.25000000</v>
   <v>       0.25000000      0.00000000      0.75000000</v>
   <v>       0.75000000      0.00000000      0.75000000</v>
   <v>       0.25000000      0.50000000      0.75000000</v>
   <v>       0.75000000      0.50000000      0.75000000</v>
   <v>       0.00000000      0.25000000      0.25000000</v>
   <v>       0.50000000      0.25000000      0.25000000</v>
   <v>       0.00000000      0.75000000      0.25000000</v>
   <v>       0.50000000      0.75000000      0.25000000</v>
   <v>       0.00000000      0.25000000      0.75000000</v>
   <v>       0.50000000      0.25000000      0.75000000</v>
   <v>       0.00000000      0.75000000      0.75000000</v>
   <v>       0.50000000      0.75000000      0.75000000</v>
   <v>       0.00000000      0.00000000      0.00000000</v>
   <v>       0.50000000      0.00000000      0.00000000</v>
   <v>       0.00000000      0.50000000      0.00000000</v>
   <v>       0.50000000      0.50000000      0.00000000</v>
   <v>       0.00000000      0.00000000      0.50000000</v>
   <v>       0.50000000      0.00000000      0.50000000</v>
   <v>       0.00000000      0.50000000      0.50000000</v>
   <v>       0.50000000      0.50000000      0.50000000</v>
  </varray>
 </structure>
 <calculation>
  <scstep>
   <time name="dav">   22.86   22.87</time>
   <time name="total">   23.06   23.07</time>
   <energy>
    <i name="alphaZ">     -5.80837820</i>
    <i name="ewald">  -2264.28466978</i>
    <i name="hartreedc">     -5.08528295</i>
    <i name="XCdc">   -846.12430682</i>
    <i name="pawpsdc">   1137.73615723</i>
    <i name="pawaedc">   -115.16745734</i>
    <i name="eentropy">     -0.00072790</i>
    <i name="bandstr">    493.64594164</i>
    <i name="atom">   1713.22913220</i>
    <i name="e_fr_energy">    108.14040808</i>
    <i name="e_wo_entrp">    108.14113598</i>
    <i name="e_0_energy">    108.14077203</i>
   </energy>
  </scstep>
  <scstep>
   <time name="dav">   25.83   25.82</time>
   <time name="total">   25.84   25.83</time>
   <energy>
    <i name="e_fr_energy">   -106.06441616</i>
    <i name="e_wo_entrp">   -106.06383477</i>
    <i name="e_0_energy">   -106.06412546</i>
   </energy>
  </scstep>
  <scstep>
   <time name="dav">   26.93   26.92</time>
   <time name="total">   26.93   26.93</time>
   <energy>
    <i name="e_fr_energy">   -118.65326187</i>
    <i name="e_wo_entrp">   -118.65219410</i>
    <i name="e_0_energy">   -118.65272798</i>
   </energy>
  </scstep>
  <scstep>
   <time name="dav">   25.44   25.43</time>
   <time name="total">   25.44   25.44</time>
   <energy>
    <i name="e_fr_energy">   -118.90834979</i>
    <i name="e_wo_entrp">   -118.90724559</i>
    <i name="e_0_energy">   -118.90779769</i>
   </energy>
  </scstep>
  <scstep>
   <time name="dav">   25.51   25.50</time>
   <time name="total">   26.74   26.73</time>
   <energy>
    <i name="e_fr_energy">   -118.91149752</i>
    <i name="e_wo_entrp">   -118.91039519</i>
    <i name="e_0_energy">   -118.91094636</i>
   </energy>
  </scstep>
  <scstep>
   <time name="dav">   24.55   24.55</time>
   <time name="total">   26.04   26.03</time>
   <energy>
    <i name="e_fr_energy">   -118.51830202</i>
    <i name="e_wo_entrp">   -118.51726919</i>
    <i name="e_0_energy">   -118.51778561</i>
   </energy>
  </scstep>
  <scstep>
   <time name="dav">   24.15   24.14</time>
   <time name="total">   25.68   25.67</time>
   <energy>
    <i name="e_fr_energy">   -118.23508849</i>
    <i name="e_wo_entrp">   -118.23430229</i>
    <i name="e_0_energy">   -118.23469539</i>
   </energy>
  </scstep>
  <scstep>
   <time name="dav">   25.72   25.71</time>
   <time name="total">   27.22   27.22</time>
   <energy>
    <i name="e_fr_energy">   -118.23498688</i>
    <i name="e_wo_entrp">   -118.23420576</i>
    <i name="e_0_energy">   -118.23459632</i>
   </energy>
  </scstep>
  <scstep>
   <time name="dav">   37.35   37.34</time>
   <time name="total">   39.00   38.99</time>
   <energy>
    <i name="e_fr_energy">   -118.23500200</i>
    <i name="e_wo_entrp">   -118.23422565</i>
    <i name="e_0_energy">   -118.23461383</i>
   </energy>
  </scstep>
  <scstep>
   <time name="dav">   35.65   35.64</time>
   <time name="total">   37.49   37.48</time>
   <energy>
    <i name="e_fr_energy">   -118.23500042</i>
    <i name="e_wo_entrp">   -118.23422440</i>
    <i name="e_0_energy">   -118.23461241</i>
   </energy>
  </scstep>
  <scstep>
   <time name="dav">   29.89   29.88</time>
   <time name="total">   31.60   31.59</time>
   <energy>
    <i name="e_fr_energy">   -118.23499707</i>
    <i name="e_wo_entrp">   -118.23422116</i>
    <i name="e_0_energy">   -118.23460911</i>
   </energy>
  </scstep>
  <scstep>
   <time name="dav">   18.07   18.06</time>
   <time name="total">   19.52   19.52</time>
   <energy>
    <i name="e_fr_energy">   -118.23499609</i>
    <i name="e_wo_entrp">   -118.23422025</i>
    <i name="e_0_energy">   -118.23460817</i>
   </energy>
  </scstep>
  <scstep>
   <time name="dav">   16.76   16.75</time>
   <time name="total">   18.25   18.24</time>
   <energy>
    <i name="e_fr_energy">   -118.23499600</i>
    <i name="e_wo_entrp">   -118.23422014</i>
    <i name="e_0_energy">   -118.23460807</i>
   </energy>
  </scstep>
  <scstep>
   <time name="dav">   16.89   16.88</time>
   <time name="total">   17.08   17.08</time>
   <energy>
    <i name="alphaZ">     -5.80837820</i>
    <i name="ewald">  -2264.28466978</i>
    <i name="hartreedc">     -3.19189385</i>
    <i name="XCdc">   -843.44692897</i>
    <i name="pawpsdc">   1132.14483976</i>
    <i name="pawaedc">   -109.49016587</i>
    <i name="eentropy">     -0.00077586</i>
    <i name="bandstr">    262.61384457</i>
    <i name="atom">   1713.22913220</i>
    <i name="e_fr_energy">   -118.23499600</i>
    <i name="e_wo_entrp">   -118.23422014</i>
    <i name="e_0_energy">   -118.23460807</i>
   </energy>
  </scstep>
  <structure>
   <crystal>
    <varray name="basis" >
     <v>       8.39737579      0.00000000      0.00000000</v>
     <v>       0.00000000      8.39737579      0.00000000</v>
     <v>       0.00000000      0.00000000      8.39737579</v>
    </varray>
    <i name="volume">    592.14868117</i>
    <varray name="rec_basis" >
     <v>       0.11908482      0.00000000      0.00000000</v>
     <v>       0.00000000      0.11908482      0.00000000</v>
     <v>       0.00000000      0.00000000      0.11908482</v>
    </varray>
   </crystal>
   <varray name="positions" >
    <v>       0.25119085      0.25000000      0.00000000</v>
    <v>       0.75000000      0.25000000      0.00000000</v>
    <v>       0.25000000      0.75000000      0.00000000</v>
    <v>       0.75000000      0.75000000      0.00000000</v>
    <v>       0.25000000      0.25000000      0.50000000</v>
    <v>       0.75000000      0.25000000      0.50000000</v>
    <v>       0.25000000      0.75000000      0.50000000</v>
    <v>       0.75000000      0.75000000      0.50000000</v>
    <v>       0.25000000      0.00000000      0.25000000</v>
    <v>       0.75000000      0.00000000      0.25000000</v>
    <v>       0.25000000      0.50000000      0.25000000</v>
    <v>       0.75000000      0.50000000      0.25000000</v>
    <v>       0.25000000      0.00000000      0.75000000</v>
    <v>       0.75000000      0.00000000      0.75000000</v>
    <v>       0.25000000      0.50000000      0.75000000</v>
    <v>       0.75000000      0.50000000      0.75000000</v>
    <v>       0.00000000      0.25000000      0.25000000</v>
    <v>       0.50000000      0.25000000      0.25000000</v>
    <v>       0.00000000      0.75000000      0.25000000</v>
    <v>       0.50000000      0.75000000      0.25000000</v>
    <v>       0.00000000      0.25000000      0.75000000</v>
    <v>       0.50000000      0.25000000      0.75000000</v>
    <v>       0.00000000      0.75000000      0.75000000</v>
    <v>       0.50000000      0.75000000      0.75000000</v>
    <v>       0.00000000      0.00000000      0.00000000</v>
    <v>       0.50000000      0.00000000      0.00000000</v>
    <v>       0.00000000      0.50000000      0.00000000</v>
    <v>       0.50000000      0.50000000      0.00000000</v>
    <v>       0.00000000      0.00000000      0.50000000</v>
    <v>       0.50000000      0.00000000      0.50000000</v>
    <v>       0.00000000      0.50000000      0.50000000</v>
    <v>       0.50000000      0.50000000      0.50000000</v>
   </varray>
  </structure>
  <varray name="forces" >
   <v>      -0.02820046     -0.00000000      0.00000000</v>
   <v>       0.00138178     -0.00000000      0.00000000</v>
   <v>      -0.00027961     -0.00000000      0.00000000</v>
   <v>       0.00035730     -0.00000000      0.00000000</v>
   <v>      -0.00027961      0.00000000     -0.00000000</v>
   <v>       0.00035730      0.00000000      0.00000000</v>
   <v>       0.00021936      0.00000000      0.00000000</v>
   <v>      -0.00030259      0.00000000     -0.00000000</v>
   <v>      -0.00117520      0.00001950     -0.00001950</v>
   <v>      -0.00073109      0.00000572     -0.00000572</v>
   <v>      -0.00117520     -0.00001950     -0.00001950</v>
   <v>      -0.00073109     -0.00000572     -0.00000572</v>
   <v>      -0.00117520      0.00001950      0.00001950</v>
   <v>      -0.00073109      0.00000572      0.00000572</v>
   <v>      -0.00117520     -0.00001950      0.00001950</v>
   <v>      -0.00073109     -0.00000572      0.00000572</v>
   <v>       0.00442204     -0.00000000     -0.00451114</v>
   <v>       0.00451116     -0.00000000      0.00463861</v>
   <v>      -0.00016648     -0.00000000      0.00058837</v>
   <v>      -0.00017379     -0.00000000     -0.00060255</v>
   <v>       0.00442204     -0.00000000      0.00451114</v>
   <v>       0.00451116      0.00000000     -0.00463861</v>
   <v>      -0.00016648      0.00000000     -0.00058837</v>
   <v>      -0.00017379      0.00000000      0.00060255</v>
   <v>       0.00442204      0.00451114      0.00000000</v>
   <v>       0.00451116     -0.00463861     -0.00000000</v>
   <v>       0.00442204     -0.00451114     -0.00000000</v>
   <v>       0.00451116      0.00463861     -0.00000000</v>
   <v>      -0.00016648     -0.00058837      0.00000000</v>
   <v>      -0.00017379      0.00060255      0.00000000</v>
   <v>      -0.00016648      0.00058837      0.00000000</v>
   <v>      -0.00017379     -0.00060255     -0.00000000</v>
  </varray>
  <varray name="stress" >
   <v>     -67.52502359     -0.00000000      0.00000000</v>
   <v>       0.00000000    -67.52777814      0.00000000</v>
   <v>       0.00000000      0.00000000    -67.52777814</v>
  </varray>
  <energy>
   <i name="e_fr_energy">   -118.23499600</i>
   <i name="e_wo_entrp">   -118.23460807</i>
   <i name="e_0_energy">     -0.00077586</i>
  </energy>
  <eigenvalues>
   <array>
    <dimension dim="1">band</dimension>
    <dimension dim="2">kpoint</dimension>
    <dimension dim="3">spin</dimension>
    <field>eigene</field>
    <field>occ</field>
    <set>
     <set comment="spin 1">
      <set comment="kpoint 1">
       <r>  -3.5115  1.0000</r>
       <r>  -1.4295  1.0000</r>
       <r>  -1.4260  1.0000</r>
       <r>  -1.4260  1.0000</r>
       <r>  -1.4260  1.0000</r>
       <r>  -1.4260  1.0000</r>
       <r>  -1.4225  1.0000</r>
       <r>   0.6263  1.0000</r>
       <r>   0.6307  1.0000</r>
       <r>   0.6307  1.0000</r>
       <r>   0.6322  1.0000</r>
       <r>   0.6323  1.0000</r>
       <r>   0.6323  1.0000</r>
       <r>   0.6323  1.0000</r>
       <r>   0.6323  1.0000</r>
       <r>   0.6325  1.0000</r>
       <r>   0.6340  1.0000</r>
       <r>   0.6340  1.0000</r>
       <r>   0.6384  1.0000</r>
       <r>   2.6208  1.0000</r>
       <r>   2.6209  1.0000</r>
       <r>   2.6209  1.0000</r>
       <r>   2.6209  1.0000</r>
       <r>   2.7098  1.0000</r>
       <r>   2.7099  1.0000</r>
       <r>   2.7099  1.0000</r>
       <r>   2.7099  1.0000</r>
       <r>   4.2072  1.0000</r>
       <r>   4.2072  1.0000</r>
       <r>   4.2072  1.0000</r>
       <r>   5.2490  1.0000</r>
       <r>   5.2490  1.0000</r>
       <r>   5.2490  1.0000</r>
       <r>   6.1496  1.0000</r>
       <r>   6.1496  1.0000</r>
       <r>   6.1537  1.0000</r>
       <r>   6.1537  1.0000</r>
       <r>   6.1538  1.0000</r>
       <r>   6.1538  1.0000</r>
       <r>   6.1538  1.0000</r>
       <r>   6.1538  1.0000</r>
       <r>   6.1539  1.0000</r>
       <r>   6.1539  1.0000</r>
       <r>   6.1579  1.0000</r>
       <r>   6.1579  1.0000</r>
       <r>   7.2117  0.0000</r>
       <r>   7.2156  0.0000</r>
       <r>   7.2156  0.0000</r>
       <r>   7.2156  0.0000</r>
       <r>   7.2156  0.0000</r>
       <r>   7.2194  0.0000</r>
       <r>   7.3538  0.0000</r>
       <r>   7.3547  0.0000</r>
       <r>   7.3547  0.0000</r>
       <r>   7.3547  0.0000</r>
       <r>   7.3547  0.0000</r>
       <r>   7.3556  0.0000</r>
       <r>   8.0982  0.0000</r>
       <r>   8.0982  0.0000</r>
       <r>   8.1000  0.0000</r>
       <r>   8.1020  0.0000</r>
       <r>   8.1021  0.0000</r>
       <r>   8.1021  0.0000</r>
       <r>   8.1021  0.0000</r>
       <r>   8.1021  0.0000</r>
       <r>   8.1022  0.0000</r>
       <r>   8.1042  0.0000</r>
       <r>   8.1060  0.0000</r>
       <r>   8.1060  0.0000</r>
       <r>   9.2601  0.0000</r>
       <r>   9.2621  0.0000</r>
       <r>   9.2633  0.0000</r>
      </set>
      <set comment="kpoint 2">
       <r>  -3.4533  1.0000</r>
       <r>  -2.0603  1.0000</r>
       <r>  -1.3684  1.0000</r>
       <r>  -1.3684  1.0000</r>
       <r>  -1.3684  1.0000</r>
       <r>  -1.3684  1.0000</r>
       <r>  -0.6798  1.0000</r>
       <r>   0.0062  1.0000</r>
       <r>   0.0062  1.0000</r>
       <r>   0.0062  1.0000</r>
       <r>   0.0062  1.0000</r>
       <r>   0.6891  1.0000</r>
       <r>   0.6891  1.0000</r>
       <r>   0.6891  1.0000</r>
       <r>   0.6891  1.0000</r>
       <r>   1.3690  1.0000</r>
       <r>   1.3690  1.0000</r>
       <r>   1.3690  1.0000</r>
       <r>   1.3690  1.0000</r>
       <r>   2.0454  1.0000</r>
       <r>   2.0454  1.0000</r>
       <r>   2.0454  1.0000</r>
       <r>   2.0454  1.0000</r>
       <r>   3.3401  1.0000</r>
       <r>   3.3946  1.0000</r>
       <r>   3.3946  1.0000</r>
       <r>   3.3946  1.0000</r>
       <r>   3.3946  1.0000</r>
       <r>   4.2612  1.0000</r>
       <r>   4.2612  1.0000</r>
       <r>   5.3062  1.0000</r>
       <r>   5.3064  1.0000</r>
       <r>   5.3279  1.0000</r>
       <r>   5.3279  1.0000</r>
       <r>   5.3279  1.0000</r>
       <r>   5.3282  1.0000</r>
       <r>   5.5585  1.0000</r>
       <r>   5.5585  1.0000</r>
       <r>   6.2079  1.0000</r>
       <r>   6.2079  1.0000</r>
       <r>   6.2079  1.0000</r>
       <r>   6.2079  1.0000</r>
       <r>   6.2186  1.0000</r>
       <r>   6.6671  1.0000</r>
       <r>   6.6671  1.0000</r>
       <r>   6.8578  1.0000</r>
       <r>   6.8578  1.0000</r>
       <r>   7.3000  0.0000</r>
       <r>   7.3000  0.0000</r>
       <r>   7.3000  0.0000</r>
       <r>   7.3001  0.0000</r>
       <r>   7.3369  0.0000</r>
       <r>   7.3369  0.0000</r>
       <r>   7.3369  0.0000</r>
       <r>   7.3370  0.0000</r>
       <r>   7.5066  0.0000</r>
       <r>   7.5066  0.0000</r>
       <r>   7.5067  0.0000</r>
       <r>   7.5067  0.0000</r>
       <r>   8.0049  0.0000</r>
       <r>   8.0049  0.0000</r>
       <r>   8.2147  0.0000</r>
       <r>   8.2147  0.0000</r>
       <r>   8.2147  0.0000</r>
       <r>   8.2147  0.0000</r>
       <r>   8.6652  0.0000</r>
       <r>   8.6652  0.0000</r>
       <r>   8.6652  0.0000</r>
       <r>   8.6653  0.0000</r>
       <r>   8.8059  0.0000</r>
       <r>   8.8059  0.0000</r>
       <r>   8.8059  0.0000</r>
      </set>
      <set comment="kpoint 3">
       <r>  -3.2785  1.0000</r>
       <r>  -2.5812  1.0000</r>
       <r>  -1.1960  1.0000</r>
       <r>  -1.1960  1.0000</r>
       <r>  -1.1960  1.0000</r>
       <r>  -1.1960  1.0000</r>
       <r>  -0.5080  1.0000</r>
       <r>  -0.5079  1.0000</r>
       <r>  -0.5079  1.0000</r>
       <r>  -0.5079  1.0000</r>
       <r>   0.1762  1.0000</r>
       <r>   0.8593  1.0000</r>
       <r>   0.8593  1.0000</r>
       <r>   0.8593  1.0000</r>
       <r>   0.8593  1.0000</r>
       <r>   1.5384  1.0000</r>
       <r>   1.5384  1.0000</r>
       <r>   1.5384  1.0000</r>
       <r>   1.5384  1.0000</r>
       <r>   2.2016  1.0000</r>
       <r>   2.2140  1.0000</r>
       <r>   2.2140  1.0000</r>
       <r>   2.2140  1.0000</r>
       <r>   2.2141  1.0000</r>
       <r>   4.2115  1.0000</r>
       <r>   4.2115  1.0000</r>
       <r>   4.2115  1.0000</r>
       <r>   4.2115  1.0000</r>
       <r>   4.2287  1.0000</r>
       <r>   4.2287  1.0000</r>
       <r>   4.2287  1.0000</r>
       <r>   4.2287  1.0000</r>
       <r>   4.4233  1.0000</r>
       <r>   4.4233  1.0000</r>
       <r>   5.0718  1.0000</r>
       <r>   5.0718  1.0000</r>
       <r>   5.4783  1.0000</r>
       <r>   5.4783  1.0000</r>
       <r>   6.1610  1.0000</r>
       <r>   6.1611  1.0000</r>
       <r>   6.2008  1.0000</r>
       <r>   6.2008  1.0000</r>
       <r>   6.2008  1.0000</r>
       <r>   6.2009  1.0000</r>
       <r>   6.3702  1.0000</r>
       <r>   6.3702  1.0000</r>
       <r>   6.3702  1.0000</r>
       <r>   6.3702  1.0000</r>
       <r>   7.0195  0.0000</r>
       <r>   7.0195  0.0000</r>
       <r>   7.0195  0.0000</r>
       <r>   7.0195  0.0000</r>
       <r>   7.5064  0.0000</r>
       <r>   7.5064  0.0000</r>
       <r>   7.5064  0.0000</r>
       <r>   7.5064  0.0000</r>
       <r>   7.6641  0.0000</r>
       <r>   7.6707  0.0000</r>
       <r>   7.6707  0.0000</r>
       <r>   8.1715  0.0000</r>
       <r>   8.1715  0.0000</r>
       <r>   8.1715  0.0000</r>
       <r>   8.1715  0.0000</r>
       <r>   8.8131  0.0000</r>
       <r>   8.8131  0.0000</r>
       <r>   9.6177  0.0000</r>
       <r>   9.6179  0.0000</r>
       <r>   9.6202  0.0000</r>
       <r>   9.6214  0.0000</r>
       <r>   9.6236  0.0000</r>
       <r>   9.6252  0.0000</r>
       <r>   9.6262  0.0000</r>
      </set>
      <set comment="kpoint 4">
       <r>  -2.9889  1.0000</r>
       <r>  -2.9862  1.0000</r>
       <r>  -0.9127  1.0000</r>
       <r>  -0.9097  1.0000</r>
       <r>  -0.9097  1.0000</r>
       <r>  -0.9090  1.0000</r>
       <r>  -0.9089  1.0000</r>
       <r>  -0.9082  1.0000</r>
       <r>  -0.9082  1.0000</r>
       <r>  -0.9052  1.0000</r>
       <r>   1.1360  1.0000</r>
       <r>   1.1389  1.0000</r>
       <r>   1.1414  1.0000</r>
       <r>   1.1414  1.0000</r>
       <r>   1.1416  1.0000</r>
       <r>   1.1423  1.0000</r>
       <r>   1.1430  1.0000</r>
       <r>   1.1438  1.0000</r>
       <r>   1.1438  1.0000</r>
       <r>   1.1464  1.0000</r>
       <r>   3.1627  1.0000</r>
       <r>   3.1633  1.0000</r>
       <r>   3.1633  1.0000</r>
       <r>   3.1639  1.0000</r>
       <r>   3.1641  1.0000</r>
       <r>   3.1647  1.0000</r>
       <r>   3.1647  1.0000</r>
       <r>   3.1654  1.0000</r>
       <r>   4.6920  1.0000</r>
       <r>   4.6920  1.0000</r>
       <r>   4.6948  1.0000</r>
       <r>   4.6948  1.0000</r>
       <r>   5.1657  1.0000</r>
       <r>   5.1657  1.0000</r>
       <r>   5.1664  1.0000</r>
       <r>   5.1665  1.0000</r>
       <r>   5.1671  1.0000</r>
       <r>   5.1672  1.0000</r>
       <r>   5.1680  1.0000</r>
       <r>   5.1680  1.0000</r>
       <r>   5.7621  1.0000</r>
       <r>   5.7628  1.0000</r>
       <r>   5.7646  1.0000</r>
       <r>   5.7654  1.0000</r>
       <r>   6.6385  1.0000</r>
       <r>   6.6385  1.0000</r>
       <r>   6.6395  1.0000</r>
       <r>   6.6406  1.0000</r>
       <r>   6.6407  1.0000</r>
       <r>   6.6419  1.0000</r>
       <r>   6.6429  1.0000</r>
       <r>   6.6429  1.0000</r>
       <r>   7.7823  0.0000</r>
       <r>   7.7835  0.0000</r>
       <r>   7.7835  0.0000</r>
       <r>   7.7836  0.0000</r>
       <r>   7.7854  0.0000</r>
       <r>   7.7855  0.0000</r>
       <r>   7.7855  0.0000</r>
       <r>   7.7868  0.0000</r>
       <r>   8.5913  0.0000</r>
       <r>   8.5913  0.0000</r>
       <r>   8.5935  0.0000</r>
       <r>   8.5935  0.0000</r>
       <r>   9.2366  0.0000</r>
       <r>   9.2382  0.0000</r>
       <r>   9.7003  0.0000</r>
       <r>   9.7009  0.0000</r>
       <r>   9.7021  0.0000</r>
       <r>   9.7027  0.0000</r>
       <r>  10.5372  0.0000</r>
       <r>  10.5383  0.0000</r>
      </set>
      <set comment="kpoint 5">
       <r>  -3.4533  1.0000</r>
       <r>  -2.0603  1.0000</r>
       <r>  -1.3712  1.0000</r>
       <r>  -1.3684  1.0000</r>
       <r>  -1.3684  1.0000</r>
       <r>  -1.3657  1.0000</r>
       <r>  -0.6798  1.0000</r>
       <r>   0.0035  1.0000</r>
       <r>   0.0062  1.0000</r>
       <r>   0.0062  1.0000</r>
       <r>   0.0089  1.0000</r>
       <r>   0.6870  1.0000</r>
       <r>   0.6881  1.0000</r>
       <r>   0.6901  1.0000</r>
       <r>   0.6913  1.0000</r>
       <r>   1.3663  1.0000</r>
       <r>   1.3690  1.0000</r>
       <r>   1.3690  1.0000</r>
       <r>   1.3717  1.0000</r>
       <r>   2.0433  1.0000</r>
       <r>   2.0444  1.0000</r>
       <r>   2.0465  1.0000</r>
       <r>   2.0476  1.0000</r>
       <r>   3.3401  1.0000</r>
       <r>   3.3924  1.0000</r>
       <r>   3.3935  1.0000</r>
       <r>   3.3956  1.0000</r>
       <r>   3.3967  1.0000</r>
       <r>   4.2612  1.0000</r>
       <r>   4.2612  1.0000</r>
       <r>   5.3063  1.0000</r>
       <r>   5.3064  1.0000</r>
       <r>   5.3251  1.0000</r>
       <r>   5.3279  1.0000</r>
       <r>   5.3279  1.0000</r>
       <r>   5.3308  1.0000</r>
       <r>   5.5585  1.0000</r>
       <r>   5.5585  1.0000</r>
       <r>   6.2053  1.0000</r>
       <r>   6.2078  1.0000</r>
       <r>   6.2079  1.0000</r>
       <r>   6.2104  1.0000</r>
       <r>   6.2187  1.0000</r>
       <r>   6.6670  1.0000</r>
       <r>   6.6671  1.0000</r>
       <r>   6.8578  1.0000</r>
       <r>   6.8578  1.0000</r>
       <r>   7.2977  0.0000</r>
       <r>   7.2991  0.0000</r>
       <r>   7.3011  0.0000</r>
       <r>   7.3025  0.0000</r>
       <r>   7.3349  0.0000</r>
       <r>   7.3369  0.0000</r>
       <r>   7.3369  0.0000</r>
       <r>   7.3389  0.0000</r>
       <r>   7.5041  0.0000</r>
       <r>   7.5066  0.0000</r>
       <r>   7.5067  0.0000</r>
       <r>   7.5092  0.0000</r>
       <r>   8.0049  0.0000</r>
       <r>   8.0049  0.0000</r>
       <r>   8.2122  0.0000</r>
       <r>   8.2147  0.0000</r>
       <r>   8.2147  0.0000</r>
       <r>   8.2172  0.0000</r>
       <r>   8.6632  0.0000</r>
       <r>   8.6652  0.0000</r>
       <r>   8.6652  0.0000</r>
       <r>   8.6672  0.0000</r>
       <r>   8.8036  0.0000</r>
       <r>   8.8059  0.0000</r>
       <r>   8.8065  0.0000</r>
      </set>
      <set comment="kpoint 6">
       <r>  -3.3950  1.0000</r>
       <r>  -2.0036  1.0000</r>
       <r>  -2.0014  1.0000</r>
       <r>  -1.3109  1.0000</r>
       <r>  -1.3109  1.0000</r>
       <r>  -0.6243  1.0000</r>
       <r>  -0.6225  1.0000</r>
       <r>  -0.6207  1.0000</r>
       <r>   0.0617  1.0000</r>
       <r>   0.0625  1.0000</r>
       <r>   0.0639  1.0000</r>
       <r>   0.0647  1.0000</r>
       <r>   0.7451  1.0000</r>
       <r>   0.7462  1.0000</r>
       <r>   1.4231  1.0000</r>
       <r>   1.4243  1.0000</r>
       <r>   1.4254  1.0000</r>
       <r>   1.4254  1.0000</r>
       <r>   1.4266  1.0000</r>
       <r>   1.4278  1.0000</r>
       <r>   2.1023  1.0000</r>
       <r>   2.7360  1.0000</r>
       <r>   2.7360  1.0000</r>
       <r>   2.8185  1.0000</r>
       <r>   2.8185  1.0000</r>
       <r>   3.3950  1.0000</r>
       <r>   3.3960  1.0000</r>
       <r>   4.1186  1.0000</r>
       <r>   4.1186  1.0000</r>
       <r>   4.3152  1.0000</r>
       <r>   4.7213  1.0000</r>
       <r>   4.7236  1.0000</r>
       <r>   5.3636  1.0000</r>
       <r>   5.3747  1.0000</r>
       <r>   5.3748  1.0000</r>
       <r>   5.3914  1.0000</r>
       <r>   5.3914  1.0000</r>
       <r>   5.6114  1.0000</r>
       <r>   5.6138  1.0000</r>
       <r>   6.0399  1.0000</r>
       <r>   6.0411  1.0000</r>
       <r>   6.2740  1.0000</r>
       <r>   6.2750  1.0000</r>
       <r>   6.6977  1.0000</r>
       <r>   6.6986  1.0000</r>
       <r>   6.7000  1.0000</r>
       <r>   6.7008  1.0000</r>
       <r>   6.7256  1.0000</r>
       <r>   6.7275  1.0000</r>
       <r>   6.9094  0.0056</r>
       <r>   6.9116  0.0022</r>
       <r>   6.9138  0.0008</r>
       <r>   7.5982  0.0000</r>
       <r>   7.5995  0.0000</r>
       <r>   8.0067  0.0000</r>
       <r>   8.0078  0.0000</r>
       <r>   8.0078  0.0000</r>
       <r>   8.0088  0.0000</r>
       <r>   8.0624  0.0000</r>
       <r>   8.0646  0.0000</r>
       <r>   8.0661  0.0000</r>
       <r>   8.2094  0.0000</r>
       <r>   8.2110  0.0000</r>
       <r>   8.2116  0.0000</r>
       <r>   8.2124  0.0000</r>
       <r>   8.3191  0.0000</r>
       <r>   8.3191  0.0000</r>
       <r>   8.9156  0.0000</r>
       <r>   8.9178  0.0000</r>
       <r>   9.3671  0.0000</r>
       <r>   9.3673  0.0000</r>
       <r>   9.5099  0.0000</r>
      </set>
      <set comment="kpoint 7">
       <r>  -3.2203  1.0000</r>
       <r>  -2.5232  1.0000</r>
       <r>  -1.8294  1.0000</r>
       <r>  -1.1399  1.0000</r>
       <r>  -1.1385  1.0000</r>
       <r>  -1.1372  1.0000</r>
       <r>  -0.4522  1.0000</r>
       <r>  -0.4508  1.0000</r>
       <r>  -0.4495  1.0000</r>
       <r>   0.2316  1.0000</r>
       <r>   0.2339  1.0000</r>
       <r>   0.2341  1.0000</r>
       <r>   0.2356  1.0000</r>
       <r>   0.9158  1.0000</r>
       <r>   0.9158  1.0000</r>
       <r>   1.5937  1.0000</r>
       <r>   1.5949  1.0000</r>
       <r>   1.5953  1.0000</r>
       <r>   2.2576  1.0000</r>
       <r>   2.2688  1.0000</r>
       <r>   2.2695  1.0000</r>
       <r>   2.2713  1.0000</r>
       <r>   2.2722  1.0000</r>
       <r>   2.9435  1.0000</r>
       <r>   3.5618  1.0000</r>
       <r>   3.5998  1.0000</r>
       <r>   3.6162  1.0000</r>
       <r>   3.6162  1.0000</r>
       <r>   4.2258  1.0000</r>
       <r>   4.2670  1.0000</r>
       <r>   4.2671  1.0000</r>
       <r>   4.4773  1.0000</r>
       <r>   4.9314  1.0000</r>
       <r>   4.9497  1.0000</r>
       <r>   4.9497  1.0000</r>
       <r>   5.1258  1.0000</r>
       <r>   5.5355  1.0000</r>
       <r>   5.5479  1.0000</r>
       <r>   5.5480  1.0000</r>
       <r>   5.5953  1.0000</r>
       <r>   5.5953  1.0000</r>
       <r>   5.7748  1.0000</r>
       <r>   6.2066  1.0000</r>
       <r>   6.2066  1.0000</r>
       <r>   6.2170  1.0000</r>
       <r>   6.4240  1.0000</r>
       <r>   6.4419  1.0000</r>
       <r>   6.8629  1.0000</r>
       <r>   6.8948  0.3203</r>
       <r>   6.9135  0.0009</r>
       <r>   6.9136  0.0009</r>
       <r>   7.0742  0.0000</r>
       <r>   7.1080  0.0000</r>
       <r>   7.5649  0.0000</r>
       <r>   7.7191  0.0000</r>
       <r>   7.7225  0.0000</r>
       <r>   7.7259  0.0000</r>
       <r>   8.2174  0.0000</r>
       <r>   8.4275  0.0000</r>
       <r>   8.4275  0.0000</r>
       <r>   8.8048  0.0000</r>
       <r>   8.8206  0.0000</r>
       <r>   8.8207  0.0000</r>
       <r>   8.8680  0.0000</r>
       <r>   8.8784  0.0000</r>
       <r>   9.0231  0.0000</r>
       <r>   9.0361  0.0000</r>
       <r>   9.0830  0.0000</r>
       <r>   9.0830  0.0000</r>
       <r>   9.6780  0.0000</r>
       <r>   9.6806  0.0000</r>
       <r>   9.6845  0.0000</r>
      </set>
      <set comment="kpoint 8">
       <r>  -2.9308  1.0000</r>
       <r>  -2.9281  1.0000</r>
       <r>  -1.5425  1.0000</r>
       <r>  -1.5398  1.0000</r>
       <r>  -0.8535  1.0000</r>
       <r>  -0.8524  1.0000</r>
       <r>  -0.8509  1.0000</r>
       <r>  -0.8497  1.0000</r>
       <r>  -0.1666  1.0000</r>
       <r>  -0.1639  1.0000</r>
       <r>   0.5166  1.0000</r>
       <r>   0.5177  1.0000</r>
       <r>   0.5193  1.0000</r>
       <r>   0.5204  1.0000</r>
       <r>   1.1947  1.0000</r>
       <r>   1.1961  1.0000</r>
       <r>   1.8750  1.0000</r>
       <r>   1.8761  1.0000</r>
       <r>   1.8777  1.0000</r>
       <r>   1.8788  1.0000</r>
       <r>   2.5471  1.0000</r>
       <r>   2.5485  1.0000</r>
       <r>   3.2192  1.0000</r>
       <r>   3.2192  1.0000</r>
       <r>   3.2206  1.0000</r>
       <r>   3.2207  1.0000</r>
       <r>   3.8373  1.0000</r>
       <r>   3.8401  1.0000</r>
       <r>   3.8884  1.0000</r>
       <r>   3.8899  1.0000</r>
       <r>   4.5566  1.0000</r>
       <r>   4.5567  1.0000</r>
       <r>   4.5581  1.0000</r>
       <r>   4.5581  1.0000</r>
       <r>   4.7460  1.0000</r>
       <r>   4.7489  1.0000</r>
       <r>   5.8193  1.0000</r>
       <r>   5.8206  1.0000</r>
       <r>   5.8219  1.0000</r>
       <r>   5.8219  1.0000</r>
       <r>   5.8233  1.0000</r>
       <r>   5.8246  1.0000</r>
       <r>   5.8833  1.0000</r>
       <r>   5.8834  1.0000</r>
       <r>   5.8848  1.0000</r>
       <r>   5.8848  1.0000</r>
       <r>   6.0438  1.0000</r>
       <r>   6.0467  1.0000</r>
       <r>   6.7189  1.0000</r>
       <r>   6.7216  1.0000</r>
       <r>   7.1736  0.0000</r>
       <r>   7.1761  0.0000</r>
       <r>   7.3434  0.0000</r>
       <r>   7.3462  0.0000</r>
       <r>   7.7841  0.0000</r>
       <r>   7.7859  0.0000</r>
       <r>   8.4936  0.0000</r>
       <r>   8.4962  0.0000</r>
       <r>   8.6453  0.0000</r>
       <r>   8.6476  0.0000</r>
       <r>   8.6999  0.0000</r>
       <r>   8.7008  0.0000</r>
       <r>   8.7026  0.0000</r>
       <r>   8.7035  0.0000</r>
       <r>   9.2908  0.0000</r>
       <r>   9.2924  0.0000</r>
       <r>   9.7345  0.0000</r>
       <r>   9.7348  0.0000</r>
       <r>   9.7363  0.0000</r>
       <r>   9.7365  0.0000</r>
       <r>   9.7550  0.0000</r>
       <r>   9.7556  0.0000</r>
      </set>
      <set comment="kpoint 9">
       <r>  -3.2785  1.0000</r>
       <r>  -2.5812  1.0000</r>
       <r>  -1.1987  1.0000</r>
       <r>  -1.1960  1.0000</r>
       <r>  -1.1960  1.0000</r>
       <r>  -1.1933  1.0000</r>
       <r>  -0.5107  1.0000</r>
       <r>  -0.5079  1.0000</r>
       <r>  -0.5079  1.0000</r>
       <r>  -0.5052  1.0000</r>
       <r>   0.1762  1.0000</r>
       <r>   0.8572  1.0000</r>
       <r>   0.8583  1.0000</r>
       <r>   0.8604  1.0000</r>
       <r>   0.8615  1.0000</r>
       <r>   1.5362  1.0000</r>
       <r>   1.5373  1.0000</r>
       <r>   1.5394  1.0000</r>
       <r>   1.5405  1.0000</r>
       <r>   2.2017  1.0000</r>
       <r>   2.2113  1.0000</r>
       <r>   2.2140  1.0000</r>
       <r>   2.2140  1.0000</r>
       <r>   2.2168  1.0000</r>
       <r>   4.2087  1.0000</r>
       <r>   4.2115  1.0000</r>
       <r>   4.2115  1.0000</r>
       <r>   4.2143  1.0000</r>
       <r>   4.2265  1.0000</r>
       <r>   4.2276  1.0000</r>
       <r>   4.2297  1.0000</r>
       <r>   4.2308  1.0000</r>
       <r>   4.4233  1.0000</r>
       <r>   4.4233  1.0000</r>
       <r>   5.0718  1.0000</r>
       <r>   5.0718  1.0000</r>
       <r>   5.4783  1.0000</r>
       <r>   5.4783  1.0000</r>
       <r>   6.1609  1.0000</r>
       <r>   6.1611  1.0000</r>
       <r>   6.1986  1.0000</r>
       <r>   6.1997  1.0000</r>
       <r>   6.2018  1.0000</r>
       <r>   6.2031  1.0000</r>
       <r>   6.3676  1.0000</r>
       <r>   6.3702  1.0000</r>
       <r>   6.3702  1.0000</r>
       <r>   6.3727  1.0000</r>
       <r>   7.0169  0.0000</r>
       <r>   7.0195  0.0000</r>
       <r>   7.0195  0.0000</r>
       <r>   7.0221  0.0000</r>
       <r>   7.5044  0.0000</r>
       <r>   7.5064  0.0000</r>
       <r>   7.5064  0.0000</r>
       <r>   7.5083  0.0000</r>
       <r>   7.6637  0.0000</r>
       <r>   7.6707  0.0000</r>
       <r>   7.6711  0.0000</r>
       <r>   8.1695  0.0000</r>
       <r>   8.1715  0.0000</r>
       <r>   8.1715  0.0000</r>
       <r>   8.1734  0.0000</r>
       <r>   8.8131  0.0000</r>
       <r>   8.8131  0.0000</r>
       <r>   9.6168  0.0000</r>
       <r>   9.6178  0.0000</r>
       <r>   9.6198  0.0000</r>
       <r>   9.6206  0.0000</r>
       <r>   9.6236  0.0000</r>
       <r>   9.6252  0.0000</r>
       <r>   9.6268  0.0000</r>
      </set>
      <set comment="kpoint 10">
       <r>  -3.2202  1.0000</r>
       <r>  -2.5233  1.0000</r>
       <r>  -1.8294  1.0000</r>
       <r>  -1.1399  1.0000</r>
       <r>  -1.1385  1.0000</r>
       <r>  -1.1372  1.0000</r>
       <r>  -0.4522  1.0000</r>
       <r>  -0.4508  1.0000</r>
       <r>  -0.4495  1.0000</r>
       <r>   0.2317  1.0000</r>
       <r>   0.2336  1.0000</r>
       <r>   0.2341  1.0000</r>
       <r>   0.2359  1.0000</r>
       <r>   0.9158  1.0000</r>
       <r>   0.9158  1.0000</r>
       <r>   1.5930  1.0000</r>
       <r>   1.5950  1.0000</r>
       <r>   1.5960  1.0000</r>
       <r>   2.2576  1.0000</r>
       <r>   2.2698  1.0000</r>
       <r>   2.2699  1.0000</r>
       <r>   2.2709  1.0000</r>
       <r>   2.2712  1.0000</r>
       <r>   2.9435  1.0000</r>
       <r>   3.5618  1.0000</r>
       <r>   3.5998  1.0000</r>
       <r>   3.6162  1.0000</r>
       <r>   3.6162  1.0000</r>
       <r>   4.2257  1.0000</r>
       <r>   4.2670  1.0000</r>
       <r>   4.2671  1.0000</r>
       <r>   4.4773  1.0000</r>
       <r>   4.9314  1.0000</r>
       <r>   4.9497  1.0000</r>
       <r>   4.9497  1.0000</r>
       <r>   5.1258  1.0000</r>
       <r>   5.5353  1.0000</r>
       <r>   5.5480  1.0000</r>
       <r>   5.5482  1.0000</r>
       <r>   5.5953  1.0000</r>
       <r>   5.5953  1.0000</r>
       <r>   5.7748  1.0000</r>
       <r>   6.2064  1.0000</r>
       <r>   6.2066  1.0000</r>
       <r>   6.2172  1.0000</r>
       <r>   6.4240  1.0000</r>
       <r>   6.4419  1.0000</r>
       <r>   6.8629  1.0000</r>
       <r>   6.8948  0.3203</r>
       <r>   6.9136  0.0009</r>
       <r>   6.9136  0.0009</r>
       <r>   7.0742  0.0000</r>
       <r>   7.1080  0.0000</r>
       <r>   7.5649  0.0000</r>
       <r>   7.7191  0.0000</r>
       <r>   7.7232  0.0000</r>
       <r>   7.7252  0.0000</r>
       <r>   8.2174  0.0000</r>
       <r>   8.4275  0.0000</r>
       <r>   8.4275  0.0000</r>
       <r>   8.8048  0.0000</r>
       <r>   8.8206  0.0000</r>
       <r>   8.8206  0.0000</r>
       <r>   8.8681  0.0000</r>
       <r>   8.8783  0.0000</r>
       <r>   9.0231  0.0000</r>
       <r>   9.0361  0.0000</r>
       <r>   9.0830  0.0000</r>
       <r>   9.0830  0.0000</r>
       <r>   9.6775  0.0000</r>
       <r>   9.6806  0.0000</r>
       <r>   9.6998  0.0000</r>
      </set>
      <set comment="kpoint 11">
       <r>  -3.0457  1.0000</r>
       <r>  -2.3506  1.0000</r>
       <r>  -2.3484  1.0000</r>
       <r>  -1.6564  1.0000</r>
       <r>  -0.9664  1.0000</r>
       <r>  -0.9663  1.0000</r>
       <r>  -0.2809  1.0000</r>
       <r>  -0.2800  1.0000</r>
       <r>  -0.2787  1.0000</r>
       <r>  -0.2778  1.0000</r>
       <r>   0.4022  1.0000</r>
       <r>   0.4041  1.0000</r>
       <r>   0.4047  1.0000</r>
       <r>   0.4061  1.0000</r>
       <r>   1.0844  1.0000</r>
       <r>   1.0855  1.0000</r>
       <r>   2.4254  1.0000</r>
       <r>   2.4265  1.0000</r>
       <r>   2.4374  1.0000</r>
       <r>   2.4381  1.0000</r>
       <r>   2.4395  1.0000</r>
       <r>   2.4405  1.0000</r>
       <r>   3.0799  1.0000</r>
       <r>   3.0800  1.0000</r>
       <r>   3.0966  1.0000</r>
       <r>   3.0989  1.0000</r>
       <r>   3.1440  1.0000</r>
       <r>   3.1440  1.0000</r>
       <r>   3.7804  1.0000</r>
       <r>   4.4305  1.0000</r>
       <r>   4.4305  1.0000</r>
       <r>   4.4366  1.0000</r>
       <r>   4.4366  1.0000</r>
       <r>   4.6393  1.0000</r>
       <r>   5.0967  1.0000</r>
       <r>   5.0976  1.0000</r>
       <r>   5.0989  1.0000</r>
       <r>   5.0998  1.0000</r>
       <r>   5.2868  1.0000</r>
       <r>   5.2892  1.0000</r>
       <r>   5.7067  1.0000</r>
       <r>   5.7563  1.0000</r>
       <r>   5.7573  1.0000</r>
       <r>   5.7770  1.0000</r>
       <r>   5.7771  1.0000</r>
       <r>   5.9370  1.0000</r>
       <r>   6.3889  1.0000</r>
       <r>   6.3908  1.0000</r>
       <r>   7.0636  0.0000</r>
       <r>   7.7126  0.0000</r>
       <r>   7.7304  0.0000</r>
       <r>   7.7314  0.0000</r>
       <r>   7.7315  0.0000</r>
       <r>   7.7325  0.0000</r>
       <r>   7.8834  0.0000</r>
       <r>   7.8845  0.0000</r>
       <r>   7.8858  0.0000</r>
       <r>   7.8883  0.0000</r>
       <r>   8.5347  0.0000</r>
       <r>   8.5354  0.0000</r>
       <r>   8.5360  0.0000</r>
       <r>   8.5373  0.0000</r>
       <r>   9.0353  0.0000</r>
       <r>   9.0369  0.0000</r>
       <r>   9.6645  0.0000</r>
       <r>   9.6645  0.0000</r>
       <r>   9.6773  0.0000</r>
       <r>   9.6775  0.0000</r>
       <r>   9.7980  0.0000</r>
       <r>   9.7980  0.0000</r>
       <r>   9.8385  0.0000</r>
       <r>   9.8423  0.0000</r>
      </set>
      <set comment="kpoint 12">
       <r>  -2.7566  1.0000</r>
       <r>  -2.7539  1.0000</r>
       <r>  -2.0617  1.0000</r>
       <r>  -2.0590  1.0000</r>
       <r>  -0.6817  1.0000</r>
       <r>  -0.6805  1.0000</r>
       <r>  -0.6790  1.0000</r>
       <r>  -0.6778  1.0000</r>
       <r>   0.0041  1.0000</r>
       <r>   0.0052  1.0000</r>
       <r>   0.0068  1.0000</r>
       <r>   0.0079  1.0000</r>
       <r>   0.6866  1.0000</r>
       <r>   0.6893  1.0000</r>
       <r>   1.3643  1.0000</r>
       <r>   1.3658  1.0000</r>
       <r>   2.0412  1.0000</r>
       <r>   2.0426  1.0000</r>
       <r>   2.7048  1.0000</r>
       <r>   2.7076  1.0000</r>
       <r>   2.7173  1.0000</r>
       <r>   2.7184  1.0000</r>
       <r>   2.7200  1.0000</r>
       <r>   2.7211  1.0000</r>
       <r>   3.3868  1.0000</r>
       <r>   3.3868  1.0000</r>
       <r>   3.3882  1.0000</r>
       <r>   3.3882  1.0000</r>
       <r>   4.0565  1.0000</r>
       <r>   4.0565  1.0000</r>
       <r>   4.0579  1.0000</r>
       <r>   4.0580  1.0000</r>
       <r>   4.7088  1.0000</r>
       <r>   4.7100  1.0000</r>
       <r>   4.7116  1.0000</r>
       <r>   4.7128  1.0000</r>
       <r>   4.7202  1.0000</r>
       <r>   4.7217  1.0000</r>
       <r>   4.9081  1.0000</r>
       <r>   4.9110  1.0000</r>
       <r>   5.5569  1.0000</r>
       <r>   5.5598  1.0000</r>
       <r>   5.9893  1.0000</r>
       <r>   5.9919  1.0000</r>
       <r>   6.6697  1.0000</r>
       <r>   6.6722  1.0000</r>
       <r>   6.6881  1.0000</r>
       <r>   6.6897  1.0000</r>
       <r>   6.7061  1.0000</r>
       <r>   6.7062  1.0000</r>
       <r>   6.7077  1.0000</r>
       <r>   6.7077  1.0000</r>
       <r>   8.1562  0.0000</r>
       <r>   8.1563  0.0000</r>
       <r>   8.1590  0.0000</r>
       <r>   8.1590  0.0000</r>
       <r>   8.6501  0.0000</r>
       <r>   8.6502  0.0000</r>
       <r>   8.6518  0.0000</r>
       <r>   8.6518  0.0000</r>
       <r>   8.8076  0.0000</r>
       <r>   8.8099  0.0000</r>
       <r>   9.2955  0.0000</r>
       <r>   9.2982  0.0000</r>
       <r>   9.4530  0.0000</r>
       <r>   9.4546  0.0000</r>
       <r>   9.4564  0.0000</r>
       <r>   9.4587  0.0000</r>
       <r>   9.9164  0.0000</r>
       <r>   9.9170  0.0000</r>
       <r>  10.1074  0.0000</r>
       <r>  10.1094  0.0000</r>
      </set>
      <set comment="kpoint 13">
       <r>  -2.9876  1.0000</r>
       <r>  -2.9876  1.0000</r>
       <r>  -0.9139  1.0000</r>
       <r>  -0.9094  1.0000</r>
       <r>  -0.9089  1.0000</r>
       <r>  -0.9089  1.0000</r>
       <r>  -0.9089  1.0000</r>
       <r>  -0.9089  1.0000</r>
       <r>  -0.9085  1.0000</r>
       <r>  -0.9040  1.0000</r>
       <r>   1.1367  1.0000</r>
       <r>   1.1386  1.0000</r>
       <r>   1.1405  1.0000</r>
       <r>   1.1407  1.0000</r>
       <r>   1.1423  1.0000</r>
       <r>   1.1425  1.0000</r>
       <r>   1.1428  1.0000</r>
       <r>   1.1432  1.0000</r>
       <r>   1.1445  1.0000</r>
       <r>   1.1469  1.0000</r>
       <r>   3.1611  1.0000</r>
       <r>   3.1614  1.0000</r>
       <r>   3.1640  1.0000</r>
       <r>   3.1640  1.0000</r>
       <r>   3.1640  1.0000</r>
       <r>   3.1640  1.0000</r>
       <r>   3.1666  1.0000</r>
       <r>   3.1669  1.0000</r>
       <r>   4.6934  1.0000</r>
       <r>   4.6934  1.0000</r>
       <r>   4.6934  1.0000</r>
       <r>   4.6934  1.0000</r>
       <r>   5.1641  1.0000</r>
       <r>   5.1652  1.0000</r>
       <r>   5.1656  1.0000</r>
       <r>   5.1660  1.0000</r>
       <r>   5.1677  1.0000</r>
       <r>   5.1681  1.0000</r>
       <r>   5.1685  1.0000</r>
       <r>   5.1696  1.0000</r>
       <r>   5.7637  1.0000</r>
       <r>   5.7637  1.0000</r>
       <r>   5.7637  1.0000</r>
       <r>   5.7637  1.0000</r>
       <r>   6.6360  1.0000</r>
       <r>   6.6403  1.0000</r>
       <r>   6.6407  1.0000</r>
       <r>   6.6407  1.0000</r>
       <r>   6.6407  1.0000</r>
       <r>   6.6407  1.0000</r>
       <r>   6.6411  1.0000</r>
       <r>   6.6454  1.0000</r>
       <r>   7.7809  0.0000</r>
       <r>   7.7841  0.0000</r>
       <r>   7.7845  0.0000</r>
       <r>   7.7845  0.0000</r>
       <r>   7.7845  0.0000</r>
       <r>   7.7845  0.0000</r>
       <r>   7.7849  0.0000</r>
       <r>   7.7882  0.0000</r>
       <r>   8.5924  0.0000</r>
       <r>   8.5924  0.0000</r>
       <r>   8.5924  0.0000</r>
       <r>   8.5924  0.0000</r>
       <r>   9.2374  0.0000</r>
       <r>   9.2374  0.0000</r>
       <r>   9.7015  0.0000</r>
       <r>   9.7015  0.0000</r>
       <r>   9.7015  0.0000</r>
       <r>   9.7015  0.0000</r>
       <r>  10.5353  0.0000</r>
       <r>  10.5380  0.0000</r>
      </set>
      <set comment="kpoint 14">
       <r>  -2.9295  1.0000</r>
       <r>  -2.9294  1.0000</r>
       <r>  -1.5412  1.0000</r>
       <r>  -1.5412  1.0000</r>
       <r>  -0.8516  1.0000</r>
       <r>  -0.8516  1.0000</r>
       <r>  -0.8516  1.0000</r>
       <r>  -0.8516  1.0000</r>
       <r>  -0.1652  1.0000</r>
       <r>  -0.1652  1.0000</r>
       <r>   0.5185  1.0000</r>
       <r>   0.5185  1.0000</r>
       <r>   0.5185  1.0000</r>
       <r>   0.5185  1.0000</r>
       <r>   1.1954  1.0000</r>
       <r>   1.1954  1.0000</r>
       <r>   1.8769  1.0000</r>
       <r>   1.8769  1.0000</r>
       <r>   1.8769  1.0000</r>
       <r>   1.8769  1.0000</r>
       <r>   2.5478  1.0000</r>
       <r>   2.5478  1.0000</r>
       <r>   3.2199  1.0000</r>
       <r>   3.2199  1.0000</r>
       <r>   3.2199  1.0000</r>
       <r>   3.2199  1.0000</r>
       <r>   3.8387  1.0000</r>
       <r>   3.8387  1.0000</r>
       <r>   3.8891  1.0000</r>
       <r>   3.8891  1.0000</r>
       <r>   4.5574  1.0000</r>
       <r>   4.5574  1.0000</r>
       <r>   4.5574  1.0000</r>
       <r>   4.5574  1.0000</r>
       <r>   4.7474  1.0000</r>
       <r>   4.7474  1.0000</r>
       <r>   5.8191  1.0000</r>
       <r>   5.8205  1.0000</r>
       <r>   5.8226  1.0000</r>
       <r>   5.8226  1.0000</r>
       <r>   5.8227  1.0000</r>
       <r>   5.8242  1.0000</r>
       <r>   5.8841  1.0000</r>
       <r>   5.8841  1.0000</r>
       <r>   5.8841  1.0000</r>
       <r>   5.8841  1.0000</r>
       <r>   6.0452  1.0000</r>
       <r>   6.0453  1.0000</r>
       <r>   6.7202  1.0000</r>
       <r>   6.7202  1.0000</r>
       <r>   7.1748  0.0000</r>
       <r>   7.1748  0.0000</r>
       <r>   7.3448  0.0000</r>
       <r>   7.3448  0.0000</r>
       <r>   7.7850  0.0000</r>
       <r>   7.7850  0.0000</r>
       <r>   8.4949  0.0000</r>
       <r>   8.4949  0.0000</r>
       <r>   8.6464  0.0000</r>
       <r>   8.6465  0.0000</r>
       <r>   8.7017  0.0000</r>
       <r>   8.7017  0.0000</r>
       <r>   8.7017  0.0000</r>
       <r>   8.7017  0.0000</r>
       <r>   9.2916  0.0000</r>
       <r>   9.2916  0.0000</r>
       <r>   9.7352  0.0000</r>
       <r>   9.7355  0.0000</r>
       <r>   9.7355  0.0000</r>
       <r>   9.7355  0.0000</r>
       <r>   9.7553  0.0000</r>
       <r>   9.7556  0.0000</r>
      </set>
      <set comment="kpoint 15">
       <r>  -2.7553  1.0000</r>
       <r>  -2.7553  1.0000</r>
       <r>  -2.0604  1.0000</r>
       <r>  -2.0604  1.0000</r>
       <r>  -0.6798  1.0000</r>
       <r>  -0.6798  1.0000</r>
       <r>  -0.6797  1.0000</r>
       <r>  -0.6797  1.0000</r>
       <r>   0.0060  1.0000</r>
       <r>   0.0060  1.0000</r>
       <r>   0.0060  1.0000</r>
       <r>   0.0060  1.0000</r>
       <r>   0.6880  1.0000</r>
       <r>   0.6880  1.0000</r>
       <r>   1.3650  1.0000</r>
       <r>   1.3650  1.0000</r>
       <r>   2.0419  1.0000</r>
       <r>   2.0419  1.0000</r>
       <r>   2.7061  1.0000</r>
       <r>   2.7062  1.0000</r>
       <r>   2.7192  1.0000</r>
       <r>   2.7192  1.0000</r>
       <r>   2.7192  1.0000</r>
       <r>   2.7193  1.0000</r>
       <r>   3.3875  1.0000</r>
       <r>   3.3875  1.0000</r>
       <r>   3.3875  1.0000</r>
       <r>   3.3875  1.0000</r>
       <r>   4.0572  1.0000</r>
       <r>   4.0572  1.0000</r>
       <r>   4.0572  1.0000</r>
       <r>   4.0572  1.0000</r>
       <r>   4.7108  1.0000</r>
       <r>   4.7108  1.0000</r>
       <r>   4.7108  1.0000</r>
       <r>   4.7108  1.0000</r>
       <r>   4.7210  1.0000</r>
       <r>   4.7210  1.0000</r>
       <r>   4.9095  1.0000</r>
       <r>   4.9096  1.0000</r>
       <r>   5.5583  1.0000</r>
       <r>   5.5583  1.0000</r>
       <r>   5.9906  1.0000</r>
       <r>   5.9906  1.0000</r>
       <r>   6.6709  1.0000</r>
       <r>   6.6709  1.0000</r>
       <r>   6.6888  1.0000</r>
       <r>   6.6889  1.0000</r>
       <r>   6.7069  1.0000</r>
       <r>   6.7069  1.0000</r>
       <r>   6.7069  1.0000</r>
       <r>   6.7070  1.0000</r>
       <r>   8.1576  0.0000</r>
       <r>   8.1576  0.0000</r>
       <r>   8.1576  0.0000</r>
       <r>   8.1576  0.0000</r>
       <r>   8.6510  0.0000</r>
       <r>   8.6510  0.0000</r>
       <r>   8.6510  0.0000</r>
       <r>   8.6510  0.0000</r>
       <r>   8.8088  0.0000</r>
       <r>   8.8088  0.0000</r>
       <r>   9.2968  0.0000</r>
       <r>   9.2968  0.0000</r>
       <r>   9.4538  0.0000</r>
       <r>   9.4538  0.0000</r>
       <r>   9.4575  0.0000</r>
       <r>   9.4575  0.0000</r>
       <r>   9.9167  0.0000</r>
       <r>   9.9167  0.0000</r>
       <r>  10.1081  0.0000</r>
       <r>  10.1090  0.0000</r>
      </set>
      <set comment="kpoint 16">
       <r>  -2.4678  1.0000</r>
       <r>  -2.4656  1.0000</r>
       <r>  -2.4651  1.0000</r>
       <r>  -2.4629  1.0000</r>
       <r>  -0.3971  1.0000</r>
       <r>  -0.3951  1.0000</r>
       <r>  -0.3940  1.0000</r>
       <r>  -0.3938  1.0000</r>
       <r>  -0.3936  1.0000</r>
       <r>  -0.3933  1.0000</r>
       <r>  -0.3922  1.0000</r>
       <r>  -0.3902  1.0000</r>
       <r>   1.6434  1.0000</r>
       <r>   1.6455  1.0000</r>
       <r>   1.6471  1.0000</r>
       <r>   1.6473  1.0000</r>
       <r>   1.6474  1.0000</r>
       <r>   1.6477  1.0000</r>
       <r>   1.6492  1.0000</r>
       <r>   1.6513  1.0000</r>
       <r>   3.6463  1.0000</r>
       <r>   3.6466  1.0000</r>
       <r>   3.6474  1.0000</r>
       <r>   3.6484  1.0000</r>
       <r>   3.6484  1.0000</r>
       <r>   3.6492  1.0000</r>
       <r>   3.6501  1.0000</r>
       <r>   3.6502  1.0000</r>
       <r>   3.6826  1.0000</r>
       <r>   3.6838  1.0000</r>
       <r>   3.6845  1.0000</r>
       <r>   3.6850  1.0000</r>
       <r>   3.6851  1.0000</r>
       <r>   3.6855  1.0000</r>
       <r>   3.6864  1.0000</r>
       <r>   3.6878  1.0000</r>
       <r>   5.1772  1.0000</r>
       <r>   5.1796  1.0000</r>
       <r>   5.1800  1.0000</r>
       <r>   5.1825  1.0000</r>
       <r>   5.6540  1.0000</r>
       <r>   5.6551  1.0000</r>
       <r>   5.6555  1.0000</r>
       <r>   5.6565  1.0000</r>
       <r>   6.2748  1.0000</r>
       <r>   6.2766  1.0000</r>
       <r>   6.2773  1.0000</r>
       <r>   6.2791  1.0000</r>
       <r>   7.6300  0.0000</r>
       <r>   7.6310  0.0000</r>
       <r>   7.6311  0.0000</r>
       <r>   7.6316  0.0000</r>
       <r>   7.6321  0.0000</r>
       <r>   7.6326  0.0000</r>
       <r>   7.6327  0.0000</r>
       <r>   7.6337  0.0000</r>
       <r>   9.0737  0.0000</r>
       <r>   9.0776  0.0000</r>
       <r>   9.0789  0.0000</r>
       <r>   9.0791  0.0000</r>
       <r>   9.0792  0.0000</r>
       <r>   9.0794  0.0000</r>
       <r>   9.0807  0.0000</r>
       <r>   9.0846  0.0000</r>
       <r>   9.7178  0.0000</r>
       <r>   9.7187  0.0000</r>
       <r>   9.7196  0.0000</r>
       <r>   9.7202  0.0000</r>
       <r>   9.7205  0.0000</r>
       <r>   9.7211  0.0000</r>
       <r>   9.7220  0.0000</r>
       <r>   9.7229  0.0000</r>
      </set>
      <set comment="kpoint 17">
       <r>  -3.3950  1.0000</r>
       <r>  -2.0025  1.0000</r>
       <r>  -2.0025  1.0000</r>
       <r>  -1.3125  1.0000</r>
       <r>  -1.3093  1.0000</r>
       <r>  -0.6225  1.0000</r>
       <r>  -0.6225  1.0000</r>
       <r>  -0.6224  1.0000</r>
       <r>   0.0606  1.0000</r>
       <r>   0.0626  1.0000</r>
       <r>   0.0638  1.0000</r>
       <r>   0.0658  1.0000</r>
       <r>   0.7457  1.0000</r>
       <r>   0.7457  1.0000</r>
       <r>   1.4226  1.0000</r>
       <r>   1.4240  1.0000</r>
       <r>   1.4249  1.0000</r>
       <r>   1.4261  1.0000</r>
       <r>   1.4267  1.0000</r>
       <r>   1.4283  1.0000</r>
       <r>   2.1023  1.0000</r>
       <r>   2.7360  1.0000</r>
       <r>   2.7360  1.0000</r>
       <r>   2.8185  1.0000</r>
       <r>   2.8185  1.0000</r>
       <r>   3.3955  1.0000</r>
       <r>   3.3955  1.0000</r>
       <r>   4.1170  1.0000</r>
       <r>   4.1202  1.0000</r>
       <r>   4.3152  1.0000</r>
       <r>   4.7225  1.0000</r>
       <r>   4.7225  1.0000</r>
       <r>   5.3637  1.0000</r>
       <r>   5.3746  1.0000</r>
       <r>   5.3746  1.0000</r>
       <r>   5.3915  1.0000</r>
       <r>   5.3915  1.0000</r>
       <r>   5.6126  1.0000</r>
       <r>   5.6126  1.0000</r>
       <r>   6.0405  1.0000</r>
       <r>   6.0405  1.0000</r>
       <r>   6.2745  1.0000</r>
       <r>   6.2745  1.0000</r>
       <r>   6.6966  1.0000</r>
       <r>   6.6986  1.0000</r>
       <r>   6.7000  1.0000</r>
       <r>   6.7020  1.0000</r>
       <r>   6.7265  1.0000</r>
       <r>   6.7265  1.0000</r>
       <r>   6.9111  0.0028</r>
       <r>   6.9119  0.0019</r>
       <r>   6.9119  0.0019</r>
       <r>   7.5989  0.0000</r>
       <r>   7.5989  0.0000</r>
       <r>   8.0057  0.0000</r>
       <r>   8.0065  0.0000</r>
       <r>   8.0091  0.0000</r>
       <r>   8.0099  0.0000</r>
       <r>   8.0628  0.0000</r>
       <r>   8.0651  0.0000</r>
       <r>   8.0651  0.0000</r>
       <r>   8.2098  0.0000</r>
       <r>   8.2107  0.0000</r>
       <r>   8.2116  0.0000</r>
       <r>   8.2124  0.0000</r>
       <r>   8.3191  0.0000</r>
       <r>   8.3192  0.0000</r>
       <r>   8.9167  0.0000</r>
       <r>   8.9167  0.0000</r>
       <r>   9.3672  0.0000</r>
       <r>   9.3672  0.0000</r>
       <r>   9.5102  0.0000</r>
      </set>
      <set comment="kpoint 18">
       <r>  -3.3367  1.0000</r>
       <r>  -1.9463  1.0000</r>
       <r>  -1.9448  1.0000</r>
       <r>  -1.9432  1.0000</r>
       <r>  -0.5686  1.0000</r>
       <r>  -0.5656  1.0000</r>
       <r>  -0.5655  1.0000</r>
       <r>  -0.5649  1.0000</r>
       <r>  -0.5649  1.0000</r>
       <r>  -0.5619  1.0000</r>
       <r>   0.7991  1.0000</r>
       <r>   0.8014  1.0000</r>
       <r>   0.8019  1.0000</r>
       <r>   0.8024  1.0000</r>
       <r>   0.8029  1.0000</r>
       <r>   0.8035  1.0000</r>
       <r>   0.8057  1.0000</r>
       <r>   2.1558  1.0000</r>
       <r>   2.1573  1.0000</r>
       <r>   2.1577  1.0000</r>
       <r>   2.1586  1.0000</r>
       <r>   2.1592  1.0000</r>
       <r>   2.1609  1.0000</r>
       <r>   3.4503  1.0000</r>
       <r>   3.4510  1.0000</r>
       <r>   3.4517  1.0000</r>
       <r>   3.5050  1.0000</r>
       <r>   3.5058  1.0000</r>
       <r>   3.5065  1.0000</r>
       <r>   4.7749  1.0000</r>
       <r>   4.7763  1.0000</r>
       <r>   4.7776  1.0000</r>
       <r>   4.7776  1.0000</r>
       <r>   4.7789  1.0000</r>
       <r>   4.7803  1.0000</r>
       <r>   4.8401  1.0000</r>
       <r>   6.0938  1.0000</r>
       <r>   6.0941  1.0000</r>
       <r>   6.0958  1.0000</r>
       <r>   6.0961  1.0000</r>
       <r>   6.0964  1.0000</r>
       <r>   6.0967  1.0000</r>
       <r>   6.0970  1.0000</r>
       <r>   6.0985  1.0000</r>
       <r>   6.0996  1.0000</r>
       <r>   6.3296  1.0000</r>
       <r>   6.3303  1.0000</r>
       <r>   6.3311  1.0000</r>
       <r>   7.4069  0.0000</r>
       <r>   7.4077  0.0000</r>
       <r>   7.4088  0.0000</r>
       <r>   7.4088  0.0000</r>
       <r>   7.4098  0.0000</r>
       <r>   7.4106  0.0000</r>
       <r>   7.6594  0.0000</r>
       <r>   7.6596  0.0000</r>
       <r>   7.6608  0.0000</r>
       <r>   7.6608  0.0000</r>
       <r>   7.6620  0.0000</r>
       <r>   7.6623  0.0000</r>
       <r>   8.7126  0.0000</r>
       <r>   8.7133  0.0000</r>
       <r>   8.7141  0.0000</r>
       <r>   8.9691  0.0000</r>
       <r>   8.9707  0.0000</r>
       <r>   8.9716  0.0000</r>
       <r>   8.9717  0.0000</r>
       <r>   8.9722  0.0000</r>
       <r>   8.9739  0.0000</r>
       <r>   8.9754  0.0000</r>
       <r>   8.9764  0.0000</r>
       <r>   8.9768  0.0000</r>
      </set>
      <set comment="kpoint 19">
       <r>  -3.1621  1.0000</r>
       <r>  -2.4653  1.0000</r>
       <r>  -1.7717  1.0000</r>
       <r>  -1.7717  1.0000</r>
       <r>  -1.0812  1.0000</r>
       <r>  -1.0811  1.0000</r>
       <r>  -0.3937  1.0000</r>
       <r>  -0.3937  1.0000</r>
       <r>  -0.3936  1.0000</r>
       <r>   0.2884  1.0000</r>
       <r>   0.2908  1.0000</r>
       <r>   0.2909  1.0000</r>
       <r>   0.2925  1.0000</r>
       <r>   0.9725  1.0000</r>
       <r>   0.9725  1.0000</r>
       <r>   1.6491  1.0000</r>
       <r>   1.6499  1.0000</r>
       <r>   1.6517  1.0000</r>
       <r>   1.6525  1.0000</r>
       <r>   2.3138  1.0000</r>
       <r>   2.3273  1.0000</r>
       <r>   2.9655  1.0000</r>
       <r>   2.9995  1.0000</r>
       <r>   2.9995  1.0000</r>
       <r>   3.0356  1.0000</r>
       <r>   3.6172  1.0000</r>
       <r>   3.6172  1.0000</r>
       <r>   3.6555  1.0000</r>
       <r>   3.6556  1.0000</r>
       <r>   4.2810  1.0000</r>
       <r>   4.2810  1.0000</r>
       <r>   4.3394  1.0000</r>
       <r>   4.3394  1.0000</r>
       <r>   4.9424  1.0000</r>
       <r>   4.9425  1.0000</r>
       <r>   4.9872  1.0000</r>
       <r>   4.9873  1.0000</r>
       <r>   4.9880  1.0000</r>
       <r>   5.6031  1.0000</r>
       <r>   5.6031  1.0000</r>
       <r>   5.6680  1.0000</r>
       <r>   6.2606  1.0000</r>
       <r>   6.2606  1.0000</r>
       <r>   6.3102  1.0000</r>
       <r>   6.3102  1.0000</r>
       <r>   6.4976  1.0000</r>
       <r>   6.4976  1.0000</r>
       <r>   6.9121  0.0018</r>
       <r>   6.9124  0.0015</r>
       <r>   6.9176  0.0001</r>
       <r>   6.9180  0.0001</r>
       <r>   7.1680  0.0000</r>
       <r>   7.1680  0.0000</r>
       <r>   7.6237  0.0000</r>
       <r>   7.7741  0.0000</r>
       <r>   7.8270  0.0000</r>
       <r>   7.8271  0.0000</r>
       <r>   8.2237  0.0000</r>
       <r>   8.2237  0.0000</r>
       <r>   8.4856  0.0000</r>
       <r>   8.4856  0.0000</r>
       <r>   8.8591  0.0000</r>
       <r>   8.8591  0.0000</r>
       <r>   9.0550  0.0000</r>
       <r>   9.0550  0.0000</r>
       <r>   9.1638  0.0000</r>
       <r>   9.1638  0.0000</r>
       <r>   9.5235  0.0000</r>
       <r>   9.5235  0.0000</r>
       <r>   9.7688  0.0000</r>
       <r>   9.7715  0.0000</r>
       <r>   9.7809  0.0000</r>
      </set>
      <set comment="kpoint 20">
       <r>  -2.8727  1.0000</r>
       <r>  -2.8700  1.0000</r>
       <r>  -1.4859  1.0000</r>
       <r>  -1.4840  1.0000</r>
       <r>  -1.4832  1.0000</r>
       <r>  -1.4814  1.0000</r>
       <r>  -0.1107  1.0000</r>
       <r>  -0.1091  1.0000</r>
       <r>  -0.1086  1.0000</r>
       <r>  -0.1077  1.0000</r>
       <r>  -0.1071  1.0000</r>
       <r>  -0.1056  1.0000</r>
       <r>   1.2502  1.0000</r>
       <r>   1.2522  1.0000</r>
       <r>   1.2544  1.0000</r>
       <r>   1.2550  1.0000</r>
       <r>   1.2568  1.0000</r>
       <r>   1.2579  1.0000</r>
       <r>   2.6027  1.0000</r>
       <r>   2.6035  1.0000</r>
       <r>   2.6043  1.0000</r>
       <r>   2.6046  1.0000</r>
       <r>   2.6067  1.0000</r>
       <r>   2.6093  1.0000</r>
       <r>   3.8925  1.0000</r>
       <r>   3.8928  1.0000</r>
       <r>   3.8953  1.0000</r>
       <r>   3.8955  1.0000</r>
       <r>   3.9438  1.0000</r>
       <r>   3.9444  1.0000</r>
       <r>   3.9453  1.0000</r>
       <r>   3.9455  1.0000</r>
       <r>   3.9458  1.0000</r>
       <r>   3.9470  1.0000</r>
       <r>   5.2160  1.0000</r>
       <r>   5.2177  1.0000</r>
       <r>   5.2187  1.0000</r>
       <r>   5.2205  1.0000</r>
       <r>   5.2758  1.0000</r>
       <r>   5.2766  1.0000</r>
       <r>   5.2773  1.0000</r>
       <r>   5.2781  1.0000</r>
       <r>   6.5329  1.0000</r>
       <r>   6.5334  1.0000</r>
       <r>   6.5357  1.0000</r>
       <r>   6.5362  1.0000</r>
       <r>   6.5977  1.0000</r>
       <r>   6.5992  1.0000</r>
       <r>   6.7740  1.0000</r>
       <r>   6.7745  1.0000</r>
       <r>   6.7766  1.0000</r>
       <r>   6.7771  1.0000</r>
       <r>   7.8387  0.0000</r>
       <r>   7.8392  0.0000</r>
       <r>   7.8404  0.0000</r>
       <r>   7.8409  0.0000</r>
       <r>   8.1006  0.0000</r>
       <r>   8.1011  0.0000</r>
       <r>   8.1032  0.0000</r>
       <r>   8.1038  0.0000</r>
       <r>   9.1399  0.0000</r>
       <r>   9.1408  0.0000</r>
       <r>   9.1417  0.0000</r>
       <r>   9.1425  0.0000</r>
       <r>   9.3448  0.0000</r>
       <r>   9.3464  0.0000</r>
       <r>   9.3995  0.0000</r>
       <r>   9.4014  0.0000</r>
       <r>   9.4022  0.0000</r>
       <r>   9.4041  0.0000</r>
       <r>  10.3837  0.0000</r>
       <r>  10.3892  0.0000</r>
      </set>
      <set comment="kpoint 21">
       <r>  -3.2202  1.0000</r>
       <r>  -2.5232  1.0000</r>
       <r>  -1.8294  1.0000</r>
       <r>  -1.1406  1.0000</r>
       <r>  -1.1385  1.0000</r>
       <r>  -1.1365  1.0000</r>
       <r>  -0.4529  1.0000</r>
       <r>  -0.4508  1.0000</r>
       <r>  -0.4487  1.0000</r>
       <r>   0.2317  1.0000</r>
       <r>   0.2335  1.0000</r>
       <r>   0.2340  1.0000</r>
       <r>   0.2361  1.0000</r>
       <r>   0.9143  1.0000</r>
       <r>   0.9174  1.0000</r>
       <r>   1.5931  1.0000</r>
       <r>   1.5942  1.0000</r>
       <r>   1.5966  1.0000</r>
       <r>   2.2576  1.0000</r>
       <r>   2.2684  1.0000</r>
       <r>   2.2693  1.0000</r>
       <r>   2.2716  1.0000</r>
       <r>   2.2725  1.0000</r>
       <r>   2.9435  1.0000</r>
       <r>   3.5618  1.0000</r>
       <r>   3.5998  1.0000</r>
       <r>   3.6146  1.0000</r>
       <r>   3.6178  1.0000</r>
       <r>   4.2258  1.0000</r>
       <r>   4.2654  1.0000</r>
       <r>   4.2687  1.0000</r>
       <r>   4.4773  1.0000</r>
       <r>   4.9314  1.0000</r>
       <r>   4.9481  1.0000</r>
       <r>   4.9513  1.0000</r>
       <r>   5.1258  1.0000</r>
       <r>   5.5354  1.0000</r>
       <r>   5.5463  1.0000</r>
       <r>   5.5497  1.0000</r>
       <r>   5.5936  1.0000</r>
       <r>   5.5969  1.0000</r>
       <r>   5.7748  1.0000</r>
       <r>   6.2049  1.0000</r>
       <r>   6.2082  1.0000</r>
       <r>   6.2170  1.0000</r>
       <r>   6.4240  1.0000</r>
       <r>   6.4419  1.0000</r>
       <r>   6.8629  1.0000</r>
       <r>   6.8947  0.3222</r>
       <r>   6.9119  0.0019</r>
       <r>   6.9152  0.0004</r>
       <r>   7.0742  0.0000</r>
       <r>   7.1081  0.0000</r>
       <r>   7.5649  0.0000</r>
       <r>   7.7186  0.0000</r>
       <r>   7.7236  0.0000</r>
       <r>   7.7252  0.0000</r>
       <r>   8.2174  0.0000</r>
       <r>   8.4260  0.0000</r>
       <r>   8.4290  0.0000</r>
       <r>   8.8048  0.0000</r>
       <r>   8.8189  0.0000</r>
       <r>   8.8224  0.0000</r>
       <r>   8.8681  0.0000</r>
       <r>   8.8783  0.0000</r>
       <r>   9.0229  0.0000</r>
       <r>   9.0363  0.0000</r>
       <r>   9.0815  0.0000</r>
       <r>   9.0845  0.0000</r>
       <r>   9.6770  0.0000</r>
       <r>   9.6799  0.0000</r>
       <r>   9.6887  0.0000</r>
      </set>
      <set comment="kpoint 22">
       <r>  -3.1621  1.0000</r>
       <r>  -2.4653  1.0000</r>
       <r>  -1.7728  1.0000</r>
       <r>  -1.7706  1.0000</r>
       <r>  -1.0823  1.0000</r>
       <r>  -1.0800  1.0000</r>
       <r>  -0.3955  1.0000</r>
       <r>  -0.3937  1.0000</r>
       <r>  -0.3919  1.0000</r>
       <r>   0.2889  1.0000</r>
       <r>   0.2902  1.0000</r>
       <r>   0.2909  1.0000</r>
       <r>   0.2927  1.0000</r>
       <r>   0.9720  1.0000</r>
       <r>   0.9731  1.0000</r>
       <r>   1.6492  1.0000</r>
       <r>   1.6506  1.0000</r>
       <r>   1.6513  1.0000</r>
       <r>   1.6521  1.0000</r>
       <r>   2.3139  1.0000</r>
       <r>   2.3273  1.0000</r>
       <r>   2.9656  1.0000</r>
       <r>   2.9984  1.0000</r>
       <r>   3.0006  1.0000</r>
       <r>   3.0356  1.0000</r>
       <r>   3.6167  1.0000</r>
       <r>   3.6177  1.0000</r>
       <r>   3.6544  1.0000</r>
       <r>   3.6566  1.0000</r>
       <r>   4.2805  1.0000</r>
       <r>   4.2815  1.0000</r>
       <r>   4.3388  1.0000</r>
       <r>   4.3399  1.0000</r>
       <r>   4.9414  1.0000</r>
       <r>   4.9436  1.0000</r>
       <r>   4.9856  1.0000</r>
       <r>   4.9875  1.0000</r>
       <r>   4.9893  1.0000</r>
       <r>   5.6020  1.0000</r>
       <r>   5.6043  1.0000</r>
       <r>   5.6680  1.0000</r>
       <r>   6.2601  1.0000</r>
       <r>   6.2612  1.0000</r>
       <r>   6.3096  1.0000</r>
       <r>   6.3108  1.0000</r>
       <r>   6.4971  1.0000</r>
       <r>   6.4981  1.0000</r>
       <r>   6.9119  0.0019</r>
       <r>   6.9131  0.0011</r>
       <r>   6.9170  0.0002</r>
       <r>   6.9180  0.0001</r>
       <r>   7.1676  0.0000</r>
       <r>   7.1684  0.0000</r>
       <r>   7.6237  0.0000</r>
       <r>   7.7740  0.0000</r>
       <r>   7.8266  0.0000</r>
       <r>   7.8275  0.0000</r>
       <r>   8.2226  0.0000</r>
       <r>   8.2249  0.0000</r>
       <r>   8.4852  0.0000</r>
       <r>   8.4861  0.0000</r>
       <r>   8.8585  0.0000</r>
       <r>   8.8596  0.0000</r>
       <r>   9.0538  0.0000</r>
       <r>   9.0562  0.0000</r>
       <r>   9.1628  0.0000</r>
       <r>   9.1647  0.0000</r>
       <r>   9.5230  0.0000</r>
       <r>   9.5241  0.0000</r>
       <r>   9.7690  0.0000</r>
       <r>   9.7732  0.0000</r>
       <r>   9.7800  0.0000</r>
      </set>
      <set comment="kpoint 23">
       <r>  -2.9876  1.0000</r>
       <r>  -2.2928  1.0000</r>
       <r>  -2.2905  1.0000</r>
       <r>  -1.5998  1.0000</r>
       <r>  -1.5979  1.0000</r>
       <r>  -0.9101  1.0000</r>
       <r>  -0.9079  1.0000</r>
       <r>  -0.2228  1.0000</r>
       <r>  -0.2219  1.0000</r>
       <r>   0.4586  1.0000</r>
       <r>   0.4609  1.0000</r>
       <r>   0.4613  1.0000</r>
       <r>   0.4635  1.0000</r>
       <r>   1.1405  1.0000</r>
       <r>   1.1417  1.0000</r>
       <r>   1.1433  1.0000</r>
       <r>   1.8185  1.0000</r>
       <r>   1.8208  1.0000</r>
       <r>   2.4815  1.0000</r>
       <r>   2.4826  1.0000</r>
       <r>   2.4940  1.0000</r>
       <r>   2.4951  1.0000</r>
       <r>   3.1524  1.0000</r>
       <r>   3.1547  1.0000</r>
       <r>   3.1662  1.0000</r>
       <r>   3.1684  1.0000</r>
       <r>   3.7833  1.0000</r>
       <r>   3.8220  1.0000</r>
       <r>   3.8231  1.0000</r>
       <r>   3.8355  1.0000</r>
       <r>   3.8382  1.0000</r>
       <r>   3.8394  1.0000</r>
       <r>   4.4455  1.0000</r>
       <r>   4.4478  1.0000</r>
       <r>   4.4883  1.0000</r>
       <r>   4.4905  1.0000</r>
       <r>   5.1082  1.0000</r>
       <r>   5.1522  1.0000</r>
       <r>   5.1532  1.0000</r>
       <r>   5.1694  1.0000</r>
       <r>   5.8117  1.0000</r>
       <r>   5.8128  1.0000</r>
       <r>   5.8143  1.0000</r>
       <r>   5.8164  1.0000</r>
       <r>   6.4920  1.0000</r>
       <r>   6.6644  1.0000</r>
       <r>   7.0781  0.0000</r>
       <r>   7.0804  0.0000</r>
       <r>   7.1302  0.0000</r>
       <r>   7.1311  0.0000</r>
       <r>   7.3306  0.0000</r>
       <r>   7.3327  0.0000</r>
       <r>   7.7334  0.0000</r>
       <r>   7.7348  0.0000</r>
       <r>   7.7675  0.0000</r>
       <r>   7.9379  0.0000</r>
       <r>   7.9391  0.0000</r>
       <r>   7.9930  0.0000</r>
       <r>   8.4381  0.0000</r>
       <r>   8.4390  0.0000</r>
       <r>   8.5954  0.0000</r>
       <r>   8.5964  0.0000</r>
       <r>   9.0212  0.0000</r>
       <r>   9.0226  0.0000</r>
       <r>   9.0701  0.0000</r>
       <r>   9.2473  0.0000</r>
       <r>   9.2484  0.0000</r>
       <r>   9.6680  0.0000</r>
       <r>   9.6704  0.0000</r>
       <r>   9.8973  0.0000</r>
       <r>   9.9138  0.0000</r>
       <r>   9.9306  0.0000</r>
      </set>
      <set comment="kpoint 24">
       <r>  -2.6986  1.0000</r>
       <r>  -2.6959  1.0000</r>
       <r>  -2.0040  1.0000</r>
       <r>  -2.0013  1.0000</r>
       <r>  -1.3124  1.0000</r>
       <r>  -1.3097  1.0000</r>
       <r>  -0.6239  1.0000</r>
       <r>  -0.6212  1.0000</r>
       <r>   0.0616  1.0000</r>
       <r>   0.0643  1.0000</r>
       <r>   0.7432  1.0000</r>
       <r>   0.7444  1.0000</r>
       <r>   0.7459  1.0000</r>
       <r>   0.7470  1.0000</r>
       <r>   1.4208  1.0000</r>
       <r>   1.4223  1.0000</r>
[...]
       <r>   5.9906  1.0000</r>
       <r>   6.6709  1.0000</r>
       <r>   6.6710  1.0000</r>
       <r>   6.6888  1.0000</r>
       <r>   6.6888  1.0000</r>
       <r>   6.7051  1.0000</r>
       <r>   6.7055  1.0000</r>
       <r>   6.7084  1.0000</r>
       <r>   6.7087  1.0000</r>
       <r>   8.1546  0.0000</r>
       <r>   8.1572  0.0000</r>
       <r>   8.1580  0.0000</r>
       <r>   8.1607  0.0000</r>
       <r>   8.6492  0.0000</r>
       <r>   8.6494  0.0000</r>
       <r>   8.6526  0.0000</r>
       <r>   8.6528  0.0000</r>
       <r>   8.8088  0.0000</r>
       <r>   8.8088  0.0000</r>
       <r>   9.2968  0.0000</r>
       <r>   9.2968  0.0000</r>
       <r>   9.4531  0.0000</r>
       <r>   9.4536  0.0000</r>
       <r>   9.4578  0.0000</r>
       <r>   9.4582  0.0000</r>
       <r>   9.9167  0.0000</r>
       <r>   9.9167  0.0000</r>
       <r>  10.1076  0.0000</r>
       <r>  10.1094  0.0000</r>
      </set>
      <set comment="kpoint 34">
       <r>  -2.6973  1.0000</r>
       <r>  -2.6972  1.0000</r>
       <r>  -2.0026  1.0000</r>
       <r>  -2.0026  1.0000</r>
       <r>  -1.3111  1.0000</r>
       <r>  -1.3110  1.0000</r>
       <r>  -0.6226  1.0000</r>
       <r>  -0.6226  1.0000</r>
       <r>   0.0629  1.0000</r>
       <r>   0.0629  1.0000</r>
       <r>   0.7440  1.0000</r>
       <r>   0.7447  1.0000</r>
       <r>   0.7455  1.0000</r>
       <r>   0.7462  1.0000</r>
       <r>   1.4215  1.0000</r>
       <r>   1.4215  1.0000</r>
       <r>   2.0980  1.0000</r>
       <r>   2.0981  1.0000</r>
       <r>   2.1013  1.0000</r>
       <r>   2.1014  1.0000</r>
       <r>   2.7621  1.0000</r>
       <r>   2.7622  1.0000</r>
       <r>   2.7721  1.0000</r>
       <r>   2.7721  1.0000</r>
       <r>   3.4217  1.0000</r>
       <r>   3.4218  1.0000</r>
       <r>   3.4689  1.0000</r>
       <r>   3.4689  1.0000</r>
       <r>   4.0600  1.0000</r>
       <r>   4.0600  1.0000</r>
       <r>   4.0956  1.0000</r>
       <r>   4.0956  1.0000</r>
       <r>   4.1168  1.0000</r>
       <r>   4.1168  1.0000</r>
       <r>   4.7225  1.0000</r>
       <r>   4.7225  1.0000</r>
       <r>   4.7763  1.0000</r>
       <r>   4.7764  1.0000</r>
       <r>   4.7787  1.0000</r>
       <r>   4.7788  1.0000</r>
       <r>   5.4289  1.0000</r>
       <r>   5.4289  1.0000</r>
       <r>   6.1025  1.0000</r>
       <r>   6.1025  1.0000</r>
       <r>   6.7374  1.0000</r>
       <r>   6.7374  1.0000</r>
       <r>   6.9482  0.0000</r>
       <r>   6.9482  0.0000</r>
       <r>   7.3524  0.0000</r>
       <r>   7.3524  0.0000</r>
       <r>   7.4182  0.0000</r>
       <r>   7.4182  0.0000</r>
       <r>   7.6078  0.0000</r>
       <r>   7.6078  0.0000</r>
       <r>   7.9976  0.0000</r>
       <r>   7.9976  0.0000</r>
       <r>   8.0531  0.0000</r>
       <r>   8.0532  0.0000</r>
       <r>   8.2180  0.0000</r>
       <r>   8.2180  0.0000</r>
       <r>   8.6535  0.0000</r>
       <r>   8.6535  0.0000</r>
       <r>   9.2879  0.0000</r>
       <r>   9.2879  0.0000</r>
       <r>   9.3545  0.0000</r>
       <r>   9.3545  0.0000</r>
       <r>   9.5123  0.0000</r>
       <r>   9.5123  0.0000</r>
       <r>   9.5196  0.0000</r>
       <r>   9.5197  0.0000</r>
       <r>  10.1319  0.0000</r>
       <r>  10.1330  0.0000</r>
      </set>
      <set comment="kpoint 35">
       <r>  -2.5233  1.0000</r>
       <r>  -2.5233  1.0000</r>
       <r>  -1.8315  1.0000</r>
       <r>  -1.8296  1.0000</r>
       <r>  -1.8293  1.0000</r>
       <r>  -1.8274  1.0000</r>
       <r>  -1.1387  1.0000</r>
       <r>  -1.1387  1.0000</r>
       <r>   0.9128  1.0000</r>
       <r>   0.9147  1.0000</r>
       <r>   0.9150  1.0000</r>
       <r>   0.9169  1.0000</r>
       <r>   1.5899  1.0000</r>
       <r>   1.5907  1.0000</r>
       <r>   1.5934  1.0000</r>
       <r>   1.5937  1.0000</r>
       <r>   1.5941  1.0000</r>
       <r>   1.5953  1.0000</r>
       <r>   2.2657  1.0000</r>
       <r>   2.2658  1.0000</r>
       <r>   2.2679  1.0000</r>
       <r>   2.2680  1.0000</r>
       <r>   2.9289  1.0000</r>
       <r>   2.9298  1.0000</r>
       <r>   2.9301  1.0000</r>
       <r>   2.9307  1.0000</r>
       <r>   2.9400  1.0000</r>
       <r>   2.9403  1.0000</r>
       <r>   3.5977  1.0000</r>
       <r>   3.5996  1.0000</r>
       <r>   3.5999  1.0000</r>
       <r>   3.6019  1.0000</r>
       <r>   4.2818  1.0000</r>
       <r>   4.2818  1.0000</r>
       <r>   4.9415  1.0000</r>
       <r>   4.9416  1.0000</r>
       <r>   4.9438  1.0000</r>
       <r>   4.9439  1.0000</r>
       <r>   5.6054  1.0000</r>
       <r>   5.6061  1.0000</r>
       <r>   5.6065  1.0000</r>
       <r>   5.6073  1.0000</r>
       <r>   6.2521  1.0000</r>
       <r>   6.2530  1.0000</r>
       <r>   6.2531  1.0000</r>
       <r>   6.2540  1.0000</r>
       <r>   6.9048  0.0299</r>
       <r>   6.9055  0.0234</r>
       <r>   6.9060  0.0204</r>
       <r>   6.9067  0.0157</r>
       <r>   7.5612  0.0000</r>
       <r>   7.5613  0.0000</r>
       <r>   7.5635  0.0000</r>
       <r>   7.5636  0.0000</r>
       <r>   8.2013  0.0000</r>
       <r>   8.2013  0.0000</r>
       <r>   8.2342  0.0000</r>
       <r>   8.2342  0.0000</r>
       <r>   8.3781  0.0000</r>
       <r>   8.3788  0.0000</r>
       <r>   8.3792  0.0000</r>
       <r>   8.3799  0.0000</r>
       <r>   9.0319  0.0000</r>
       <r>   9.0328  0.0000</r>
       <r>   9.0329  0.0000</r>
       <r>   9.0338  0.0000</r>
       <r>   9.6722  0.0000</r>
       <r>   9.6722  0.0000</r>
       <r>  10.1605  0.0000</r>
       <r>  10.1615  0.0000</r>
       <r>  10.1620  0.0000</r>
       <r>  10.1625  0.0000</r>
      </set>
      <set comment="kpoint 36">
       <r>  -2.2363  1.0000</r>
       <r>  -2.2341  1.0000</r>
       <r>  -2.2336  1.0000</r>
       <r>  -2.2314  1.0000</r>
       <r>  -1.5438  1.0000</r>
       <r>  -1.5415  1.0000</r>
       <r>  -1.5411  1.0000</r>
       <r>  -1.5389  1.0000</r>
       <r>   1.1956  1.0000</r>
       <r>   1.1979  1.0000</r>
       <r>   1.1983  1.0000</r>
       <r>   1.2005  1.0000</r>
       <r>   1.8689  1.0000</r>
       <r>   1.8710  1.0000</r>
       <r>   1.8726  1.0000</r>
       <r>   1.8728  1.0000</r>
       <r>   1.8729  1.0000</r>
       <r>   1.8732  1.0000</r>
       <r>   1.8747  1.0000</r>
       <r>   1.8768  1.0000</r>
       <r>   2.5437  1.0000</r>
       <r>   2.5457  1.0000</r>
       <r>   2.5473  1.0000</r>
       <r>   2.5476  1.0000</r>
       <r>   2.5477  1.0000</r>
       <r>   2.5479  1.0000</r>
       <r>   2.5495  1.0000</r>
       <r>   2.5516  1.0000</r>
       <r>   3.2069  1.0000</r>
       <r>   3.2091  1.0000</r>
       <r>   3.2096  1.0000</r>
       <r>   3.2119  1.0000</r>
       <r>   5.2155  1.0000</r>
       <r>   5.2176  1.0000</r>
       <r>   5.2192  1.0000</r>
       <r>   5.2195  1.0000</r>
       <r>   5.2195  1.0000</r>
       <r>   5.2198  1.0000</r>
       <r>   5.2214  1.0000</r>
       <r>   5.2235  1.0000</r>
       <r>   5.8754  1.0000</r>
       <r>   5.8764  1.0000</r>
       <r>   5.8769  1.0000</r>
       <r>   5.8779  1.0000</r>
       <r>   6.5356  1.0000</r>
       <r>   6.5366  1.0000</r>
       <r>   6.5372  1.0000</r>
       <r>   6.5381  1.0000</r>
       <r>   7.1755  0.0000</r>
       <r>   7.1778  0.0000</r>
       <r>   7.1795  0.0000</r>
       <r>   7.1797  0.0000</r>
       <r>   7.1798  0.0000</r>
       <r>   7.1800  0.0000</r>
       <r>   7.1816  0.0000</r>
       <r>   7.1839  0.0000</r>
       <r>   8.6496  0.0000</r>
       <r>   8.6517  0.0000</r>
       <r>   8.6522  0.0000</r>
       <r>   8.6544  0.0000</r>
       <r>   9.1499  0.0000</r>
       <r>   9.1508  0.0000</r>
       <r>   9.1515  0.0000</r>
       <r>   9.1524  0.0000</r>
       <r>   9.9394  0.0000</r>
       <r>   9.9402  0.0000</r>
       <r>   9.9407  0.0000</r>
       <r>   9.9416  0.0000</r>
       <r>   9.9419  0.0000</r>
       <r>   9.9428  0.0000</r>
       <r>   9.9433  0.0000</r>
       <r>   9.9441  0.0000</r>
      </set>
      <set comment="kpoint 37">
       <r>  -2.4654  1.0000</r>
       <r>  -2.4654  1.0000</r>
       <r>  -2.4654  1.0000</r>
       <r>  -2.4654  1.0000</r>
       <r>  -0.3988  1.0000</r>
       <r>  -0.3943  1.0000</r>
       <r>  -0.3943  1.0000</r>
       <r>  -0.3937  1.0000</r>
       <r>  -0.3936  1.0000</r>
       <r>  -0.3931  1.0000</r>
       <r>  -0.3931  1.0000</r>
       <r>  -0.3886  1.0000</r>
       <r>   1.6474  1.0000</r>
       <r>   1.6474  1.0000</r>
       <r>   1.6474  1.0000</r>
       <r>   1.6474  1.0000</r>
       <r>   1.6474  1.0000</r>
       <r>   1.6474  1.0000</r>
       <r>   1.6474  1.0000</r>
       <r>   1.6474  1.0000</r>
       <r>   3.6468  1.0000</r>
       <r>   3.6468  1.0000</r>
       <r>   3.6479  1.0000</r>
       <r>   3.6484  1.0000</r>
       <r>   3.6484  1.0000</r>
       <r>   3.6484  1.0000</r>
       <r>   3.6497  1.0000</r>
       <r>   3.6497  1.0000</r>
       <r>   3.6837  1.0000</r>
       <r>   3.6837  1.0000</r>
       <r>   3.6850  1.0000</r>
       <r>   3.6850  1.0000</r>
       <r>   3.6850  1.0000</r>
       <r>   3.6855  1.0000</r>
       <r>   3.6865  1.0000</r>
       <r>   3.6865  1.0000</r>
       <r>   5.1798  1.0000</r>
       <r>   5.1798  1.0000</r>
       <r>   5.1798  1.0000</r>
       <r>   5.1799  1.0000</r>
       <r>   5.6553  1.0000</r>
       <r>   5.6553  1.0000</r>
       <r>   5.6553  1.0000</r>
       <r>   5.6553  1.0000</r>
       <r>   6.2769  1.0000</r>
       <r>   6.2770  1.0000</r>
       <r>   6.2770  1.0000</r>
       <r>   6.2770  1.0000</r>
       <r>   7.6297  0.0000</r>
       <r>   7.6297  0.0000</r>
       <r>   7.6304  0.0000</r>
       <r>   7.6310  0.0000</r>
       <r>   7.6327  0.0000</r>
       <r>   7.6333  0.0000</r>
       <r>   7.6340  0.0000</r>
       <r>   7.6340  0.0000</r>
       <r>   9.0791  0.0000</r>
       <r>   9.0791  0.0000</r>
       <r>   9.0791  0.0000</r>
       <r>   9.0791  0.0000</r>
       <r>   9.0791  0.0000</r>
       <r>   9.0791  0.0000</r>
       <r>   9.0791  0.0000</r>
       <r>   9.0792  0.0000</r>
       <r>   9.7204  0.0000</r>
       <r>   9.7204  0.0000</r>
       <r>   9.7204  0.0000</r>
       <r>   9.7204  0.0000</r>
       <r>   9.7204  0.0000</r>
       <r>   9.7204  0.0000</r>
       <r>   9.7204  0.0000</r>
       <r>   9.7204  0.0000</r>
      </set>
      <set comment="kpoint 38">
       <r>  -2.4075  1.0000</r>
       <r>  -2.4074  1.0000</r>
       <r>  -2.4074  1.0000</r>
       <r>  -2.4074  1.0000</r>
       <r>  -1.0238  1.0000</r>
       <r>  -1.0238  1.0000</r>
       <r>  -1.0238  1.0000</r>
       <r>  -1.0238  1.0000</r>
       <r>   0.3477  1.0000</r>
       <r>   0.3477  1.0000</r>
       <r>   0.3477  1.0000</r>
       <r>   0.3477  1.0000</r>
       <r>   1.7038  1.0000</r>
       <r>   1.7038  1.0000</r>
       <r>   1.7038  1.0000</r>
       <r>   1.7038  1.0000</r>
       <r>   1.7038  1.0000</r>
       <r>   1.7038  1.0000</r>
       <r>   1.7038  1.0000</r>
       <r>   1.7038  1.0000</r>
       <r>   3.0519  1.0000</r>
       <r>   3.0519  1.0000</r>
       <r>   3.0519  1.0000</r>
       <r>   3.0520  1.0000</r>
       <r>   3.0520  1.0000</r>
       <r>   3.0520  1.0000</r>
       <r>   3.0520  1.0000</r>
       <r>   3.0520  1.0000</r>
       <r>   4.3363  1.0000</r>
       <r>   4.3363  1.0000</r>
       <r>   4.3363  1.0000</r>
       <r>   4.3363  1.0000</r>
       <r>   4.3900  1.0000</r>
       <r>   4.3900  1.0000</r>
       <r>   4.3900  1.0000</r>
       <r>   4.3900  1.0000</r>
       <r>   4.3900  1.0000</r>
       <r>   4.3900  1.0000</r>
       <r>   4.3900  1.0000</r>
       <r>   4.3901  1.0000</r>
       <r>   5.7111  1.0000</r>
       <r>   5.7111  1.0000</r>
       <r>   5.7111  1.0000</r>
       <r>   5.7111  1.0000</r>
       <r>   7.0305  0.0000</r>
       <r>   7.0305  0.0000</r>
       <r>   7.0305  0.0000</r>
       <r>   7.0305  0.0000</r>
       <r>   7.2213  0.0000</r>
       <r>   7.2213  0.0000</r>
       <r>   7.2213  0.0000</r>
       <r>   7.2213  0.0000</r>
       <r>   8.2731  0.0000</r>
       <r>   8.2731  0.0000</r>
       <r>   8.2732  0.0000</r>
       <r>   8.2732  0.0000</r>
       <r>   8.2732  0.0000</r>
       <r>   8.2733  0.0000</r>
       <r>   8.2733  0.0000</r>
       <r>   8.2733  0.0000</r>
       <r>   8.3395  0.0000</r>
       <r>   8.3395  0.0000</r>
       <r>   8.3395  0.0000</r>
       <r>   8.3395  0.0000</r>
       <r>   9.7790  0.0000</r>
       <r>   9.7790  0.0000</r>
       <r>   9.7791  0.0000</r>
       <r>   9.7791  0.0000</r>
       <r>   9.7791  0.0000</r>
       <r>   9.7792  0.0000</r>
       <r>   9.7793  0.0000</r>
       <r>   9.7793  0.0000</r>
      </set>
      <set comment="kpoint 39">
       <r>  -2.2339  1.0000</r>
       <r>  -2.2338  1.0000</r>
       <r>  -2.2338  1.0000</r>
       <r>  -2.2338  1.0000</r>
       <r>  -1.5413  1.0000</r>
       <r>  -1.5413  1.0000</r>
       <r>  -1.5413  1.0000</r>
       <r>  -1.5413  1.0000</r>
       <r>   1.1981  1.0000</r>
       <r>   1.1981  1.0000</r>
       <r>   1.1981  1.0000</r>
       <r>   1.1981  1.0000</r>
       <r>   1.8728  1.0000</r>
       <r>   1.8728  1.0000</r>
       <r>   1.8728  1.0000</r>
       <r>   1.8729  1.0000</r>
       <r>   1.8729  1.0000</r>
       <r>   1.8729  1.0000</r>
       <r>   1.8729  1.0000</r>
       <r>   1.8729  1.0000</r>
       <r>   2.5476  1.0000</r>
       <r>   2.5476  1.0000</r>
       <r>   2.5476  1.0000</r>
       <r>   2.5476  1.0000</r>
       <r>   2.5476  1.0000</r>
       <r>   2.5476  1.0000</r>
       <r>   2.5477  1.0000</r>
       <r>   2.5477  1.0000</r>
       <r>   3.2094  1.0000</r>
       <r>   3.2094  1.0000</r>
       <r>   3.2094  1.0000</r>
       <r>   3.2094  1.0000</r>
       <r>   5.2195  1.0000</r>
       <r>   5.2195  1.0000</r>
       <r>   5.2195  1.0000</r>
       <r>   5.2195  1.0000</r>
       <r>   5.2195  1.0000</r>
       <r>   5.2195  1.0000</r>
       <r>   5.2195  1.0000</r>
       <r>   5.2195  1.0000</r>
       <r>   5.8766  1.0000</r>
       <r>   5.8766  1.0000</r>
       <r>   5.8766  1.0000</r>
       <r>   5.8766  1.0000</r>
       <r>   6.5369  1.0000</r>
       <r>   6.5369  1.0000</r>
       <r>   6.5369  1.0000</r>
       <r>   6.5369  1.0000</r>
       <r>   7.1797  0.0000</r>
       <r>   7.1797  0.0000</r>
       <r>   7.1797  0.0000</r>
       <r>   7.1797  0.0000</r>
       <r>   7.1797  0.0000</r>
       <r>   7.1797  0.0000</r>
       <r>   7.1798  0.0000</r>
       <r>   7.1798  0.0000</r>
       <r>   8.6520  0.0000</r>
       <r>   8.6520  0.0000</r>
       <r>   8.6520  0.0000</r>
       <r>   8.6520  0.0000</r>
       <r>   9.1511  0.0000</r>
       <r>   9.1511  0.0000</r>
       <r>   9.1512  0.0000</r>
       <r>   9.1512  0.0000</r>
       <r>   9.9417  0.0000</r>
       <r>   9.9417  0.0000</r>
       <r>   9.9417  0.0000</r>
       <r>   9.9418  0.0000</r>
       <r>   9.9418  0.0000</r>
       <r>   9.9418  0.0000</r>
       <r>   9.9418  0.0000</r>
       <r>   9.9418  0.0000</r>
      </set>
      <set comment="kpoint 40">
       <r>  -1.9494  1.0000</r>
       <r>  -1.9453  1.0000</r>
       <r>  -1.9453  1.0000</r>
       <r>  -1.9450  1.0000</r>
       <r>  -1.9449  1.0000</r>
       <r>  -1.9445  1.0000</r>
       <r>  -1.9445  1.0000</r>
       <r>  -1.9405  1.0000</r>
       <r>   2.1443  1.0000</r>
       <r>   2.1506  1.0000</r>
       <r>   2.1506  1.0000</r>
       <r>   2.1536  1.0000</r>
       <r>   2.1538  1.0000</r>
       <r>   2.1539  1.0000</r>
       <r>   2.1542  1.0000</r>
       <r>   2.1542  1.0000</r>
       <r>   2.1543  1.0000</r>
       <r>   2.1543  1.0000</r>
       <r>   2.1543  1.0000</r>
       <r>   2.1543  1.0000</r>
       <r>   2.1544  1.0000</r>
       <r>   2.1544  1.0000</r>
       <r>   2.1544  1.0000</r>
       <r>   2.1544  1.0000</r>
       <r>   2.1544  1.0000</r>
       <r>   2.1544  1.0000</r>
       <r>   2.1548  1.0000</r>
       <r>   2.1548  1.0000</r>
       <r>   2.1550  1.0000</r>
       <r>   2.1581  1.0000</r>
       <r>   2.1581  1.0000</r>
       <r>   2.1644  1.0000</r>
       <r>   6.1464  1.0000</r>
       <r>   6.1464  1.0000</r>
       <r>   6.1480  1.0000</r>
       <r>   6.1501  1.0000</r>
       <r>   6.1514  1.0000</r>
       <r>   6.1518  1.0000</r>
       <r>   6.1518  1.0000</r>
       <r>   6.1518  1.0000</r>
       <r>   6.1520  1.0000</r>
       <r>   6.1520  1.0000</r>
       <r>   6.1520  1.0000</r>
       <r>   6.1520  1.0000</r>
       <r>   6.1520  1.0000</r>
       <r>   6.1521  1.0000</r>
       <r>   6.1521  1.0000</r>
       <r>   6.1521  1.0000</r>
       <r>   6.1523  1.0000</r>
       <r>   6.1523  1.0000</r>
       <r>   6.1523  1.0000</r>
       <r>   6.1527  1.0000</r>
       <r>   6.1539  1.0000</r>
       <r>   6.1561  1.0000</r>
       <r>   6.1576  1.0000</r>
       <r>   6.1576  1.0000</r>
       <r>  10.0618  0.0000</r>
       <r>  10.0620  0.0000</r>
       <r>  10.0621  0.0000</r>
       <r>  10.0626  0.0000</r>
       <r>  10.0639  0.0000</r>
       <r>  10.0646  0.0000</r>
       <r>  10.0646  0.0000</r>
       <r>  10.0650  0.0000</r>
       <r>  10.2076  0.0000</r>
       <r>  10.2092  0.0000</r>
       <r>  10.2096  0.0000</r>
       <r>  10.2107  0.0000</r>
       <r>  10.2110  0.0000</r>
       <r>  10.2111  0.0000</r>
       <r>  10.2117  0.0000</r>
       <r>  10.2121  0.0000</r>
      </set>
     </set>
    </set>
   </array>
  </eigenvalues>
 </calculation>
 <structure name="finalpos" >
  <crystal>
   <varray name="basis" >
    <v>       8.39737579      0.00000000      0.00000000</v>
    <v>       0.00000000      8.39737579      0.00000000</v>
    <v>       0.00000000      0.00000000      8.39737579</v>
   </varray>
   <i name="volume">    592.14868117</i>
   <varray name="rec_basis" >
    <v>       0.11908482      0.00000000      0.00000000</v>
    <v>       0.00000000      0.11908482      0.00000000</v>
    <v>       0.00000000      0.00000000      0.11908482</v>
   </varray>
  </crystal>
  <varray name="positions" >
   <v>       0.25119085      0.25000000      0.00000000</v>
   <v>       0.75000000      0.25000000      0.00000000</v>
   <v>       0.25000000      0.75000000      0.00000000</v>
   <v>       0.75000000      0.75000000      0.00000000</v>
   <v>       0.25000000      0.25000000      0.50000000</v>
   <v>       0.75000000      0.25000000      0.50000000</v>
   <v>       0.25000000      0.75000000      0.50000000</v>
   <v>       0.75000000      0.75000000      0.50000000</v>
   <v>       0.25000000      0.00000000      0.25000000</v>
   <v>       0.75000000      0.00000000      0.25000000</v>
   <v>       0.25000000      0.50000000      0.25000000</v>
   <v>       0.75000000      0.50000000      0.25000000</v>
   <v>       0.25000000      0.00000000      0.75000000</v>
   <v>       0.75000000      0.00000000      0.75000000</v>
   <v>       0.25000000      0.50000000      0.75000000</v>
   <v>       0.75000000      0.50000000      0.75000000</v>
   <v>       0.00000000      0.25000000      0.25000000</v>
   <v>       0.50000000      0.25000000      0.25000000</v>
   <v>       0.00000000      0.75000000      0.25000000</v>
   <v>       0.50000000      0.75000000      0.25000000</v>
   <v>       0.00000000      0.25000000      0.75000000</v>
   <v>       0.50000000      0.25000000      0.75000000</v>
   <v>       0.00000000      0.75000000      0.75000000</v>
   <v>       0.50000000      0.75000000      0.75000000</v>
   <v>       0.00000000      0.00000000      0.00000000</v>
   <v>       0.50000000      0.00000000      0.00000000</v>
   <v>       0.00000000      0.50000000      0.00000000</v>
   <v>       0.50000000      0.50000000      0.00000000</v>
   <v>       0.00000000      0.00000000      0.50000000</v>
   <v>       0.50000000      0.00000000      0.50000000</v>
   <v>       0.00000000      0.50000000      0.50000000</v>
   <v>       0.50000000      0.50000000      0.50000000</v>
  </varray>
 </structure>
</modeling>
