    4    4    1    1
  0.1596323E+02  0.3996933E-09  0.3996933E-09  0.3996933E-09  0.5000000E-15
  1.000000000000000E-004
  CAR 
 unknown system                          
   12   84   16
 
  0.0000000E+00  0.0000000E+00  0.0000000E+00  0.4551661E-03
   1       -3.0154
   2        5.3458
   3        5.3458
   4        5.3458
   5        6.7413
   6        6.7413
   7        6.7413
   8       13.6149
   9       13.6149
  10       13.6149
  11       14.1013
  12       14.1013
  13       14.1013
  14       14.1013
  15       14.1013
  16       14.1013
 
  0.7692308E-01  0.0000000E+00  0.0000000E+00  0.2730997E-02
   1       -2.9606
   2        4.5666
   3        5.3958
   4        5.3958
   5        6.7938
   6        6.7938
   7        7.6148
   8       12.5719
   9       12.5719
  10       13.6691
  11       13.7242
  12       13.7242
  13       14.1475
  14       14.1475
  15       15.2458
  16       15.2458
 
  0.1538462E+00  0.0000000E+00  0.0000000E+00  0.2730997E-02
   1       -2.7962
   2        3.4357
   3        5.5457
   4        5.5457
   5        6.9503
   6        6.9503
   7        9.0285
   8       11.4210
   9       11.4210
  10       12.9124
  11       12.9124
  12       13.8313
  13       14.2861
  14       14.2861
  15       16.7006
  16       16.7006
 
  0.2307692E+00  0.0000000E+00  0.0000000E+00  0.2730997E-02
   1       -2.5228
   2        2.3510
   3        5.7957
   4        5.7957
   5        7.2079
   6        7.2079
   7       10.3648
   8       10.3648
   9       10.5840
  10       12.0020
  11       12.0020
  12       14.1015
  13       14.5172
  14       14.5172
  15       18.1876
  16       18.2621
 
  0.3076923E+00  0.0000000E+00  0.0000000E+00  0.2730997E-02
   1       -2.1409
   2        1.3518
   3        6.1460
   4        6.1460
   5        7.5591
   6        7.5591
   7        9.4088
   8        9.4088
   9       11.1205
  10       11.1205
  11       12.2413
  12       14.4790
  13       14.8408
  14       14.8408
  15       17.8408
  16       17.8415
 
  0.3846154E+00  0.0000000E+00  0.0000000E+00  0.2730997E-02
   1       -1.6514
   2        0.4483
   3        6.5967
   4        6.5967
   5        7.9821
   6        7.9821
   7        8.5540
   8        8.5540
   9       10.3311
  10       10.3311
  11       13.9888
  12       14.9630
  13       15.2571
  14       15.2571
  15       17.0337
  16       17.0594
 
  0.4615385E+00  0.0000000E+00  0.0000000E+00  0.2730997E-02
   1       -1.0557
   2       -0.3551
   3        7.1481
   4        7.1481
   5        7.8004
   6        7.8004
   7        8.3816
   8        8.3816
   9        9.7455
  10        9.7455
  11       15.5520
  12       15.7660
  13       15.7660
  14       15.8196
  15       16.2436
  16       16.3671
 
  0.7692308E-01  0.7692308E-01  0.0000000E+00  0.5461994E-02
   1       -2.9058
   2        4.6179
   3        4.6179
   4        5.4457
   5        6.8458
   6        7.6657
   7        7.6657
   8       11.8092
   9       12.6228
  10       12.6228
  11       13.7717
  12       13.7717
  13       14.1945
  14       15.2173
  15       15.2951
  16       15.2951
 
  0.1538462E+00  0.7692308E-01  0.0000000E+00  0.1092399E-01
   1       -2.7415
   2        3.4877
   3        4.7715
   4        5.5957
   5        7.0008
   6        7.8175
   7        9.0776
   8       10.7250
   9       11.4716
  10       12.7755
  11       12.9623
  12       13.6475
  13       13.9141
  14       15.4431
  15       16.2876
  16       16.7501
 
  0.2307692E+00  0.7692308E-01  0.0000000E+00  0.1092399E-01
   1       -2.4682
   2        2.4036
   3        5.0271
   4        5.8457
   5        7.2536
   6        8.0670
   7        9.6956
   8       10.4152
   9       10.6304
  10       12.0556
  11       12.7548
  12       13.0297
  13       14.1521
  14       15.6898
  15       17.5691
  16       17.7737
 
  0.3076923E+00  0.7692308E-01  0.0000000E+00  0.1092399E-01
   1       -2.0864
   2        1.4049
   3        5.3842
   4        6.1960
   5        7.5812
   6        8.4042
   7        8.7758
   8        9.4592
   9       11.1820
  10       11.8709
  11       12.2815
  12       13.3849
  13       14.4872
  14       16.0352
  15       16.6394
  16       17.4802
 
  0.3846154E+00  0.7692308E-01  0.0000000E+00  0.1092399E-01
   1       -1.5972
   2        0.5017
   3        5.8416
   4        6.6468
   5        7.6739
   6        8.2745
   7        8.6042
   8        8.7906
   9       10.4230
  10       11.0620
  11       13.8405
  12       14.0049
  13       14.9337
  14       15.7974
  15       16.4791
  16       16.6971
 
  0.4615385E+00  0.7692308E-01  0.0000000E+00  0.1092399E-01
   1       -1.0016
   2       -0.3014
   3        6.3964
   4        7.0392
   5        7.1982
   6        7.8507
   7        8.6530
   8        8.9959
   9       10.0281
  10       10.3800
  11       14.3955
  12       15.0484
  13       15.3402
  14       15.9441
  15       15.9936
  16       17.0207
 
  0.1538462E+00  0.1538462E+00  0.0000000E+00  0.5461994E-02
   1       -2.5774
   2        3.6438
   3        3.6438
   4        5.7457
   5        7.1491
   6        9.2234
   7        9.2234
   8        9.6692
   9       11.6233
  10       11.6233
  11       13.1127
  12       13.1127
  13       14.4743
  14       15.9098
  15       16.8986
  16       16.8986
 
  0.2307692E+00  0.1538462E+00  0.0000000E+00  0.1092399E-01
   1       -2.3044
   2        2.5613
   3        3.9035
   4        5.9958
   5        7.3718
   6        8.6750
   7        9.4585
   8       10.5666
   9       10.7650
  10       11.8761
  11       12.2194
  12       13.3668
  13       14.0055
  14       16.4355
  15       16.9395
  16       17.1457
 
  0.3076923E+00  0.1538462E+00  0.0000000E+00  0.1092399E-01
   1       -1.9231
   2        1.5639
   3        4.2662
   4        6.3462
   5        7.3888
   6        8.0681
   7        9.6103
   8        9.7528
   9       11.3852
  10       12.2297
  11       12.3824
  12       13.1802
  13       13.7429
  14       15.4927
  15       16.7027
  16       17.4911
 
  0.3846154E+00  0.1538462E+00  0.0000000E+00  0.1092399E-01
   1       -1.4345
   2        0.6619
   3        4.7307
   4        6.6960
   5        6.7971
   6        8.3602
   7        8.7552
   8        9.9049
   9       10.8543
  10       12.3804
  11       12.6839
  12       13.8305
  13       14.4728
  14       14.6439
  15       15.9148
  16       17.9336
 
  0.4615385E+00  0.1538462E+00  0.0000000E+00  0.1092399E-01
   1       -0.8397
   2       -0.1402
   3        5.2951
   4        5.9550
   5        7.3488
   6        8.0014
   7        8.8840
   8        9.4770
   9       11.0829
  10       11.6655
  11       13.2381
  12       13.8918
  13       14.5542
  14       15.2010
  15       16.1018
  16       17.9705
 
  0.2307692E+00  0.2307692E+00  0.0000000E+00  0.5461994E-02
   1       -2.0320
   2        2.8238
   3        2.8238
   4        6.2461
   5        7.2899
   6        7.9836
   7       10.8189
   8       10.8189
   9       10.9612
  10       10.9612
  11       12.5145
  12       12.5145
  13       14.9411
  14       15.3910
  15       16.5559
  16       16.6799
 
  0.3076923E+00  0.2307692E+00  0.0000000E+00  0.1092399E-01
   1       -1.6514
   2        1.8287
   3        3.1905
   4        6.5078
   5        6.5967
   6        8.1726
   7        9.8622
   8       11.0251
   9       11.1719
  10       11.9097
  11       12.3426
  12       13.1302
  13       14.4411
  14       14.5792
  15       15.8266
  16       17.6350
 
  0.3846154E+00  0.2307692E+00  0.0000000E+00  0.1092399E-01
   1       -1.1638
   2        0.9285
   3        3.6602
   4        5.6663
   5        7.0478
   6        8.6121
   7        9.0067
   8       10.5017
   9       11.6257
  10       12.0501
  11       13.0793
  12       13.5883
  13       13.8515
  14       14.5751
  15       15.0320
  16       19.2537
 
  0.4615385E+00  0.2307692E+00  0.0000000E+00  0.1092399E-01
   1       -0.5701
   2        0.1280
   3        4.2316
   4        4.9020
   5        7.5997
   6        8.2526
   7        9.1657
   8        9.8085
   9       12.1799
  10       12.5351
  11       12.8343
  12       13.1501
  13       13.6665
  14       14.3110
  15       16.3415
  16       18.2050
 
  0.3076923E+00  0.3076923E+00  0.0000000E+00  0.5461994E-02
   1       -1.2720
   2        2.1984
   3        2.1984
   4        5.5681
   5        6.9476
   6        8.5148
   7       10.2148
   8       10.2148
   9       11.7105
  10       11.7105
  11       13.2212
  12       13.2212
  13       13.4871
  14       14.9671
  15       15.5957
  16       17.3401
 
  0.3846154E+00  0.3076923E+00  0.0000000E+00  0.1092399E-01
   1       -0.7856
   2        1.3008
   3        2.6722
   4        4.7014
   5        7.3990
   6        8.9752
   7        9.3590
   8       10.6682
   9       10.9288
  10       12.2242
  11       12.6321
  12       13.6149
  13       14.1651
  14       14.8872
  15       15.3493
  16       18.4823
 
  0.4615385E+00  0.3076923E+00  0.0000000E+00  0.1092399E-01
   1       -0.1936
   2        0.5026
   3        3.2488
   4        3.9263
   5        7.9513
   6        8.6045
   7        9.5378
   8       10.1933
   9       11.2223
  10       11.8771
  11       12.7910
  12       13.4374
  13       14.1301
  14       14.7288
  15       16.6659
  16       18.4994
 
  0.3846154E+00  0.3846154E+00  0.0000000E+00  0.5461994E-02
   1       -0.3010
   2        1.7781
   3        1.7781
   4        3.8239
   5        7.8508
   6        9.4416
   7        9.8120
   8        9.8120
   9       11.4086
  10       11.4086
  11       11.7761
  12       13.3557
  13       15.3049
  14       15.3049
  15       16.4386
  16       18.2970
 
  0.4615385E+00  0.3846154E+00  0.0000000E+00  0.1092399E-01
   1        0.2889
   2        0.9826
   3        2.3589
   4        3.0417
   5        8.4035
   6        9.0571
   7       10.0065
   8       10.3659
   9       10.6647
  10       11.0206
  11       11.9716
  12       12.6217
  13       15.8005
  14       16.3105
  15       17.0597
  16       18.7902
 
  0.4615385E+00  0.4615385E+00  0.0000000E+00  0.5461994E-02
   1        0.8763
   2        1.5670
   3        1.5670
   4        2.2541
   5        8.9565
   6        9.6106
   7        9.6106
   8       10.2651
   9       10.5711
  10       11.2281
  11       11.2281
  12       11.8821
  13       17.4590
  14       17.4590
  15       17.4698
  16       18.6877
 
  0.7692308E-01  0.7692308E-01  0.7692308E-01  0.3641329E-02
   1       -2.8510
   2        4.6691
   3        4.6691
   4        4.6691
   5        7.7161
   6        7.7161
   7        7.7161
   8       11.8603
   9       11.8603
  10       11.8603
  11       14.2407
  12       14.2407
  13       14.2407
  14       15.2689
  15       15.2689
  16       15.2689
 
  0.1538462E+00  0.7692308E-01  0.7692308E-01  0.1092399E-01
   1       -2.6868
   2        3.5398
   3        4.8226
   4        4.8226
   5        7.8658
   6        7.8658
   7        9.1255
   8       10.7775
   9       10.7775
  10       12.0139
  11       13.6960
  12       13.6960
  13       14.3794
  14       15.4234
  15       16.3380
  16       16.3380
 
  0.2307692E+00  0.7692308E-01  0.7692308E-01  0.1092399E-01
   1       -2.4136
   2        2.4562
   3        5.0780
   4        5.0780
   5        8.1064
   6        8.1064
   7        9.7537
   8        9.7537
   9       10.6721
  10       12.2731
  11       12.8058
  12       12.8058
  13       14.6106
  14       15.6807
  15       16.7598
  16       17.8232
 
  0.3076923E+00  0.7692308E-01  0.7692308E-01  0.1092399E-01
   1       -2.0320
   2        1.4579
   3        5.4346
   4        5.4346
   5        8.3556
   6        8.3556
   7        8.9031
   8        8.9031
   9       11.9256
  10       11.9256
  11       12.2670
  12       12.6850
  13       14.9344
  14       15.8360
  15       16.0401
  16       17.9365
 
  0.3846154E+00  0.7692308E-01  0.7692308E-01  0.1092399E-01
   1       -1.5429
   2        0.5552
   3        5.8902
   4        5.8902
   5        7.8559
   6        7.8559
   7        8.9790
   8        8.9790
   9       11.1275
  10       11.1275
  11       13.0361
  12       14.1101
  13       14.9986
  14       15.3509
  15       16.5015
  16       17.1545
 
  0.4615385E+00  0.7692308E-01  0.7692308E-01  0.1092399E-01
   1       -0.9476
   2       -0.2476
   3        6.4324
   4        6.4324
   5        7.1378
   6        7.1378
   7        9.3900
   8        9.3900
   9       10.5057
  10       10.5057
  11       13.6005
  12       14.2528
  13       15.8601
  14       15.9105
  15       16.4616
  16       17.0707
 
  0.1538462E+00  0.1538462E+00  0.7692308E-01  0.1092399E-01
   1       -2.5228
   2        3.6958
   3        3.6958
   4        4.9758
   5        8.0039
   6        9.2644
   7        9.2644
   8        9.7291
   9       10.9384
  10       10.9384
  11       13.8418
  12       13.8418
  13       14.5206
  14       15.9625
  15       16.4891
  16       16.4891
 
  0.2307692E+00  0.1538462E+00  0.7692308E-01  0.2184797E-01
   1       -2.2499
   2        2.6139
   3        3.9553
   4        5.2304
   5        8.1505
   6        8.8064
   7        9.4310
   8        9.9803
   9       10.7439
  10       11.2600
  11       12.9597
  12       14.0541
  13       14.0854
  14       15.6882
  15       16.7404
  16       16.9900
 
  0.3076923E+00  0.1538462E+00  0.7692308E-01  0.2184797E-01
   1       -1.8688
   2        1.6169
   3        4.3177
   4        5.5845
   5        7.6157
   6        8.7466
   7        8.8687
   8        9.9217
   9       11.4791
  10       12.0953
  11       12.5220
  12       13.2310
  13       14.4302
  14       14.7570
  15       17.0908
  16       17.4495
 
  0.3846154E+00  0.1538462E+00  0.7692308E-01  0.2184797E-01
   1       -1.3803
   2        0.7153
   3        4.7815
   4        6.0253
   5        6.8090
   6        8.0372
   7        9.1599
   8       10.2535
   9       11.3659
  10       11.9538
  11       12.4345
  12       13.9147
  13       14.1952
  14       14.9076
  15       16.6602
  16       17.5388
 
  0.4615385E+00  0.1538462E+00  0.7692308E-01  0.2184797E-01
   1       -0.7857
   2       -0.0865
   3        5.3435
   4        5.9844
   5        6.6521
   6        7.2871
   7        9.6820
   8       10.2087
   9       11.2115
  10       11.7299
  11       12.5123
  12       13.1657
  13       15.2984
  14       15.9488
  15       16.1429
  16       17.9849
 
  0.2307692E+00  0.2307692E+00  0.7692308E-01  0.1092399E-01
   1       -1.9776
   2        2.8763
   3        2.8763
   4        5.4825
   5        7.5260
   6        8.6562
   7       10.0793
   8       10.0793
   9       11.1178
  10       11.1178
  11       13.2219
  12       13.2219
  13       14.6688
  14       14.9875
  15       16.6081
  16       17.4512
 
  0.3076923E+00  0.2307692E+00  0.7692308E-01  0.2184797E-01
   1       -1.5972
   2        1.8816
   3        3.2427
   4        5.8215
   5        6.6242
   6        8.9763
   7        9.1496
   8       10.4587
   9       11.3585
  10       12.4247
  11       12.6757
  12       13.6323
  13       13.7312
  14       14.6276
  15       16.5969
  16       17.6847
 
  0.3846154E+00  0.2307692E+00  0.7692308E-01  0.2184797E-01
   1       -1.1097
   2        0.9818
   3        3.7121
   4        5.6942
   5        6.3515
   6        8.2980
   7        9.4245
   8       10.9200
   9       11.2272
  10       12.1737
  11       12.8844
  12       13.8181
  13       13.9019
  14       14.6607
  15       15.8015
  16       18.9955
 
  0.4615385E+00  0.2307692E+00  0.7692308E-01  0.2184797E-01
   1       -0.5163
   2        0.1815
   3        4.2827
   4        4.9505
   5        6.8859
   6        7.5414
   7        9.9721
   8       10.6000
   9       11.4775
  10       12.1324
  11       12.5976
  12       13.2035
  13       14.4371
  14       15.0814
  15       16.3881
  16       18.2458
 
  0.3076923E+00  0.3076923E+00  0.7692308E-01  0.1092399E-01
   1       -1.2179
   2        2.2511
   3        2.2511
   4        5.5958
   5        6.2504
   6        9.3294
   7        9.5116
   8        9.5116
   9       12.4371
  10       12.4371
  11       12.7888
  12       13.3319
  13       13.3319
  14       15.6422
  15       15.7388
  16       17.3908
 
  0.3846154E+00  0.3076923E+00  0.7692308E-01  0.2184797E-01
   1       -0.7317
   2        1.3540
   3        2.7247
   4        4.7501
   5        6.6835
   6        8.6562
   7        9.7869
   8        9.9703
   9       11.7108
  10       11.9385
  11       12.9993
  12       13.6744
  13       14.9373
  14       14.9419
  15       15.3974
  16       18.5305
 
  0.4615385E+00  0.3076923E+00  0.7692308E-01  0.2184797E-01
   1       -0.1399
   2        0.5560
   3        3.3010
   4        3.9776
   5        7.2390
   6        7.8977
   7       10.3424
   8       10.5279
   9       10.9889
  10       11.1843
  11       13.5674
  12       14.1821
  13       14.2115
  14       14.7785
  15       16.7130
  16       18.5440
 
  0.3846154E+00  0.3846154E+00  0.7692308E-01  0.1092399E-01
   1       -0.2473
   2        1.8310
   3        1.8310
   4        3.8752
   5        7.1379
   6        9.1141
   7        9.1141
   8       10.2481
   9       11.0858
  10       12.1931
  11       12.1931
  12       14.1298
  13       15.3551
  14       15.3551
  15       16.4852
  16       18.3452
 
  0.4615385E+00  0.3846154E+00  0.7692308E-01  0.2184797E-01
   1        0.3425
   2        1.0359
   3        2.4116
   4        3.0939
   5        7.6960
   6        8.3554
   7        9.6722
   8       10.3297
   9       10.8061
  10       11.4568
  11       12.7527
  12       13.3989
  13       15.8492
  14       16.3581
  15       17.1069
  16       18.8362
 
  0.4615385E+00  0.4615385E+00  0.7692308E-01  0.1092399E-01
   1        0.9296
   2        1.6200
   3        1.6200
   4        2.3068
   5        8.2547
   6        8.9138
   7        8.9138
   8        9.5723
   9       11.3644
  10       12.0150
  11       12.0150
  12       12.6637
  13       17.5060
  14       17.5060
  15       17.5165
  16       18.7346
 
  0.1538462E+00  0.1538462E+00  0.1538462E+00  0.3641329E-02
   1       -2.3590
   2        3.8515
   3        3.8515
   4        3.8515
   5        9.3288
   6        9.3288
   7        9.3288
   8        9.9625
   9        9.9625
  10        9.9625
  11       14.6594
  12       14.6594
  13       14.6594
  14       15.6401
  15       16.1200
  16       16.1200
 
  0.2307692E+00  0.1538462E+00  0.1538462E+00  0.1092399E-01
   1       -2.0864
   2        2.7713
   3        4.1105
   4        4.1105
   5        8.7290
   6        8.7290
   7        9.7811
   8        9.7811
   9       10.0300
  10       11.0636
  11       14.2000
  12       14.2000
  13       14.6274
  14       14.8909
  15       16.3813
  16       17.1411
 
  0.3076923E+00  0.1538462E+00  0.1538462E+00  0.1092399E-01
   1       -1.7057
   2        1.7758
   3        4.4717
   4        4.4717
   5        7.8114
   6        7.8114
   7       10.0933
   8       10.0933
   9       10.4194
  10       12.6778
  11       13.3843
  12       13.3843
  13       13.6935
  14       15.2152
  15       16.7447
  16       18.2234
 
  0.3846154E+00  0.1538462E+00  0.1538462E+00  0.1092399E-01
   1       -1.2179
   2        0.8752
   3        4.9321
   4        4.9321
   5        6.9617
   6        6.9617
   7       10.5168
   8       10.5168
   9       10.8835
  10       12.6022
  11       12.6022
  12       12.8486
  13       14.4033
  14       15.6324
  15       17.2077
  16       17.4395
 
  0.4615385E+00  0.1538462E+00  0.1538462E+00  0.1092399E-01
   1       -0.6240
   2        0.0744
   3        5.4727
   4        5.4727
   5        6.2241
   6        6.2241
   7       10.9676
   8       10.9676
   9       11.4421
  10       11.9679
  11       11.9679
  12       12.0973
  13       16.1425
  14       16.2034
  15       16.7451
  16       17.7707
 
  0.2307692E+00  0.2307692E+00  0.1538462E+00  0.1092399E-01
   1       -1.8144
   2        3.0334
   3        3.0334
   4        4.3683
   5        7.7248
   6        9.0235
   7        9.0235
   8       10.0063
   9       11.2838
  10       11.2838
  11       13.6095
  12       14.4437
  13       14.4437
  14       15.1267
  15       16.7638
  16       17.3917
 
  0.3076923E+00  0.2307692E+00  0.1538462E+00  0.2184797E-01
   1       -1.4345
   2        2.0401
   3        3.3991
   4        4.7259
   5        6.7779
   6        8.0768
   7        9.3898
   8       10.3521
   9       11.6087
  10       12.6709
  11       12.9115
  12       13.6453
  13       14.7729
  14       14.7883
  15       17.7395
  16       17.7986
 
  0.3846154E+00  0.2307692E+00  0.1538462E+00  0.2184797E-01
   1       -0.9476
   2        1.1414
   3        3.8672
   4        5.1653
   5        5.9376
   6        7.2182
   7        9.8510
   8       10.7974
   9       11.8221
  10       11.9677
  11       12.9304
  12       14.0537
  13       14.5935
  14       15.2656
  15       17.0188
  16       18.1805
 
  0.4615385E+00  0.2307692E+00  0.1538462E+00  0.2184797E-01
   1       -0.3548
   2        0.3422
   3        4.4343
   4        5.0795
   5        5.8186
   6        6.4580
   7       10.4104
   8       11.0678
   9       11.3278
  10       11.8814
  11       12.8277
  12       13.3680
  13       15.6653
  14       16.3107
  15       16.5227
  16       18.3508
 
  0.3076923E+00  0.3076923E+00  0.1538462E+00  0.1092399E-01
   1       -1.0556
   2        2.4092
   3        2.4092
   4        5.0627
   5        5.8396
   6        8.4380
   7        8.4380
   8       10.7083
   9       11.7280
  10       13.1797
  11       13.1797
  12       14.0550
  13       14.0550
  14       15.7817
  15       17.0049
  16       17.5420
 
  0.3846154E+00  0.3076923E+00  0.1538462E+00  0.2184797E-01
   1       -0.5700
   2        1.5132
   3        2.8820
   4        4.8797
   5        5.6135
   6        7.5772
   7        8.8986
   8       10.8757
   9       11.1612
  10       12.9879
  11       13.8886
  12       14.2701
  13       15.1277
  14       15.5417
  15       16.2249
  16       18.6739
 
  0.4615385E+00  0.3076923E+00  0.1538462E+00  0.2184797E-01
   1        0.0211
   2        0.7162
   3        3.4569
   4        4.1299
   5        6.1519
   6        6.8134
   7        9.4591
   8       10.1186
   9       11.7068
  10       12.3341
  11       14.3420
  12       14.8717
  13       14.9280
  14       15.5109
  15       16.8535
  16       18.6751
 
  0.3846154E+00  0.3846154E+00  0.1538462E+00  0.1092399E-01
   1       -0.0861
   2        1.9896
   3        1.9896
   4        4.0278
   5        6.0494
   6        8.0379
   7        8.0379
   8       10.0204
   9       11.6181
  10       13.5232
  11       13.5232
  12       15.4408
  13       15.5077
  14       15.5077
  15       16.6251
  16       18.4884
 
  0.4615385E+00  0.3846154E+00  0.1538462E+00  0.2184797E-01
   1        0.5029
   2        1.1955
   3        2.5693
   4        3.2502
   5        6.6097
   6        7.2738
   7        8.5994
   8        9.2608
   9       12.1681
  10       12.8070
  11       14.0837
  12       14.7225
  13       15.9954
  14       16.5010
  15       17.2477
  16       18.9734
 
  0.4615385E+00  0.4615385E+00  0.1538462E+00  0.1092399E-01
   1        1.0894
   2        1.7789
   3        1.7789
   4        2.4647
   5        7.1722
   6        7.8362
   7        7.8362
   8        8.4992
   9       12.7198
  10       13.3606
  11       13.3606
  12       14.0006
  13       17.6467
  14       17.6467
  15       17.6568
  16       18.8753
 
  0.2307692E+00  0.2307692E+00  0.2307692E+00  0.3641329E-02
   1       -1.5429
   2        3.2946
   3        3.2946
   4        3.2946
   5        7.9912
   6        7.9912
   7        7.9912
   8       11.5364
   9       11.5364
  10       11.5364
  11       12.5881
  12       15.3587
  13       15.3587
  14       15.3587
  15       17.0215
  16       17.0215
 
  0.3076923E+00  0.2307692E+00  0.2307692E+00  0.1092399E-01
   1       -1.1638
   2        2.3038
   3        3.6590
   4        3.6590
   5        7.0352
   6        7.0352
   7        8.3531
   8       11.6456
   9       11.8823
  10       11.8823
  11       13.1734
  12       15.0155
  13       15.0155
  14       15.6837
  15       17.3779
  16       18.0786
 
  0.3846154E+00  0.2307692E+00  0.2307692E+00  0.1092399E-01
   1       -0.6778
   2        1.4071
   3        4.1234
   4        4.1234
   5        6.1725
   6        6.1725
   7        8.8144
   8       10.7932
   9       12.3133
  10       12.3133
  11       14.3115
  12       14.3115
  13       14.8961
  14       16.1019
  15       17.8276
  16       17.9143
 
  0.4615385E+00  0.2307692E+00  0.2307692E+00  0.1092399E-01
   1       -0.0862
   2        0.6094
   3        4.6687
   4        4.6687
   5        5.4271
   6        5.4271
   7        9.3755
   8       10.0356
   9       12.7760
  10       12.7760
  11       13.6877
  12       13.6877
  13       16.6133
  14       16.6857
  15       17.2177
  16       18.3635
 
  0.3076923E+00  0.3076923E+00  0.2307692E+00  0.1092399E-01
   1       -0.7856
   2        2.6720
   3        2.6720
   4        4.0196
   5        6.0750
   6        7.3952
   7        7.3952
   8       10.6992
   9       12.2387
  10       13.5099
  11       13.5099
  12       15.3580
  13       15.3580
  14       16.0144
  15       17.7909
  16       18.3054
 
  0.3846154E+00  0.3076923E+00  0.2307692E+00  0.2184797E-01
   1       -0.3010
   2        1.7781
   3        3.1433
   4        4.4629
   5        5.2263
   6        6.5293
   7        7.8570
   8        9.8431
   9       12.6845
  10       13.8812
  11       14.7129
  12       15.1865
  13       15.7824
  14       15.8291
  15       17.5727
  16       18.8410
 
  0.4615385E+00  0.3076923E+00  0.2307692E+00  0.2184797E-01
   1        0.2890
   2        0.9827
   3        3.7144
   4        4.3660
   5        5.1168
   6        5.7629
   7        8.4198
   8        9.0824
   9       13.2130
  10       13.7765
  11       14.6456
  12       15.1809
  13       16.2410
  14       16.8776
  15       17.0810
  16       18.8754
 
  0.3846154E+00  0.3846154E+00  0.2307692E+00  0.1092399E-01
   1        0.1820
   2        2.2534
   3        2.2534
   4        4.2646
   5        5.0129
   6        6.9912
   7        6.9912
   8        8.9838
   9       13.1377
  10       14.9523
  11       14.9523
  12       15.7837
  13       15.7837
  14       16.8584
  15       16.8616
  16       18.7218
 
  0.4615385E+00  0.3846154E+00  0.2307692E+00  0.2184797E-01
   1        0.7699
   2        1.4611
   3        2.8314
   4        3.5084
   5        5.5569
   6        6.2229
   7        7.5555
   8        8.2203
   9       13.6775
  10       14.2961
  11       15.5399
  12       16.1683
  13       16.2405
  14       16.7388
  15       17.4801
  16       19.1980
 
  0.4615385E+00  0.4615385E+00  0.2307692E+00  0.1092399E-01
   1        1.3552
   2        2.0433
   3        2.0433
   4        2.7271
   5        6.1204
   6        6.7879
   7        6.7879
   8        7.4545
   9       14.2218
  10       14.8474
  11       14.8474
  12       15.4740
  13       17.8799
  14       17.8799
  15       17.8907
  16       19.1100
 
  0.3076923E+00  0.3076923E+00  0.3076923E+00  0.3641329E-02
   1       -0.4085
   2        3.0385
   3        3.0385
   4        3.0385
   5        6.4321
   6        6.4321
   7        6.4321
   8        9.7487
   9       13.8686
  10       13.8686
  11       13.8686
  12       16.3403
  13       16.3403
  14       16.3403
  15       18.1318
  16       18.1318
 
  0.3846154E+00  0.3076923E+00  0.3076923E+00  0.1092399E-01
   1        0.0748
   2        2.1480
   3        3.5061
   4        3.5061
   5        5.5635
   6        5.5635
   7        6.8945
   8        8.8888
   9       14.3014
  10       14.3014
  11       15.5780
  12       16.1213
  13       16.1213
  14       16.7597
  15       18.5539
  16       18.5787
 
  0.4615385E+00  0.3076923E+00  0.3076923E+00  0.1092399E-01
   1        0.6632
   2        1.3550
   3        4.0571
   4        4.0571
   5        4.8112
   6        4.8112
   7        7.4593
   8        8.1247
   9       14.7728
  10       14.7728
  11       15.5670
  12       15.5670
  13       17.2727
  14       17.3449
  15       17.8792
  16       19.0354
 
  0.3846154E+00  0.3846154E+00  0.3076923E+00  0.1092399E-01
   1        0.5565
   2        2.6214
   3        2.6214
   4        3.9539
   5        4.7084
   6        6.0245
   7        6.0245
   8        8.0255
   9       14.7520
  10       15.9654
  11       15.9654
  12       16.5806
  13       16.5806
  14       17.1852
  15       18.2714
  16       19.0344
 
  0.4615385E+00  0.3846154E+00  0.3076923E+00  0.2184797E-01
   1        1.1428
   2        1.8320
   3        3.1956
   4        3.8529
   5        4.6023
   6        5.2541
   7        6.5906
   8        7.2584
   9       15.2741
  10       15.8363
  11       16.6010
  12       17.0083
  13       17.0718
  14       17.6266
  15       17.7970
  16       19.4948
 
  0.4615385E+00  0.4615385E+00  0.3076923E+00  0.1092399E-01
   1        1.7264
   2        2.4120
   3        2.4120
   4        3.0917
   5        5.1506
   6        5.8195
   7        5.8195
   8        6.4889
   9       15.8085
  10       16.4044
  11       16.4044
  12       17.0074
  13       18.2026
  14       18.2026
  15       18.2184
  16       19.4382
 
  0.3846154E+00  0.3846154E+00  0.3846154E+00  0.3641329E-02
   1        1.0365
   2        3.0911
   3        3.0911
   4        3.0911
   5        5.1523
   6        5.1523
   7        5.1523
   8        7.1585
   9       16.4356
  10       16.4356
  11       16.4356
  12       17.6059
  13       17.6059
  14       17.6059
  15       19.4022
  16       19.4043
 
  0.4615385E+00  0.3846154E+00  0.3846154E+00  0.1092399E-01
   1        1.6206