<?xml version="1.0" encoding="ISO-8859-1"?>
<modeling>
 <generator>
  <i name="program" type="string">vasp</i>
  <i name="version" type="string">4.6.28 </i>
  <i name="subversion" type="string">25Jul05 complex  parallel</i>
  <i name="platform" type="string">LinuxIFC</i>
  <i name="date" type="string">2016 10 19</i>
  <i name="time" type="string">17:43:07</i>
 </generator>
 <incar>
  <i type="string" name="PREC">accurate</i>
  <i type="int" name="IALGO">    38</i>
  <i name="EDIFF">      0.00000001</i>
  <i type="int" name="IBRION">    -1</i>
  <i name="ENCUT">    500.00000000</i>
  <i type="logical" name="LREAL"> F  </i>
  <i type="int" name="ISMEAR">     0</i>
  <i name="SIGMA">      0.01000000</i>
  <i type="logical" name="LWAVE"> F  </i>
  <i type="logical" name="LCHARG"> F  </i>
 </incar>
 <kpoints>
  <generation param="Auto">
   <i name="subdivisionlength">     50.00000000</i>
   <v type="int" name="divisions">      13      13      13</v>
   <v name="usershift">      0.00000000      0.00000000      0.00000000</v>
   <v name="genvec1">      0.07692308      0.00000000      0.00000000</v>
   <v name="genvec2">      0.00000000      0.07692308      0.00000000</v>
   <v name="genvec3">      0.00000000      0.00000000      0.07692308</v>
   <v name="shift">      0.00000000      0.00000000      0.00000000</v>
  </generation>
  <varray name="kpointlist" >
   <v>       0.00000000      0.00000000      0.00000000</v>
   <v>       0.07692308      0.00000000      0.00000000</v>
   <v>       0.15384615      0.00000000      0.00000000</v>
   <v>       0.23076923      0.00000000      0.00000000</v>
   <v>       0.30769231      0.00000000      0.00000000</v>
   <v>       0.38461538      0.00000000      0.00000000</v>
   <v>       0.46153846      0.00000000      0.00000000</v>
   <v>       0.07692308      0.07692308      0.00000000</v>
   <v>       0.15384615      0.07692308      0.00000000</v>
   <v>       0.23076923      0.07692308      0.00000000</v>
   <v>       0.30769231      0.07692308      0.00000000</v>
   <v>       0.38461538      0.07692308      0.00000000</v>
   <v>       0.46153846      0.07692308      0.00000000</v>
   <v>       0.15384615      0.15384615      0.00000000</v>
   <v>       0.23076923      0.15384615      0.00000000</v>
   <v>       0.30769231      0.15384615      0.00000000</v>
   <v>       0.38461538      0.15384615      0.00000000</v>
   <v>       0.46153846      0.15384615      0.00000000</v>
   <v>       0.23076923      0.23076923      0.00000000</v>
   <v>       0.30769231      0.23076923      0.00000000</v>
   <v>       0.38461538      0.23076923      0.00000000</v>
   <v>       0.46153846      0.23076923      0.00000000</v>
   <v>       0.30769231      0.30769231      0.00000000</v>
   <v>       0.38461538      0.30769231      0.00000000</v>
   <v>       0.46153846      0.30769231      0.00000000</v>
   <v>       0.38461538      0.38461538      0.00000000</v>
   <v>       0.46153846      0.38461538      0.00000000</v>
   <v>       0.46153846      0.46153846      0.00000000</v>
   <v>       0.07692308      0.07692308      0.07692308</v>
   <v>       0.15384615      0.07692308      0.07692308</v>
   <v>       0.23076923      0.07692308      0.07692308</v>
   <v>       0.30769231      0.07692308      0.07692308</v>
   <v>       0.38461538      0.07692308      0.07692308</v>
   <v>       0.46153846      0.07692308      0.07692308</v>
   <v>       0.15384615      0.15384615      0.07692308</v>
   <v>       0.23076923      0.15384615      0.07692308</v>
   <v>       0.30769231      0.15384615      0.07692308</v>
   <v>       0.38461538      0.15384615      0.07692308</v>
   <v>       0.46153846      0.15384615      0.07692308</v>
   <v>       0.23076923      0.23076923      0.07692308</v>
   <v>       0.30769231      0.23076923      0.07692308</v>
   <v>       0.38461538      0.23076923      0.07692308</v>
   <v>       0.46153846      0.23076923      0.07692308</v>
   <v>       0.30769231      0.30769231      0.07692308</v>
   <v>       0.38461538      0.30769231      0.07692308</v>
   <v>       0.46153846      0.30769231      0.07692308</v>
   <v>       0.38461538      0.38461538      0.07692308</v>
   <v>       0.46153846      0.38461538      0.07692308</v>
   <v>       0.46153846      0.46153846      0.07692308</v>
   <v>       0.15384615      0.15384615      0.15384615</v>
   <v>       0.23076923      0.15384615      0.15384615</v>
   <v>       0.30769231      0.15384615      0.15384615</v>
   <v>       0.38461538      0.15384615      0.15384615</v>
   <v>       0.46153846      0.15384615      0.15384615</v>
   <v>       0.23076923      0.23076923      0.15384615</v>
   <v>       0.30769231      0.23076923      0.15384615</v>
   <v>       0.38461538      0.23076923      0.15384615</v>
   <v>       0.46153846      0.23076923      0.15384615</v>
   <v>       0.30769231      0.30769231      0.15384615</v>
   <v>       0.38461538      0.30769231      0.15384615</v>
   <v>       0.46153846      0.30769231      0.15384615</v>
   <v>       0.38461538      0.38461538      0.15384615</v>
   <v>       0.46153846      0.38461538      0.15384615</v>
   <v>       0.46153846      0.46153846      0.15384615</v>
   <v>       0.23076923      0.23076923      0.23076923</v>
   <v>       0.30769231      0.23076923      0.23076923</v>
   <v>       0.38461538      0.23076923      0.23076923</v>
   <v>       0.46153846      0.23076923      0.23076923</v>
   <v>       0.30769231      0.30769231      0.23076923</v>
   <v>       0.38461538      0.30769231      0.23076923</v>
   <v>       0.46153846      0.30769231      0.23076923</v>
   <v>       0.38461538      0.38461538      0.23076923</v>
   <v>       0.46153846      0.38461538      0.23076923</v>
   <v>       0.46153846      0.46153846      0.23076923</v>
   <v>       0.30769231      0.30769231      0.30769231</v>
   <v>       0.38461538      0.30769231      0.30769231</v>
   <v>       0.46153846      0.30769231      0.30769231</v>
   <v>       0.38461538      0.38461538      0.30769231</v>
   <v>       0.46153846      0.38461538      0.30769231</v>
   <v>       0.46153846      0.46153846      0.30769231</v>
   <v>       0.38461538      0.38461538      0.38461538</v>
   <v>       0.46153846      0.38461538      0.38461538</v>
   <v>       0.46153846      0.46153846      0.38461538</v>
   <v>       0.46153846      0.46153846      0.46153846</v>
  </varray>
  <varray name="weights" >
   <v>       0.00045517</v>
   <v>       0.00273100</v>
   <v>       0.00273100</v>
   <v>       0.00273100</v>
   <v>       0.00273100</v>
   <v>       0.00273100</v>
   <v>       0.00273100</v>
   <v>       0.00546199</v>
   <v>       0.01092399</v>
   <v>       0.01092399</v>
   <v>       0.01092399</v>
   <v>       0.01092399</v>
   <v>       0.01092399</v>
   <v>       0.00546199</v>
   <v>       0.01092399</v>
   <v>       0.01092399</v>
   <v>       0.01092399</v>
   <v>       0.01092399</v>
   <v>       0.00546199</v>
   <v>       0.01092399</v>
   <v>       0.01092399</v>
   <v>       0.01092399</v>
   <v>       0.00546199</v>
   <v>       0.01092399</v>
   <v>       0.01092399</v>
   <v>       0.00546199</v>
   <v>       0.01092399</v>
   <v>       0.00546199</v>
   <v>       0.00364133</v>
   <v>       0.01092399</v>
   <v>       0.01092399</v>
   <v>       0.01092399</v>
   <v>       0.01092399</v>
   <v>       0.01092399</v>
   <v>       0.01092399</v>
   <v>       0.02184797</v>
   <v>       0.02184797</v>
   <v>       0.02184797</v>
   <v>       0.02184797</v>
   <v>       0.01092399</v>
   <v>       0.02184797</v>
   <v>       0.02184797</v>
   <v>       0.02184797</v>
   <v>       0.01092399</v>
   <v>       0.02184797</v>
   <v>       0.02184797</v>
   <v>       0.01092399</v>
   <v>       0.02184797</v>
   <v>       0.01092399</v>
   <v>       0.00364133</v>
   <v>       0.01092399</v>
   <v>       0.01092399</v>
   <v>       0.01092399</v>
   <v>       0.01092399</v>
   <v>       0.01092399</v>
   <v>       0.02184797</v>
   <v>       0.02184797</v>
   <v>       0.02184797</v>
   <v>       0.01092399</v>
   <v>       0.02184797</v>
   <v>       0.02184797</v>
   <v>       0.01092399</v>
   <v>       0.02184797</v>
   <v>       0.01092399</v>
   <v>       0.00364133</v>
   <v>       0.01092399</v>
   <v>       0.01092399</v>
   <v>       0.01092399</v>
   <v>       0.01092399</v>
   <v>       0.02184797</v>
   <v>       0.02184797</v>
   <v>       0.01092399</v>
   <v>       0.02184797</v>
   <v>       0.01092399</v>
   <v>       0.00364133</v>
   <v>       0.01092399</v>
   <v>       0.01092399</v>
   <v>       0.01092399</v>
   <v>       0.02184797</v>
   <v>       0.01092399</v>
   <v>       0.00364133</v>
   <v>       0.01092399</v>
   <v>       0.01092399</v>
   <v>       0.00364133</v>
  </varray>
 </kpoints>
 <parameters>
  <separator name="general" >
   <i type="string" name="SYSTEM">unknown system</i>
   <i type="logical" name="LCOMPAT"> F  </i>
  </separator>
  <separator name="electronic" >
   <i type="string" name="PREC">accura</i>
   <i name="ENMAX">    500.00000000</i>
   <i name="ENAUG">    291.05200000</i>
   <i name="EDIFF">      0.00000001</i>
   <i type="int" name="IALGO">    38</i>
   <i type="int" name="IWAVPR">    10</i>
   <i type="int" name="NBANDS">    10</i>
   <i name="NELECT">     12.00000000</i>
   <separator name="electronic smearing" >
    <i type="int" name="ISMEAR">     0</i>
    <i name="SIGMA">      0.01000000</i>
   </separator>
   <separator name="electronic projectors" >
    <i type="logical" name="LREAL"> F  </i>
    <v name="ROPT">      0.00000000</v>
    <i type="int" name="LMAXPAW">  -100</i>
    <i type="int" name="LMAXMIX">     2</i>
   </separator>
   <separator name="electronic startup" >
    <i type="int" name="ISTART">     0</i>
    <i type="int" name="ICHARG">     2</i>
    <i type="int" name="INIWAV">     1</i>
   </separator>
   <separator name="electronic spin" >
    <i type="int" name="ISPIN">     1</i>
    <i type="logical" name="LNONCOLLINEAR"> F  </i>
    <v name="MAGMOM">      1.00000000      1.00000000      1.00000000      1.00000000</v>
    <i name="NUPDOWN">     -1.00000000</i>
    <i type="logical" name="LSORBIT"> F  </i>
    <v name="SAXIS">      0.00000000      0.00000000      1.00000000</v>
    <i type="logical" name="LSPIRAL"> F  </i>
    <v name="QSPIRAL">      0.00000000      0.00000000      0.00000000</v>
    <i type="logical" name="LZEROZ"> F  </i>
   </separator>
   <separator name="electronic exchange-correlation" >
    <i type="string" name="GGA">--</i>
    <i type="int" name="VOSKOWN">     0</i>
    <i type="logical" name="LASPH"> F  </i>
    <i type="logical" name="LMETAGGA"> F  </i>
    <i type="string" name="GGA2">--</i>
   </separator>
   <separator name="electronic convergence" >
    <i type="int" name="NELM">    60</i>
    <i type="int" name="NELMDL">     0</i>
    <i type="int" name="NELMIN">     2</i>
    <i name="ENINI">    500.00000000</i>
    <separator name="electronic convergence detail" >
     <i type="logical" name="LDIAG"> T  </i>
     <i name="WEIMIN">      0.00000000</i>
     <i name="EBREAK">      0.00000000</i>
     <i name="DEPER">      0.30000000</i>
     <i type="int" name="NRMM">     4</i>
     <i name="TIME">      0.10000000</i>
    </separator>
   </separator>
   <separator name="electronic mixer" >
    <i name="AMIX">      0.40000000</i>
    <i name="BMIX">      1.00000000</i>
    <i name="AMIN">      0.10000000</i>
    <i name="AMIX_MAG">      1.60000000</i>
    <i name="BMIX_MAG">      1.00000000</i>
    <separator name="electronic mixer details" >
     <i type="int" name="IMIX">     4</i>
     <i type="int" name="MAXMIX">   -45</i>
     <i name="WC">    100.00000000</i>
     <i type="int" name="INIMIX">     1</i>
     <i type="int" name="MIXPRE">     1</i>
     <i type="int" name="MREMOVE">     5</i>
    </separator>
   </separator>
   <separator name="electronic dipolcorrection" >
    <i type="int" name="IDIPOL">     0</i>
    <i type="logical" name="LDIPOL"> F  </i>
    <v name="DIPOL">   -100.00000000</v>
    <i name="EFIELD">      0.00000000</i>
   </separator>
  </separator>
  <separator name="grids" >
   <i type="int" name="NGX">    30</i>
   <i type="int" name="NGY">    30</i>
   <i type="int" name="NGZ">    30</i>
   <i type="int" name="NGXF">    60</i>
   <i type="int" name="NGYF">    60</i>
   <i type="int" name="NGZF">    60</i>
   <i type="logical" name="ADDGRID"> F  </i>
  </separator>
  <separator name="ionic" >
   <i type="int" name="NSW">     0</i>
   <i type="int" name="IBRION">    -1</i>
   <i type="int" name="ISIF">     2</i>
   <i name="PSTRESS">      0.00000000</i>
   <i name="EDIFFG">      0.00000010</i>
   <i type="int" name="NFREE">     0</i>
   <i name="POTIM">      0.50000000</i>
   <i name="SMASS">     -3.00000000</i>
  </separator>
  <separator name="ionic md" >
   <i name="TEBEG">      0.00010000</i>
   <i name="TEEND">      0.00010000</i>
   <i type="int" name="NBLOCK">     1</i>
   <i type="int" name="KBLOCK">     1</i>
   <i type="int" name="NPACO">   256</i>
   <i name="APACO">     16.00000000</i>
  </separator>
  <separator name="symmetry" >
   <i type="int" name="ISYM">     2</i>
   <i name="SYMPREC">      0.00001000</i>
  </separator>
  <separator name="dos" >
   <i type="logical" name="LORBIT"> F  </i>
   <v name="RWIGS">     -1.00000000</v>
   <i type="int" name="NEDOS">   301</i>
   <i name="EMIN">     10.00000000</i>
   <i name="EMAX">    -10.00000000</i>
  </separator>
  <separator name="writing" >
   <i type="int" name="NWRITE">     2</i>
   <i type="logical" name="LWAVE"> F  </i>
   <i type="logical" name="LCHARG"> F  </i>
   <i type="logical" name="LPARD"> F  </i>
   <i type="logical" name="LVTOT"> F  </i>
   <i type="logical" name="LELF"> F  </i>
   <i type="logical" name="LOPTICS"> F  </i>
   <i name="STM">      0.00000000</i>
  </separator>
  <separator name="performance" >
   <i type="int" name="NPAR">     8</i>
   <i type="int" name="NSIM">     4</i>
   <i type="int" name="NBLK">   160</i>
   <i type="logical" name="LPLANE"> T  </i>
   <i type="logical" name="LCRITICAL_MEM"> F  </i>
   <i type="logical" name="LSCALAPACK"> F  </i>
   <i type="logical" name="LSCALU"> F  </i>
   <i type="logical" name="LASYNC"> F  </i>
  </separator>
  <separator name="miscellaneous" >
   <i type="int" name="IDIOT">     3</i>
   <i type="logical" name="LMUSIC"> F  </i>
   <v name="POMASS">     26.98200000</v>
   <i type="logical" name="LCORR"> T  </i>
  </separator>
  <i type="logical" name="LREAL_COMPAT"> F  </i>
  <i type="logical" name="GGA_COMPAT"> T  </i>
  <i type="logical" name="LBERRY"> F  </i>
  <i type="int" name="ICORELEVEL">     0</i>
  <i type="logical" name="LDAU"> F  </i>
  <i type="int" name="I_CONSTRAINED_M">     0</i>
 </parameters>
 <atominfo>
  <atoms>       4</atoms>
  <types>       1</types>
  <array name="atoms" >
   <dimension dim="1">ion</dimension>
   <field type="string">element</field>
   <field type="int">atomtype</field>
   <set>
    <rc><c>Al</c><c>   1</c></rc>
    <rc><c>Al</c><c>   1</c></rc>
    <rc><c>Al</c><c>   1</c></rc>
    <rc><c>Al</c><c>   1</c></rc>
   </set>
  </array>
  <array name="atomtypes" >
   <dimension dim="1">type</dimension>
   <field type="int">atomspertype</field>
   <field type="string">element</field>
   <field>mass</field>
   <field>valence</field>
   <field type="string">pseudopotential</field>
   <set>
    <rc><c>   4</c><c>Al</c><c>     26.98200000</c><c>      3.00000000</c><c> PAW_PBE Al 04Jan2001                   </c></rc>
   </set>
  </array>
 </atominfo>
 <structure name="initialpos" >
  <crystal>
   <varray name="basis" >
    <v>       3.99693331      0.00000000      0.00000000</v>
    <v>       0.00000000      3.99693331      0.00000000</v>
    <v>       0.00000000      0.00000000      3.99693331</v>
   </varray>
   <i name="volume">     63.85291151</i>
   <varray name="rec_basis" >
    <v>       0.25019182      0.00000000      0.00000000</v>
    <v>       0.00000000      0.25019182      0.00000000</v>
    <v>       0.00000000      0.00000000      0.25019182</v>
   </varray>
  </crystal>
  <varray name="positions" >
   <v>       0.50000000      0.50000000      0.00000000</v>
   <v>       0.50000000      0.00000000      0.50000000</v>
   <v>       0.00000000      0.50000000      0.50000000</v>
   <v>       0.00000000      0.00000000      0.00000000</v>
  </varray>
 </structure>
 <calculation>
  <scstep>
   <time name="dav">    0.81    0.84</time>
   <time name="total">    0.83    0.86</time>
   <energy>
    <i name="alphaZ">     -0.84163730</i>
    <i name="ewald">   -297.32262379</i>
    <i name="hartreedc">     -0.36065863</i>
    <i name="XCdc">   -104.71930600</i>
    <i name="pawpsdc">    142.21701965</i>
    <i name="pawaedc">    -14.39593217</i>
    <i name="eentropy">     -0.00003672</i>
    <i name="bandstr">     66.98141358</i>
    <i name="atom">    214.15364153</i>
    <i name="e_fr_energy">      5.71188017</i>
    <i name="e_wo_entrp">      5.71191688</i>
    <i name="e_0_energy">      5.71189852</i>
   </energy>
  </scstep>
  <scstep>
   <time name="dav">    1.00    1.01</time>
   <time name="total">    1.01    1.01</time>
   <energy>
    <i name="e_fr_energy">    -14.44125303</i>
    <i name="e_wo_entrp">    -14.44118906</i>
    <i name="e_0_energy">    -14.44122105</i>
   </energy>
  </scstep>
  <scstep>
   <time name="dav">    0.97    0.98</time>
   <time name="total">    0.98    0.98</time>
   <energy>
    <i name="e_fr_energy">    -15.05918675</i>
    <i name="e_wo_entrp">    -15.05901601</i>
    <i name="e_0_energy">    -15.05910138</i>
   </energy>
  </scstep>
  <scstep>
   <time name="dav">    0.96    0.96</time>
   <time name="total">    0.96    0.96</time>
   <energy>
    <i name="e_fr_energy">    -15.06298226</i>
    <i name="e_wo_entrp">    -15.06282494</i>
    <i name="e_0_energy">    -15.06290360</i>
   </energy>
  </scstep>
  <scstep>
   <time name="dav">    1.00    1.00</time>
   <time name="total">    1.03    1.03</time>
   <energy>
    <i name="e_fr_energy">    -15.06302927</i>
    <i name="e_wo_entrp">    -15.06287207</i>
    <i name="e_0_energy">    -15.06295067</i>
   </energy>
  </scstep>
  <scstep>
   <time name="dav">    0.91    0.92</time>
   <time name="total">    0.97    0.97</time>
   <energy>
    <i name="e_fr_energy">    -15.00919109</i>
    <i name="e_wo_entrp">    -15.00895241</i>
    <i name="e_0_energy">    -15.00907175</i>
   </energy>
  </scstep>
  <scstep>
   <time name="dav">    0.86    0.87</time>
   <time name="total">    0.92    0.92</time>
   <energy>
    <i name="e_fr_energy">    -14.97010614</i>
    <i name="e_wo_entrp">    -14.96978097</i>
    <i name="e_0_energy">    -14.96994356</i>
   </energy>
  </scstep>
  <scstep>
   <time name="dav">    1.01    1.01</time>
   <time name="total">    1.06    1.06</time>
   <energy>
    <i name="e_fr_energy">    -14.97013204</i>
    <i name="e_wo_entrp">    -14.96980580</i>
    <i name="e_0_energy">    -14.96996892</i>
   </energy>
  </scstep>
  <scstep>
   <time name="dav">    0.97    0.97</time>
   <time name="total">    1.03    1.03</time>
   <energy>
    <i name="e_fr_energy">    -14.97013462</i>
    <i name="e_wo_entrp">    -14.96980786</i>
    <i name="e_0_energy">    -14.96997124</i>
   </energy>
  </scstep>
  <scstep>
   <time name="dav">    1.05    1.05</time>
   <time name="total">    1.10    1.10</time>
   <energy>
    <i name="e_fr_energy">    -14.97013360</i>
    <i name="e_wo_entrp">    -14.96980684</i>
    <i name="e_0_energy">    -14.96997022</i>
   </energy>
  </scstep>
  <scstep>
   <time name="dav">    0.77    0.77</time>
   <time name="total">    0.83    0.83</time>
   <energy>
    <i name="e_fr_energy">    -14.97013344</i>
    <i name="e_wo_entrp">    -14.96980666</i>
    <i name="e_0_energy">    -14.96997005</i>
   </energy>
  </scstep>
  <scstep>
   <time name="dav">    0.70    0.70</time>
   <time name="total">    0.76    0.76</time>
   <energy>
    <i name="e_fr_energy">    -14.97013346</i>
    <i name="e_wo_entrp">    -14.96980669</i>
    <i name="e_0_energy">    -14.96997007</i>
   </energy>
  </scstep>
  <scstep>
   <time name="dav">    0.65    0.65</time>
   <time name="total">    0.67    0.67</time>
   <energy>
    <i name="alphaZ">     -0.84163730</i>
    <i name="ewald">   -297.32262379</i>
    <i name="hartreedc">     -0.43937706</i>
    <i name="XCdc">   -104.25242221</i>
    <i name="pawpsdc">    143.10013215</i>
    <i name="pawaedc">    -15.35206492</i>
    <i name="eentropy">     -0.00032677</i>
    <i name="bandstr">     45.98454491</i>
    <i name="atom">    214.15364153</i>
    <i name="e_fr_energy">    -14.97013347</i>
    <i name="e_wo_entrp">    -14.96980669</i>
    <i name="e_0_energy">    -14.96997008</i>
   </energy>
  </scstep>
  <structure>
   <crystal>
    <varray name="basis" >
     <v>       3.99693331      0.00000000      0.00000000</v>
     <v>       0.00000000      3.99693331      0.00000000</v>
     <v>       0.00000000      0.00000000      3.99693331</v>
    </varray>
    <i name="volume">     63.85291151</i>
    <varray name="rec_basis" >
     <v>       0.25019182      0.00000000      0.00000000</v>
     <v>       0.00000000      0.25019182      0.00000000</v>
     <v>       0.00000000      0.00000000      0.25019182</v>
    </varray>
   </crystal>
   <varray name="positions" >
    <v>       0.50000000      0.50000000      0.00000000</v>
    <v>       0.50000000      0.00000000      0.50000000</v>
    <v>       0.00000000      0.50000000      0.50000000</v>
    <v>       0.00000000      0.00000000      0.00000000</v>
   </varray>
  </structure>
  <varray name="forces" >
   <v>       0.00000000      0.00000000     -0.00000000</v>
   <v>      -0.00000000      0.00000000      0.00000000</v>
   <v>      -0.00000000      0.00000000      0.00000000</v>
   <v>       0.00000000      0.00000000     -0.00000000</v>
  </varray>
  <varray name="stress" >
   <v>      27.01525882      0.00000000      0.00000000</v>
   <v>       0.00000000     27.01525882      0.00000000</v>
   <v>      -0.00000000     -0.00000000     27.01525882</v>
  </varray>
  <energy>
   <i name="e_fr_energy">    -14.97013347</i>
   <i name="e_wo_entrp">    -14.96997008</i>
   <i name="e_0_energy">     -0.00032677</i>
  </energy>
  <eigenvalues>
   <array>
    <dimension dim="1">band</dimension>
    <dimension dim="2">kpoint</dimension>
    <dimension dim="3">spin</dimension>
    <field>eigene</field>
    <field>occ</field>
    <set>
     <set comment="spin 1">
      <set comment="kpoint 1">
       <r>  -3.0154  1.0000</r>
       <r>   5.3458  1.0000</r>
       <r>   5.3458  1.0000</r>
       <r>   5.3458  1.0000</r>
       <r>   6.7413  1.0000</r>
       <r>   6.7413  1.0000</r>
       <r>   6.7413  1.0000</r>
       <r>  13.6149  0.0000</r>
       <r>  13.6149  0.0000</r>
       <r>  13.6149  0.0000</r>
       <r>  14.1013  0.0000</r>
       <r>  14.1013  0.0000</r>
       <r>  14.1013  0.0000</r>
       <r>  14.1013  0.0000</r>
       <r>  14.1013  0.0000</r>
       <r>  14.1013  0.0000</r>
      </set>
      <set comment="kpoint 2">
       <r>  -2.9606  1.0000</r>
       <r>   4.5666  1.0000</r>
       <r>   5.3958  1.0000</r>
       <r>   5.3958  1.0000</r>
       <r>   6.7938  1.0000</r>
       <r>   6.7938  1.0000</r>
       <r>   7.6148  1.0000</r>
       <r>  12.5719  0.0000</r>
       <r>  12.5719  0.0000</r>
       <r>  13.6691  0.0000</r>
       <r>  13.7242  0.0000</r>
       <r>  13.7242  0.0000</r>
       <r>  14.1475  0.0000</r>
       <r>  14.1475  0.0000</r>
       <r>  15.2458  0.0000</r>
       <r>  15.2458  0.0000</r>
      </set>
      <set comment="kpoint 3">
       <r>  -2.7962  1.0000</r>
       <r>   3.4357  1.0000</r>
       <r>   5.5457  1.0000</r>
       <r>   5.5457  1.0000</r>
       <r>   6.9503  1.0000</r>
       <r>   6.9503  1.0000</r>
       <r>   9.0285  0.0000</r>
       <r>  11.4210  0.0000</r>
       <r>  11.4210  0.0000</r>
       <r>  12.9124  0.0000</r>
       <r>  12.9124  0.0000</r>
       <r>  13.8313  0.0000</r>
       <r>  14.2861  0.0000</r>
       <r>  14.2861  0.0000</r>
       <r>  16.7006  0.0000</r>
       <r>  16.7006  0.0000</r>
      </set>
      <set comment="kpoint 4">
       <r>  -2.5228  1.0000</r>
       <r>   2.3510  1.0000</r>
       <r>   5.7957  1.0000</r>
       <r>   5.7957  1.0000</r>
       <r>   7.2079  1.0000</r>
       <r>   7.2079  1.0000</r>
       <r>  10.3648  0.0000</r>
       <r>  10.3648  0.0000</r>
       <r>  10.5840  0.0000</r>
       <r>  12.0020  0.0000</r>
       <r>  12.0020  0.0000</r>
       <r>  14.1015  0.0000</r>
       <r>  14.5172  0.0000</r>
       <r>  14.5172  0.0000</r>
       <r>  18.1876  0.0000</r>
       <r>  18.2621  0.0000</r>
      </set>
      <set comment="kpoint 5">
       <r>  -2.1409  1.0000</r>
       <r>   1.3518  1.0000</r>
       <r>   6.1460  1.0000</r>
       <r>   6.1460  1.0000</r>
       <r>   7.5591  1.0000</r>
       <r>   7.5591  1.0000</r>
       <r>   9.4088  0.0000</r>
       <r>   9.4088  0.0000</r>
       <r>  11.1205  0.0000</r>
       <r>  11.1205  0.0000</r>
       <r>  12.2413  0.0000</r>
       <r>  14.4790  0.0000</r>
       <r>  14.8408  0.0000</r>
       <r>  14.8408  0.0000</r>
       <r>  17.8408  0.0000</r>
       <r>  17.8415  0.0000</r>
      </set>
      <set comment="kpoint 6">
       <r>  -1.6514  1.0000</r>
       <r>   0.4483  1.0000</r>
       <r>   6.5967  1.0000</r>
       <r>   6.5967  1.0000</r>
       <r>   7.9821  1.0000</r>
       <r>   7.9821  1.0000</r>
       <r>   8.5540  0.0000</r>
       <r>   8.5540  0.0000</r>
       <r>  10.3311  0.0000</r>
       <r>  10.3311  0.0000</r>
       <r>  13.9888  0.0000</r>
       <r>  14.9630  0.0000</r>
       <r>  15.2571  0.0000</r>
       <r>  15.2571  0.0000</r>
       <r>  17.0337  0.0000</r>
       <r>  17.0594  0.0000</r>
      </set>
      <set comment="kpoint 7">
       <r>  -1.0557  1.0000</r>
       <r>  -0.3551  1.0000</r>
       <r>   7.1481  1.0000</r>
       <r>   7.1481  1.0000</r>
       <r>   7.8004  1.0000</r>
       <r>   7.8004  1.0000</r>
       <r>   8.3816  0.0000</r>
       <r>   8.3816  0.0000</r>
       <r>   9.7455  0.0000</r>
       <r>   9.7455  0.0000</r>
       <r>  15.5520  0.0000</r>
       <r>  15.7660  0.0000</r>
       <r>  15.7660  0.0000</r>
       <r>  15.8196  0.0000</r>
       <r>  16.2436  0.0000</r>
       <r>  16.3671  0.0000</r>
      </set>
      <set comment="kpoint 8">
       <r>  -2.9058  1.0000</r>
       <r>   4.6179  1.0000</r>
       <r>   4.6179  1.0000</r>
       <r>   5.4457  1.0000</r>
       <r>   6.8458  1.0000</r>
       <r>   7.6657  1.0000</r>
       <r>   7.6657  1.0000</r>
       <r>  11.8092  0.0000</r>
       <r>  12.6228  0.0000</r>
       <r>  12.6228  0.0000</r>
       <r>  13.7717  0.0000</r>
       <r>  13.7717  0.0000</r>
       <r>  14.1945  0.0000</r>
       <r>  15.2173  0.0000</r>
       <r>  15.2951  0.0000</r>
       <r>  15.2951  0.0000</r>
      </set>
      <set comment="kpoint 9">
       <r>  -2.7415  1.0000</r>
       <r>   3.4877  1.0000</r>
       <r>   4.7715  1.0000</r>
       <r>   5.5957  1.0000</r>
       <r>   7.0008  1.0000</r>
       <r>   7.8175  1.0000</r>
       <r>   9.0776  0.0000</r>
       <r>  10.7250  0.0000</r>
       <r>  11.4716  0.0000</r>
       <r>  12.7755  0.0000</r>
       <r>  12.9623  0.0000</r>
       <r>  13.6475  0.0000</r>
       <r>  13.9141  0.0000</r>
       <r>  15.4431  0.0000</r>
       <r>  16.2876  0.0000</r>
       <r>  16.7501  0.0000</r>
      </set>
      <set comment="kpoint 10">
       <r>  -2.4682  1.0000</r>
       <r>   2.4036  1.0000</r>
       <r>   5.0271  1.0000</r>
       <r>   5.8457  1.0000</r>
       <r>   7.2536  1.0000</r>
       <r>   8.0670  1.0000</r>
       <r>   9.6956  0.0000</r>
       <r>  10.4152  0.0000</r>
       <r>  10.6304  0.0000</r>
       <r>  12.0556  0.0000</r>
       <r>  12.7548  0.0000</r>
       <r>  13.0297  0.0000</r>
       <r>  14.1521  0.0000</r>
       <r>  15.6898  0.0000</r>
       <r>  17.5691  0.0000</r>
       <r>  17.7737  0.0000</r>
      </set>
      <set comment="kpoint 11">
       <r>  -2.0864  1.0000</r>
       <r>   1.4049  1.0000</r>
       <r>   5.3842  1.0000</r>
       <r>   6.1960  1.0000</r>
       <r>   7.5812  1.0000</r>
       <r>   8.4042  0.0000</r>
       <r>   8.7758  0.0000</r>
       <r>   9.4592  0.0000</r>
       <r>  11.1820  0.0000</r>
       <r>  11.8709  0.0000</r>
       <r>  12.2815  0.0000</r>
       <r>  13.3849  0.0000</r>
       <r>  14.4872  0.0000</r>
       <r>  16.0352  0.0000</r>
       <r>  16.6394  0.0000</r>
       <r>  17.4802  0.0000</r>
      </set>
      <set comment="kpoint 12">
       <r>  -1.5972  1.0000</r>
       <r>   0.5017  1.0000</r>
       <r>   5.8416  1.0000</r>
       <r>   6.6468  1.0000</r>
       <r>   7.6739  1.0000</r>
       <r>   8.2745  1.0000</r>
       <r>   8.6042  0.0000</r>
       <r>   8.7906  0.0000</r>
       <r>  10.4230  0.0000</r>
       <r>  11.0620  0.0000</r>
       <r>  13.8405  0.0000</r>
       <r>  14.0049  0.0000</r>
       <r>  14.9337  0.0000</r>
       <r>  15.7974  0.0000</r>
       <r>  16.4791  0.0000</r>
       <r>  16.6971  0.0000</r>
      </set>
      <set comment="kpoint 13">
       <r>  -1.0016  1.0000</r>
       <r>  -0.3014  1.0000</r>
       <r>   6.3964  1.0000</r>
       <r>   7.0392  1.0000</r>
       <r>   7.1982  1.0000</r>
       <r>   7.8507  1.0000</r>
       <r>   8.6530  0.0000</r>
       <r>   8.9959  0.0000</r>
       <r>  10.0281  0.0000</r>
       <r>  10.3800  0.0000</r>
       <r>  14.3955  0.0000</r>
       <r>  15.0484  0.0000</r>
       <r>  15.3402  0.0000</r>
       <r>  15.9441  0.0000</r>
       <r>  15.9936  0.0000</r>
       <r>  17.0207  0.0000</r>
      </set>
      <set comment="kpoint 14">
       <r>  -2.5774  1.0000</r>
       <r>   3.6438  1.0000</r>
       <r>   3.6438  1.0000</r>
       <r>   5.7457  1.0000</r>
       <r>   7.1491  1.0000</r>
       <r>   9.2234  0.0000</r>
       <r>   9.2234  0.0000</r>
       <r>   9.6692  0.0000</r>
       <r>  11.6233  0.0000</r>
       <r>  11.6233  0.0000</r>
       <r>  13.1127  0.0000</r>
       <r>  13.1127  0.0000</r>
       <r>  14.4743  0.0000</r>
       <r>  15.9098  0.0000</r>
       <r>  16.8986  0.0000</r>
       <r>  16.8986  0.0000</r>
      </set>
      <set comment="kpoint 15">
       <r>  -2.3044  1.0000</r>
       <r>   2.5613  1.0000</r>
       <r>   3.9035  1.0000</r>
       <r>   5.9958  1.0000</r>
       <r>   7.3718  1.0000</r>
       <r>   8.6750  0.0000</r>
       <r>   9.4585  0.0000</r>
       <r>  10.5666  0.0000</r>
       <r>  10.7650  0.0000</r>
       <r>  11.8761  0.0000</r>
       <r>  12.2194  0.0000</r>
       <r>  13.3668  0.0000</r>
       <r>  14.0055  0.0000</r>
       <r>  16.4355  0.0000</r>
       <r>  16.9395  0.0000</r>
       <r>  17.1457  0.0000</r>
      </set>
      <set comment="kpoint 16">
       <r>  -1.9231  1.0000</r>
       <r>   1.5639  1.0000</r>
       <r>   4.2662  1.0000</r>
       <r>   6.3462  1.0000</r>
       <r>   7.3888  1.0000</r>
       <r>   8.0681  1.0000</r>
       <r>   9.6103  0.0000</r>
       <r>   9.7528  0.0000</r>
       <r>  11.3852  0.0000</r>
       <r>  12.2297  0.0000</r>
       <r>  12.3824  0.0000</r>
       <r>  13.1802  0.0000</r>
       <r>  13.7429  0.0000</r>
       <r>  15.4927  0.0000</r>
       <r>  16.7027  0.0000</r>
       <r>  17.4911  0.0000</r>
      </set>
      <set comment="kpoint 17">
       <r>  -1.4345  1.0000</r>
       <r>   0.6619  1.0000</r>
       <r>   4.7307  1.0000</r>
       <r>   6.6960  1.0000</r>
       <r>   6.7971  1.0000</r>
       <r>   8.3602  0.1483</r>
       <r>   8.7552  0.0000</r>
       <r>   9.9049  0.0000</r>
       <r>  10.8543  0.0000</r>
       <r>  12.3804  0.0000</r>
       <r>  12.6839  0.0000</r>
       <r>  13.8305  0.0000</r>
       <r>  14.4728  0.0000</r>
       <r>  14.6439  0.0000</r>
       <r>  15.9148  0.0000</r>
       <r>  17.9336  0.0000</r>
      </set>
      <set comment="kpoint 18">
       <r>  -0.8397  1.0000</r>
       <r>  -0.1402  1.0000</r>
       <r>   5.2951  1.0000</r>
       <r>   5.9550  1.0000</r>
       <r>   7.3488  1.0000</r>
       <r>   8.0014  1.0000</r>
       <r>   8.8840  0.0000</r>
       <r>   9.4770  0.0000</r>
       <r>  11.0829  0.0000</r>
       <r>  11.6655  0.0000</r>
       <r>  13.2381  0.0000</r>
       <r>  13.8918  0.0000</r>
       <r>  14.5542  0.0000</r>
       <r>  15.2010  0.0000</r>
       <r>  16.1018  0.0000</r>
       <r>  17.9705  0.0000</r>
      </set>
      <set comment="kpoint 19">
       <r>  -2.0320  1.0000</r>
       <r>   2.8238  1.0000</r>
       <r>   2.8238  1.0000</r>
       <r>   6.2461  1.0000</r>
       <r>   7.2899  1.0000</r>
       <r>   7.9836  1.0000</r>
       <r>  10.8189  0.0000</r>
       <r>  10.8189  0.0000</r>
       <r>  10.9612  0.0000</r>
       <r>  10.9612  0.0000</r>
       <r>  12.5145  0.0000</r>
       <r>  12.5145  0.0000</r>
       <r>  14.9411  0.0000</r>
       <r>  15.3910  0.0000</r>
       <r>  16.5559  0.0000</r>
       <r>  16.6799  0.0000</r>
      </set>
      <set comment="kpoint 20">
       <r>  -1.6514  1.0000</r>
       <r>   1.8287  1.0000</r>
       <r>   3.1905  1.0000</r>
       <r>   6.5078  1.0000</r>
       <r>   6.5967  1.0000</r>
       <r>   8.1726  1.0000</r>
       <r>   9.8622  0.0000</r>
       <r>  11.0251  0.0000</r>
       <r>  11.1719  0.0000</r>
       <r>  11.9097  0.0000</r>
       <r>  12.3426  0.0000</r>
       <r>  13.1302  0.0000</r>
       <r>  14.4411  0.0000</r>
       <r>  14.5792  0.0000</r>
       <r>  15.8266  0.0000</r>
       <r>  17.6350  0.0000</r>
      </set>
      <set comment="kpoint 21">
       <r>  -1.1638  1.0000</r>
       <r>   0.9285  1.0000</r>
       <r>   3.6602  1.0000</r>
       <r>   5.6663  1.0000</r>
       <r>   7.0478  1.0000</r>
       <r>   8.6121  0.0000</r>
       <r>   9.0067  0.0000</r>
       <r>  10.5017  0.0000</r>
       <r>  11.6257  0.0000</r>
       <r>  12.0501  0.0000</r>
       <r>  13.0793  0.0000</r>
       <r>  13.5883  0.0000</r>
       <r>  13.8515  0.0000</r>
       <r>  14.5751  0.0000</r>
       <r>  15.0320  0.0000</r>
       <r>  19.2537  0.0000</r>
      </set>
      <set comment="kpoint 22">
       <r>  -0.5701  1.0000</r>
       <r>   0.1280  1.0000</r>
       <r>   4.2316  1.0000</r>
       <r>   4.9020  1.0000</r>
       <r>   7.5997  1.0000</r>
       <r>   8.2526  1.0000</r>
       <r>   9.1657  0.0000</r>
       <r>   9.8085  0.0000</r>
       <r>  12.1799  0.0000</r>
       <r>  12.5351  0.0000</r>
       <r>  12.8343  0.0000</r>
       <r>  13.1501  0.0000</r>
       <r>  13.6665  0.0000</r>
       <r>  14.3110  0.0000</r>
       <r>  16.3415  0.0000</r>
       <r>  18.2050  0.0000</r>
      </set>
      <set comment="kpoint 23">
       <r>  -1.2720  1.0000</r>
       <r>   2.1984  1.0000</r>
       <r>   2.1984  1.0000</r>
       <r>   5.5681  1.0000</r>
       <r>   6.9476  1.0000</r>
       <r>   8.5148  0.0000</r>
       <r>  10.2148  0.0000</r>
       <r>  10.2148  0.0000</r>
       <r>  11.7105  0.0000</r>
       <r>  11.7105  0.0000</r>
       <r>  13.2212  0.0000</r>
       <r>  13.2212  0.0000</r>
       <r>  13.4871  0.0000</r>
       <r>  14.9671  0.0000</r>
       <r>  15.5957  0.0000</r>
       <r>  17.3401  0.0000</r>
      </set>
      <set comment="kpoint 24">
       <r>  -0.7856  1.0000</r>
       <r>   1.3008  1.0000</r>
       <r>   2.6722  1.0000</r>
       <r>   4.7014  1.0000</r>
       <r>   7.3990  1.0000</r>
       <r>   8.9752  0.0000</r>
       <r>   9.3590  0.0000</r>
       <r>  10.6682  0.0000</r>
       <r>  10.9288  0.0000</r>
       <r>  12.2242  0.0000</r>
       <r>  12.6321  0.0000</r>
       <r>  13.6149  0.0000</r>
       <r>  14.1651  0.0000</r>
       <r>  14.8872  0.0000</r>
       <r>  15.3493  0.0000</r>
       <r>  18.4823  0.0000</r>
      </set>
      <set comment="kpoint 25">
       <r>  -0.1936  1.0000</r>
       <r>   0.5026  1.0000</r>
       <r>   3.2488  1.0000</r>
       <r>   3.9263  1.0000</r>
       <r>   7.9513  1.0000</r>
       <r>   8.6045  0.0000</r>
       <r>   9.5378  0.0000</r>
       <r>  10.1933  0.0000</r>
       <r>  11.2223  0.0000</r>
       <r>  11.8771  0.0000</r>
       <r>  12.7910  0.0000</r>
       <r>  13.4374  0.0000</r>
       <r>  14.1301  0.0000</r>
       <r>  14.7288  0.0000</r>
       <r>  16.6659  0.0000</r>
       <r>  18.4994  0.0000</r>
      </set>
      <set comment="kpoint 26">
       <r>  -0.3010  1.0000</r>
       <r>   1.7781  1.0000</r>
       <r>   1.7781  1.0000</r>
       <r>   3.8239  1.0000</r>
       <r>   7.8508  1.0000</r>
       <r>   9.4416  0.0000</r>
       <r>   9.8120  0.0000</r>
       <r>   9.8120  0.0000</r>
       <r>  11.4086  0.0000</r>
       <r>  11.4086  0.0000</r>
       <r>  11.7761  0.0000</r>
       <r>  13.3557  0.0000</r>
       <r>  15.3049  0.0000</r>
       <r>  15.3049  0.0000</r>
       <r>  16.4386  0.0000</r>
       <r>  18.2970  0.0000</r>
      </set>
      <set comment="kpoint 27">
       <r>   0.2889  1.0000</r>
       <r>   0.9826  1.0000</r>
       <r>   2.3589  1.0000</r>
       <r>   3.0417  1.0000</r>
       <r>   8.4035  0.0000</r>
       <r>   9.0571  0.0000</r>
       <r>  10.0065  0.0000</r>
       <r>  10.3659  0.0000</r>
       <r>  10.6647  0.0000</r>
       <r>  11.0206  0.0000</r>
       <r>  11.9716  0.0000</r>
       <r>  12.6217  0.0000</r>
       <r>  15.8005  0.0000</r>
       <r>  16.3105  0.0000</r>
       <r>  17.0597  0.0000</r>
       <r>  18.7902  0.0000</r>
      </set>
      <set comment="kpoint 28">
       <r>   0.8763  1.0000</r>
       <r>   1.5670  1.0000</r>
       <r>   1.5670  1.0000</r>
       <r>   2.2541  1.0000</r>
       <r>   8.9565  0.0000</r>
       <r>   9.6106  0.0000</r>
       <r>   9.6106  0.0000</r>
       <r>  10.2651  0.0000</r>
       <r>  10.5711  0.0000</r>
       <r>  11.2281  0.0000</r>
       <r>  11.2281  0.0000</r>
       <r>  11.8821  0.0000</r>
       <r>  17.4590  0.0000</r>
       <r>  17.4590  0.0000</r>
       <r>  17.4698  0.0000</r>
       <r>  18.6877  0.0000</r>
      </set>
      <set comment="kpoint 29">
       <r>  -2.8510  1.0000</r>
       <r>   4.6691  1.0000</r>
       <r>   4.6691  1.0000</r>
       <r>   4.6691  1.0000</r>
       <r>   7.7161  1.0000</r>
       <r>   7.7161  1.0000</r>
       <r>   7.7161  1.0000</r>
       <r>  11.8603  0.0000</r>
       <r>  11.8603  0.0000</r>
       <r>  11.8603  0.0000</r>
       <r>  14.2407  0.0000</r>
       <r>  14.2407  0.0000</r>
       <r>  14.2407  0.0000</r>
       <r>  15.2689  0.0000</r>
       <r>  15.2689  0.0000</r>
       <r>  15.2689  0.0000</r>
      </set>
      <set comment="kpoint 30">
       <r>  -2.6868  1.0000</r>
       <r>   3.5398  1.0000</r>
       <r>   4.8226  1.0000</r>
       <r>   4.8226  1.0000</r>
       <r>   7.8658  1.0000</r>
       <r>   7.8658  1.0000</r>
       <r>   9.1255  0.0000</r>
       <r>  10.7775  0.0000</r>
       <r>  10.7775  0.0000</r>
       <r>  12.0139  0.0000</r>
       <r>  13.6960  0.0000</r>
       <r>  13.6960  0.0000</r>
       <r>  14.3794  0.0000</r>
       <r>  15.4234  0.0000</r>
       <r>  16.3380  0.0000</r>
       <r>  16.3380  0.0000</r>
      </set>
      <set comment="kpoint 31">
       <r>  -2.4136  1.0000</r>
       <r>   2.4562  1.0000</r>
       <r>   5.0780  1.0000</r>
       <r>   5.0780  1.0000</r>
       <r>   8.1064  1.0000</r>
       <r>   8.1064  1.0000</r>
       <r>   9.7537  0.0000</r>
       <r>   9.7537  0.0000</r>
       <r>  10.6721  0.0000</r>
       <r>  12.2731  0.0000</r>
       <r>  12.8058  0.0000</r>
       <r>  12.8058  0.0000</r>
       <r>  14.6106  0.0000</r>
       <r>  15.6807  0.0000</r>
       <r>  16.7598  0.0000</r>
       <r>  17.8232  0.0000</r>
      </set>
      <set comment="kpoint 32">
       <r>  -2.0320  1.0000</r>
       <r>   1.4579  1.0000</r>
       <r>   5.4346  1.0000</r>
       <r>   5.4346  1.0000</r>
       <r>   8.3556  0.3456</r>
       <r>   8.3556  0.3456</r>
       <r>   8.9031  0.0000</r>
       <r>   8.9031  0.0000</r>
       <r>  11.9256  0.0000</r>
       <r>  11.9256  0.0000</r>
       <r>  12.2670  0.0000</r>
       <r>  12.6850  0.0000</r>
       <r>  14.9344  0.0000</r>
       <r>  15.8360  0.0000</r>
       <r>  16.0401  0.0000</r>
       <r>  17.9365  0.0000</r>
      </set>
      <set comment="kpoint 33">
       <r>  -1.5429  1.0000</r>
       <r>   0.5552  1.0000</r>
       <r>   5.8902  1.0000</r>
       <r>   5.8902  1.0000</r>
       <r>   7.8559  1.0000</r>
       <r>   7.8559  1.0000</r>
       <r>   8.9790  0.0000</r>
       <r>   8.9790  0.0000</r>
       <r>  11.1275  0.0000</r>
       <r>  11.1275  0.0000</r>
       <r>  13.0361  0.0000</r>
       <r>  14.1101  0.0000</r>
       <r>  14.9986  0.0000</r>
       <r>  15.3509  0.0000</r>
       <r>  16.5015  0.0000</r>
       <r>  17.1545  0.0000</r>
      </set>
      <set comment="kpoint 34">
       <r>  -0.9476  1.0000</r>
       <r>  -0.2476  1.0000</r>
       <r>   6.4324  1.0000</r>
       <r>   6.4324  1.0000</r>
       <r>   7.1378  1.0000</r>
       <r>   7.1378  1.0000</r>
       <r>   9.3900  0.0000</r>
       <r>   9.3900  0.0000</r>
       <r>  10.5057  0.0000</r>
       <r>  10.5057  0.0000</r>
       <r>  13.6005  0.0000</r>
       <r>  14.2528  0.0000</r>
       <r>  15.8601  0.0000</r>
       <r>  15.9105  0.0000</r>
       <r>  16.4616  0.0000</r>
       <r>  17.0707  0.0000</r>
      </set>
      <set comment="kpoint 35">
       <r>  -2.5228  1.0000</r>
       <r>   3.6958  1.0000</r>
       <r>   3.6958  1.0000</r>
       <r>   4.9758  1.0000</r>
       <r>   8.0039  1.0000</r>
       <r>   9.2644  0.0000</r>
       <r>   9.2644  0.0000</r>
       <r>   9.7291  0.0000</r>
       <r>  10.9384  0.0000</r>
       <r>  10.9384  0.0000</r>
       <r>  13.8418  0.0000</r>
       <r>  13.8418  0.0000</r>
       <r>  14.5206  0.0000</r>
       <r>  15.9625  0.0000</r>
       <r>  16.4891  0.0000</r>
       <r>  16.4891  0.0000</r>
      </set>
      <set comment="kpoint 36">
       <r>  -2.2499  1.0000</r>
       <r>   2.6139  1.0000</r>
       <r>   3.9553  1.0000</r>
       <r>   5.2304  1.0000</r>
       <r>   8.1505  1.0000</r>
       <r>   8.8064  0.0000</r>
       <r>   9.4310  0.0000</r>
       <r>   9.9803  0.0000</r>
       <r>  10.7439  0.0000</r>
       <r>  11.2600  0.0000</r>
       <r>  12.9597  0.0000</r>
       <r>  14.0541  0.0000</r>
       <r>  14.0854  0.0000</r>
       <r>  15.6882  0.0000</r>
       <r>  16.7404  0.0000</r>
       <r>  16.9900  0.0000</r>
      </set>
      <set comment="kpoint 37">
       <r>  -1.8688  1.0000</r>
       <r>   1.6169  1.0000</r>
       <r>   4.3177  1.0000</r>
       <r>   5.5845  1.0000</r>
       <r>   7.6157  1.0000</r>
       <r>   8.7466  0.0000</r>
       <r>   8.8687  0.0000</r>
       <r>   9.9217  0.0000</r>
       <r>  11.4791  0.0000</r>
       <r>  12.0953  0.0000</r>
       <r>  12.5220  0.0000</r>
       <r>  13.2310  0.0000</r>
       <r>  14.4302  0.0000</r>
       <r>  14.7570  0.0000</r>
       <r>  17.0908  0.0000</r>
       <r>  17.4495  0.0000</r>
      </set>
      <set comment="kpoint 38">
       <r>  -1.3803  1.0000</r>
       <r>   0.7153  1.0000</r>
       <r>   4.7815  1.0000</r>
       <r>   6.0253  1.0000</r>
       <r>   6.8090  1.0000</r>
       <r>   8.0372  1.0000</r>
       <r>   9.1599  0.0000</r>
       <r>  10.2535  0.0000</r>
       <r>  11.3659  0.0000</r>
       <r>  11.9538  0.0000</r>
       <r>  12.4345  0.0000</r>
       <r>  13.9147  0.0000</r>
       <r>  14.1952  0.0000</r>
       <r>  14.9076  0.0000</r>
       <r>  16.6602  0.0000</r>
       <r>  17.5388  0.0000</r>
      </set>
      <set comment="kpoint 39">
       <r>  -0.7857  1.0000</r>
       <r>  -0.0865  1.0000</r>
       <r>   5.3435  1.0000</r>
       <r>   5.9844  1.0000</r>
       <r>   6.6521  1.0000</r>
       <r>   7.2871  1.0000</r>
       <r>   9.6820  0.0000</r>
       <r>  10.2087  0.0000</r>
       <r>  11.2115  0.0000</r>
       <r>  11.7299  0.0000</r>
       <r>  12.5123  0.0000</r>
       <r>  13.1657  0.0000</r>
       <r>  15.2984  0.0000</r>
       <r>  15.9488  0.0000</r>
       <r>  16.1429  0.0000</r>
       <r>  17.9849  0.0000</r>
      </set>
      <set comment="kpoint 40">
       <r>  -1.9776  1.0000</r>
       <r>   2.8763  1.0000</r>
       <r>   2.8763  1.0000</r>
       <r>   5.4825  1.0000</r>
       <r>   7.5260  1.0000</r>
       <r>   8.6562  0.0000</r>
       <r>  10.0793  0.0000</r>
       <r>  10.0793  0.0000</r>
       <r>  11.1178  0.0000</r>
       <r>  11.1178  0.0000</r>
       <r>  13.2219  0.0000</r>
       <r>  13.2219  0.0000</r>
       <r>  14.6688  0.0000</r>
       <r>  14.9875  0.0000</r>
       <r>  16.6081  0.0000</r>
       <r>  17.4512  0.0000</r>
      </set>
      <set comment="kpoint 41">
       <r>  -1.5972  1.0000</r>
       <r>   1.8816  1.0000</r>
       <r>   3.2427  1.0000</r>
       <r>   5.8215  1.0000</r>
       <r>   6.6242  1.0000</r>
       <r>   8.9763  0.0000</r>
       <r>   9.1496  0.0000</r>
       <r>  10.4587  0.0000</r>
       <r>  11.3585  0.0000</r>
       <r>  12.4247  0.0000</r>
       <r>  12.6757  0.0000</r>
       <r>  13.6323  0.0000</r>
       <r>  13.7312  0.0000</r>
       <r>  14.6276  0.0000</r>
       <r>  16.5969  0.0000</r>
       <r>  17.6847  0.0000</r>
      </set>
      <set comment="kpoint 42">
       <r>  -1.1097  1.0000</r>
       <r>   0.9818  1.0000</r>
       <r>   3.7121  1.0000</r>
       <r>   5.6942  1.0000</r>
       <r>   6.3515  1.0000</r>
       <r>   8.2980  1.0000</r>
       <r>   9.4245  0.0000</r>
       <r>  10.9200  0.0000</r>
       <r>  11.2272  0.0000</r>
       <r>  12.1737  0.0000</r>
       <r>  12.8844  0.0000</r>
       <r>  13.8181  0.0000</r>
       <r>  13.9019  0.0000</r>
       <r>  14.6607  0.0000</r>
       <r>  15.8015  0.0000</r>
       <r>  18.9955  0.0000</r>
      </set>
      <set comment="kpoint 43">
       <r>  -0.5163  1.0000</r>
       <r>   0.1815  1.0000</r>
       <r>   4.2827  1.0000</r>
       <r>   4.9505  1.0000</r>
       <r>   6.8859  1.0000</r>
       <r>   7.5414  1.0000</r>
       <r>   9.9721  0.0000</r>
       <r>  10.6000  0.0000</r>
       <r>  11.4775  0.0000</r>
       <r>  12.1324  0.0000</r>
       <r>  12.5976  0.0000</r>
       <r>  13.2035  0.0000</r>
       <r>  14.4371  0.0000</r>
       <r>  15.0814  0.0000</r>
       <r>  16.3881  0.0000</r>
       <r>  18.2458  0.0000</r>
      </set>
      <set comment="kpoint 44">
       <r>  -1.2179  1.0000</r>
       <r>   2.2511  1.0000</r>
       <r>   2.2511  1.0000</r>
       <r>   5.5958  1.0000</r>
       <r>   6.2504  1.0000</r>
       <r>   9.3294  0.0000</r>
       <r>   9.5116  0.0000</r>
       <r>   9.5116  0.0000</r>
       <r>  12.4371  0.0000</r>
       <r>  12.4371  0.0000</r>
       <r>  12.7888  0.0000</r>
       <r>  13.3319  0.0000</r>
       <r>  13.3319  0.0000</r>
       <r>  15.6422  0.0000</r>
       <r>  15.7388  0.0000</r>
       <r>  17.3908  0.0000</r>
      </set>
      <set comment="kpoint 45">
       <r>  -0.7317  1.0000</r>
       <r>   1.3540  1.0000</r>
       <r>   2.7247  1.0000</r>
       <r>   4.7501  1.0000</r>
       <r>   6.6835  1.0000</r>
       <r>   8.6562  0.0000</r>
       <r>   9.7869  0.0000</r>
       <r>   9.9703  0.0000</r>
       <r>  11.7108  0.0000</r>
       <r>  11.9385  0.0000</r>
       <r>  12.9993  0.0000</r>
       <r>  13.6744  0.0000</r>
       <r>  14.9373  0.0000</r>
       <r>  14.9419  0.0000</r>
       <r>  15.3974  0.0000</r>
       <r>  18.5305  0.0000</r>
      </set>
      <set comment="kpoint 46">
       <r>  -0.1399  1.0000</r>
       <r>   0.5560  1.0000</r>
       <r>   3.3010  1.0000</r>
       <r>   3.9776  1.0000</r>
       <r>   7.2390  1.0000</r>
       <r>   7.8977  1.0000</r>
       <r>  10.3424  0.0000</r>
       <r>  10.5279  0.0000</r>
       <r>  10.9889  0.0000</r>
       <r>  11.1843  0.0000</r>
       <r>  13.5674  0.0000</r>
       <r>  14.1821  0.0000</r>
       <r>  14.2115  0.0000</r>
       <r>  14.7785  0.0000</r>
       <r>  16.7130  0.0000</r>
       <r>  18.5440  0.0000</r>
      </set>
      <set comment="kpoint 47">
       <r>  -0.2473  1.0000</r>
       <r>   1.8310  1.0000</r>
       <r>   1.8310  1.0000</r>
       <r>   3.8752  1.0000</r>
       <r>   7.1379  1.0000</r>
       <r>   9.1141  0.0000</r>
       <r>   9.1141  0.0000</r>
       <r>  10.2481  0.0000</r>
       <r>  11.0858  0.0000</r>
       <r>  12.1931  0.0000</r>
       <r>  12.1931  0.0000</r>
       <r>  14.1298  0.0000</r>
       <r>  15.3551  0.0000</r>
       <r>  15.3551  0.0000</r>
       <r>  16.4852  0.0000</r>
       <r>  18.3452  0.0000</r>
      </set>
      <set comment="kpoint 48">
       <r>   0.3425  1.0000</r>
       <r>   1.0359  1.0000</r>
       <r>   2.4116  1.0000</r>
       <r>   3.0939  1.0000</r>
       <r>   7.6960  1.0000</r>
       <r>   8.3554  0.3595</r>
       <r>   9.6722  0.0000</r>
       <r>  10.3297  0.0000</r>
       <r>  10.8061  0.0000</r>
       <r>  11.4568  0.0000</r>
       <r>  12.7527  0.0000</r>
       <r>  13.3989  0.0000</r>
       <r>  15.8492  0.0000</r>
       <r>  16.3581  0.0000</r>
       <r>  17.1069  0.0000</r>
       <r>  18.8362  0.0000</r>
      </set>
      <set comment="kpoint 49">
       <r>   0.9296  1.0000</r>
       <r>   1.6200  1.0000</r>
       <r>   1.6200  1.0000</r>
       <r>   2.3068  1.0000</r>
       <r>   8.2547  1.0000</r>
       <r>   8.9138  0.0000</r>
       <r>   8.9138  0.0000</r>
       <r>   9.5723  0.0000</r>
       <r>  11.3644  0.0000</r>
       <r>  12.0150  0.0000</r>
       <r>  12.0150  0.0000</r>
       <r>  12.6637  0.0000</r>
       <r>  17.5060  0.0000</r>
       <r>  17.5060  0.0000</r>
       <r>  17.5165  0.0000</r>
       <r>  18.7346  0.0000</r>
      </set>
      <set comment="kpoint 50">
       <r>  -2.3590  1.0000</r>
       <r>   3.8515  1.0000</r>
       <r>   3.8515  1.0000</r>
       <r>   3.8515  1.0000</r>
       <r>   9.3288  0.0000</r>
       <r>   9.3288  0.0000</r>
       <r>   9.3288  0.0000</r>
       <r>   9.9625  0.0000</r>
       <r>   9.9625  0.0000</r>
       <r>   9.9625  0.0000</r>
       <r>  14.6594  0.0000</r>
       <r>  14.6594  0.0000</r>
       <r>  14.6594  0.0000</r>
       <r>  15.6401  0.0000</r>
       <r>  16.1200  0.0000</r>
       <r>  16.1200  0.0000</r>
      </set>
      <set comment="kpoint 51">
       <r>  -2.0864  1.0000</r>
       <r>   2.7713  1.0000</r>
       <r>   4.1105  1.0000</r>
       <r>   4.1105  1.0000</r>
       <r>   8.7290  0.0000</r>
       <r>   8.7290  0.0000</r>
       <r>   9.7811  0.0000</r>
       <r>   9.7811  0.0000</r>
       <r>  10.0300  0.0000</r>
       <r>  11.0636  0.0000</r>
       <r>  14.2000  0.0000</r>
       <r>  14.2000  0.0000</r>
       <r>  14.6274  0.0000</r>
       <r>  14.8909  0.0000</r>
       <r>  16.3813  0.0000</r>
       <r>  17.1411  0.0000</r>
      </set>
      <set comment="kpoint 52">
       <r>  -1.7057  1.0000</r>
       <r>   1.7758  1.0000</r>
       <r>   4.4717  1.0000</r>
       <r>   4.4717  1.0000</r>
       <r>   7.8114  1.0000</r>
       <r>   7.8114  1.0000</r>
       <r>  10.0933  0.0000</r>
       <r>  10.0933  0.0000</r>
       <r>  10.4194  0.0000</r>
       <r>  12.6778  0.0000</r>
       <r>  13.3843  0.0000</r>
       <r>  13.3843  0.0000</r>
       <r>  13.6935  0.0000</r>
       <r>  15.2152  0.0000</r>
       <r>  16.7447  0.0000</r>
       <r>  18.2234  0.0000</r>
      </set>
      <set comment="kpoint 53">
       <r>  -1.2179  1.0000</r>
       <r>   0.8752  1.0000</r>
       <r>   4.9321  1.0000</r>
       <r>   4.9321  1.0000</r>
       <r>   6.9617  1.0000</r>
       <r>   6.9617  1.0000</r>
       <r>  10.5168  0.0000</r>
       <r>  10.5168  0.0000</r>
       <r>  10.8835  0.0000</r>
       <r>  12.6022  0.0000</r>
       <r>  12.6022  0.0000</r>
       <r>  12.8486  0.0000</r>
       <r>  14.4033  0.0000</r>
       <r>  15.6324  0.0000</r>
       <r>  17.2077  0.0000</r>
       <r>  17.4395  0.0000</r>
      </set>
      <set comment="kpoint 54">
       <r>  -0.6240  1.0000</r>
       <r>   0.0744  1.0000</r>
       <r>   5.4727  1.0000</r>
       <r>   5.4727  1.0000</r>
       <r>   6.2241  1.0000</r>
       <r>   6.2241  1.0000</r>
       <r>  10.9676  0.0000</r>
       <r>  10.9676  0.0000</r>
       <r>  11.4421  0.0000</r>
       <r>  11.9679  0.0000</r>
       <r>  11.9679  0.0000</r>
       <r>  12.0973  0.0000</r>
       <r>  16.1425  0.0000</r>
       <r>  16.2034  0.0000</r>
       <r>  16.7451  0.0000</r>
       <r>  17.7707  0.0000</r>
      </set>
      <set comment="kpoint 55">
       <r>  -1.8144  1.0000</r>
       <r>   3.0334  1.0000</r>
       <r>   3.0334  1.0000</r>
       <r>   4.3683  1.0000</r>
       <r>   7.7248  1.0000</r>
       <r>   9.0235  0.0000</r>
       <r>   9.0235  0.0000</r>
       <r>  10.0063  0.0000</r>
       <r>  11.2838  0.0000</r>
       <r>  11.2838  0.0000</r>
       <r>  13.6095  0.0000</r>
       <r>  14.4437  0.0000</r>
       <r>  14.4437  0.0000</r>
       <r>  15.1267  0.0000</r>
       <r>  16.7638  0.0000</r>
       <r>  17.3917  0.0000</r>
      </set>
      <set comment="kpoint 56">
       <r>  -1.4345  1.0000</r>
       <r>   2.0401  1.0000</r>
       <r>   3.3991  1.0000</r>
       <r>   4.7259  1.0000</r>
       <r>   6.7779  1.0000</r>
       <r>   8.0768  1.0000</r>
       <r>   9.3898  0.0000</r>
       <r>  10.3521  0.0000</r>
       <r>  11.6087  0.0000</r>
       <r>  12.6709  0.0000</r>
       <r>  12.9115  0.0000</r>
       <r>  13.6453  0.0000</r>
       <r>  14.7729  0.0000</r>
       <r>  14.7883  0.0000</r>
       <r>  17.7395  0.0000</r>
       <r>  17.7986  0.0000</r>
      </set>
      <set comment="kpoint 57">
       <r>  -0.9476  1.0000</r>
       <r>   1.1414  1.0000</r>
       <r>   3.8672  1.0000</r>
       <r>   5.1653  1.0000</r>
       <r>   5.9376  1.0000</r>
       <r>   7.2182  1.0000</r>
       <r>   9.8510  0.0000</r>
       <r>  10.7974  0.0000</r>
       <r>  11.8221  0.0000</r>
       <r>  11.9677  0.0000</r>
       <r>  12.9304  0.0000</r>
       <r>  14.0537  0.0000</r>
       <r>  14.5935  0.0000</r>
       <r>  15.2656  0.0000</r>
       <r>  17.0188  0.0000</r>
       <r>  18.1805  0.0000</r>
      </set>
      <set comment="kpoint 58">
       <r>  -0.3548  1.0000</r>
       <r>   0.3422  1.0000</r>
       <r>   4.4343  1.0000</r>
       <r>   5.0795  1.0000</r>
       <r>   5.8186  1.0000</r>
       <r>   6.4580  1.0000</r>
       <r>  10.4104  0.0000</r>
       <r>  11.0678  0.0000</r>
       <r>  11.3278  0.0000</r>
       <r>  11.8814  0.0000</r>
       <r>  12.8277  0.0000</r>
       <r>  13.3680  0.0000</r>
       <r>  15.6653  0.0000</r>
       <r>  16.3107  0.0000</r>
       <r>  16.5227  0.0000</r>
       <r>  18.3508  0.0000</r>
      </set>
      <set comment="kpoint 59">
       <r>  -1.0556  1.0000</r>
       <r>   2.4092  1.0000</r>
       <r>   2.4092  1.0000</r>
       <r>   5.0627  1.0000</r>
       <r>   5.8396  1.0000</r>
       <r>   8.4380  0.0000</r>
       <r>   8.4380  0.0000</r>
       <r>  10.7083  0.0000</r>
       <r>  11.7280  0.0000</r>
       <r>  13.1797  0.0000</r>
       <r>  13.1797  0.0000</r>
       <r>  14.0550  0.0000</r>
       <r>  14.0550  0.0000</r>
       <r>  15.7817  0.0000</r>
       <r>  17.0049  0.0000</r>
       <r>  17.5420  0.0000</r>
      </set>
      <set comment="kpoint 60">
       <r>  -0.5700  1.0000</r>
       <r>   1.5132  1.0000</r>
       <r>   2.8820  1.0000</r>
       <r>   4.8797  1.0000</r>
       <r>   5.6135  1.0000</r>
       <r>   7.5772  1.0000</r>
       <r>   8.8986  0.0000</r>
       <r>  10.8757  0.0000</r>
       <r>  11.1612  0.0000</r>
       <r>  12.9879  0.0000</r>
       <r>  13.8886  0.0000</r>
       <r>  14.2701  0.0000</r>
       <r>  15.1277  0.0000</r>
       <r>  15.5417  0.0000</r>
       <r>  16.2249  0.0000</r>
       <r>  18.6739  0.0000</r>
      </set>
      <set comment="kpoint 61">
       <r>   0.0211  1.0000</r>
       <r>   0.7162  1.0000</r>
       <r>   3.4569  1.0000</r>
       <r>   4.1299  1.0000</r>
       <r>   6.1519  1.0000</r>
       <r>   6.8134  1.0000</r>
       <r>   9.4591  0.0000</r>
       <r>  10.1186  0.0000</r>
       <r>  11.7068  0.0000</r>
       <r>  12.3341  0.0000</r>
       <r>  14.3420  0.0000</r>
       <r>  14.8717  0.0000</r>
       <r>  14.9280  0.0000</r>
       <r>  15.5109  0.0000</r>
       <r>  16.8535  0.0000</r>
       <r>  18.6751  0.0000</r>
      </set>
      <set comment="kpoint 62">
       <r>  -0.0861  1.0000</r>
       <r>   1.9896  1.0000</r>
       <r>   1.9896  1.0000</r>
       <r>   4.0278  1.0000</r>
       <r>   6.0494  1.0000</r>
       <r>   8.0379  1.0000</r>
       <r>   8.0379  1.0000</r>
       <r>  10.0204  0.0000</r>
       <r>  11.6181  0.0000</r>
       <r>  13.5232  0.0000</r>
       <r>  13.5232  0.0000</r>
       <r>  15.4408  0.0000</r>
       <r>  15.5077  0.0000</r>
       <r>  15.5077  0.0000</r>
       <r>  16.6251  0.0000</r>
       <r>  18.4884  0.0000</r>
      </set>
      <set comment="kpoint 63">
       <r>   0.5029  1.0000</r>
       <r>   1.1955  1.0000</r>
       <r>   2.5693  1.0000</r>
       <r>   3.2502  1.0000</r>
       <r>   6.6097  1.0000</r>
       <r>   7.2738  1.0000</r>
       <r>   8.5994  0.0000</r>
       <r>   9.2608  0.0000</r>
       <r>  12.1681  0.0000</r>
       <r>  12.8070  0.0000</r>
       <r>  14.0837  0.0000</r>
       <r>  14.7225  0.0000</r>
       <r>  15.9954  0.0000</r>
       <r>  16.5010  0.0000</r>
       <r>  17.2477  0.0000</r>
       <r>  18.9734  0.0000</r>
      </set>
      <set comment="kpoint 64">
       <r>   1.0894  1.0000</r>
       <r>   1.7789  1.0000</r>
       <r>   1.7789  1.0000</r>
       <r>   2.4647  1.0000</r>
       <r>   7.1722  1.0000</r>
       <r>   7.8362  1.0000</r>
       <r>   7.8362  1.0000</r>
       <r>   8.4992  0.0000</r>
       <r>  12.7198  0.0000</r>
       <r>  13.3606  0.0000</r>
       <r>  13.3606  0.0000</r>
       <r>  14.0006  0.0000</r>
       <r>  17.6467  0.0000</r>
       <r>  17.6467  0.0000</r>
       <r>  17.6568  0.0000</r>
       <r>  18.8753  0.0000</r>
      </set>
      <set comment="kpoint 65">
       <r>  -1.5429  1.0000</r>
       <r>   3.2946  1.0000</r>
       <r>   3.2946  1.0000</r>
       <r>   3.2946  1.0000</r>
       <r>   7.9912  1.0000</r>
       <r>   7.9912  1.0000</r>
       <r>   7.9912  1.0000</r>
       <r>  11.5364  0.0000</r>
       <r>  11.5364  0.0000</r>
       <r>  11.5364  0.0000</r>
       <r>  12.5881  0.0000</r>
       <r>  15.3587  0.0000</r>
       <r>  15.3587  0.0000</r>
       <r>  15.3587  0.0000</r>
       <r>  17.0215  0.0000</r>
       <r>  17.0215  0.0000</r>
      </set>
      <set comment="kpoint 66">
       <r>  -1.1638  1.0000</r>
       <r>   2.3038  1.0000</r>
       <r>   3.6590  1.0000</r>
       <r>   3.6590  1.0000</r>
       <r>   7.0352  1.0000</r>
       <r>   7.0352  1.0000</r>
       <r>   8.3531  0.4832</r>
       <r>  11.6456  0.0000</r>
       <r>  11.8823  0.0000</r>
       <r>  11.8823  0.0000</r>
       <r>  13.1734  0.0000</r>
       <r>  15.0155  0.0000</r>
       <r>  15.0155  0.0000</r>
       <r>  15.6837  0.0000</r>
       <r>  17.3779  0.0000</r>
       <r>  18.0786  0.0000</r>
      </set>
      <set comment="kpoint 67">
       <r>  -0.6778  1.0000</r>
       <r>   1.4071  1.0000</r>
       <r>   4.1234  1.0000</r>
       <r>   4.1234  1.0000</r>
       <r>   6.1725  1.0000</r>
       <r>   6.1725  1.0000</r>
       <r>   8.8144  0.0000</r>
       <r>  10.7932  0.0000</r>
       <r>  12.3133  0.0000</r>
       <r>  12.3133  0.0000</r>
       <r>  14.3115  0.0000</r>
       <r>  14.3115  0.0000</r>
       <r>  14.8961  0.0000</r>
       <r>  16.1019  0.0000</r>
       <r>  17.8276  0.0000</r>
       <r>  17.9143  0.0000</r>
      </set>
      <set comment="kpoint 68">
       <r>  -0.0862  1.0000</r>
       <r>   0.6094  1.0000</r>
       <r>   4.6687  1.0000</r>
       <r>   4.6687  1.0000</r>
       <r>   5.4271  1.0000</r>
       <r>   5.4271  1.0000</r>
       <r>   9.3755  0.0000</r>
       <r>  10.0356  0.0000</r>
       <r>  12.7760  0.0000</r>
       <r>  12.7760  0.0000</r>
       <r>  13.6877  0.0000</r>
       <r>  13.6877  0.0000</r>
       <r>  16.6133  0.0000</r>
       <r>  16.6857  0.0000</r>
       <r>  17.2177  0.0000</r>
       <r>  18.3635  0.0000</r>
      </set>
      <set comment="kpoint 69">
       <r>  -0.7856  1.0000</r>
       <r>   2.6720  1.0000</r>
       <r>   2.6720  1.0000</r>
       <r>   4.0196  1.0000</r>
       <r>   6.0750  1.0000</r>
       <r>   7.3952  1.0000</r>
       <r>   7.3952  1.0000</r>
       <r>  10.6992  0.0000</r>
       <r>  12.2387  0.0000</r>
       <r>  13.5099  0.0000</r>
       <r>  13.5099  0.0000</r>
       <r>  15.3580  0.0000</r>
       <r>  15.3580  0.0000</r>
       <r>  16.0144  0.0000</r>
       <r>  17.7909  0.0000</r>
       <r>  18.3054  0.0000</r>
      </set>
      <set comment="kpoint 70">
       <r>  -0.3010  1.0000</r>
       <r>   1.7781  1.0000</r>
       <r>   3.1433  1.0000</r>
       <r>   4.4629  1.0000</r>
       <r>   5.2263  1.0000</r>
       <r>   6.5293  1.0000</r>
       <r>   7.8570  1.0000</r>
       <r>   9.8431  0.0000</r>
       <r>  12.6845  0.0000</r>
       <r>  13.8812  0.0000</r>
       <r>  14.7129  0.0000</r>
       <r>  15.1865  0.0000</r>
       <r>  15.7824  0.0000</r>
       <r>  15.8291  0.0000</r>
       <r>  17.5727  0.0000</r>
       <r>  18.8410  0.0000</r>
      </set>
      <set comment="kpoint 71">
       <r>   0.2890  1.0000</r>
       <r>   0.9827  1.0000</r>
       <r>   3.7144  1.0000</r>
       <r>   4.3660  1.0000</r>
       <r>   5.1168  1.0000</r>
       <r>   5.7629  1.0000</r>
       <r>   8.4198  0.0000</r>
       <r>   9.0824  0.0000</r>
       <r>  13.2130  0.0000</r>
       <r>  13.7765  0.0000</r>
       <r>  14.6456  0.0000</r>
       <r>  15.1809  0.0000</r>
       <r>  16.2410  0.0000</r>
       <r>  16.8776  0.0000</r>
       <r>  17.0810  0.0000</r>
       <r>  18.8754  0.0000</r>
      </set>
      <set comment="kpoint 72">
       <r>   0.1820  1.0000</r>
       <r>   2.2534  1.0000</r>
       <r>   2.2534  1.0000</r>
       <r>   4.2646  1.0000</r>
       <r>   5.0129  1.0000</r>
       <r>   6.9912  1.0000</r>
       <r>   6.9912  1.0000</r>
       <r>   8.9838  0.0000</r>
       <r>  13.1377  0.0000</r>
       <r>  14.9523  0.0000</r>
       <r>  14.9523  0.0000</r>
       <r>  15.7837  0.0000</r>
       <r>  15.7837  0.0000</r>
       <r>  16.8584  0.0000</r>
       <r>  16.8616  0.0000</r>
       <r>  18.7218  0.0000</r>
      </set>
      <set comment="kpoint 73">
       <r>   0.7699  1.0000</r>
       <r>   1.4611  1.0000</r>
       <r>   2.8314  1.0000</r>
       <r>   3.5084  1.0000</r>
       <r>   5.5569  1.0000</r>
       <r>   6.2229  1.0000</r>
       <r>   7.5555  1.0000</r>
       <r>   8.2203  1.0000</r>
       <r>  13.6775  0.0000</r>
       <r>  14.2961  0.0000</r>
       <r>  15.5399  0.0000</r>
       <r>  16.1683  0.0000</r>
       <r>  16.2405  0.0000</r>
       <r>  16.7388  0.0000</r>
       <r>  17.4801  0.0000</r>
       <r>  19.1980  0.0000</r>
      </set>
      <set comment="kpoint 74">
       <r>   1.3552  1.0000</r>
       <r>   2.0433  1.0000</r>
       <r>   2.0433  1.0000</r>
       <r>   2.7271  1.0000</r>
       <r>   6.1204  1.0000</r>
       <r>   6.7879  1.0000</r>
       <r>   6.7879  1.0000</r>
       <r>   7.4545  1.0000</r>
       <r>  14.2218  0.0000</r>
       <r>  14.8474  0.0000</r>
       <r>  14.8474  0.0000</r>
       <r>  15.4740  0.0000</r>
       <r>  17.8799  0.0000</r>
       <r>  17.8799  0.0000</r>
       <r>  17.8907  0.0000</r>
       <r>  19.1100  0.0000</r>
      </set>
      <set comment="kpoint 75">
       <r>  -0.4085  1.0000</r>
       <r>   3.0385  1.0000</r>
       <r>   3.0385  1.0000</r>
       <r>   3.0385  1.0000</r>
       <r>   6.4321  1.0000</r>
       <r>   6.4321  1.0000</r>
       <r>   6.4321  1.0000</r>
       <r>   9.7487  0.0000</r>
       <r>  13.8686  0.0000</r>
       <r>  13.8686  0.0000</r>
       <r>  13.8686  0.0000</r>
       <r>  16.3403  0.0000</r>
       <r>  16.3403  0.0000</r>
       <r>  16.3403  0.0000</r>
       <r>  18.1318  0.0000</r>
       <r>  18.1318  0.0000</r>
      </set>
      <set comment="kpoint 76">
       <r>   0.0748  1.0000</r>
       <r>   2.1480  1.0000</r>
       <r>   3.5061  1.0000</r>
       <r>   3.5061  1.0000</r>
       <r>   5.5635  1.0000</r>
       <r>   5.5635  1.0000</r>
       <r>   6.8945  1.0000</r>
       <r>   8.8888  0.0000</r>
       <r>  14.3014  0.0000</r>
       <r>  14.3014  0.0000</r>
       <r>  15.5780  0.0000</r>
       <r>  16.1213  0.0000</r>
       <r>  16.1213  0.0000</r>
       <r>  16.7597  0.0000</r>
       <r>  18.5539  0.0000</r>
       <r>  18.5787  0.0000</r>
      </set>
      <set comment="kpoint 77">
       <r>   0.6632  1.0000</r>
       <r>   1.3550  1.0000</r>
       <r>   4.0571  1.0000</r>
       <r>   4.0571  1.0000</r>
       <r>   4.8112  1.0000</r>
       <r>   4.8112  1.0000</r>
       <r>   7.4593  1.0000</r>
       <r>   8.1247  1.0000</r>
       <r>  14.7728  0.0000</r>
       <r>  14.7728  0.0000</r>
       <r>  15.5670  0.0000</r>
       <r>  15.5670  0.0000</r>
       <r>  17.2727  0.0000</r>
       <r>  17.3449  0.0000</r>
       <r>  17.8792  0.0000</r>
       <r>  19.0354  0.0000</r>
      </set>
      <set comment="kpoint 78">
       <r>   0.5565  1.0000</r>
       <r>   2.6214  1.0000</r>
       <r>   2.6214  1.0000</r>
       <r>   3.9539  1.0000</r>
       <r>   4.7084  1.0000</r>
       <r>   6.0245  1.0000</r>
       <r>   6.0245  1.0000</r>
       <r>   8.0255  1.0000</r>
       <r>  14.7520  0.0000</r>
       <r>  15.9654  0.0000</r>
       <r>  15.9654  0.0000</r>
       <r>  16.5806  0.0000</r>
       <r>  16.5806  0.0000</r>
       <r>  17.1852  0.0000</r>
       <r>  18.2714  0.0000</r>
       <r>  19.0344  0.0000</r>
      </set>
      <set comment="kpoint 79">
       <r>   1.1428  1.0000</r>
       <r>   1.8320  1.0000</r>
       <r>   3.1956  1.0000</r>
       <r>   3.8529  1.0000</r>
       <r>   4.6023  1.0000</r>
       <r>   5.2541  1.0000</r>
       <r>   6.5906  1.0000</r>
       <r>   7.2584  1.0000</r>
       <r>  15.2741  0.0000</r>
       <r>  15.8363  0.0000</r>
       <r>  16.6010  0.0000</r>
       <r>  17.0083  0.0000</r>
       <r>  17.0718  0.0000</r>
       <r>  17.6266  0.0000</r>
       <r>  17.7970  0.0000</r>
       <r>  19.4948  0.0000</r>
      </set>
      <set comment="kpoint 80">
       <r>   1.7264  1.0000</r>
       <r>   2.4120  1.0000</r>
       <r>   2.4120  1.0000</r>
       <r>   3.0917  1.0000</r>
       <r>   5.1506  1.0000</r>
       <r>   5.8195  1.0000</r>
       <r>   5.8195  1.0000</r>
       <r>   6.4889  1.0000</r>
       <r>  15.8085  0.0000</r>
       <r>  16.4044  0.0000</r>
       <r>  16.4044  0.0000</r>
       <r>  17.0074  0.0000</r>
       <r>  18.2026  0.0000</r>
       <r>  18.2026  0.0000</r>
       <r>  18.2184  0.0000</r>
       <r>  19.4382  0.0000</r>
      </set>
      <set comment="kpoint 81">
       <r>   1.0365  1.0000</r>
       <r>   3.0911  1.0000</r>
       <r>   3.0911  1.0000</r>
       <r>   3.0911  1.0000</r>
       <r>   5.1523  1.0000</r>
       <r>   5.1523  1.0000</r>
       <r>   5.1523  1.0000</r>
       <r>   7.1585  1.0000</r>
       <r>  16.4356  0.0000</r>
       <r>  16.4356  0.0000</r>
       <r>  16.4356  0.0000</r>
       <r>  17.6059  0.0000</r>
       <r>  17.6059  0.0000</r>
       <r>  17.6059  0.0000</r>
       <r>  19.4022  0.0000</r>
       <r>  19.4043  0.0000</r>
      </set>
      <set comment="kpoint 82">
       <r>   1.6206  1.0000</r>
       <r>   2.3068  1.0000</r>
       <r>   3.6465  1.0000</r>
       <r>   3.6465  1.0000</r>
       <r>   4.3949  1.0000</r>
       <r>   4.3949  1.0000</r>
       <r>   5.7183  1.0000</r>
       <r>   6.3883  1.0000</r>
       <r>  16.9094  0.0000</r>
       <r>  16.9094  0.0000</r>
       <r>  17.5110  0.0000</r>
       <r>  17.5110  0.0000</r>
       <r>  18.1205  0.0000</r>
       <r>  18.1527  0.0000</r>
       <r>  18.7291  0.0000</r>
       <r>  19.7618  0.0000</r>
      </set>
      <set comment="kpoint 83">
       <r>   2.2017  1.0000</r>
       <r>   2.8828  1.0000</r>
       <r>   2.8828  1.0000</r>
       <r>   3.5438  1.0000</r>
       <r>   4.2900  1.0000</r>
       <r>   4.9456  1.0000</r>
       <r>   4.9456  1.0000</r>
       <r>   5.6158  1.0000</r>
       <r>  17.4396  0.0000</r>
       <r>  17.9541  0.0000</r>
       <r>  17.9541  0.0000</r>
       <r>  18.5146  0.0000</r>
       <r>  18.6069  0.0000</r>
       <r>  18.6069  0.0000</r>
       <r>  18.6399  0.0000</r>
       <r>  19.8568  0.0000</r>
      </set>
      <set comment="kpoint 84">
       <r>   2.7783  1.0000</r>
       <r>   3.4405  1.0000</r>
       <r>   3.4405  1.0000</r>
       <r>   3.4405  1.0000</r>
       <r>   4.1855  1.0000</r>
       <r>   4.1855  1.0000</r>
       <r>   4.1855  1.0000</r>
       <r>   4.8423  1.0000</r>
       <r>  19.0341  0.0000</r>
       <r>  19.0341  0.0000</r>
       <r>  19.0341  0.0000</r>
       <r>  19.1551  0.0000</r>
       <r>  19.1551  0.0000</r>
       <r>  19.1551  0.0000</r>
       <r>  19.7607  0.0000</r>
       <r>  19.7607  0.0000</r>
      </set>
     </set>
    </set>
   </array>
  </eigenvalues>
 </calculation>
 <structure name="finalpos" >
  <crystal>
   <varray name="basis" >
    <v>       3.99693331      0.00000000      0.00000000</v>
    <v>       0.00000000      3.99693331      0.00000000</v>
    <v>       0.00000000      0.00000000      3.99693331</v>
   </varray>
   <i name="volume">     63.85291151</i>
   <varray name="rec_basis" >
    <v>       0.25019182      0.00000000      0.00000000</v>
    <v>       0.00000000      0.25019182      0.00000000</v>
    <v>       0.00000000      0.00000000      0.25019182</v>
   </varray>
  </crystal>
  <varray name="positions" >
   <v>       0.50000000      0.50000000      0.00000000</v>
   <v>       0.50000000      0.00000000      0.50000000</v>
   <v>       0.00000000      0.50000000      0.50000000</v>
   <v>       0.00000000      0.00000000      0.00000000</v>
  </varray>
 </structure>
</modeling>
