32   
1    

1    
  0.0100000000000000   0.0000000000000000   0.0000000000000000
  -0.0837620100   -0.0000000000    0.0000000000
   0.0037743200    0.0000000000   -0.0000000000
  -0.0002818400   -0.0000000000    0.0000000000
   0.0003749900    0.0000000000   -0.0000000000
  -0.0002818400   -0.0000000000   -0.0000000000
   0.0003749900    0.0000000000   -0.0000000000
   0.0002703000    0.0000000000    0.0000000000
  -0.0011652700    0.0000000000   -0.0000000000
  -0.0017972800    0.0000390500   -0.0000390500
  -0.0003239100   -0.0000029300    0.0000029300
  -0.0017972800   -0.0000390500   -0.0000390500
  -0.0003239100    0.0000029300    0.0000029300
  -0.0017972800    0.0000390500    0.0000390500
  -0.0003239100   -0.0000029300   -0.0000029300
  -0.0017972800   -0.0000390500    0.0000390500
  -0.0003239100    0.0000029300   -0.0000029300
   0.0106450900    0.0000000000   -0.0120491300
   0.0108750600    0.0000000000    0.0123793500
   0.0003861900    0.0000000000    0.0000464500
   0.0003889400   -0.0000000000   -0.0000376100
   0.0106450900    0.0000000000    0.0120491300
   0.0108750600    0.0000000000   -0.0123793500
   0.0003861900    0.0000000000   -0.0000464500
   0.0003889400    0.0000000000    0.0000376100
   0.0106450900    0.0120491300    0.0000000000
   0.0108750600   -0.0123793500    0.0000000000
   0.0106450900   -0.0120491300    0.0000000000
   0.0108750600    0.0123793500   -0.0000000000
   0.0003861900   -0.0000464500    0.0000000000
   0.0003889400    0.0000376100   -0.0000000000
   0.0003861900    0.0000464500    0.0000000000
   0.0003889400   -0.0000376100   -0.0000000000
