<?xml version="1.0" encoding="ISO-8859-1"?>
<modeling>
 <generator>
  <i name="program" type="string">vasp</i>
  <i name="version" type="string">4.6.28 </i>
  <i name="subversion" type="string">25Jul05 complex  parallel</i>
  <i name="platform" type="string">LinuxIFC</i>
  <i name="date" type="string">2016 10 19</i>
  <i name="time" type="string">12:38:10</i>
 </generator>
 <incar>
  <i type="string" name="PREC">accurate</i>
  <i type="int" name="IALGO">    38</i>
  <i name="EDIFF">      0.00000001</i>
  <i type="int" name="IBRION">    -1</i>
  <i name="ENCUT">    500.00000000</i>
  <i type="logical" name="LREAL"> F  </i>
  <i type="int" name="ISMEAR">     0</i>
  <i name="SIGMA">      0.01000000</i>
  <i type="logical" name="LWAVE"> F  </i>
  <i type="logical" name="LCHARG"> F  </i>
 </incar>
 <kpoints>
  <generation param="Auto">
   <i name="subdivisionlength">     50.00000000</i>
   <v type="int" name="divisions">       7       7       7</v>
   <v name="usershift">      0.00000000      0.00000000      0.00000000</v>
   <v name="genvec1">      0.14285714      0.00000000      0.00000000</v>
   <v name="genvec2">      0.00000000      0.14285714      0.00000000</v>
   <v name="genvec3">      0.00000000      0.00000000      0.14285714</v>
   <v name="shift">      0.00000000      0.00000000      0.00000000</v>
  </generation>
  <varray name="kpointlist" >
   <v>       0.00000000      0.00000000      0.00000000</v>
   <v>       0.14285714      0.00000000      0.00000000</v>
   <v>       0.28571429      0.00000000      0.00000000</v>
   <v>       0.42857143      0.00000000      0.00000000</v>
   <v>       0.00000000      0.14285714      0.00000000</v>
   <v>       0.14285714      0.14285714      0.00000000</v>
   <v>       0.28571429      0.14285714      0.00000000</v>
   <v>       0.42857143      0.14285714      0.00000000</v>
   <v>       0.00000000      0.28571429      0.00000000</v>
   <v>       0.14285714      0.28571429      0.00000000</v>
   <v>       0.28571429      0.28571429      0.00000000</v>
   <v>       0.42857143      0.28571429      0.00000000</v>
   <v>       0.00000000      0.42857143      0.00000000</v>
   <v>       0.14285714      0.42857143      0.00000000</v>
   <v>       0.28571429      0.42857143      0.00000000</v>
   <v>       0.42857143      0.42857143      0.00000000</v>
   <v>       0.00000000      0.14285714      0.14285714</v>
   <v>       0.14285714      0.14285714      0.14285714</v>
   <v>       0.28571429      0.14285714      0.14285714</v>
   <v>       0.42857143      0.14285714      0.14285714</v>
   <v>       0.00000000      0.28571429      0.14285714</v>
   <v>       0.14285714      0.28571429      0.14285714</v>
   <v>       0.28571429      0.28571429      0.14285714</v>
   <v>       0.42857143      0.28571429      0.14285714</v>
   <v>       0.00000000      0.42857143      0.14285714</v>
   <v>       0.14285714      0.42857143      0.14285714</v>
   <v>       0.28571429      0.42857143      0.14285714</v>
   <v>       0.42857143      0.42857143      0.14285714</v>
   <v>       0.00000000      0.28571429      0.28571429</v>
   <v>       0.14285714      0.28571429      0.28571429</v>
   <v>       0.28571429      0.28571429      0.28571429</v>
   <v>       0.42857143      0.28571429      0.28571429</v>
   <v>       0.00000000      0.42857143      0.28571429</v>
   <v>       0.14285714      0.42857143      0.28571429</v>
   <v>       0.28571429      0.42857143      0.28571429</v>
   <v>       0.42857143      0.42857143      0.28571429</v>
   <v>       0.00000000      0.42857143      0.42857143</v>
   <v>       0.14285714      0.42857143      0.42857143</v>
   <v>       0.28571429      0.42857143      0.42857143</v>
   <v>       0.42857143      0.42857143      0.42857143</v>
  </varray>
  <varray name="weights" >
   <v>       0.00291545</v>
   <v>       0.00583090</v>
   <v>       0.00583090</v>
   <v>       0.00583090</v>
   <v>       0.01166181</v>
   <v>       0.02332362</v>
   <v>       0.02332362</v>
   <v>       0.02332362</v>
   <v>       0.01166181</v>
   <v>       0.02332362</v>
   <v>       0.02332362</v>
   <v>       0.02332362</v>
   <v>       0.01166181</v>
   <v>       0.02332362</v>
   <v>       0.02332362</v>
   <v>       0.02332362</v>
   <v>       0.01166181</v>
   <v>       0.02332362</v>
   <v>       0.02332362</v>
   <v>       0.02332362</v>
   <v>       0.02332362</v>
   <v>       0.04664723</v>
   <v>       0.04664723</v>
   <v>       0.04664723</v>
   <v>       0.02332362</v>
   <v>       0.04664723</v>
   <v>       0.04664723</v>
   <v>       0.04664723</v>
   <v>       0.01166181</v>
   <v>       0.02332362</v>
   <v>       0.02332362</v>
   <v>       0.02332362</v>
   <v>       0.02332362</v>
   <v>       0.04664723</v>
   <v>       0.04664723</v>
   <v>       0.04664723</v>
   <v>       0.01166181</v>
   <v>       0.02332362</v>
   <v>       0.02332362</v>
   <v>       0.02332362</v>
  </varray>
 </kpoints>
 <parameters>
  <separator name="general" >
   <i type="string" name="SYSTEM">unknown system</i>
   <i type="logical" name="LCOMPAT"> F  </i>
  </separator>
  <separator name="electronic" >
   <i type="string" name="PREC">accura</i>
   <i name="ENMAX">    500.00000000</i>
   <i name="ENAUG">    291.05200000</i>
   <i name="EDIFF">      0.00000001</i>
   <i type="int" name="IALGO">    38</i>
   <i type="int" name="IWAVPR">    10</i>
   <i type="int" name="NBANDS">    65</i>
   <i name="NELECT">     96.00000000</i>
   <separator name="electronic smearing" >
    <i type="int" name="ISMEAR">     0</i>
    <i name="SIGMA">      0.01000000</i>
   </separator>
   <separator name="electronic projectors" >
    <i type="logical" name="LREAL"> F  </i>
    <v name="ROPT">      0.00000000</v>
    <i type="int" name="LMAXPAW">  -100</i>
    <i type="int" name="LMAXMIX">     2</i>
   </separator>
   <separator name="electronic startup" >
    <i type="int" name="ISTART">     0</i>
    <i type="int" name="ICHARG">     2</i>
    <i type="int" name="INIWAV">     1</i>
   </separator>
   <separator name="electronic spin" >
    <i type="int" name="ISPIN">     1</i>
    <i type="logical" name="LNONCOLLINEAR"> F  </i>
    <v name="MAGMOM">      1.00000000      1.00000000      1.00000000      1.00000000      1.00000000      1.00000000      1.00000000      1.00000000      1.00000000      1.00000000      1.00000000      1.00000000      1.00000000      1.00000000      1.00000000      1.00000000      1.00000000      1.00000000      1.00000000      1.00000000
      1.00000000      1.00000000      1.00000000      1.00000000      1.00000000      1.00000000      1.00000000      1.00000000      1.00000000      1.00000000      1.00000000      1.00000000</v>
    <i name="NUPDOWN">     -1.00000000</i>
    <i type="logical" name="LSORBIT"> F  </i>
    <v name="SAXIS">      0.00000000      0.00000000      1.00000000</v>
    <i type="logical" name="LSPIRAL"> F  </i>
    <v name="QSPIRAL">      0.00000000      0.00000000      0.00000000</v>
    <i type="logical" name="LZEROZ"> F  </i>
   </separator>
   <separator name="electronic exchange-correlation" >
    <i type="string" name="GGA">--</i>
    <i type="int" name="VOSKOWN">     0</i>
    <i type="logical" name="LASPH"> F  </i>
    <i type="logical" name="LMETAGGA"> F  </i>
    <i type="string" name="GGA2">--</i>
   </separator>
   <separator name="electronic convergence" >
    <i type="int" name="NELM">    60</i>
    <i type="int" name="NELMDL">    -5</i>
    <i type="int" name="NELMIN">     2</i>
    <i name="ENINI">    500.00000000</i>
    <separator name="electronic convergence detail" >
     <i type="logical" name="LDIAG"> T  </i>
     <i name="WEIMIN">      0.00000000</i>
     <i name="EBREAK">      0.00000000</i>
     <i name="DEPER">      0.30000000</i>
     <i type="int" name="NRMM">     4</i>
     <i name="TIME">      0.10000000</i>
    </separator>
   </separator>
   <separator name="electronic mixer" >
    <i name="AMIX">      0.40000000</i>
    <i name="BMIX">      1.00000000</i>
    <i name="AMIN">      0.10000000</i>
    <i name="AMIX_MAG">      1.60000000</i>
    <i name="BMIX_MAG">      1.00000000</i>
    <separator name="electronic mixer details" >
     <i type="int" name="IMIX">     4</i>
     <i type="int" name="MAXMIX">   -45</i>
     <i name="WC">    100.00000000</i>
     <i type="int" name="INIMIX">     1</i>
     <i type="int" name="MIXPRE">     1</i>
     <i type="int" name="MREMOVE">     5</i>
    </separator>
   </separator>
   <separator name="electronic dipolcorrection" >
    <i type="int" name="IDIPOL">     0</i>
    <i type="logical" name="LDIPOL"> F  </i>
    <v name="DIPOL">   -100.00000000</v>
    <i name="EFIELD">      0.00000000</i>
   </separator>
  </separator>
  <separator name="grids" >
   <i type="int" name="NGX">    56</i>
   <i type="int" name="NGY">    56</i>
   <i type="int" name="NGZ">    56</i>
   <i type="int" name="NGXF">   112</i>
   <i type="int" name="NGYF">   112</i>
   <i type="int" name="NGZF">   112</i>
   <i type="logical" name="ADDGRID"> F  </i>
  </separator>
  <separator name="ionic" >
   <i type="int" name="NSW">     0</i>
   <i type="int" name="IBRION">    -1</i>
   <i type="int" name="ISIF">     2</i>
   <i name="PSTRESS">      0.00000000</i>
   <i name="EDIFFG">      0.00000010</i>
   <i type="int" name="NFREE">     0</i>
   <i name="POTIM">      0.50000000</i>
   <i name="SMASS">     -3.00000000</i>
  </separator>
  <separator name="ionic md" >
   <i name="TEBEG">      0.00010000</i>
   <i name="TEEND">      0.00010000</i>
   <i type="int" name="NBLOCK">     1</i>
   <i type="int" name="KBLOCK">     1</i>
   <i type="int" name="NPACO">   256</i>
   <i name="APACO">     16.00000000</i>
  </separator>
  <separator name="symmetry" >
   <i type="int" name="ISYM">     2</i>
   <i name="SYMPREC">      0.00001000</i>
  </separator>
  <separator name="dos" >
   <i type="logical" name="LORBIT"> F  </i>
   <v name="RWIGS">     -1.00000000</v>
   <i type="int" name="NEDOS">   301</i>
   <i name="EMIN">     10.00000000</i>
   <i name="EMAX">    -10.00000000</i>
  </separator>
  <separator name="writing" >
   <i type="int" name="NWRITE">     2</i>
   <i type="logical" name="LWAVE"> F  </i>
   <i type="logical" name="LCHARG"> F  </i>
   <i type="logical" name="LPARD"> F  </i>
   <i type="logical" name="LVTOT"> F  </i>
   <i type="logical" name="LELF"> F  </i>
   <i type="logical" name="LOPTICS"> F  </i>
   <i name="STM">      0.00000000</i>
  </separator>
  <separator name="performance" >
   <i type="int" name="NPAR">     8</i>
   <i type="int" name="NSIM">     4</i>
   <i type="int" name="NBLK">   256</i>
   <i type="logical" name="LPLANE"> T  </i>
   <i type="logical" name="LCRITICAL_MEM"> F  </i>
   <i type="logical" name="LSCALAPACK"> F  </i>
   <i type="logical" name="LSCALU"> F  </i>
   <i type="logical" name="LASYNC"> F  </i>
  </separator>
  <separator name="miscellaneous" >
   <i type="int" name="IDIOT">     3</i>
   <i type="logical" name="LMUSIC"> F  </i>
   <v name="POMASS">     26.98200000</v>
   <i type="logical" name="LCORR"> T  </i>
  </separator>
  <i type="logical" name="LREAL_COMPAT"> F  </i>
  <i type="logical" name="GGA_COMPAT"> T  </i>
  <i type="logical" name="LBERRY"> F  </i>
  <i type="int" name="ICORELEVEL">     0</i>
  <i type="logical" name="LDAU"> F  </i>
  <i type="int" name="I_CONSTRAINED_M">     0</i>
 </parameters>
 <atominfo>
  <atoms>      32</atoms>
  <types>       1</types>
  <array name="atoms" >
   <dimension dim="1">ion</dimension>
   <field type="string">element</field>
   <field type="int">atomtype</field>
   <set>
    <rc><c>Al</c><c>   1</c></rc>
    <rc><c>Al</c><c>   1</c></rc>
    <rc><c>Al</c><c>   1</c></rc>
    <rc><c>Al</c><c>   1</c></rc>
    <rc><c>Al</c><c>   1</c></rc>
    <rc><c>Al</c><c>   1</c></rc>
    <rc><c>Al</c><c>   1</c></rc>
    <rc><c>Al</c><c>   1</c></rc>
    <rc><c>Al</c><c>   1</c></rc>
    <rc><c>Al</c><c>   1</c></rc>
    <rc><c>Al</c><c>   1</c></rc>
    <rc><c>Al</c><c>   1</c></rc>
    <rc><c>Al</c><c>   1</c></rc>
    <rc><c>Al</c><c>   1</c></rc>
    <rc><c>Al</c><c>   1</c></rc>
    <rc><c>Al</c><c>   1</c></rc>
    <rc><c>Al</c><c>   1</c></rc>
    <rc><c>Al</c><c>   1</c></rc>
    <rc><c>Al</c><c>   1</c></rc>
    <rc><c>Al</c><c>   1</c></rc>
    <rc><c>Al</c><c>   1</c></rc>
    <rc><c>Al</c><c>   1</c></rc>
    <rc><c>Al</c><c>   1</c></rc>
    <rc><c>Al</c><c>   1</c></rc>
    <rc><c>Al</c><c>   1</c></rc>
    <rc><c>Al</c><c>   1</c></rc>
    <rc><c>Al</c><c>   1</c></rc>
    <rc><c>Al</c><c>   1</c></rc>
    <rc><c>Al</c><c>   1</c></rc>
    <rc><c>Al</c><c>   1</c></rc>
    <rc><c>Al</c><c>   1</c></rc>
    <rc><c>Al</c><c>   1</c></rc>
   </set>
  </array>
  <array name="atomtypes" >
   <dimension dim="1">type</dimension>
   <field type="int">atomspertype</field>
   <field type="string">element</field>
   <field>mass</field>
   <field>valence</field>
   <field type="string">pseudopotential</field>
   <set>
    <rc><c>  32</c><c>Al</c><c>     26.98200000</c><c>      3.00000000</c><c> PAW_PBE Al 04Jan2001                   </c></rc>
   </set>
  </array>
 </atominfo>
 <structure name="initialpos" >
  <crystal>
   <varray name="basis" >
    <v>       7.67067981      0.00000000      0.00000000</v>
    <v>       0.00000000      7.67067981      0.00000000</v>
    <v>       0.00000000      0.00000000      7.67067981</v>
   </varray>
   <i name="volume">    451.33765106</i>
   <varray name="rec_basis" >
    <v>       0.13036654      0.00000000      0.00000000</v>
    <v>       0.00000000      0.13036654      0.00000000</v>
    <v>       0.00000000      0.00000000      0.13036654</v>
   </varray>
  </crystal>
  <varray name="positions" >
   <v>       0.25130367      0.25000000      0.00000000</v>
   <v>       0.75000000      0.25000000      0.00000000</v>
   <v>       0.25000000      0.75000000      0.00000000</v>
   <v>       0.75000000      0.75000000      0.00000000</v>
   <v>       0.25000000      0.25000000      0.50000000</v>
   <v>       0.75000000      0.25000000      0.50000000</v>
   <v>       0.25000000      0.75000000      0.50000000</v>
   <v>       0.75000000      0.75000000      0.50000000</v>
   <v>       0.25000000      0.00000000      0.25000000</v>
   <v>       0.75000000      0.00000000      0.25000000</v>
   <v>       0.25000000      0.50000000      0.25000000</v>
   <v>       0.75000000      0.50000000      0.25000000</v>
   <v>       0.25000000      0.00000000      0.75000000</v>
   <v>       0.75000000      0.00000000      0.75000000</v>
   <v>       0.25000000      0.50000000      0.75000000</v>
   <v>       0.75000000      0.50000000      0.75000000</v>
   <v>       0.00000000      0.25000000      0.25000000</v>
   <v>       0.50000000      0.25000000      0.25000000</v>
   <v>       0.00000000      0.75000000      0.25000000</v>
   <v>       0.50000000      0.75000000      0.25000000</v>
   <v>       0.00000000      0.25000000      0.75000000</v>
   <v>       0.50000000      0.25000000      0.75000000</v>
   <v>       0.00000000      0.75000000      0.75000000</v>
   <v>       0.50000000      0.75000000      0.75000000</v>
   <v>       0.00000000      0.00000000      0.00000000</v>
   <v>       0.50000000      0.00000000      0.00000000</v>
   <v>       0.00000000      0.50000000      0.00000000</v>
   <v>       0.50000000      0.50000000      0.00000000</v>
   <v>       0.00000000      0.00000000      0.50000000</v>
   <v>       0.50000000      0.00000000      0.50000000</v>
   <v>       0.00000000      0.50000000      0.50000000</v>
   <v>       0.50000000      0.50000000      0.50000000</v>
  </varray>
 </structure>
 <calculation>
  <scstep>
   <time name="dav">   17.33   17.36</time>
   <time name="total">   17.47   17.51</time>
   <energy>
    <i name="alphaZ">     -7.62051090</i>
    <i name="ewald">  -2478.79554032</i>
    <i name="hartreedc">     -2.10376842</i>
    <i name="XCdc">   -830.38955597</i>
    <i name="pawpsdc">   1137.73615723</i>
    <i name="pawaedc">   -115.16745734</i>
    <i name="eentropy">     -0.00042721</i>
    <i name="bandstr">    724.17305995</i>
    <i name="atom">   1713.22913220</i>
    <i name="e_fr_energy">    141.06108922</i>
    <i name="e_wo_entrp">    141.06151643</i>
    <i name="e_0_energy">    141.06130282</i>
   </energy>
  </scstep>
  <scstep>
   <time name="dav">   18.15   18.16</time>
   <time name="total">   18.15   18.16</time>
   <energy>
    <i name="e_fr_energy">   -103.86919235</i>
    <i name="e_wo_entrp">   -103.86883019</i>
    <i name="e_0_energy">   -103.86901127</i>
   </energy>
  </scstep>
  <scstep>
   <time name="dav">   17.10   17.10</time>
   <time name="total">   17.11   17.11</time>
   <energy>
    <i name="e_fr_energy">   -116.97731008</i>
    <i name="e_wo_entrp">   -116.97721156</i>
    <i name="e_0_energy">   -116.97726082</i>
   </energy>
  </scstep>
  <scstep>
   <time name="dav">   16.63   16.63</time>
   <time name="total">   16.64   16.64</time>
   <energy>
    <i name="e_fr_energy">   -117.20049096</i>
    <i name="e_wo_entrp">   -117.20039937</i>
    <i name="e_0_energy">   -117.20044516</i>
   </energy>
  </scstep>
  <scstep>
   <time name="dav">   16.55   16.55</time>
   <time name="total">   17.16   17.16</time>
   <energy>
    <i name="e_fr_energy">   -117.20305030</i>
    <i name="e_wo_entrp">   -117.20295856</i>
    <i name="e_0_energy">   -117.20300443</i>
   </energy>
  </scstep>
  <scstep>
   <time name="dav">   16.49   16.49</time>
   <time name="total">   17.18   17.18</time>
   <energy>
    <i name="e_fr_energy">   -116.70152671</i>
    <i name="e_wo_entrp">   -116.70143466</i>
    <i name="e_0_energy">   -116.70148068</i>
   </energy>
  </scstep>
  <scstep>
   <time name="dav">   15.71   15.71</time>
   <time name="total">   16.40   16.40</time>
   <energy>
    <i name="e_fr_energy">   -116.34122616</i>
    <i name="e_wo_entrp">   -116.34113217</i>
    <i name="e_0_energy">   -116.34117917</i>
   </energy>
  </scstep>
  <scstep>
   <time name="dav">   16.98   16.97</time>
   <time name="total">   17.66   17.66</time>
   <energy>
    <i name="e_fr_energy">   -116.34143681</i>
    <i name="e_wo_entrp">   -116.34134264</i>
    <i name="e_0_energy">   -116.34138973</i>
   </energy>
  </scstep>
  <scstep>
   <time name="dav">   16.18   16.18</time>
   <time name="total">   16.85   16.85</time>
   <energy>
    <i name="e_fr_energy">   -116.34146837</i>
    <i name="e_wo_entrp">   -116.34137424</i>
    <i name="e_0_energy">   -116.34142131</i>
   </energy>
  </scstep>
  <scstep>
   <time name="dav">   17.01   17.01</time>
   <time name="total">   17.71   17.71</time>
   <energy>
    <i name="e_fr_energy">   -116.34147140</i>
    <i name="e_wo_entrp">   -116.34137731</i>
    <i name="e_0_energy">   -116.34142436</i>
   </energy>
  </scstep>
  <scstep>
   <time name="dav">   16.59   16.59</time>
   <time name="total">   17.29   17.29</time>
   <energy>
    <i name="e_fr_energy">   -116.34147057</i>
    <i name="e_wo_entrp">   -116.34137650</i>
    <i name="e_0_energy">   -116.34142353</i>
   </energy>
  </scstep>
  <scstep>
   <time name="dav">   12.19   12.19</time>
   <time name="total">   12.87   12.87</time>
   <energy>
    <i name="e_fr_energy">   -116.34147023</i>
    <i name="e_wo_entrp">   -116.34137617</i>
    <i name="e_0_energy">   -116.34142320</i>
   </energy>
  </scstep>
  <scstep>
   <time name="dav">   11.27   11.27</time>
   <time name="total">   11.97   11.97</time>
   <energy>
    <i name="e_fr_energy">   -116.34147013</i>
    <i name="e_wo_entrp">   -116.34137607</i>
    <i name="e_0_energy">   -116.34142310</i>
   </energy>
  </scstep>
  <scstep>
   <time name="dav">   11.33   11.33</time>
   <time name="total">   12.02   12.02</time>
   <energy>
    <i name="e_fr_energy">   -116.34147012</i>
    <i name="e_wo_entrp">   -116.34137605</i>
    <i name="e_0_energy">   -116.34142309</i>
   </energy>
  </scstep>
  <scstep>
   <time name="dav">   11.14   11.14</time>
   <time name="total">   11.25   11.25</time>
   <energy>
    <i name="alphaZ">     -7.62051090</i>
    <i name="ewald">  -2478.79554032</i>
    <i name="hartreedc">     -4.60731219</i>
    <i name="XCdc">   -825.76179405</i>
    <i name="pawpsdc">   1161.03719097</i>
    <i name="pawaedc">   -139.89648973</i>
    <i name="eentropy">     -0.00009407</i>
    <i name="bandstr">    466.07394797</i>
    <i name="atom">   1713.22913220</i>
    <i name="e_fr_energy">   -116.34147012</i>
    <i name="e_wo_entrp">   -116.34137605</i>
    <i name="e_0_energy">   -116.34142308</i>
   </energy>
  </scstep>
  <structure>
   <crystal>
    <varray name="basis" >
     <v>       7.67067981      0.00000000      0.00000000</v>
     <v>       0.00000000      7.67067981      0.00000000</v>
     <v>       0.00000000      0.00000000      7.67067981</v>
    </varray>
    <i name="volume">    451.33765106</i>
    <varray name="rec_basis" >
     <v>       0.13036654      0.00000000      0.00000000</v>
     <v>       0.00000000      0.13036654      0.00000000</v>
     <v>       0.00000000      0.00000000      0.13036654</v>
    </varray>
   </crystal>
   <varray name="positions" >
    <v>       0.25130367      0.25000000      0.00000000</v>
    <v>       0.75000000      0.25000000      0.00000000</v>
    <v>       0.25000000      0.75000000      0.00000000</v>
    <v>       0.75000000      0.75000000      0.00000000</v>
    <v>       0.25000000      0.25000000      0.50000000</v>
    <v>       0.75000000      0.25000000      0.50000000</v>
    <v>       0.25000000      0.75000000      0.50000000</v>
    <v>       0.75000000      0.75000000      0.50000000</v>
    <v>       0.25000000      0.00000000      0.25000000</v>
    <v>       0.75000000      0.00000000      0.25000000</v>
    <v>       0.25000000      0.50000000      0.25000000</v>
    <v>       0.75000000      0.50000000      0.25000000</v>
    <v>       0.25000000      0.00000000      0.75000000</v>
    <v>       0.75000000      0.00000000      0.75000000</v>
    <v>       0.25000000      0.50000000      0.75000000</v>
    <v>       0.75000000      0.50000000      0.75000000</v>
    <v>       0.00000000      0.25000000      0.25000000</v>
    <v>       0.50000000      0.25000000      0.25000000</v>
    <v>       0.00000000      0.75000000      0.25000000</v>
    <v>       0.50000000      0.75000000      0.25000000</v>
    <v>       0.00000000      0.25000000      0.75000000</v>
    <v>       0.50000000      0.25000000      0.75000000</v>
    <v>       0.00000000      0.75000000      0.75000000</v>
    <v>       0.50000000      0.75000000      0.75000000</v>
    <v>       0.00000000      0.00000000      0.00000000</v>
    <v>       0.50000000      0.00000000      0.00000000</v>
    <v>       0.00000000      0.50000000      0.00000000</v>
    <v>       0.50000000      0.50000000      0.00000000</v>
    <v>       0.00000000      0.00000000      0.50000000</v>
    <v>       0.50000000      0.00000000      0.50000000</v>
    <v>       0.00000000      0.50000000      0.50000000</v>
    <v>       0.50000000      0.50000000      0.50000000</v>
   </varray>
  </structure>
  <varray name="forces" >
   <v>      -0.08376201     -0.00000000      0.00000000</v>
   <v>       0.00377432      0.00000000     -0.00000000</v>
   <v>      -0.00028184     -0.00000000      0.00000000</v>
   <v>       0.00037499      0.00000000     -0.00000000</v>
   <v>      -0.00028184     -0.00000000     -0.00000000</v>
   <v>       0.00037499      0.00000000     -0.00000000</v>
   <v>       0.00027030      0.00000000      0.00000000</v>
   <v>      -0.00116527      0.00000000     -0.00000000</v>
   <v>      -0.00179728      0.00003905     -0.00003905</v>
   <v>      -0.00032391     -0.00000293      0.00000293</v>
   <v>      -0.00179728     -0.00003905     -0.00003905</v>
   <v>      -0.00032391      0.00000293      0.00000293</v>
   <v>      -0.00179728      0.00003905      0.00003905</v>
   <v>      -0.00032391     -0.00000293     -0.00000293</v>
   <v>      -0.00179728     -0.00003905      0.00003905</v>
   <v>      -0.00032391      0.00000293     -0.00000293</v>
   <v>       0.01064509      0.00000000     -0.01204913</v>
   <v>       0.01087506      0.00000000      0.01237935</v>
   <v>       0.00038619      0.00000000      0.00004645</v>
   <v>       0.00038894     -0.00000000     -0.00003761</v>
   <v>       0.01064509      0.00000000      0.01204913</v>
   <v>       0.01087506      0.00000000     -0.01237935</v>
   <v>       0.00038619      0.00000000     -0.00004645</v>
   <v>       0.00038894      0.00000000      0.00003761</v>
   <v>       0.01064509      0.01204913      0.00000000</v>
   <v>       0.01087506     -0.01237935      0.00000000</v>
   <v>       0.01064509     -0.01204913      0.00000000</v>
   <v>       0.01087506      0.01237935     -0.00000000</v>
   <v>       0.00038619     -0.00004645      0.00000000</v>
   <v>       0.00038894      0.00003761     -0.00000000</v>
   <v>       0.00038619      0.00004645      0.00000000</v>
   <v>       0.00038894     -0.00003761     -0.00000000</v>
  </varray>
  <varray name="stress" >
   <v>     171.80151455      0.00000000      0.00000000</v>
   <v>       0.00000000    171.80037507      0.00000000</v>
   <v>       0.00000000      0.00000000    171.80037507</v>
  </varray>
  <energy>
   <i name="e_fr_energy">   -116.34147012</i>
   <i name="e_wo_entrp">   -116.34142308</i>
   <i name="e_0_energy">     -0.00009407</i>
  </energy>
  <eigenvalues>
   <array>
    <dimension dim="1">band</dimension>
    <dimension dim="2">kpoint</dimension>
    <dimension dim="3">spin</dimension>
    <field>eigene</field>
    <field>occ</field>
    <set>
     <set comment="spin 1">
      <set comment="kpoint 1">
       <r>  -2.5253  1.0000</r>
       <r>  -0.0419  1.0000</r>
       <r>  -0.0378  1.0000</r>
       <r>  -0.0378  1.0000</r>
       <r>  -0.0378  1.0000</r>
       <r>  -0.0378  1.0000</r>
       <r>  -0.0337  1.0000</r>
       <r>   2.3907  1.0000</r>
       <r>   2.3952  1.0000</r>
       <r>   2.3952  1.0000</r>
       <r>   2.3971  1.0000</r>
       <r>   2.3973  1.0000</r>
       <r>   2.3973  1.0000</r>
       <r>   2.3973  1.0000</r>
       <r>   2.3973  1.0000</r>
       <r>   2.3976  1.0000</r>
       <r>   2.3995  1.0000</r>
       <r>   2.3995  1.0000</r>
       <r>   2.4040  1.0000</r>
       <r>   4.5022  1.0000</r>
       <r>   4.5022  1.0000</r>
       <r>   4.5022  1.0000</r>
       <r>   4.5022  1.0000</r>
       <r>   5.1332  1.0000</r>
       <r>   5.1332  1.0000</r>
       <r>   5.1332  1.0000</r>
       <r>   5.1333  1.0000</r>
       <r>   6.4358  1.0000</r>
       <r>   6.4358  1.0000</r>
       <r>   6.4358  1.0000</r>
       <r>   8.0631  1.0000</r>
       <r>   8.0631  1.0000</r>
       <r>   8.0631  1.0000</r>
       <r>   8.6889  1.0000</r>
       <r>   8.6889  1.0000</r>
       <r>   8.6937  1.0000</r>
       <r>   8.6937  1.0000</r>
       <r>   8.6939  1.0000</r>
       <r>   8.6939  1.0000</r>
       <r>   8.6939  1.0000</r>
       <r>   8.6940  1.0000</r>
       <r>   8.6941  1.0000</r>
       <r>   8.6941  1.0000</r>
       <r>   8.6989  1.0000</r>
       <r>   8.6989  1.0000</r>
       <r>   9.6059  1.0000</r>
       <r>   9.6106  1.0000</r>
       <r>   9.6106  1.0000</r>
       <r>   9.6106  1.0000</r>
       <r>   9.6106  1.0000</r>
       <r>   9.6153  1.0000</r>
       <r>  10.9638  0.0000</r>
       <r>  10.9638  0.0000</r>
       <r>  10.9651  0.0000</r>
       <r>  10.9680  0.0000</r>
       <r>  10.9682  0.0000</r>
       <r>  10.9682  0.0000</r>
       <r>  10.9682  0.0000</r>
       <r>  10.9683  0.0000</r>
       <r>  10.9684  0.0000</r>
       <r>  10.9713  0.0000</r>
       <r>  10.9726  0.0000</r>
       <r>  10.9726  0.0000</r>
       <r>  11.7788  0.0000</r>
       <r>  11.7802  0.0000</r>
       <r>  11.7803  0.0000</r>
       <r>  11.7803  0.0000</r>
       <r>  11.7803  0.0000</r>
       <r>  11.7817  0.0000</r>
       <r>  12.9770  0.0000</r>
       <r>  12.9796  0.0000</r>
       <r>  12.9810  0.0000</r>
      </set>
      <set comment="kpoint 2">
       <r>  -2.4740  1.0000</r>
       <r>  -0.6926  1.0000</r>
       <r>   0.0124  1.0000</r>
       <r>   0.0124  1.0000</r>
       <r>   0.0124  1.0000</r>
       <r>   0.0124  1.0000</r>
       <r>   0.7130  1.0000</r>
       <r>   1.7565  1.0000</r>
       <r>   1.7565  1.0000</r>
       <r>   1.7565  1.0000</r>
       <r>   1.7565  1.0000</r>
       <r>   2.4464  1.0000</r>
       <r>   2.4464  1.0000</r>
       <r>   2.4464  1.0000</r>
       <r>   2.4464  1.0000</r>
       <r>   3.1316  1.0000</r>
       <r>   3.1316  1.0000</r>
       <r>   3.1316  1.0000</r>
       <r>   3.1316  1.0000</r>
       <r>   4.1140  1.0000</r>
       <r>   4.1140  1.0000</r>
       <r>   4.1140  1.0000</r>
       <r>   4.1140  1.0000</r>
       <r>   5.6148  1.0000</r>
       <r>   5.6148  1.0000</r>
       <r>   5.6148  1.0000</r>
       <r>   5.6148  1.0000</r>
       <r>   5.7164  1.0000</r>
       <r>   6.4817  1.0000</r>
       <r>   6.4817  1.0000</r>
       <r>   7.9717  1.0000</r>
       <r>   7.9717  1.0000</r>
       <r>   7.9717  1.0000</r>
       <r>   7.9717  1.0000</r>
       <r>   8.0937  1.0000</r>
       <r>   8.0937  1.0000</r>
       <r>   8.1096  1.0000</r>
       <r>   8.1096  1.0000</r>
       <r>   8.7402  1.0000</r>
       <r>   8.7402  1.0000</r>
       <r>   8.7402  1.0000</r>
       <r>   8.7402  1.0000</r>
       <r>   8.8679  1.0000</r>
       <r>   9.3873  1.0000</r>
       <r>   9.3873  1.0000</r>
       <r>   9.4554  1.0000</r>
       <r>   9.4554  1.0000</r>
       <r>  10.1185  0.0000</r>
       <r>  10.1185  0.0000</r>
       <r>  10.1185  0.0000</r>
       <r>  10.1185  0.0000</r>
       <r>  10.3548  0.0000</r>
       <r>  10.3548  0.0000</r>
       <r>  10.3552  0.0000</r>
       <r>  10.3554  0.0000</r>
       <r>  10.3640  0.0000</r>
       <r>  10.3641  0.0000</r>
       <r>  10.3646  0.0000</r>
       <r>  10.3646  0.0000</r>
       <r>  11.6659  0.0000</r>
       <r>  11.6659  0.0000</r>
       <r>  11.6659  0.0000</r>
       <r>  11.6659  0.0000</r>
       <r>  12.0205  0.0000</r>
       <r>  12.0205  0.0000</r>
       <r>  12.1288  0.0000</r>
       <r>  12.1288  0.0000</r>
       <r>  12.1288  0.0000</r>
       <r>  12.1288  0.0000</r>
       <r>  12.3624  0.0000</r>
       <r>  12.3624  0.0000</r>
       <r>  12.3624  0.0000</r>
      </set>
      <set comment="kpoint 3">
       <r>  -2.3202  1.0000</r>
       <r>  -1.2496  1.0000</r>
       <r>   0.1629  1.0000</r>
       <r>   0.1630  1.0000</r>
       <r>   0.1630  1.0000</r>
       <r>   0.1630  1.0000</r>
       <r>   1.2113  1.0000</r>
       <r>   1.2113  1.0000</r>
       <r>   1.2113  1.0000</r>
       <r>   1.2113  1.0000</r>
       <r>   1.5574  1.0000</r>
       <r>   2.5934  1.0000</r>
       <r>   2.5934  1.0000</r>
       <r>   2.5934  1.0000</r>
       <r>   2.5934  1.0000</r>
       <r>   3.6082  1.0000</r>
       <r>   3.6083  1.0000</r>
       <r>   3.6083  1.0000</r>
       <r>   3.6083  1.0000</r>
       <r>   3.9563  1.0000</r>
       <r>   3.9563  1.0000</r>
       <r>   3.9563  1.0000</r>
       <r>   3.9564  1.0000</r>
       <r>   4.6032  1.0000</r>
       <r>   6.3998  1.0000</r>
       <r>   6.3998  1.0000</r>
       <r>   6.3998  1.0000</r>
       <r>   6.3998  1.0000</r>
       <r>   6.6196  1.0000</r>
       <r>   6.6196  1.0000</r>
       <r>   6.9074  1.0000</r>
       <r>   6.9074  1.0000</r>
       <r>   6.9074  1.0000</r>
       <r>   6.9074  1.0000</r>
       <r>   7.5863  1.0000</r>
       <r>   7.5863  1.0000</r>
       <r>   8.2477  1.0000</r>
       <r>   8.2477  1.0000</r>
       <r>   8.8792  1.0000</r>
       <r>   8.8792  1.0000</r>
       <r>   8.8792  1.0000</r>
       <r>   8.8792  1.0000</r>
       <r>   9.1231  1.0000</r>
       <r>   9.1232  1.0000</r>
       <r>   9.3169  1.0000</r>
       <r>   9.3169  1.0000</r>
       <r>   9.3169  1.0000</r>
       <r>   9.3169  1.0000</r>
       <r>   9.8532  0.0000</r>
       <r>   9.8532  0.0000</r>
       <r>   9.8532  0.0000</r>
       <r>   9.8532  0.0000</r>
       <r>  10.1739  0.0000</r>
       <r>  10.1739  0.0000</r>
       <r>  10.2371  0.0000</r>
       <r>  10.6030  0.0000</r>
       <r>  10.6031  0.0000</r>
       <r>  10.6031  0.0000</r>
       <r>  10.6031  0.0000</r>
       <r>  11.8256  0.0000</r>
       <r>  11.8256  0.0000</r>
       <r>  11.8256  0.0000</r>
       <r>  11.8256  0.0000</r>
       <r>  12.4572  0.0000</r>
       <r>  12.4572  0.0000</r>
       <r>  12.4572  0.0000</r>
       <r>  12.4572  0.0000</r>
       <r>  12.6052  0.0000</r>
       <r>  12.6052  0.0000</r>
       <r>  13.0808  0.0000</r>
       <r>  13.0831  0.0000</r>
       <r>  13.1101  0.0000</r>
      </set>
      <set comment="kpoint 4">
       <r>  -2.0644  1.0000</r>
       <r>  -1.7072  1.0000</r>
       <r>   0.4133  1.0000</r>
       <r>   0.4134  1.0000</r>
       <r>   0.4134  1.0000</r>
       <r>   0.4134  1.0000</r>
       <r>   0.7632  1.0000</r>
       <r>   0.7632  1.0000</r>
       <r>   0.7632  1.0000</r>
       <r>   0.7632  1.0000</r>
       <r>   2.4922  1.0000</r>
       <r>   2.8375  1.0000</r>
       <r>   2.8375  1.0000</r>
       <r>   2.8375  1.0000</r>
       <r>   2.8375  1.0000</r>
       <r>   3.1772  1.0000</r>
       <r>   3.1772  1.0000</r>
       <r>   3.1772  1.0000</r>
       <r>   3.1772  1.0000</r>
       <r>   3.5118  1.0000</r>
       <r>   4.8671  1.0000</r>
       <r>   4.8671  1.0000</r>
       <r>   4.8671  1.0000</r>
       <r>   4.8671  1.0000</r>
       <r>   5.8562  1.0000</r>
       <r>   5.8562  1.0000</r>
       <r>   5.8562  1.0000</r>
       <r>   5.8562  1.0000</r>
       <r>   6.8495  1.0000</r>
       <r>   6.8495  1.0000</r>
       <r>   7.1717  1.0000</r>
       <r>   7.1717  1.0000</r>
       <r>   7.2936  1.0000</r>
       <r>   7.2936  1.0000</r>
       <r>   7.2936  1.0000</r>
       <r>   7.2936  1.0000</r>
       <r>   8.2731  1.0000</r>
       <r>   8.2731  1.0000</r>
       <r>   8.2731  1.0000</r>
       <r>   8.2732  1.0000</r>
       <r>   8.4725  1.0000</r>
       <r>   8.4725  1.0000</r>
       <r>   8.7730  1.0000</r>
       <r>   8.7730  1.0000</r>
       <r>   9.1109  1.0000</r>
       <r>   9.1109  1.0000</r>
       <r>   9.1109  1.0000</r>
       <r>   9.1109  1.0000</r>
       <r>   9.4355  1.0000</r>
       <r>   9.4356  1.0000</r>
       <r>   9.4356  1.0000</r>
       <r>   9.4356  1.0000</r>
       <r>  10.9752  0.0000</r>
       <r>  10.9752  0.0000</r>
       <r>  10.9752  0.0000</r>
       <r>  10.9752  0.0000</r>
       <r>  11.0533  0.0000</r>
       <r>  11.0533  0.0000</r>
       <r>  11.3675  0.0000</r>
       <r>  11.3676  0.0000</r>
       <r>  11.3676  0.0000</r>
       <r>  11.3676  0.0000</r>
       <r>  11.7549  0.0000</r>
       <r>  12.0238  0.0000</r>
       <r>  12.0238  0.0000</r>
       <r>  13.3417  0.0000</r>
       <r>  13.3417  0.0000</r>
       <r>  13.3417  0.0000</r>
       <r>  13.3417  0.0000</r>
       <r>  13.3651  0.0000</r>
       <r>  13.3661  0.0000</r>
       <r>  13.3715  0.0000</r>
      </set>
      <set comment="kpoint 5">
       <r>  -2.4740  1.0000</r>
       <r>  -0.6926  1.0000</r>
       <r>   0.0093  1.0000</r>
       <r>   0.0124  1.0000</r>
       <r>   0.0124  1.0000</r>
       <r>   0.0156  1.0000</r>
       <r>   0.7130  1.0000</r>
       <r>   1.7533  1.0000</r>
       <r>   1.7565  1.0000</r>
       <r>   1.7565  1.0000</r>
       <r>   1.7597  1.0000</r>
       <r>   2.4442  1.0000</r>
       <r>   2.4451  1.0000</r>
       <r>   2.4477  1.0000</r>
       <r>   2.4486  1.0000</r>
       <r>   3.1283  1.0000</r>
       <r>   3.1316  1.0000</r>
       <r>   3.1316  1.0000</r>
       <r>   3.1348  1.0000</r>
       <r>   4.1120  1.0000</r>
       <r>   4.1128  1.0000</r>
       <r>   4.1152  1.0000</r>
       <r>   4.1160  1.0000</r>
       <r>   5.6127  1.0000</r>
       <r>   5.6135  1.0000</r>
       <r>   5.6160  1.0000</r>
       <r>   5.6168  1.0000</r>
       <r>   5.7164  1.0000</r>
       <r>   6.4817  1.0000</r>
       <r>   6.4817  1.0000</r>
       <r>   7.9681  1.0000</r>
       <r>   7.9717  1.0000</r>
       <r>   7.9717  1.0000</r>
       <r>   7.9752  1.0000</r>
       <r>   8.0936  1.0000</r>
       <r>   8.0937  1.0000</r>
       <r>   8.1096  1.0000</r>
       <r>   8.1097  1.0000</r>
       <r>   8.7372  1.0000</r>
       <r>   8.7402  1.0000</r>
       <r>   8.7403  1.0000</r>
       <r>   8.7433  1.0000</r>
       <r>   8.8679  1.0000</r>
       <r>   9.3873  1.0000</r>
       <r>   9.3873  1.0000</r>
       <r>   9.4554  1.0000</r>
       <r>   9.4554  1.0000</r>
       <r>  10.1153  0.0000</r>
       <r>  10.1185  0.0000</r>
       <r>  10.1185  0.0000</r>
       <r>  10.1217  0.0000</r>
       <r>  10.3524  0.0000</r>
       <r>  10.3536  0.0000</r>
       <r>  10.3565  0.0000</r>
       <r>  10.3578  0.0000</r>
       <r>  10.3612  0.0000</r>
       <r>  10.3640  0.0000</r>
       <r>  10.3645  0.0000</r>
       <r>  10.3673  0.0000</r>
       <r>  11.6628  0.0000</r>
       <r>  11.6659  0.0000</r>
       <r>  11.6659  0.0000</r>
       <r>  11.6691  0.0000</r>
       <r>  12.0205  0.0000</r>
       <r>  12.0205  0.0000</r>
       <r>  12.1274  0.0000</r>
       <r>  12.1288  0.0000</r>
       <r>  12.1288  0.0000</r>
       <r>  12.1301  0.0000</r>
       <r>  12.3609  0.0000</r>
       <r>  12.3624  0.0000</r>
       <r>  12.3634  0.0000</r>
      </set>
      <set comment="kpoint 6">
       <r>  -2.4227  1.0000</r>
       <r>  -0.6434  1.0000</r>
       <r>  -0.6408  1.0000</r>
       <r>   0.0626  1.0000</r>
       <r>   0.0626  1.0000</r>
       <r>   0.7616  1.0000</r>
       <r>   0.7642  1.0000</r>
       <r>   1.1119  1.0000</r>
       <r>   1.8041  1.0000</r>
       <r>   1.8051  1.0000</r>
       <r>   1.8068  1.0000</r>
       <r>   1.8078  1.0000</r>
       <r>   2.4949  1.0000</r>
       <r>   2.4958  1.0000</r>
       <r>   3.1783  1.0000</r>
       <r>   3.1793  1.0000</r>
       <r>   3.1810  1.0000</r>
       <r>   3.1820  1.0000</r>
       <r>   3.5114  1.0000</r>
       <r>   3.5114  1.0000</r>
       <r>   3.8602  1.0000</r>
       <r>   4.5958  1.0000</r>
       <r>   4.5958  1.0000</r>
       <r>   5.2318  1.0000</r>
       <r>   5.2318  1.0000</r>
       <r>   5.7630  1.0000</r>
       <r>   5.7637  1.0000</r>
       <r>   6.3051  1.0000</r>
       <r>   6.3052  1.0000</r>
       <r>   6.5277  1.0000</r>
       <r>   7.3868  1.0000</r>
       <r>   7.3894  1.0000</r>
       <r>   7.8422  1.0000</r>
       <r>   7.8422  1.0000</r>
       <r>   8.1383  1.0000</r>
       <r>   8.1414  1.0000</r>
       <r>   8.1553  1.0000</r>
       <r>   8.2625  1.0000</r>
       <r>   8.2625  1.0000</r>
       <r>   8.5901  1.0000</r>
       <r>   8.5925  1.0000</r>
       <r>   8.9124  1.0000</r>
       <r>   8.9133  1.0000</r>
       <r>   9.4322  1.0000</r>
       <r>   9.4353  1.0000</r>
       <r>   9.7446  0.0010</r>
       <r>   9.7456  0.0006</r>
       <r>   9.7472  0.0003</r>
       <r>   9.7483  0.0001</r>
       <r>   9.7609  0.0000</r>
       <r>   9.8717  0.0000</r>
       <r>   9.8737  0.0000</r>
       <r>  10.1251  0.0000</r>
       <r>  10.1281  0.0000</r>
       <r>  10.6540  0.0000</r>
       <r>  10.6540  0.0000</r>
       <r>  11.0553  0.0000</r>
       <r>  11.0559  0.0000</r>
       <r>  11.0568  0.0000</r>
       <r>  11.0579  0.0000</r>
       <r>  11.0602  0.0000</r>
       <r>  11.0620  0.0000</r>
       <r>  11.7489  0.0000</r>
       <r>  12.1886  0.0000</r>
       <r>  12.1893  0.0000</r>
       <r>  12.3644  0.0000</r>
       <r>  12.3810  0.0000</r>
       <r>  12.3812  0.0000</r>
       <r>  12.5319  0.0000</r>
       <r>  12.5340  0.0000</r>
       <r>  13.0585  0.0000</r>
       <r>  13.0608  0.0000</r>
      </set>
      <set comment="kpoint 7">
       <r>  -2.2690  1.0000</r>
       <r>  -1.1988  1.0000</r>
       <r>  -0.4907  1.0000</r>
       <r>   0.2131  1.0000</r>
       <r>   0.2131  1.0000</r>
       <r>   0.5635  1.0000</r>
       <r>   0.9124  1.0000</r>
       <r>   1.2610  1.0000</r>
       <r>   1.2610  1.0000</r>
       <r>   1.6069  1.0000</r>
       <r>   1.9532  1.0000</r>
       <r>   1.9540  1.0000</r>
       <r>   1.9546  1.0000</r>
       <r>   2.9822  1.0000</r>
       <r>   2.9822  1.0000</r>
       <r>   3.3248  1.0000</r>
       <r>   3.3254  1.0000</r>
       <r>   3.3263  1.0000</r>
       <r>   4.0040  1.0000</r>
       <r>   4.0040  1.0000</r>
       <r>   4.3053  1.0000</r>
       <r>   4.3053  1.0000</r>
       <r>   4.6511  1.0000</r>
       <r>   4.6777  1.0000</r>
       <r>   5.8069  1.0000</r>
       <r>   5.8070  1.0000</r>
       <r>   5.9041  1.0000</r>
       <r>   6.3072  1.0000</r>
       <r>   6.6656  1.0000</r>
       <r>   6.8827  1.0000</r>
       <r>   6.9332  1.0000</r>
       <r>   6.9332  1.0000</r>
       <r>   7.1082  1.0000</r>
       <r>   7.1082  1.0000</r>
       <r>   7.5775  1.0000</r>
       <r>   7.6325  1.0000</r>
       <r>   8.2629  1.0000</r>
       <r>   8.2629  1.0000</r>
       <r>   8.2786  1.0000</r>
       <r>   8.2903  1.0000</r>
       <r>   8.7042  1.0000</r>
       <r>   8.7042  1.0000</r>
       <r>   8.9586  1.0000</r>
       <r>   9.0464  1.0000</r>
       <r>   9.2309  1.0000</r>
       <r>   9.2309  1.0000</r>
       <r>   9.2507  1.0000</r>
       <r>   9.5731  1.0000</r>
       <r>   9.8711  0.0000</r>
       <r>   9.8842  0.0000</r>
       <r>  10.0223  0.0000</r>
       <r>  10.0224  0.0000</r>
       <r>  10.1380  0.0000</r>
       <r>  10.2205  0.0000</r>
       <r>  10.2796  0.0000</r>
       <r>  10.5490  0.0000</r>
       <r>  10.9843  0.0000</r>
       <r>  11.2199  0.0000</r>
       <r>  11.2568  0.0000</r>
       <r>  11.2569  0.0000</r>
       <r>  11.8489  0.0000</r>
       <r>  11.8489  0.0000</r>
       <r>  11.8511  0.0000</r>
       <r>  12.4978  0.0000</r>
       <r>  12.5076  0.0000</r>
       <r>  12.5310  0.0000</r>
       <r>  12.5310  0.0000</r>
       <r>  12.6946  0.0000</r>
       <r>  12.8141  0.0000</r>
       <r>  13.1277  0.0000</r>
       <r>  13.1571  0.0000</r>
       <r>  13.1937  0.0000</r>
      </set>
      <set comment="kpoint 8">
       <r>  -2.0133  1.0000</r>
       <r>  -1.6563  1.0000</r>
       <r>  -0.2389  1.0000</r>
       <r>   0.1129  1.0000</r>
       <r>   0.4634  1.0000</r>
       <r>   0.4634  1.0000</r>
       <r>   0.8130  1.0000</r>
       <r>   0.8130  1.0000</r>
       <r>   1.1613  1.0000</r>
       <r>   1.5087  1.0000</r>
       <r>   2.2002  1.0000</r>
       <r>   2.2003  1.0000</r>
       <r>   2.5406  1.0000</r>
       <r>   2.5436  1.0000</r>
       <r>   2.5443  1.0000</r>
       <r>   3.5600  1.0000</r>
       <r>   3.5661  1.0000</r>
       <r>   3.5664  1.0000</r>
       <r>   3.8983  1.0000</r>
       <r>   3.8983  1.0000</r>
       <r>   4.2436  1.0000</r>
       <r>   4.9131  1.0000</r>
       <r>   4.9131  1.0000</r>
       <r>   5.2423  1.0000</r>
       <r>   5.5786  1.0000</r>
       <r>   5.8980  1.0000</r>
       <r>   5.8980  1.0000</r>
       <r>   6.1382  1.0000</r>
       <r>   6.4650  1.0000</r>
       <r>   6.5528  1.0000</r>
       <r>   6.6819  1.0000</r>
       <r>   6.6820  1.0000</r>
       <r>   6.8956  1.0000</r>
       <r>   7.2178  1.0000</r>
       <r>   7.6590  1.0000</r>
       <r>   7.6590  1.0000</r>
       <r>   8.0040  1.0000</r>
       <r>   8.0040  1.0000</r>
       <r>   8.4842  1.0000</r>
       <r>   8.4842  1.0000</r>
       <r>   8.5065  1.0000</r>
       <r>   8.5098  1.0000</r>
       <r>   8.7769  1.0000</r>
       <r>   8.8095  1.0000</r>
       <r>   8.8095  1.0000</r>
       <r>   8.8338  1.0000</r>
       <r>   8.9818  1.0000</r>
       <r>   8.9818  1.0000</r>
       <r>   9.2631  1.0000</r>
       <r>   9.5496  1.0000</r>
       <r>   9.8053  0.0000</r>
       <r>  10.1306  0.0000</r>
       <r>  10.4213  0.0000</r>
       <r>  10.5615  0.0000</r>
       <r>  10.7778  0.0000</r>
       <r>  11.1000  0.0000</r>
       <r>  11.4797  0.0000</r>
       <r>  11.5597  0.0000</r>
       <r>  11.6721  0.0000</r>
       <r>  11.6721  0.0000</r>
       <r>  11.7930  0.0000</r>
       <r>  12.0231  0.0000</r>
       <r>  12.0706  0.0000</r>
       <r>  12.0737  0.0000</r>
       <r>  12.0738  0.0000</r>
       <r>  12.7302  0.0000</r>
       <r>  12.7302  0.0000</r>
       <r>  12.7347  0.0000</r>
       <r>  13.3998  0.0000</r>
       <r>  13.4293  0.0000</r>
       <r>  13.6962  0.0000</r>
       <r>  13.6991  0.0000</r>
      </set>
      <set comment="kpoint 9">
       <r>  -2.3202  1.0000</r>
       <r>  -1.2496  1.0000</r>
       <r>   0.1598  1.0000</r>
       <r>   0.1630  1.0000</r>
       <r>   0.1630  1.0000</r>
       <r>   0.1661  1.0000</r>
       <r>   1.2081  1.0000</r>
       <r>   1.2113  1.0000</r>
       <r>   1.2113  1.0000</r>
       <r>   1.2145  1.0000</r>
       <r>   1.5574  1.0000</r>
       <r>   2.5912  1.0000</r>
       <r>   2.5921  1.0000</r>
       <r>   2.5947  1.0000</r>
       <r>   2.5956  1.0000</r>
       <r>   3.6061  1.0000</r>
       <r>   3.6069  1.0000</r>
       <r>   3.6096  1.0000</r>
       <r>   3.6104  1.0000</r>
       <r>   3.9530  1.0000</r>
       <r>   3.9563  1.0000</r>
       <r>   3.9563  1.0000</r>
       <r>   3.9596  1.0000</r>
       <r>   4.6032  1.0000</r>
       <r>   6.3976  1.0000</r>
       <r>   6.3985  1.0000</r>
       <r>   6.4012  1.0000</r>
       <r>   6.4020  1.0000</r>
       <r>   6.6196  1.0000</r>
       <r>   6.6196  1.0000</r>
       <r>   6.9040  1.0000</r>
       <r>   6.9074  1.0000</r>
       <r>   6.9074  1.0000</r>
       <r>   6.9108  1.0000</r>
       <r>   7.5863  1.0000</r>
       <r>   7.5863  1.0000</r>
       <r>   8.2476  1.0000</r>
       <r>   8.2477  1.0000</r>
       <r>   8.8762  1.0000</r>
       <r>   8.8792  1.0000</r>
       <r>   8.8792  1.0000</r>
       <r>   8.8822  1.0000</r>
       <r>   9.1231  1.0000</r>
       <r>   9.1232  1.0000</r>
       <r>   9.3144  1.0000</r>
       <r>   9.3155  1.0000</r>
       <r>   9.3183  1.0000</r>
       <r>   9.3194  1.0000</r>
       <r>   9.8501  0.0000</r>
       <r>   9.8532  0.0000</r>
       <r>   9.8532  0.0000</r>
       <r>   9.8563  0.0000</r>
       <r>  10.1739  0.0000</r>
       <r>  10.1739  0.0000</r>
       <r>  10.2372  0.0000</r>
       <r>  10.6001  0.0000</r>
       <r>  10.6031  0.0000</r>
       <r>  10.6031  0.0000</r>
       <r>  10.6060  0.0000</r>
       <r>  11.8229  0.0000</r>
       <r>  11.8256  0.0000</r>
       <r>  11.8256  0.0000</r>
       <r>  11.8284  0.0000</r>
       <r>  12.4540  0.0000</r>
       <r>  12.4572  0.0000</r>
       <r>  12.4572  0.0000</r>
       <r>  12.4604  0.0000</r>
       <r>  12.6052  0.0000</r>
       <r>  12.6052  0.0000</r>
       <r>  13.0813  0.0000</r>
       <r>  13.0825  0.0000</r>
       <r>  13.1111  0.0000</r>
      </set>
      <set comment="kpoint 10">
       <r>  -2.2690  1.0000</r>
       <r>  -1.1988  1.0000</r>
       <r>  -0.4907  1.0000</r>
       <r>   0.2131  1.0000</r>
       <r>   0.2131  1.0000</r>
       <r>   0.5635  1.0000</r>
       <r>   0.9124  1.0000</r>
       <r>   1.2610  1.0000</r>
       <r>   1.2610  1.0000</r>
       <r>   1.6069  1.0000</r>
       <r>   1.9525  1.0000</r>
       <r>   1.9540  1.0000</r>
       <r>   1.9553  1.0000</r>
       <r>   2.9822  1.0000</r>
       <r>   2.9822  1.0000</r>
       <r>   3.3241  1.0000</r>
       <r>   3.3254  1.0000</r>
       <r>   3.3269  1.0000</r>
       <r>   4.0040  1.0000</r>
       <r>   4.0040  1.0000</r>
       <r>   4.3053  1.0000</r>
       <r>   4.3053  1.0000</r>
       <r>   4.6510  1.0000</r>
       <r>   4.6777  1.0000</r>
       <r>   5.8069  1.0000</r>
       <r>   5.8070  1.0000</r>
       <r>   5.9041  1.0000</r>
       <r>   6.3072  1.0000</r>
       <r>   6.6656  1.0000</r>
       <r>   6.8827  1.0000</r>
       <r>   6.9331  1.0000</r>
       <r>   6.9332  1.0000</r>
       <r>   7.1082  1.0000</r>
       <r>   7.1082  1.0000</r>
       <r>   7.5775  1.0000</r>
       <r>   7.6325  1.0000</r>
       <r>   8.2627  1.0000</r>
       <r>   8.2628  1.0000</r>
       <r>   8.2787  1.0000</r>
       <r>   8.2904  1.0000</r>
       <r>   8.7042  1.0000</r>
       <r>   8.7042  1.0000</r>
       <r>   8.9585  1.0000</r>
       <r>   9.0464  1.0000</r>
       <r>   9.2308  1.0000</r>
       <r>   9.2309  1.0000</r>
       <r>   9.2508  1.0000</r>
       <r>   9.5731  1.0000</r>
       <r>   9.8711  0.0000</r>
       <r>   9.8843  0.0000</r>
       <r>  10.0224  0.0000</r>
       <r>  10.0224  0.0000</r>
       <r>  10.1380  0.0000</r>
       <r>  10.2205  0.0000</r>
       <r>  10.2796  0.0000</r>
       <r>  10.5490  0.0000</r>
       <r>  10.9842  0.0000</r>
       <r>  11.2199  0.0000</r>
       <r>  11.2568  0.0000</r>
       <r>  11.2569  0.0000</r>
       <r>  11.8481  0.0000</r>
       <r>  11.8489  0.0000</r>
       <r>  11.8519  0.0000</r>
       <r>  12.4977  0.0000</r>
       <r>  12.5075  0.0000</r>
       <r>  12.5310  0.0000</r>
       <r>  12.5312  0.0000</r>
       <r>  12.6946  0.0000</r>
       <r>  12.8141  0.0000</r>
       <r>  13.1277  0.0000</r>
       <r>  13.1571  0.0000</r>
       <r>  13.1944  0.0000</r>
      </set>
      <set comment="kpoint 11">
       <r>  -2.1156  1.0000</r>
       <r>  -1.0481  1.0000</r>
       <r>  -1.0454  1.0000</r>
       <r>   0.0125  1.0000</r>
       <r>   0.3634  1.0000</r>
       <r>   0.3634  1.0000</r>
       <r>   1.4080  1.0000</r>
       <r>   1.4090  1.0000</r>
       <r>   1.4107  1.0000</r>
       <r>   1.4117  1.0000</r>
       <r>   1.7540  1.0000</r>
       <r>   1.7567  1.0000</r>
       <r>   2.4455  1.0000</r>
       <r>   2.4455  1.0000</r>
       <r>   2.7882  1.0000</r>
       <r>   2.7891  1.0000</r>
       <r>   4.1445  1.0000</r>
       <r>   4.1454  1.0000</r>
       <r>   4.1472  1.0000</r>
       <r>   4.1482  1.0000</r>
       <r>   4.7941  1.0000</r>
       <r>   4.7949  1.0000</r>
       <r>   4.8768  1.0000</r>
       <r>   4.8768  1.0000</r>
       <r>   5.4852  1.0000</r>
       <r>   5.5253  1.0000</r>
       <r>   5.5253  1.0000</r>
       <r>   5.7902  1.0000</r>
       <r>   5.7929  1.0000</r>
       <r>   6.8035  1.0000</r>
       <r>   6.8379  1.0000</r>
       <r>   6.8379  1.0000</r>
       <r>   7.4504  1.0000</r>
       <r>   7.4505  1.0000</r>
       <r>   7.7694  1.0000</r>
       <r>   7.7724  1.0000</r>
       <r>   7.9130  1.0000</r>
       <r>   7.9130  1.0000</r>
       <r>   8.1846  1.0000</r>
       <r>   8.1858  1.0000</r>
       <r>   8.1874  1.0000</r>
       <r>   8.1885  1.0000</r>
       <r>   8.2585  1.0000</r>
       <r>   8.2610  1.0000</r>
       <r>   8.4128  1.0000</r>
       <r>   8.7415  1.0000</r>
       <r>   9.7734  0.0000</r>
       <r>   9.7748  0.0000</r>
       <r>  10.3586  0.0000</r>
       <r>  10.3617  0.0000</r>
       <r>  10.4038  0.0000</r>
       <r>  10.4049  0.0000</r>
       <r>  10.7003  0.0000</r>
       <r>  10.8170  0.0000</r>
       <r>  10.8179  0.0000</r>
       <r>  10.8186  0.0000</r>
       <r>  10.8195  0.0000</r>
       <r>  11.0424  0.0000</r>
       <r>  11.0454  0.0000</r>
       <r>  11.3375  0.0000</r>
       <r>  11.3393  0.0000</r>
       <r>  11.5084  0.0000</r>
       <r>  12.2322  0.0000</r>
       <r>  12.2322  0.0000</r>
       <r>  13.0134  0.0000</r>
       <r>  13.0141  0.0000</r>
       <r>  13.2485  0.0000</r>
       <r>  13.2490  0.0000</r>
       <r>  13.2683  0.0000</r>
       <r>  13.2702  0.0000</r>
       <r>  13.6962  0.0000</r>
       <r>  13.6982  0.0000</r>
      </set>
      <set comment="kpoint 12">
       <r>  -1.8602  1.0000</r>
       <r>  -1.5036  1.0000</r>
       <r>  -0.7937  1.0000</r>
       <r>  -0.4403  1.0000</r>
       <r>   0.6134  1.0000</r>
       <r>   0.6134  1.0000</r>
       <r>   0.9626  1.0000</r>
       <r>   0.9626  1.0000</r>
       <r>   1.6575  1.0000</r>
       <r>   1.6575  1.0000</r>
       <r>   2.0019  1.0000</r>
       <r>   2.0032  1.0000</r>
       <r>   2.0036  1.0000</r>
       <r>   2.3470  1.0000</r>
       <r>   2.6884  1.0000</r>
       <r>   3.7058  1.0000</r>
       <r>   3.7120  1.0000</r>
       <r>   4.3795  1.0000</r>
       <r>   4.3796  1.0000</r>
       <r>   4.6869  1.0000</r>
       <r>   4.6869  1.0000</r>
       <r>   4.7177  1.0000</r>
       <r>   5.0331  1.0000</r>
       <r>   5.0486  1.0000</r>
       <r>   5.0486  1.0000</r>
       <r>   5.3660  1.0000</r>
       <r>   6.0095  1.0000</r>
       <r>   6.0095  1.0000</r>
       <r>   6.1878  1.0000</r>
       <r>   6.1878  1.0000</r>
       <r>   6.3708  1.0000</r>
       <r>   7.0336  1.0000</r>
       <r>   7.1445  1.0000</r>
       <r>   7.1445  1.0000</r>
       <r>   7.3152  1.0000</r>
       <r>   7.3561  1.0000</r>
       <r>   7.4649  1.0000</r>
       <r>   7.4649  1.0000</r>
       <r>   7.7682  1.0000</r>
       <r>   7.7683  1.0000</r>
       <r>   8.0018  1.0000</r>
       <r>   8.3253  1.0000</r>
       <r>   8.5871  1.0000</r>
       <r>   8.6682  1.0000</r>
       <r>   8.8070  1.0000</r>
       <r>   8.8070  1.0000</r>
       <r>   9.7816  0.0000</r>
       <r>   9.7816  0.0000</r>
       <r>   9.8366  0.0000</r>
       <r>   9.9552  0.0000</r>
       <r>  10.2750  0.0000</r>
       <r>  10.5506  0.0000</r>
       <r>  10.5930  0.0000</r>
       <r>  10.6019  0.0000</r>
       <r>  10.8445  0.0000</r>
       <r>  10.9190  0.0000</r>
       <r>  11.2401  0.0000</r>
       <r>  11.7013  0.0000</r>
       <r>  11.7013  0.0000</r>
       <r>  11.9018  0.0000</r>
       <r>  12.0383  0.0000</r>
       <r>  12.2113  0.0000</r>
       <r>  12.2210  0.0000</r>
       <r>  12.6653  0.0000</r>
       <r>  12.6653  0.0000</r>
       <r>  12.7015  0.0000</r>
       <r>  12.8855  0.0000</r>
       <r>  12.8855  0.0000</r>
       <r>  13.1956  0.0000</r>
       <r>  13.3507  0.0000</r>
       <r>  13.3509  0.0000</r>
       <r>  13.4993  0.0000</r>
      </set>
      <set comment="kpoint 13">
       <r>  -2.0644  1.0000</r>
       <r>  -1.7073  1.0000</r>
       <r>   0.4102  1.0000</r>
       <r>   0.4134  1.0000</r>
       <r>   0.4134  1.0000</r>
       <r>   0.4166  1.0000</r>
       <r>   0.7600  1.0000</r>
       <r>   0.7632  1.0000</r>
       <r>   0.7632  1.0000</r>
       <r>   0.7664  1.0000</r>
       <r>   2.4922  1.0000</r>
       <r>   2.8353  1.0000</r>
       <r>   2.8362  1.0000</r>
       <r>   2.8389  1.0000</r>
       <r>   2.8397  1.0000</r>
       <r>   3.1750  1.0000</r>
       <r>   3.1759  1.0000</r>
       <r>   3.1785  1.0000</r>
       <r>   3.1794  1.0000</r>
       <r>   3.5118  1.0000</r>
       <r>   4.8638  1.0000</r>
       <r>   4.8671  1.0000</r>
       <r>   4.8671  1.0000</r>
       <r>   4.8704  1.0000</r>
       <r>   5.8529  1.0000</r>
       <r>   5.8562  1.0000</r>
       <r>   5.8562  1.0000</r>
       <r>   5.8596  1.0000</r>
       <r>   6.8495  1.0000</r>
       <r>   6.8496  1.0000</r>
       <r>   7.1717  1.0000</r>
       <r>   7.1717  1.0000</r>
       <r>   7.2913  1.0000</r>
       <r>   7.2922  1.0000</r>
       <r>   7.2950  1.0000</r>
       <r>   7.2959  1.0000</r>
       <r>   8.2707  1.0000</r>
       <r>   8.2718  1.0000</r>
       <r>   8.2745  1.0000</r>
       <r>   8.2755  1.0000</r>
       <r>   8.4725  1.0000</r>
       <r>   8.4725  1.0000</r>
       <r>   8.7730  1.0000</r>
       <r>   8.7730  1.0000</r>
       <r>   9.1079  1.0000</r>
       <r>   9.1109  1.0000</r>
       <r>   9.1110  1.0000</r>
       <r>   9.1140  1.0000</r>
       <r>   9.4325  1.0000</r>
       <r>   9.4355  1.0000</r>
       <r>   9.4356  1.0000</r>
       <r>   9.4386  1.0000</r>
       <r>  10.9724  0.0000</r>
       <r>  10.9752  0.0000</r>
       <r>  10.9752  0.0000</r>
       <r>  10.9780  0.0000</r>
       <r>  11.0533  0.0000</r>
       <r>  11.0533  0.0000</r>
       <r>  11.3648  0.0000</r>
       <r>  11.3675  0.0000</r>
       <r>  11.3675  0.0000</r>
       <r>  11.3703  0.0000</r>
       <r>  11.7549  0.0000</r>
       <r>  12.0238  0.0000</r>
       <r>  12.0238  0.0000</r>
       <r>  13.3385  0.0000</r>
       <r>  13.3416  0.0000</r>
       <r>  13.3417  0.0000</r>
       <r>  13.3450  0.0000</r>
       <r>  13.3661  0.0000</r>
       <r>  13.3662  0.0000</r>
       <r>  13.3705  0.0000</r>
      </set>
      <set comment="kpoint 14">
       <r>  -2.0133  1.0000</r>
       <r>  -1.6563  1.0000</r>
       <r>  -0.2388  1.0000</r>
       <r>   0.1129  1.0000</r>
       <r>   0.4634  1.0000</r>
       <r>   0.4634  1.0000</r>
       <r>   0.8130  1.0000</r>
       <r>   0.8130  1.0000</r>
       <r>   1.1613  1.0000</r>
       <r>   1.5087  1.0000</r>
       <r>   2.2003  1.0000</r>
       <r>   2.2003  1.0000</r>
       <r>   2.5411  1.0000</r>
       <r>   2.5436  1.0000</r>
       <r>   2.5438  1.0000</r>
       <r>   3.5602  1.0000</r>
       <r>   3.5661  1.0000</r>
       <r>   3.5662  1.0000</r>
       <r>   3.8983  1.0000</r>
       <r>   3.8983  1.0000</r>
       <r>   4.2436  1.0000</r>
       <r>   4.9131  1.0000</r>
       <r>   4.9131  1.0000</r>
       <r>   5.2423  1.0000</r>
       <r>   5.5786  1.0000</r>
       <r>   5.8980  1.0000</r>
       <r>   5.8980  1.0000</r>
       <r>   6.1382  1.0000</r>
       <r>   6.4650  1.0000</r>
       <r>   6.5528  1.0000</r>
       <r>   6.6819  1.0000</r>
       <r>   6.6820  1.0000</r>
       <r>   6.8956  1.0000</r>
       <r>   7.2178  1.0000</r>
       <r>   7.6590  1.0000</r>
       <r>   7.6590  1.0000</r>
       <r>   8.0040  1.0000</r>
       <r>   8.0040  1.0000</r>
       <r>   8.4842  1.0000</r>
       <r>   8.4842  1.0000</r>
       <r>   8.5066  1.0000</r>
       <r>   8.5099  1.0000</r>
       <r>   8.7768  1.0000</r>
       <r>   8.8094  1.0000</r>
       <r>   8.8096  1.0000</r>
       <r>   8.8339  1.0000</r>
       <r>   8.9818  1.0000</r>
       <r>   8.9818  1.0000</r>
       <r>   9.2631  1.0000</r>
       <r>   9.5496  1.0000</r>
       <r>   9.8053  0.0000</r>
       <r>  10.1306  0.0000</r>
       <r>  10.4213  0.0000</r>
       <r>  10.5615  0.0000</r>
       <r>  10.7778  0.0000</r>
       <r>  11.1000  0.0000</r>
       <r>  11.4797  0.0000</r>
       <r>  11.5597  0.0000</r>
       <r>  11.6721  0.0000</r>
       <r>  11.6721  0.0000</r>
       <r>  11.7930  0.0000</r>
       <r>  12.0231  0.0000</r>
       <r>  12.0705  0.0000</r>
       <r>  12.0737  0.0000</r>
       <r>  12.0739  0.0000</r>
       <r>  12.7297  0.0000</r>
       <r>  12.7302  0.0000</r>
       <r>  12.7352  0.0000</r>
       <r>  13.3999  0.0000</r>
       <r>  13.4292  0.0000</r>
       <r>  13.6960  0.0000</r>
       <r>  13.6974  0.0000</r>
      </set>
      <set comment="kpoint 15">
       <r>  -1.8602  1.0000</r>
       <r>  -1.5036  1.0000</r>
       <r>  -0.7937  1.0000</r>
       <r>  -0.4403  1.0000</r>
       <r>   0.6134  1.0000</r>
       <r>   0.6134  1.0000</r>
       <r>   0.9625  1.0000</r>
       <r>   0.9626  1.0000</r>
       <r>   1.6575  1.0000</r>
       <r>   1.6575  1.0000</r>
       <r>   2.0012  1.0000</r>
       <r>   2.0031  1.0000</r>
       <r>   2.0042  1.0000</r>
       <r>   2.3470  1.0000</r>
       <r>   2.6884  1.0000</r>
       <r>   3.7058  1.0000</r>
       <r>   3.7120  1.0000</r>
       <r>   4.3796  1.0000</r>
       <r>   4.3796  1.0000</r>
       <r>   4.6869  1.0000</r>
       <r>   4.6869  1.0000</r>
       <r>   4.7177  1.0000</r>
       <r>   5.0330  1.0000</r>
       <r>   5.0486  1.0000</r>
       <r>   5.0487  1.0000</r>
       <r>   5.3660  1.0000</r>
       <r>   6.0094  1.0000</r>
       <r>   6.0095  1.0000</r>
       <r>   6.1878  1.0000</r>
       <r>   6.1878  1.0000</r>
       <r>   6.3708  1.0000</r>
       <r>   7.0336  1.0000</r>
       <r>   7.1445  1.0000</r>
       <r>   7.1445  1.0000</r>
       <r>   7.3153  1.0000</r>
       <r>   7.3560  1.0000</r>
       <r>   7.4649  1.0000</r>
       <r>   7.4649  1.0000</r>
       <r>   7.7682  1.0000</r>
       <r>   7.7683  1.0000</r>
       <r>   8.0018  1.0000</r>
       <r>   8.3253  1.0000</r>
       <r>   8.5871  1.0000</r>
       <r>   8.6682  1.0000</r>
       <r>   8.8070  1.0000</r>
       <r>   8.8070  1.0000</r>
       <r>   9.7816  0.0000</r>
       <r>   9.7816  0.0000</r>
       <r>   9.8366  0.0000</r>
       <r>   9.9552  0.0000</r>
       <r>  10.2750  0.0000</r>
       <r>  10.5506  0.0000</r>
       <r>  10.5930  0.0000</r>
       <r>  10.6020  0.0000</r>
       <r>  10.8444  0.0000</r>
       <r>  10.9190  0.0000</r>
       <r>  11.2401  0.0000</r>
       <r>  11.7013  0.0000</r>
       <r>  11.7013  0.0000</r>
       <r>  11.9018  0.0000</r>
       <r>  12.0383  0.0000</r>
       <r>  12.2114  0.0000</r>
       <r>  12.2209  0.0000</r>
       <r>  12.6653  0.0000</r>
       <r>  12.6653  0.0000</r>
       <r>  12.7015  0.0000</r>
       <r>  12.8855  0.0000</r>
       <r>  12.8855  0.0000</r>
       <r>  13.1956  0.0000</r>
       <r>  13.3507  0.0000</r>
       <r>  13.3507  0.0000</r>
       <r>  13.4730  0.0000</r>
      </set>
      <set comment="kpoint 16">
       <r>  -1.6054  1.0000</r>
       <r>  -1.2509  1.0000</r>
       <r>  -1.2483  1.0000</r>
       <r>  -0.8949  1.0000</r>
       <r>   0.8629  1.0000</r>
       <r>   0.8629  1.0000</r>
       <r>   1.2094  1.0000</r>
       <r>   1.2104  1.0000</r>
       <r>   1.2121  1.0000</r>
       <r>   1.2131  1.0000</r>
       <r>   1.5585  1.0000</r>
       <r>   1.5585  1.0000</r>
       <r>   2.9317  1.0000</r>
       <r>   2.9344  1.0000</r>
       <r>   3.2742  1.0000</r>
       <r>   3.2750  1.0000</r>
       <r>   3.9474  1.0000</r>
       <r>   3.9482  1.0000</r>
       <r>   4.2841  1.0000</r>
       <r>   4.2868  1.0000</r>
       <r>   5.2547  1.0000</r>
       <r>   5.2556  1.0000</r>
       <r>   5.2575  1.0000</r>
       <r>   5.2583  1.0000</r>
       <r>   5.3450  1.0000</r>
       <r>   5.3450  1.0000</r>
       <r>   5.9997  1.0000</r>
       <r>   5.9997  1.0000</r>
       <r>   6.0068  1.0000</r>
       <r>   6.0068  1.0000</r>
       <r>   6.6608  1.0000</r>
       <r>   6.6608  1.0000</r>
       <r>   6.7462  1.0000</r>
       <r>   6.7475  1.0000</r>
       <r>   6.7489  1.0000</r>
       <r>   6.7502  1.0000</r>
       <r>   7.2257  1.0000</r>
       <r>   7.2640  1.0000</r>
       <r>   7.5851  1.0000</r>
       <r>   7.5881  1.0000</r>
       <r>   7.9096  1.0000</r>
       <r>   8.0801  1.0000</r>
       <r>   8.0826  1.0000</r>
       <r>   8.5713  1.0000</r>
       <r>   9.6509  1.0000</r>
       <r>   9.6522  1.0000</r>
       <r>   9.6976  0.9998</r>
       <r>   9.6976  0.9998</r>
       <r>   9.7899  0.0000</r>
       <r>   9.8805  0.0000</r>
       <r>  10.6671  0.0000</r>
       <r>  10.6680  0.0000</r>
       <r>  10.6686  0.0000</r>
       <r>  10.6696  0.0000</r>
       <r>  11.4720  0.0000</r>
       <r>  11.4752  0.0000</r>
       <r>  11.6352  0.0000</r>
       <r>  11.6352  0.0000</r>
       <r>  11.7996  0.0000</r>
       <r>  11.8015  0.0000</r>
       <r>  12.0566  0.0000</r>
       <r>  12.0583  0.0000</r>
       <r>  12.1755  0.0000</r>
       <r>  12.1785  0.0000</r>
       <r>  12.4449  0.0000</r>
       <r>  12.4468  0.0000</r>
       <r>  12.7723  0.0000</r>
       <r>  12.7756  0.0000</r>
       <r>  13.2750  0.0000</r>
       <r>  13.2768  0.0000</r>
       <r>  13.5059  0.0000</r>
       <r>  13.5089  0.0000</r>
      </set>
      <set comment="kpoint 17">
       <r>  -2.4227  1.0000</r>
       <r>  -0.6421  1.0000</r>
       <r>  -0.6421  1.0000</r>
       <r>   0.0609  1.0000</r>
       <r>   0.0644  1.0000</r>
       <r>   0.7629  1.0000</r>
       <r>   0.7629  1.0000</r>
       <r>   1.1119  1.0000</r>
       <r>   1.8032  1.0000</r>
       <r>   1.8052  1.0000</r>
       <r>   1.8067  1.0000</r>
       <r>   1.8087  1.0000</r>
       <r>   2.4954  1.0000</r>
       <r>   2.4954  1.0000</r>
       <r>   3.1774  1.0000</r>
       <r>   3.1793  1.0000</r>
       <r>   3.1809  1.0000</r>
       <r>   3.1829  1.0000</r>
       <r>   3.5097  1.0000</r>
       <r>   3.5131  1.0000</r>
       <r>   3.8602  1.0000</r>
       <r>   4.5958  1.0000</r>
       <r>   4.5958  1.0000</r>
       <r>   5.2318  1.0000</r>
       <r>   5.2318  1.0000</r>
       <r>   5.7633  1.0000</r>
       <r>   5.7633  1.0000</r>
       <r>   6.3034  1.0000</r>
       <r>   6.3069  1.0000</r>
       <r>   6.5277  1.0000</r>
       <r>   7.3881  1.0000</r>
       <r>   7.3881  1.0000</r>
       <r>   7.8422  1.0000</r>
       <r>   7.8422  1.0000</r>
       <r>   8.1398  1.0000</r>
       <r>   8.1399  1.0000</r>
       <r>   8.1554  1.0000</r>
       <r>   8.2624  1.0000</r>
       <r>   8.2625  1.0000</r>
       <r>   8.5913  1.0000</r>
       <r>   8.5913  1.0000</r>
       <r>   8.9129  1.0000</r>
       <r>   8.9129  1.0000</r>
       <r>   9.4338  1.0000</r>
       <r>   9.4338  1.0000</r>
       <r>   9.7432  0.0019</r>
       <r>   9.7455  0.0006</r>
       <r>   9.7475  0.0002</r>
       <r>   9.7494  0.0001</r>
       <r>   9.7611  0.0000</r>
       <r>   9.8727  0.0000</r>
       <r>   9.8727  0.0000</r>
       <r>  10.1266  0.0000</r>
       <r>  10.1266  0.0000</r>
       <r>  10.6540  0.0000</r>
       <r>  10.6540  0.0000</r>
       <r>  11.0538  0.0000</r>
       <r>  11.0546  0.0000</r>
       <r>  11.0581  0.0000</r>
       <r>  11.0583  0.0000</r>
       <r>  11.0610  0.0000</r>
       <r>  11.0621  0.0000</r>
       <r>  11.7489  0.0000</r>
       <r>  12.1889  0.0000</r>
       <r>  12.1889  0.0000</r>
       <r>  12.3645  0.0000</r>
       <r>  12.3810  0.0000</r>
       <r>  12.3811  0.0000</r>
       <r>  12.5330  0.0000</r>
       <r>  12.5330  0.0000</r>
       <r>  13.0554  0.0000</r>
       <r>  13.0614  0.0000</r>
      </set>
      <set comment="kpoint 18">
       <r>  -2.3714  1.0000</r>
       <r>  -0.5935  1.0000</r>
       <r>  -0.5916  1.0000</r>
       <r>  -0.5897  1.0000</r>
       <r>   0.8109  1.0000</r>
       <r>   0.8128  1.0000</r>
       <r>   0.8146  1.0000</r>
       <r>   1.1598  1.0000</r>
       <r>   1.1617  1.0000</r>
       <r>   1.1636  1.0000</r>
       <r>   2.5414  1.0000</r>
       <r>   2.5431  1.0000</r>
       <r>   2.5444  1.0000</r>
       <r>   2.5444  1.0000</r>
       <r>   2.5457  1.0000</r>
       <r>   2.5473  1.0000</r>
       <r>   2.8846  1.0000</r>
       <r>   3.9060  1.0000</r>
       <r>   3.9079  1.0000</r>
       <r>   3.9098  1.0000</r>
       <r>   4.2090  1.0000</r>
       <r>   4.2096  1.0000</r>
       <r>   4.2101  1.0000</r>
       <r>   5.7107  1.0000</r>
       <r>   5.7112  1.0000</r>
       <r>   5.7118  1.0000</r>
       <r>   5.8097  1.0000</r>
       <r>   5.8103  1.0000</r>
       <r>   5.8108  1.0000</r>
       <r>   7.0143  1.0000</r>
       <r>   7.4177  1.0000</r>
       <r>   7.4192  1.0000</r>
       <r>   7.4208  1.0000</r>
       <r>   7.4208  1.0000</r>
       <r>   7.4224  1.0000</r>
       <r>   7.4239  1.0000</r>
       <r>   8.7538  1.0000</r>
       <r>   8.7541  1.0000</r>
       <r>   8.7559  1.0000</r>
       <r>   8.7559  1.0000</r>
       <r>   8.7578  1.0000</r>
       <r>   8.7581  1.0000</r>
       <r>   8.9563  1.0000</r>
       <r>   8.9569  1.0000</r>
       <r>   8.9575  1.0000</r>
       <r>   9.1369  1.0000</r>
       <r>   9.1388  1.0000</r>
       <r>   9.1407  1.0000</r>
       <r>  10.4445  0.0000</r>
       <r>  10.4456  0.0000</r>
       <r>  10.4469  0.0000</r>
       <r>  10.4470  0.0000</r>
       <r>  10.4482  0.0000</r>
       <r>  10.4493  0.0000</r>
       <r>  10.4906  0.0000</r>
       <r>  10.4927  0.0000</r>
       <r>  10.4936  0.0000</r>
       <r>  10.4937  0.0000</r>
       <r>  10.4948  0.0000</r>
       <r>  10.4968  0.0000</r>
       <r>  11.7569  0.0000</r>
       <r>  11.7581  0.0000</r>
       <r>  11.7593  0.0000</r>
       <r>  12.4549  0.0000</r>
       <r>  12.4561  0.0000</r>
       <r>  12.4573  0.0000</r>
       <r>  12.6454  0.0000</r>
       <r>  12.6458  0.0000</r>
       <r>  12.6469  0.0000</r>
       <r>  12.6469  0.0000</r>
       <r>  12.6480  0.0000</r>
       <r>  12.6483  0.0000</r>
      </set>
      <set comment="kpoint 19">
       <r>  -2.2179  1.0000</r>
       <r>  -1.1481  1.0000</r>
       <r>  -0.4403  1.0000</r>
       <r>  -0.4403  1.0000</r>
       <r>   0.6135  1.0000</r>
       <r>   0.6135  1.0000</r>
       <r>   0.9622  1.0000</r>
       <r>   0.9622  1.0000</r>
       <r>   1.3107  1.0000</r>
       <r>   1.6564  1.0000</r>
       <r>   2.0031  1.0000</r>
       <r>   2.0031  1.0000</r>
       <r>   2.3473  1.0000</r>
       <r>   2.6912  1.0000</r>
       <r>   2.6912  1.0000</r>
       <r>   3.3741  1.0000</r>
       <r>   3.3741  1.0000</r>
       <r>   3.7048  1.0000</r>
       <r>   3.7048  1.0000</r>
       <r>   4.0504  1.0000</r>
       <r>   4.6989  1.0000</r>
       <r>   4.7238  1.0000</r>
       <r>   4.7238  1.0000</r>
       <r>   4.7832  1.0000</r>
       <r>   5.4278  1.0000</r>
       <r>   5.9508  1.0000</r>
       <r>   5.9508  1.0000</r>
       <r>   6.3490  1.0000</r>
       <r>   6.3490  1.0000</r>
       <r>   6.4951  1.0000</r>
       <r>   6.4951  1.0000</r>
       <r>   6.9258  1.0000</r>
       <r>   6.9258  1.0000</r>
       <r>   7.3859  1.0000</r>
       <r>   7.3859  1.0000</r>
       <r>   7.8200  1.0000</r>
       <r>   7.8954  1.0000</r>
       <r>   7.8954  1.0000</r>
       <r>   8.0935  1.0000</r>
       <r>   8.6254  1.0000</r>
       <r>   8.6254  1.0000</r>
       <r>   8.9294  1.0000</r>
       <r>   8.9294  1.0000</r>
       <r>   9.0864  1.0000</r>
       <r>   9.0864  1.0000</r>
       <r>   9.3910  1.0000</r>
       <r>   9.3910  1.0000</r>
       <r>   9.4090  1.0000</r>
       <r>   9.4091  1.0000</r>
       <r>   9.9299  0.0000</r>
       <r>   9.9299  0.0000</r>
       <r>  10.2685  0.0000</r>
       <r>  10.2686  0.0000</r>
       <r>  10.3199  0.0000</r>
       <r>  10.7276  0.0000</r>
       <r>  10.8234  0.0000</r>
       <r>  10.8235  0.0000</r>
       <r>  11.2387  0.0000</r>
       <r>  11.2387  0.0000</r>
       <r>  11.4905  0.0000</r>
       <r>  11.4905  0.0000</r>
       <r>  11.9316  0.0000</r>
       <r>  11.9316  0.0000</r>
       <r>  12.5476  0.0000</r>
       <r>  12.5479  0.0000</r>
       <r>  12.5505  0.0000</r>
       <r>  12.5509  0.0000</r>
       <r>  13.0891  0.0000</r>
       <r>  13.0891  0.0000</r>
       <r>  13.2047  0.0000</r>
       <r>  13.2053  0.0000</r>
       <r>  13.2617  0.0000</r>
      </set>
      <set comment="kpoint 20">
       <r>  -1.9623  1.0000</r>
       <r>  -1.6054  1.0000</r>
       <r>  -0.1885  1.0000</r>
       <r>  -0.1885  1.0000</r>
       <r>   0.1630  1.0000</r>
       <r>   0.1630  1.0000</r>
       <r>   1.2109  1.0000</r>
       <r>   1.2110  1.0000</r>
       <r>   1.5577  1.0000</r>
       <r>   1.5582  1.0000</r>
       <r>   1.5591  1.0000</r>
       <r>   1.9046  1.0000</r>
       <r>   2.5903  1.0000</r>
       <r>   2.9350  1.0000</r>
       <r>   2.9350  1.0000</r>
       <r>   3.2743  1.0000</r>
       <r>   3.2743  1.0000</r>
       <r>   3.6088  1.0000</r>
       <r>   4.2840  1.0000</r>
       <r>   4.2911  1.0000</r>
       <r>   4.2912  1.0000</r>
       <r>   4.5921  1.0000</r>
       <r>   5.2881  1.0000</r>
       <r>   5.2881  1.0000</r>
       <r>   5.6204  1.0000</r>
       <r>   5.6204  1.0000</r>
       <r>   6.0920  1.0000</r>
       <r>   6.1846  1.0000</r>
       <r>   6.1846  1.0000</r>
       <r>   6.5105  1.0000</r>
       <r>   6.5105  1.0000</r>
       <r>   6.5767  1.0000</r>
       <r>   6.5767  1.0000</r>
       <r>   7.0502  1.0000</r>
       <r>   7.3878  1.0000</r>
       <r>   7.3878  1.0000</r>
       <r>   7.9036  1.0000</r>
       <r>   7.9036  1.0000</r>
       <r>   8.2095  1.0000</r>
       <r>   8.2095  1.0000</r>
       <r>   8.3663  1.0000</r>
       <r>   8.3663  1.0000</r>
       <r>   8.7148  1.0000</r>
       <r>   9.1730  1.0000</r>
       <r>   9.1730  1.0000</r>
       <r>   9.2900  1.0000</r>
       <r>   9.2900  1.0000</r>
       <r>   9.5054  1.0000</r>
       <r>   9.5054  1.0000</r>
       <r>   9.5151  1.0000</r>
       <r>   9.5152  1.0000</r>
       <r>   9.6902  1.0000</r>
       <r>  10.6546  0.0000</r>
       <r>  10.6546  0.0000</r>
       <r>  11.1290  0.0000</r>
       <r>  11.1290  0.0000</r>
       <r>  11.4910  0.0000</r>
       <r>  11.4910  0.0000</r>
       <r>  11.5364  0.0000</r>
       <r>  11.5364  0.0000</r>
       <r>  11.8249  0.0000</r>
       <r>  12.1192  0.0000</r>
       <r>  12.1192  0.0000</r>
       <r>  12.2108  0.0000</r>
       <r>  12.2108  0.0000</r>
       <r>  12.7141  0.0000</r>
       <r>  12.7141  0.0000</r>
       <r>  13.0837  0.0000</r>
       <r>  13.0837  0.0000</r>
       <r>  13.3966  0.0000</r>
       <r>  13.4317  0.0000</r>
       <r>  13.4317  0.0000</r>
      </set>
      <set comment="kpoint 21">
       <r>  -2.2690  1.0000</r>
       <r>  -1.1988  1.0000</r>
       <r>  -0.4907  1.0000</r>
       <r>   0.2113  1.0000</r>
       <r>   0.2148  1.0000</r>
       <r>   0.5635  1.0000</r>
       <r>   0.9124  1.0000</r>
       <r>   1.2592  1.0000</r>
       <r>   1.2627  1.0000</r>
       <r>   1.6069  1.0000</r>
       <r>   1.9521  1.0000</r>
       <r>   1.9539  1.0000</r>
       <r>   1.9559  1.0000</r>
       <r>   2.9804  1.0000</r>
       <r>   2.9839  1.0000</r>
       <r>   3.3235  1.0000</r>
       <r>   3.3256  1.0000</r>
       <r>   3.3273  1.0000</r>
       <r>   4.0022  1.0000</r>
       <r>   4.0058  1.0000</r>
       <r>   4.3037  1.0000</r>
       <r>   4.3069  1.0000</r>
       <r>   4.6510  1.0000</r>
       <r>   4.6777  1.0000</r>
       <r>   5.8053  1.0000</r>
       <r>   5.8086  1.0000</r>
       <r>   5.9041  1.0000</r>
       <r>   6.3072  1.0000</r>
       <r>   6.6656  1.0000</r>
       <r>   6.8827  1.0000</r>
       <r>   6.9314  1.0000</r>
       <r>   6.9349  1.0000</r>
       <r>   7.1063  1.0000</r>
       <r>   7.1100  1.0000</r>
       <r>   7.5775  1.0000</r>
       <r>   7.6325  1.0000</r>
       <r>   8.2610  1.0000</r>
       <r>   8.2646  1.0000</r>
       <r>   8.2787  1.0000</r>
       <r>   8.2904  1.0000</r>
       <r>   8.7023  1.0000</r>
       <r>   8.7062  1.0000</r>
       <r>   8.9585  1.0000</r>
       <r>   9.0464  1.0000</r>
       <r>   9.2288  1.0000</r>
       <r>   9.2328  1.0000</r>
       <r>   9.2509  1.0000</r>
       <r>   9.5731  1.0000</r>
       <r>   9.8711  0.0000</r>
       <r>   9.8842  0.0000</r>
       <r>  10.0204  0.0000</r>
       <r>  10.0243  0.0000</r>
       <r>  10.1380  0.0000</r>
       <r>  10.2205  0.0000</r>
       <r>  10.2796  0.0000</r>
       <r>  10.5491  0.0000</r>
       <r>  10.9842  0.0000</r>
       <r>  11.2198  0.0000</r>
       <r>  11.2560  0.0000</r>
       <r>  11.2578  0.0000</r>
       <r>  11.8464  0.0000</r>
       <r>  11.8500  0.0000</r>
       <r>  11.8524  0.0000</r>
       <r>  12.4978  0.0000</r>
       <r>  12.5074  0.0000</r>
       <r>  12.5295  0.0000</r>
       <r>  12.5327  0.0000</r>
       <r>  12.6946  0.0000</r>
       <r>  12.8141  0.0000</r>
       <r>  13.1276  0.0000</r>
       <r>  13.1567  0.0000</r>
       <r>  13.1920  0.0000</r>
      </set>
      <set comment="kpoint 22">
       <r>  -2.2179  1.0000</r>
       <r>  -1.1481  1.0000</r>
       <r>  -0.4416  1.0000</r>
       <r>  -0.4390  1.0000</r>
       <r>   0.6122  1.0000</r>
       <r>   0.6148  1.0000</r>
       <r>   0.9609  1.0000</r>
       <r>   0.9636  1.0000</r>
       <r>   1.3107  1.0000</r>
       <r>   1.6564  1.0000</r>
       <r>   2.0018  1.0000</r>
       <r>   2.0045  1.0000</r>
       <r>   2.3473  1.0000</r>
       <r>   2.6908  1.0000</r>
       <r>   2.6916  1.0000</r>
       <r>   3.3728  1.0000</r>
       <r>   3.3755  1.0000</r>
       <r>   3.7044  1.0000</r>
       <r>   3.7052  1.0000</r>
       <r>   4.0504  1.0000</r>
       <r>   4.6989  1.0000</r>
       <r>   4.7224  1.0000</r>
       <r>   4.7252  1.0000</r>
       <r>   4.7832  1.0000</r>
       <r>   5.4278  1.0000</r>
       <r>   5.9505  1.0000</r>
       <r>   5.9512  1.0000</r>
       <r>   6.3476  1.0000</r>
       <r>   6.3505  1.0000</r>
       <r>   6.4946  1.0000</r>
       <r>   6.4955  1.0000</r>
       <r>   6.9254  1.0000</r>
       <r>   6.9262  1.0000</r>
       <r>   7.3846  1.0000</r>
       <r>   7.3873  1.0000</r>
       <r>   7.8200  1.0000</r>
       <r>   7.8940  1.0000</r>
       <r>   7.8969  1.0000</r>
       <r>   8.0935  1.0000</r>
       <r>   8.6241  1.0000</r>
       <r>   8.6268  1.0000</r>
       <r>   8.9286  1.0000</r>
       <r>   8.9303  1.0000</r>
       <r>   9.0859  1.0000</r>
       <r>   9.0869  1.0000</r>
       <r>   9.3902  1.0000</r>
       <r>   9.3918  1.0000</r>
       <r>   9.4085  1.0000</r>
       <r>   9.4096  1.0000</r>
       <r>   9.9291  0.0000</r>
       <r>   9.9307  0.0000</r>
       <r>  10.2684  0.0000</r>
       <r>  10.2687  0.0000</r>
       <r>  10.3199  0.0000</r>
       <r>  10.7276  0.0000</r>
       <r>  10.8224  0.0000</r>
       <r>  10.8245  0.0000</r>
       <r>  11.2373  0.0000</r>
       <r>  11.2401  0.0000</r>
       <r>  11.4889  0.0000</r>
       <r>  11.4920  0.0000</r>
       <r>  11.9307  0.0000</r>
       <r>  11.9325  0.0000</r>
       <r>  12.5476  0.0000</r>
       <r>  12.5482  0.0000</r>
       <r>  12.5498  0.0000</r>
       <r>  12.5514  0.0000</r>
       <r>  13.0882  0.0000</r>
       <r>  13.0901  0.0000</r>
       <r>  13.2034  0.0000</r>
       <r>  13.2065  0.0000</r>
       <r>  13.2615  0.0000</r>
      </set>
      <set comment="kpoint 23">
       <r>  -2.0644  1.0000</r>
       <r>  -0.9974  1.0000</r>
       <r>  -0.9948  1.0000</r>
       <r>  -0.2892  1.0000</r>
       <r>   0.0627  1.0000</r>
       <r>   0.7619  1.0000</r>
       <r>   0.7646  1.0000</r>
       <r>   1.1115  1.0000</r>
       <r>   1.8032  1.0000</r>
       <r>   1.8053  1.0000</r>
       <r>   1.8068  1.0000</r>
       <r>   2.1496  1.0000</r>
       <r>   2.1523  1.0000</r>
       <r>   2.8371  1.0000</r>
       <r>   2.8379  1.0000</r>
       <r>   3.1769  1.0000</r>
       <r>   3.5177  1.0000</r>
       <r>   3.5204  1.0000</r>
       <r>   4.4953  1.0000</r>
       <r>   4.4961  1.0000</r>
       <r>   4.8418  1.0000</r>
       <r>   4.8426  1.0000</r>
       <r>   4.8584  1.0000</r>
       <r>   4.8611  1.0000</r>
       <r>   5.5271  1.0000</r>
       <r>   5.8357  1.0000</r>
       <r>   5.8384  1.0000</r>
       <r>   5.9989  1.0000</r>
       <r>   5.9997  1.0000</r>
       <r>   6.0908  1.0000</r>
       <r>   6.4616  1.0000</r>
       <r>   6.4623  1.0000</r>
       <r>   7.0452  1.0000</r>
       <r>   7.0483  1.0000</r>
       <r>   7.2962  1.0000</r>
       <r>   7.5806  1.0000</r>
       <r>   7.5833  1.0000</r>
       <r>   7.9138  1.0000</r>
       <r>   7.9147  1.0000</r>
       <r>   8.1172  1.0000</r>
       <r>   8.4684  1.0000</r>
       <r>   8.4703  1.0000</r>
       <r>   8.6245  1.0000</r>
       <r>   8.8877  1.0000</r>
       <r>   8.8905  1.0000</r>
       <r>   9.1978  1.0000</r>
       <r>   9.6832  1.0000</r>
       <r>   9.6863  1.0000</r>
       <r>  10.2040  0.0000</r>
       <r>  10.2056  0.0000</r>
       <r>  10.4123  0.0000</r>
       <r>  10.4143  0.0000</r>
       <r>  10.4342  0.0000</r>
       <r>  10.4355  0.0000</r>
       <r>  10.7194  0.0000</r>
       <r>  10.7208  0.0000</r>
       <r>  11.3661  0.0000</r>
       <r>  11.3686  0.0000</r>
       <r>  11.4157  0.0000</r>
       <r>  11.5221  0.0000</r>
       <r>  11.5237  0.0000</r>
       <r>  11.5683  0.0000</r>
       <r>  12.0305  0.0000</r>
       <r>  12.0309  0.0000</r>
       <r>  12.7015  0.0000</r>
       <r>  12.7027  0.0000</r>
       <r>  13.0808  0.0000</r>
       <r>  13.2350  0.0000</r>
       <r>  13.2365  0.0000</r>
       <r>  13.3425  0.0000</r>
       <r>  13.4974  0.0000</r>
       <r>  13.5039  0.0000</r>
      </set>
      <set comment="kpoint 24">
       <r>  -1.8092  1.0000</r>
       <r>  -1.4528  1.0000</r>
       <r>  -0.7431  1.0000</r>
       <r>  -0.3899  1.0000</r>
       <r>  -0.0377  1.0000</r>
       <r>   0.3134  1.0000</r>
       <r>   1.0124  1.0000</r>
[...]
       <r>   8.6682  1.0000</r>
       <r>   8.8050  1.0000</r>
       <r>   8.8089  1.0000</r>
       <r>   9.7796  0.0000</r>
       <r>   9.7835  0.0000</r>
       <r>   9.8366  0.0000</r>
       <r>   9.9551  0.0000</r>
       <r>  10.2750  0.0000</r>
       <r>  10.5505  0.0000</r>
       <r>  10.5926  0.0000</r>
       <r>  10.6023  0.0000</r>
       <r>  10.8444  0.0000</r>
       <r>  10.9191  0.0000</r>
       <r>  11.2401  0.0000</r>
       <r>  11.6992  0.0000</r>
       <r>  11.7034  0.0000</r>
       <r>  11.9018  0.0000</r>
       <r>  12.0382  0.0000</r>
       <r>  12.2114  0.0000</r>
       <r>  12.2209  0.0000</r>
       <r>  12.6632  0.0000</r>
       <r>  12.6674  0.0000</r>
       <r>  12.7015  0.0000</r>
       <r>  12.8843  0.0000</r>
       <r>  12.8866  0.0000</r>
       <r>  13.1957  0.0000</r>
       <r>  13.3493  0.0000</r>
       <r>  13.3525  0.0000</r>
       <r>  13.4755  0.0000</r>
      </set>
      <set comment="kpoint 34">
       <r>  -1.8092  1.0000</r>
       <r>  -1.4528  1.0000</r>
       <r>  -0.7431  1.0000</r>
       <r>  -0.3899  1.0000</r>
       <r>  -0.0377  1.0000</r>
       <r>   0.3134  1.0000</r>
       <r>   1.0124  1.0000</r>
       <r>   1.3591  1.0000</r>
       <r>   1.3611  1.0000</r>
       <r>   1.7067  1.0000</r>
       <r>   2.0516  1.0000</r>
       <r>   2.3958  1.0000</r>
       <r>   2.3970  1.0000</r>
       <r>   2.7372  1.0000</r>
       <r>   2.7394  1.0000</r>
       <r>   3.7541  1.0000</r>
       <r>   3.7590  1.0000</r>
       <r>   3.7604  1.0000</r>
       <r>   4.0904  1.0000</r>
       <r>   4.4328  1.0000</r>
       <r>   4.7649  1.0000</r>
       <r>   5.0686  1.0000</r>
       <r>   5.0805  1.0000</r>
       <r>   5.1577  1.0000</r>
       <r>   5.4127  1.0000</r>
       <r>   5.4228  1.0000</r>
       <r>   5.7321  1.0000</r>
       <r>   5.8153  1.0000</r>
       <r>   6.3232  1.0000</r>
       <r>   6.3943  1.0000</r>
       <r>   6.4656  1.0000</r>
       <r>   6.5590  1.0000</r>
       <r>   6.6454  1.0000</r>
       <r>   6.8716  1.0000</r>
       <r>   7.1043  1.0000</r>
       <r>   7.1073  1.0000</r>
       <r>   7.1873  1.0000</r>
       <r>   7.6413  1.0000</r>
       <r>   7.7205  1.0000</r>
       <r>   7.8462  1.0000</r>
       <r>   8.1360  1.0000</r>
       <r>   8.1901  1.0000</r>
       <r>   8.4639  1.0000</r>
       <r>   9.1383  1.0000</r>
       <r>   9.1660  1.0000</r>
       <r>   9.3242  1.0000</r>
       <r>   9.5167  1.0000</r>
       <r>   9.9522  0.0000</r>
       <r>  10.2068  0.0000</r>
       <r>  10.2924  0.0000</r>
       <r>  10.4197  0.0000</r>
       <r>  10.4890  0.0000</r>
       <r>  10.5840  0.0000</r>
       <r>  10.6538  0.0000</r>
       <r>  10.6556  0.0000</r>
       <r>  10.9887  0.0000</r>
       <r>  11.0878  0.0000</r>
       <r>  11.2128  0.0000</r>
       <r>  11.5983  0.0000</r>
       <r>  11.7323  0.0000</r>
       <r>  11.8906  0.0000</r>
       <r>  12.0516  0.0000</r>
       <r>  12.4049  0.0000</r>
       <r>  12.4085  0.0000</r>
       <r>  12.5306  0.0000</r>
       <r>  12.5582  0.0000</r>
       <r>  12.7911  0.0000</r>
       <r>  12.9884  0.0000</r>
       <r>  13.0418  0.0000</r>
       <r>  13.1761  0.0000</r>
       <r>  13.3484  0.0000</r>
       <r>  13.3681  0.0000</r>
      </set>
      <set comment="kpoint 35">
       <r>  -1.6563  1.0000</r>
       <r>  -1.3004  1.0000</r>
       <r>  -0.5930  1.0000</r>
       <r>  -0.5903  1.0000</r>
       <r>  -0.2401  1.0000</r>
       <r>  -0.2375  1.0000</r>
       <r>   0.4636  1.0000</r>
       <r>   0.8132  1.0000</r>
       <r>   2.1980  1.0000</r>
       <r>   2.2007  1.0000</r>
       <r>   2.5420  1.0000</r>
       <r>   2.5447  1.0000</r>
       <r>   2.8841  1.0000</r>
       <r>   3.2265  1.0000</r>
       <r>   3.2273  1.0000</r>
       <r>   3.5646  1.0000</r>
       <r>   3.5654  1.0000</r>
       <r>   3.8992  1.0000</r>
       <r>   3.9031  1.0000</r>
       <r>   3.9058  1.0000</r>
       <r>   4.8750  1.0000</r>
       <r>   4.9042  1.0000</r>
       <r>   4.9071  1.0000</r>
       <r>   5.2220  1.0000</r>
       <r>   5.2228  1.0000</r>
       <r>   5.5520  1.0000</r>
       <r>   5.5528  1.0000</r>
       <r>   5.6256  1.0000</r>
       <r>   6.1768  1.0000</r>
       <r>   6.1795  1.0000</r>
       <r>   6.2775  1.0000</r>
       <r>   6.2802  1.0000</r>
       <r>   6.2892  1.0000</r>
       <r>   6.3808  1.0000</r>
       <r>   6.9225  1.0000</r>
       <r>   6.9253  1.0000</r>
       <r>   7.6638  1.0000</r>
       <r>   7.6666  1.0000</r>
       <r>   7.6684  1.0000</r>
       <r>   7.6694  1.0000</r>
       <r>   8.6435  1.0000</r>
       <r>   8.6445  1.0000</r>
       <r>   8.9159  1.0000</r>
       <r>   8.9175  1.0000</r>
       <r>   9.2537  1.0000</r>
       <r>   9.2552  1.0000</r>
       <r>   9.4935  1.0000</r>
       <r>   9.4948  1.0000</r>
       <r>  10.2595  0.0000</r>
       <r>  10.2613  0.0000</r>
       <r>  10.3168  0.0000</r>
       <r>  10.5635  0.0000</r>
       <r>  10.5664  0.0000</r>
       <r>  11.2143  0.0000</r>
       <r>  11.2144  0.0000</r>
       <r>  11.2860  0.0000</r>
       <r>  11.3307  0.0000</r>
       <r>  11.3310  0.0000</r>
       <r>  11.5246  0.0000</r>
       <r>  11.5276  0.0000</r>
       <r>  11.5717  0.0000</r>
       <r>  11.9466  0.0000</r>
       <r>  11.9483  0.0000</r>
       <r>  12.0875  0.0000</r>
       <r>  12.2960  0.0000</r>
       <r>  12.2977  0.0000</r>
       <r>  12.4404  0.0000</r>
       <r>  13.0434  0.0000</r>
       <r>  13.0462  0.0000</r>
       <r>  13.1968  0.0000</r>
       <r>  13.1983  0.0000</r>
       <r>  13.8578  0.0000</r>
      </set>
      <set comment="kpoint 36">
       <r>  -1.4020  1.0000</r>
       <r>  -1.0481  1.0000</r>
       <r>  -1.0454  1.0000</r>
       <r>  -0.6926  1.0000</r>
       <r>  -0.3395  1.0000</r>
       <r>   0.0112  1.0000</r>
       <r>   0.0139  1.0000</r>
       <r>   0.3635  1.0000</r>
       <r>   2.4451  1.0000</r>
       <r>   2.7867  1.0000</r>
       <r>   2.7894  1.0000</r>
       <r>   3.1266  1.0000</r>
       <r>   3.1288  1.0000</r>
       <r>   3.1303  1.0000</r>
       <r>   3.4683  1.0000</r>
       <r>   3.4692  1.0000</r>
       <r>   4.1397  1.0000</r>
       <r>   4.1406  1.0000</r>
       <r>   4.1423  1.0000</r>
       <r>   4.1448  1.0000</r>
       <r>   4.4721  1.0000</r>
       <r>   4.4730  1.0000</r>
       <r>   4.4754  1.0000</r>
       <r>   4.4781  1.0000</r>
       <r>   5.1358  1.0000</r>
       <r>   5.1367  1.0000</r>
       <r>   5.4379  1.0000</r>
       <r>   5.4406  1.0000</r>
       <r>   5.4574  1.0000</r>
       <r>   5.7800  1.0000</r>
       <r>   5.7829  1.0000</r>
       <r>   6.0834  1.0000</r>
       <r>   6.9418  1.0000</r>
       <r>   6.9446  1.0000</r>
       <r>   7.2473  1.0000</r>
       <r>   7.2482  1.0000</r>
       <r>   7.5788  1.0000</r>
       <r>   7.8873  1.0000</r>
       <r>   7.8883  1.0000</r>
       <r>   8.2157  1.0000</r>
       <r>   8.2185  1.0000</r>
       <r>   8.5045  1.0000</r>
       <r>   8.5062  1.0000</r>
       <r>   8.5588  1.0000</r>
       <r>   9.4176  1.0000</r>
       <r>   9.5296  1.0000</r>
       <r>   9.5312  1.0000</r>
       <r>   9.7807  0.0000</r>
       <r>   9.7838  0.0000</r>
       <r>  10.1309  0.0000</r>
       <r>  10.1322  0.0000</r>
       <r>  10.4969  0.0000</r>
       <r>  10.7059  0.0000</r>
       <r>  10.7074  0.0000</r>
       <r>  11.0829  0.0000</r>
       <r>  11.0860  0.0000</r>
       <r>  11.2034  0.0000</r>
       <r>  11.2793  0.0000</r>
       <r>  11.5589  0.0000</r>
       <r>  11.5612  0.0000</r>
       <r>  11.8840  0.0000</r>
       <r>  12.1686  0.0000</r>
       <r>  12.1702  0.0000</r>
       <r>  12.5036  0.0000</r>
       <r>  12.5044  0.0000</r>
       <r>  12.7526  0.0000</r>
       <r>  12.7545  0.0000</r>
       <r>  13.1324  0.0000</r>
       <r>  13.4037  0.0000</r>
       <r>  13.4044  0.0000</r>
       <r>  13.7730  0.0000</r>
       <r>  13.7745  0.0000</r>
      </set>
      <set comment="kpoint 37">
       <r>  -1.6054  1.0000</r>
       <r>  -1.2496  1.0000</r>
       <r>  -1.2496  1.0000</r>
       <r>  -0.8949  1.0000</r>
       <r>   0.8612  1.0000</r>
       <r>   0.8646  1.0000</r>
       <r>   1.2085  1.0000</r>
       <r>   1.2105  1.0000</r>
       <r>   1.2120  1.0000</r>
       <r>   1.2140  1.0000</r>
       <r>   1.5568  1.0000</r>
       <r>   1.5602  1.0000</r>
       <r>   2.9330  1.0000</r>
       <r>   2.9330  1.0000</r>
       <r>   3.2746  1.0000</r>
       <r>   3.2746  1.0000</r>
       <r>   3.9478  1.0000</r>
       <r>   3.9478  1.0000</r>
       <r>   4.2855  1.0000</r>
       <r>   4.2855  1.0000</r>
       <r>   5.2540  1.0000</r>
       <r>   5.2558  1.0000</r>
       <r>   5.2573  1.0000</r>
       <r>   5.2591  1.0000</r>
       <r>   5.3450  1.0000</r>
       <r>   5.3450  1.0000</r>
       <r>   5.9994  1.0000</r>
       <r>   5.9996  1.0000</r>
       <r>   6.0068  1.0000</r>
       <r>   6.0071  1.0000</r>
       <r>   6.6608  1.0000</r>
       <r>   6.6608  1.0000</r>
       <r>   6.7456  1.0000</r>
       <r>   6.7475  1.0000</r>
       <r>   6.7490  1.0000</r>
       <r>   6.7508  1.0000</r>
       <r>   7.2257  1.0000</r>
       <r>   7.2640  1.0000</r>
       <r>   7.5866  1.0000</r>
       <r>   7.5866  1.0000</r>
       <r>   7.9096  1.0000</r>
       <r>   8.0814  1.0000</r>
       <r>   8.0814  1.0000</r>
       <r>   8.5713  1.0000</r>
       <r>   9.6515  1.0000</r>
       <r>   9.6516  1.0000</r>
       <r>   9.6957  0.9999</r>
       <r>   9.6996  0.9995</r>
       <r>   9.7899  0.0000</r>
       <r>   9.8805  0.0000</r>
       <r>  10.6659  0.0000</r>
       <r>  10.6668  0.0000</r>
       <r>  10.6699  0.0000</r>
       <r>  10.6708  0.0000</r>
       <r>  11.4736  0.0000</r>
       <r>  11.4736  0.0000</r>
       <r>  11.6332  0.0000</r>
       <r>  11.6373  0.0000</r>
       <r>  11.8005  0.0000</r>
       <r>  11.8005  0.0000</r>
       <r>  12.0575  0.0000</r>
       <r>  12.0575  0.0000</r>
       <r>  12.1769  0.0000</r>
       <r>  12.1770  0.0000</r>
       <r>  12.4458  0.0000</r>
       <r>  12.4459  0.0000</r>
       <r>  12.7740  0.0000</r>
       <r>  12.7740  0.0000</r>
       <r>  13.2759  0.0000</r>
       <r>  13.2759  0.0000</r>
       <r>  13.5074  0.0000</r>
       <r>  13.5074  0.0000</r>
      </set>
      <set comment="kpoint 38">
       <r>  -1.5545  1.0000</r>
       <r>  -1.1989  1.0000</r>
       <r>  -1.1988  1.0000</r>
       <r>  -0.8443  1.0000</r>
       <r>   0.2132  1.0000</r>
       <r>   0.5635  1.0000</r>
       <r>   0.5635  1.0000</r>
       <r>   0.9129  1.0000</r>
       <r>   1.6077  1.0000</r>
       <r>   1.9537  1.0000</r>
       <r>   1.9537  1.0000</r>
       <r>   2.2983  1.0000</r>
       <r>   2.9819  1.0000</r>
       <r>   2.9819  1.0000</r>
       <r>   3.3232  1.0000</r>
       <r>   3.3232  1.0000</r>
       <r>   3.9960  1.0000</r>
       <r>   3.9960  1.0000</r>
       <r>   4.3333  1.0000</r>
       <r>   4.3333  1.0000</r>
       <r>   4.6650  1.0000</r>
       <r>   4.6650  1.0000</r>
       <r>   4.9705  1.0000</r>
       <r>   4.9705  1.0000</r>
       <r>   5.6296  1.0000</r>
       <r>   5.6296  1.0000</r>
       <r>   5.7192  1.0000</r>
       <r>   5.7192  1.0000</r>
       <r>   6.3831  1.0000</r>
       <r>   6.3831  1.0000</r>
       <r>   6.4736  1.0000</r>
       <r>   6.4736  1.0000</r>
       <r>   6.5517  1.0000</r>
       <r>   6.8592  1.0000</r>
       <r>   6.8593  1.0000</r>
       <r>   7.0141  1.0000</r>
       <r>   7.1220  1.0000</r>
       <r>   7.1221  1.0000</r>
       <r>   7.4260  1.0000</r>
       <r>   7.4260  1.0000</r>
       <r>   7.5537  1.0000</r>
       <r>   8.3035  1.0000</r>
       <r>   8.3035  1.0000</r>
       <r>   9.0489  1.0000</r>
       <r>   9.0814  1.0000</r>
       <r>  10.0533  0.0000</r>
       <r>  10.0533  0.0000</r>
       <r>  10.1569  0.0000</r>
       <r>  10.2888  0.0000</r>
       <r>  10.2889  0.0000</r>
       <r>  10.4057  0.0000</r>
       <r>  10.5807  0.0000</r>
       <r>  10.8054  0.0000</r>
       <r>  10.8054  0.0000</r>
       <r>  11.0209  0.0000</r>
       <r>  11.1647  0.0000</r>
       <r>  11.1647  0.0000</r>
       <r>  11.3743  0.0000</r>
       <r>  11.3743  0.0000</r>
       <r>  11.6395  0.0000</r>
       <r>  11.6396  0.0000</r>
       <r>  12.1083  0.0000</r>
       <r>  12.1083  0.0000</r>
       <r>  12.3396  0.0000</r>
       <r>  12.3950  0.0000</r>
       <r>  12.3950  0.0000</r>
       <r>  12.4788  0.0000</r>
       <r>  12.4788  0.0000</r>
       <r>  13.7642  0.0000</r>
       <r>  13.7674  0.0000</r>
       <r>  13.7962  0.0000</r>
       <r>  13.8003  0.0000</r>
      </set>
      <set comment="kpoint 39">
       <r>  -1.4020  1.0000</r>
       <r>  -1.0468  1.0000</r>
       <r>  -1.0468  1.0000</r>
       <r>  -0.6926  1.0000</r>
       <r>  -0.3395  1.0000</r>
       <r>   0.0125  1.0000</r>
       <r>   0.0125  1.0000</r>
       <r>   0.3635  1.0000</r>
       <r>   2.4451  1.0000</r>
       <r>   2.7881  1.0000</r>
       <r>   2.7881  1.0000</r>
       <r>   3.1278  1.0000</r>
       <r>   3.1282  1.0000</r>
       <r>   3.1296  1.0000</r>
       <r>   3.4687  1.0000</r>
       <r>   3.4687  1.0000</r>
       <r>   4.1403  1.0000</r>
       <r>   4.1403  1.0000</r>
       <r>   4.1434  1.0000</r>
       <r>   4.1434  1.0000</r>
       <r>   4.4726  1.0000</r>
       <r>   4.4726  1.0000</r>
       <r>   4.4766  1.0000</r>
       <r>   4.4766  1.0000</r>
       <r>   5.1363  1.0000</r>
       <r>   5.1363  1.0000</r>
       <r>   5.4393  1.0000</r>
       <r>   5.4393  1.0000</r>
       <r>   5.4573  1.0000</r>
       <r>   5.7814  1.0000</r>
       <r>   5.7814  1.0000</r>
       <r>   6.0834  1.0000</r>
       <r>   6.9432  1.0000</r>
       <r>   6.9432  1.0000</r>
       <r>   7.2477  1.0000</r>
       <r>   7.2477  1.0000</r>
       <r>   7.5788  1.0000</r>
       <r>   7.8878  1.0000</r>
       <r>   7.8878  1.0000</r>
       <r>   8.2171  1.0000</r>
       <r>   8.2171  1.0000</r>
       <r>   8.5053  1.0000</r>
       <r>   8.5053  1.0000</r>
       <r>   8.5588  1.0000</r>
       <r>   9.4176  1.0000</r>
       <r>   9.5304  1.0000</r>
       <r>   9.5304  1.0000</r>
       <r>   9.7822  0.0000</r>
       <r>   9.7822  0.0000</r>
       <r>  10.1315  0.0000</r>
       <r>  10.1315  0.0000</r>
       <r>  10.4969  0.0000</r>
       <r>  10.7066  0.0000</r>
       <r>  10.7066  0.0000</r>
       <r>  11.0844  0.0000</r>
       <r>  11.0844  0.0000</r>
       <r>  11.2033  0.0000</r>
       <r>  11.2793  0.0000</r>
       <r>  11.5600  0.0000</r>
       <r>  11.5600  0.0000</r>
       <r>  11.8840  0.0000</r>
       <r>  12.1694  0.0000</r>
       <r>  12.1694  0.0000</r>
       <r>  12.5040  0.0000</r>
       <r>  12.5040  0.0000</r>
       <r>  12.7535  0.0000</r>
       <r>  12.7535  0.0000</r>
       <r>  13.1324  0.0000</r>
       <r>  13.4041  0.0000</r>
       <r>  13.4041  0.0000</r>
       <r>  13.7738  0.0000</r>
       <r>  13.7738  0.0000</r>
      </set>
      <set comment="kpoint 40">
       <r>  -1.1481  1.0000</r>
       <r>  -0.7956  1.0000</r>
       <r>  -0.7937  1.0000</r>
       <r>  -0.7918  1.0000</r>
       <r>  -0.4422  1.0000</r>
       <r>  -0.4403  1.0000</r>
       <r>  -0.4384  1.0000</r>
       <r>  -0.0879  1.0000</r>
       <r>   3.3695  1.0000</r>
       <r>   3.3714  1.0000</r>
       <r>   3.3733  1.0000</r>
       <r>   3.7075  1.0000</r>
       <r>   3.7091  1.0000</r>
       <r>   3.7105  1.0000</r>
       <r>   3.7105  1.0000</r>
       <r>   3.7118  1.0000</r>
       <r>   3.7135  1.0000</r>
       <r>   4.0460  1.0000</r>
       <r>   4.0466  1.0000</r>
       <r>   4.0472  1.0000</r>
       <r>   4.3797  1.0000</r>
       <r>   4.3802  1.0000</r>
       <r>   4.3808  1.0000</r>
       <r>   4.7107  1.0000</r>
       <r>   4.7123  1.0000</r>
       <r>   4.7137  1.0000</r>
       <r>   4.7137  1.0000</r>
       <r>   4.7151  1.0000</r>
       <r>   4.7167  1.0000</r>
       <r>   5.0387  1.0000</r>
       <r>   5.0406  1.0000</r>
       <r>   5.0425  1.0000</r>
       <r>   7.7996  1.0000</r>
       <r>   7.8016  1.0000</r>
       <r>   7.8036  1.0000</r>
       <r>   8.1306  1.0000</r>
       <r>   8.1313  1.0000</r>
       <r>   8.1320  1.0000</r>
       <r>   8.7580  1.0000</r>
       <r>   8.7584  1.0000</r>
       <r>   8.7601  1.0000</r>
       <r>   8.7601  1.0000</r>
       <r>   8.7617  1.0000</r>
       <r>   8.7621  1.0000</r>
       <r>   9.0976  1.0000</r>
       <r>   9.0981  1.0000</r>
       <r>   9.0997  1.0000</r>
       <r>   9.0997  1.0000</r>
       <r>   9.1013  1.0000</r>
       <r>   9.1018  1.0000</r>
       <r>   9.7097  0.9680</r>
       <r>   9.7105  0.9581</r>
       <r>   9.7114  0.9462</r>
       <r>  10.0599  0.0000</r>
       <r>  10.0620  0.0000</r>
       <r>  10.0641  0.0000</r>
       <r>  12.0872  0.0000</r>
       <r>  12.7222  0.0000</r>
       <r>  12.7227  0.0000</r>
       <r>  12.7232  0.0000</r>
       <r>  13.0263  0.0000</r>
       <r>  13.0267  0.0000</r>
       <r>  13.0283  0.0000</r>
       <r>  13.0284  0.0000</r>
       <r>  13.0299  0.0000</r>
       <r>  13.0301  0.0000</r>
       <r>  13.0494  0.0000</r>
       <r>  13.0505  0.0000</r>
       <r>  13.0516  0.0000</r>
       <r>  13.3635  0.0000</r>
       <r>  13.3646  0.0000</r>
       <r>  13.3657  0.0000</r>
      </set>
     </set>
    </set>
   </array>
  </eigenvalues>
 </calculation>
 <structure name="finalpos" >
  <crystal>
   <varray name="basis" >
    <v>       7.67067981      0.00000000      0.00000000</v>
    <v>       0.00000000      7.67067981      0.00000000</v>
    <v>       0.00000000      0.00000000      7.67067981</v>
   </varray>
   <i name="volume">    451.33765106</i>
   <varray name="rec_basis" >
    <v>       0.13036654      0.00000000      0.00000000</v>
    <v>       0.00000000      0.13036654      0.00000000</v>
    <v>       0.00000000      0.00000000      0.13036654</v>
   </varray>
  </crystal>
  <varray name="positions" >
   <v>       0.25130367      0.25000000      0.00000000</v>
   <v>       0.75000000      0.25000000      0.00000000</v>
   <v>       0.25000000      0.75000000      0.00000000</v>
   <v>       0.75000000      0.75000000      0.00000000</v>
   <v>       0.25000000      0.25000000      0.50000000</v>
   <v>       0.75000000      0.25000000      0.50000000</v>
   <v>       0.25000000      0.75000000      0.50000000</v>
   <v>       0.75000000      0.75000000      0.50000000</v>
   <v>       0.25000000      0.00000000      0.25000000</v>
   <v>       0.75000000      0.00000000      0.25000000</v>
   <v>       0.25000000      0.50000000      0.25000000</v>
   <v>       0.75000000      0.50000000      0.25000000</v>
   <v>       0.25000000      0.00000000      0.75000000</v>
   <v>       0.75000000      0.00000000      0.75000000</v>
   <v>       0.25000000      0.50000000      0.75000000</v>
   <v>       0.75000000      0.50000000      0.75000000</v>
   <v>       0.00000000      0.25000000      0.25000000</v>
   <v>       0.50000000      0.25000000      0.25000000</v>
   <v>       0.00000000      0.75000000      0.25000000</v>
   <v>       0.50000000      0.75000000      0.25000000</v>
   <v>       0.00000000      0.25000000      0.75000000</v>
   <v>       0.50000000      0.25000000      0.75000000</v>
   <v>       0.00000000      0.75000000      0.75000000</v>
   <v>       0.50000000      0.75000000      0.75000000</v>
   <v>       0.00000000      0.00000000      0.00000000</v>
   <v>       0.50000000      0.00000000      0.00000000</v>
   <v>       0.00000000      0.50000000      0.00000000</v>
   <v>       0.50000000      0.50000000      0.00000000</v>
   <v>       0.00000000      0.00000000      0.50000000</v>
   <v>       0.50000000      0.00000000      0.50000000</v>
   <v>       0.00000000      0.50000000      0.50000000</v>
   <v>       0.50000000      0.50000000      0.50000000</v>
  </varray>
 </structure>
</modeling>
