32   
1    

1    
  0.0100000000000000   0.0000000000000000   0.0000000000000000
  -0.0813893800   -0.0000000000   -0.0000000000
   0.0015382400   -0.0000000000    0.0000000000
  -0.0003688800    0.0000000000   -0.0000000000
  -0.0004178700   -0.0000000000   -0.0000000000
  -0.0003688800    0.0000000000    0.0000000000
  -0.0004178700   -0.0000000000    0.0000000000
  -0.0000303500   -0.0000000000   -0.0000000000
  -0.0002958000   -0.0000000000    0.0000000000
   0.0109382800    0.0130035400    0.0000000000
   0.0106463900   -0.0125831300    0.0000000000
   0.0109382800   -0.0130035400   -0.0000000000
   0.0106463900    0.0125831300   -0.0000000000
   0.0002215400    0.0001440800   -0.0000000000
   0.0002206800   -0.0001450500   -0.0000000000
   0.0002215400   -0.0001440800   -0.0000000000
   0.0002206800    0.0001450500   -0.0000000000
   0.0109382800   -0.0000000000    0.0130035400
   0.0106463900   -0.0000000000   -0.0125831300
   0.0002215400    0.0000000000    0.0001440800
   0.0002206800    0.0000000000   -0.0001450500
   0.0109382800    0.0000000000   -0.0130035400
   0.0106463900   -0.0000000000    0.0125831300
   0.0002215400    0.0000000000   -0.0001440800
   0.0002206800   -0.0000000000    0.0001450500
  -0.0021030200   -0.0000243400   -0.0000243400
   0.0005138300    0.0000012400    0.0000012400
  -0.0021030200    0.0000243400   -0.0000243400
   0.0005138300   -0.0000012400    0.0000012400
  -0.0021030200   -0.0000243400    0.0000243400
   0.0005138300    0.0000012400   -0.0000012400
  -0.0021030200    0.0000243400    0.0000243400
   0.0005138300   -0.0000012400   -0.0000012400
